                         Program Version 5.0.0 -  RELEASE  -
|  1> !BLYP D3BJ RIJCOSX def2-SVPD def2/J TightSCF xyzfile
|  2>
|  3> *xyzfile 0 1 D3.xyz
|  4>
|  5> %MaxCore 64000
|  6>
|  7> %pal nprocs 4
|  8> end
|  9>
| 10> %scf
| 11>   MaxIter 150
| 12> end
| 13>
| 14>
| 15>                          ****END OF INPUT****

CARTESIAN COORDINATES (ANGSTROEM)
---------------------------------
  C     -4.382623   -1.670889    1.216201
  C     -5.763539   -1.915170    0.705012
  C     -3.281728   -2.191272    0.294361
  C     -5.572364   -5.807798   -0.816445
  S     -6.903179   -4.619033   -0.528458
  H     -5.840812   -2.115205   -0.300646
  H     -6.408823   -1.148656    0.936124
  H     -6.174781   -2.790606    1.051433
  O     -8.114853   -5.250932   -0.957007
  O     -6.532715   -3.426838   -1.314848
  H     -4.328618   -2.139223    2.198103
  H     -4.261583   -0.597399    1.357248
  F     -6.865632   -4.294957    0.914118
  C     -3.474641   -3.605898   -0.259608
  H     -2.354548   -2.127602    0.871433
  H     -3.166611   -1.499693   -0.545037
  C     -3.827078   -4.661097    0.786174
  H     -2.560559   -3.889391   -0.788050
  H     -4.255932   -3.570040   -1.019300
  C     -4.457800   -5.941875    0.229195
  H     -5.177347   -5.542575   -1.797714
  H     -6.074202   -6.768894   -0.921272
  H     -4.530506   -4.253640    1.511979
  H     -2.933400   -4.932302    1.356825
  H     -3.681064   -6.562236   -0.229885
  H     -4.843942   -6.512728    1.075805

 Total Charge           Charge          ....    0
 Multiplicity           Mult            ....    1
 Number of Electrons    NEL             ....   98
 Basis Dimension        Dim             ....  356

ORBITAL ENERGIES
----------------

  NO   OCC          E(Eh)            E(eV)
   0   2.0000     -88.386561     -2405.1206
   1   2.0000     -24.406492      -664.1344
   2   2.0000     -18.810439      -511.8581
   3   2.0000     -18.794767      -511.4316
   4   2.0000      -9.983270      -271.6586
   5   2.0000      -9.954732      -270.8820
   6   2.0000      -9.931597      -270.2525
   7   2.0000      -9.916922      -269.8532
   8   2.0000      -9.910129      -269.6683
   9   2.0000      -9.900910      -269.4175
  10   2.0000      -9.855685      -268.1868
  11   2.0000      -7.923043      -215.5970
  12   2.0000      -5.962380      -162.2446
  13   2.0000      -5.956129      -162.0745
  14   2.0000      -5.954380      -162.0269
  15   2.0000      -1.244533       -33.8655
  16   2.0000      -1.022431       -27.8218
  17   2.0000      -0.926045       -25.1990
  18   2.0000      -0.755983       -20.5713
  19   2.0000      -0.718515       -19.5518
  20   2.0000      -0.676190       -18.4001
  21   2.0000      -0.654160       -17.8006
  22   2.0000      -0.621932       -16.9236
  23   2.0000      -0.584035       -15.8924
  24   2.0000      -0.553341       -15.0572
  25   2.0000      -0.517895       -14.0926
  26   2.0000      -0.513577       -13.9751
  27   2.0000      -0.487856       -13.2752
  28   2.0000      -0.483087       -13.1455
  29   2.0000      -0.443049       -12.0560
  30   2.0000      -0.436146       -11.8681
  31   2.0000      -0.421375       -11.4662
  32   2.0000      -0.406195       -11.0531
  33   2.0000      -0.399895       -10.8817
  34   2.0000      -0.395695       -10.7674
  35   2.0000      -0.377827       -10.2812
  36   2.0000      -0.354276        -9.6403
  37   2.0000      -0.349199        -9.5022
  38   2.0000      -0.342640        -9.3237
  39   2.0000      -0.340553        -9.2669
  40   2.0000      -0.315134        -8.5752
  41   2.0000      -0.308097        -8.3837
  42   2.0000      -0.302130        -8.2214
  43   2.0000      -0.289878        -7.8880
  44   2.0000      -0.286133        -7.7861
  45   2.0000      -0.279038        -7.5930
  46   2.0000      -0.264376        -7.1940
  47   2.0000      -0.261601        -7.1185
  48   2.0000      -0.242960        -6.6113
  49   0.0000      -0.033647        -0.9156
  50   0.0000      -0.003448        -0.0938
  51   0.0000       0.007590         0.2065
  52   0.0000       0.009924         0.2700
  53   0.0000       0.015924         0.4333

MULLIKEN ATOMIC CHARGES
-----------------------
   0 C :    0.289989
   1 C :    2.503582
   2 C :    0.766995
   3 C :    0.512977
   4 S :    1.297630
   5 H :   -0.539607
   6 H :   -0.569164
   7 H :   -1.173518
   8 O :   -0.604814
   9 O :   -0.604563
  10 H :    0.013128
  11 H :   -0.616131
  12 F :   -0.496854
  13 C :    0.436214
  14 H :   -0.213429
  15 H :   -0.080632
  16 C :    0.346050
  17 H :   -0.511020
  18 H :   -0.187934
  19 C :    0.813281
  20 H :    0.021179
  21 H :   -0.474352
  22 H :   -0.165514
  23 H :   -0.403201
  24 H :   -0.169467
  25 H :   -0.190825
Sum of atomic charges:    0.0000000

LOEWDIN ATOMIC CHARGES
----------------------
   0 C :   -0.034893
   1 C :    0.150883
   2 C :   -0.011989
   3 C :   -0.020615
   4 S :    1.129123
   5 H :   -0.100096
   6 H :   -0.021683
   7 H :   -0.115030
   8 O :   -0.421251
   9 O :   -0.437358
  10 H :    0.009353
  11 H :    0.012496
  12 F :   -0.258278
  13 C :   -0.000473
  14 H :    0.011526
  15 H :    0.022464
  16 C :   -0.004958
  17 H :    0.021047
  18 H :   -0.019862
  19 C :   -0.017178
  20 H :    0.025152
  21 H :    0.011976
  22 H :   -0.009573
  23 H :    0.027784
  24 H :    0.028597
  25 H :    0.022835

  Mayer bond orders larger than 0.100000
B(  0-C ,  1-C ) :   0.9642 B(  0-C ,  2-C ) :   1.1064 B(  0-C ,  5-H ) :   0.3969
B(  0-C ,  6-H ) :   0.1340 B(  0-C ,  7-H ) :   0.5177 B(  0-C , 10-H ) :   0.5961
B(  0-C , 11-H ) :   0.8228 B(  0-C , 13-C ) :   0.1340 B(  0-C , 14-H ) :   0.2158
B(  0-C , 15-H ) :   0.2144 B(  0-C , 16-C ) :   0.1111 B(  1-C ,  2-C ) :   0.2611
B(  1-C ,  5-H ) :  -0.4694 B(  1-C ,  6-H ) :   0.1878 B(  1-C ,  7-H ) :  -1.3314
B(  1-C , 10-H ) :   0.2641 B(  1-C , 17-H ) :   0.1642 B(  2-C ,  7-H ) :  -0.1219
B(  2-C , 10-H ) :   0.1675 B(  2-C , 13-C ) :   1.2222 B(  2-C , 14-H ) :   0.6162
B(  2-C , 15-H ) :   0.5035 B(  2-C , 17-H ) :   0.1338 B(  2-C , 18-H ) :   0.1632
B(  3-C ,  4-S ) :   0.8941 B(  3-C ,  8-O ) :   0.1072 B(  3-C , 16-C ) :   0.1501
B(  3-C , 19-C ) :   1.1552 B(  3-C , 20-H ) :   0.8091 B(  3-C , 21-H ) :   0.7317
B(  3-C , 24-H ) :   0.1856 B(  3-C , 25-H ) :   0.1565 B(  4-S ,  8-O ) :   1.6572
B(  4-S ,  9-O ) :   1.4703 B(  4-S , 12-F ) :   0.6504 B(  5-H ,  6-H ) :  -0.1432
B(  5-H ,  7-H ) :   1.2575 B(  5-H ,  9-O ) :   0.2172 B(  5-H , 11-H ) :   0.1933
B(  5-H , 17-H ) :  -0.1573 B(  5-H , 18-H ) :   0.2011 B(  6-H ,  7-H ) :   0.1406
B(  6-H , 11-H ) :  -0.1785 B(  6-H , 13-C ) :   0.1042 B(  6-H , 17-H ) :   0.1623
B(  6-H , 18-H ) :  -0.1955 B(  7-H , 10-H ) :  -0.1493 B(  7-H , 11-H ) :   0.1335
B(  7-H , 12-F ) :   0.2340 B(  7-H , 17-H ) :  -0.1701 B(  9-O , 12-F ) :   0.1296
B( 10-H , 11-H ) :  -0.3184 B( 10-H , 22-H ) :   0.1807 B( 11-H , 14-H ) :   0.1302
B( 13-C , 14-H ) :   0.2208 B( 13-C , 15-H ) :   0.3337 B( 13-C , 16-C ) :   1.1675
B( 13-C , 17-H ) :   0.6111 B( 13-C , 18-H ) :   0.6931 B( 13-C , 22-H ) :   0.1589
B( 13-C , 23-H ) :   0.1970 B( 14-H , 15-H ) :  -0.1624 B( 16-C , 17-H ) :   0.2215
B( 16-C , 18-H ) :   0.2400 B( 16-C , 19-C ) :   1.2152 B( 16-C , 22-H ) :   0.7683
B( 16-C , 23-H ) :   0.6349 B( 16-C , 24-H ) :   0.1810 B( 16-C , 25-H ) :   0.3307
B( 19-C , 20-H ) :   0.1164 B( 19-C , 21-H ) :   0.2585 B( 19-C , 22-H ) :   0.1135
B( 19-C , 23-H ) :   0.1073 B( 19-C , 24-H ) :   0.5976 B( 19-C , 25-H ) :   0.5014
B( 23-H , 25-H ) :   0.1027 B( 24-H , 25-H ) :  -0.1505

Dispersion correction           -0.061620372
FINAL SINGLE POINT ENERGY      -923.488921906536

DIPOLE MOMENT
-------------
                                X             Y             Z
Electronic contribution:    -16.54549      -6.83085      -3.47440
Nuclear contribution   :     17.63907       5.79106       3.97609
                        -----------------------------------------
Total Dipole Moment    :      1.09359      -1.03978       0.50170
                        -----------------------------------------
Magnitude (a.u.)       :      1.59022
Magnitude (Debye)      :      4.04201

Rotational constants in cm-1:     0.048663     0.025472     0.020259
Rotational constants in MHz :  1458.892793   763.621130   607.350055

                             ****ORCA TERMINATED NORMALLY****
TOTAL RUN TIME: 0 days 0 hours 0 minutes 31 seconds 579 msec
