                         Program Version 5.0.0 -  RELEASE  -
|  1> !DLPNO-CCSD(T) aug-cc-pVTZ aug-cc-pVTZ/C TightSCF TightPNO RIJCOSX def2/J
|  2> *xyz -1 1
|  3> C          3.84189       -6.95161       -3.63283
|  4> S          4.31812       -6.91593       -5.36869
|  5> O          5.40615       -5.89948       -5.51297
|  6> O          3.11191       -6.44508       -6.04379
|  7> O          4.76340       -8.23942       -5.69863
|  8> H          3.06224       -7.67071       -3.49159
|  9> H          3.49217       -5.98401       -3.33897
| 10> H          4.68822       -7.22131       -3.03626
| 11> *
| 12>
| 13> %MaxCore 64000
| 14>
| 15> %pal nprocs 2
| 16> end
| 17>
| 18> %scf
| 19>   MaxIter 150
| 20> end
| 21>
| 22>
| 23>                          ****END OF INPUT****

CARTESIAN COORDINATES (ANGSTROEM)
---------------------------------
  C      3.841890   -6.951610   -3.632830
  S      4.318120   -6.915930   -5.368690
  O      5.406150   -5.899480   -5.512970
  O      3.111910   -6.445080   -6.043790
  O      4.763400   -8.239420   -5.698630
  H      3.062240   -7.670710   -3.491590
  H      3.492170   -5.984010   -3.338970
  H      4.688220   -7.221310   -3.036260

 Total Charge           Charge          ....   -1
 Multiplicity           Mult            ....    1
 Number of Electrons    NEL             ....   50
 Basis Dimension        Dim             ....  303

ORBITAL ENERGIES
----------------

  NO   OCC          E(Eh)            E(eV)
   0   2.0000     -91.985414     -2503.0504
   1   2.0000     -20.336562      -553.3860
   2   2.0000     -20.325608      -553.0879
   3   2.0000     -20.319261      -552.9152
   4   2.0000     -11.085314      -301.6467
   5   2.0000      -8.948117      -243.4906
   6   2.0000      -6.634353      -180.5299
   7   2.0000      -6.632969      -180.4923
   8   2.0000      -6.632904      -180.4905
   9   2.0000      -1.268988       -34.5309
  10   2.0000      -1.129378       -30.7319
  11   2.0000      -1.096270       -29.8310
  12   2.0000      -0.847078       -23.0502
  13   2.0000      -0.606239       -16.4966
  14   2.0000      -0.484887       -13.1944
  15   2.0000      -0.468636       -12.7522
  16   2.0000      -0.467677       -12.7261
  17   2.0000      -0.422684       -11.5018
  18   2.0000      -0.417967       -11.3735
  19   2.0000      -0.322211        -8.7678
  20   2.0000      -0.316332        -8.6078
  21   2.0000      -0.278454        -7.5771
  22   2.0000      -0.261488        -7.1155
  23   2.0000      -0.254297        -6.9198
  24   2.0000      -0.226449        -6.1620
  25   0.0000       0.126891         3.4529
  26   0.0000       0.139827         3.8049
  27   0.0000       0.141049         3.8381
  28   0.0000       0.189241         5.1495
  29   0.0000       0.213010         5.7963

MULLIKEN ATOMIC CHARGES
-----------------------
   0 C :   -1.084354
   1 S :    2.166081
   2 O :   -0.998457
   3 O :   -1.004561
   4 O :   -0.997099
   5 H :    0.301349
   6 H :    0.319411
   7 H :    0.297631
Sum of atomic charges:   -1.0000000

LOEWDIN ATOMIC CHARGES
----------------------
   0 C :    0.433690
   1 S :   -0.426217
   2 O :   -0.109212
   3 O :   -0.082213
   4 O :   -0.065103
   5 H :   -0.249840
   6 H :   -0.249318
   7 H :   -0.251787

  Mayer bond orders larger than 0.100000
B(  0-C ,  1-S ) :   0.7867 B(  0-C ,  5-H ) :   0.9033 B(  0-C ,  6-H ) :   0.8903
B(  0-C ,  7-H ) :   0.9101 B(  1-S ,  2-O ) :   1.3073 B(  1-S ,  3-O ) :   1.3628
B(  1-S ,  4-O ) :   1.3904

E(0)                                       ...   -661.875616203
E(0)                                       ...   -661.875616203
E(CORR)(strong-pairs)                      ...     -1.115186609
E(CORR)(weak-pairs)                        ...     -0.000978319
E(CORR)(corrected)                         ...     -1.116164928
E(TOT)                                     ...   -662.991781132
E(CCSD(T))                                 ...   -663.039809637
FINAL SINGLE POINT ENERGY      -663.039809637027

DIPOLE MOMENT
-------------
                                X             Y             Z
Electronic contribution:      1.04313      -0.08121      -3.96592
Nuclear contribution   :     -1.53523      -0.17928       5.57610
                        -----------------------------------------
Total Dipole Moment    :     -0.49211      -0.26049       1.61019
                        -----------------------------------------
Magnitude (a.u.)       :      1.70374
Magnitude (Debye)      :      4.33055

Rotational constants in cm-1:     0.172657     0.156250     0.152500
Rotational constants in MHz :  5176.120042  4684.252187  4571.835124

                             ****ORCA TERMINATED NORMALLY****
TOTAL RUN TIME: 0 days 1 hours 3 minutes 28 seconds 709 msec
