                         Program Version 5.0.0 -  RELEASE  -
|  1> !DLPNO-CCSD(T) aug-cc-pVTZ aug-cc-pVTZ/C TightSCF TightPNO RIJCOSX def2/J
|  2> *xyz 1 1
|  3> C          5.55821       -1.99291       -6.21505
|  4> C          4.18188       -2.58967       -6.29891
|  5> N          3.14587       -1.76843       -6.48675
|  6> N          4.01910       -3.86431       -6.22743
|  7> H          4.76849       -4.59115       -5.99077
|  8> H          3.12241       -4.33339       -6.31462
|  9> H          3.28164       -0.77779       -6.56655
| 10> H          2.21255       -2.13419       -6.56225
| 11> H          5.49055       -0.92791       -6.29315
| 12> H          6.16046       -2.37160       -7.01429
| 13> H          6.00378       -2.25423       -5.27799
| 14> *
| 15>
| 16> %MaxCore 64000
| 17>
| 18> %pal nprocs 2
| 19> end
| 20>
| 21> %scf
| 22>   MaxIter 150
| 23> end
| 24>
| 25>
| 26>                          ****END OF INPUT****

CARTESIAN COORDINATES (ANGSTROEM)
---------------------------------
  C      5.558210   -1.992910   -6.215050
  C      4.181880   -2.589670   -6.298910
  N      3.145870   -1.768430   -6.486750
  N      4.019100   -3.864310   -6.227430
  H      4.768490   -4.591150   -5.990770
  H      3.122410   -4.333390   -6.314620
  H      3.281640   -0.777790   -6.566550
  H      2.212550   -2.134190   -6.562250
  H      5.490550   -0.927910   -6.293150
  H      6.160460   -2.371600   -7.014290
  H      6.003780   -2.254230   -5.277990

 Total Charge           Charge          ....    1
 Multiplicity           Mult            ....    1
 Number of Electrons    NEL             ....   32
 Basis Dimension        Dim             ....  345

ORBITAL ENERGIES
----------------

  NO   OCC          E(Eh)            E(eV)
   0   2.0000     -15.818696      -430.4486
   1   2.0000     -15.806395      -430.1139
   2   2.0000     -11.580315      -315.1164
   3   2.0000     -11.424007      -310.8630
   4   2.0000      -1.527634       -41.5690
   5   2.0000      -1.406253       -38.2661
   6   2.0000      -1.214361       -33.0444
   7   2.0000      -1.059597       -28.8331
   8   2.0000      -0.965112       -26.2620
   9   2.0000      -0.948233       -25.8027
  10   2.0000      -0.867684       -23.6109
  11   2.0000      -0.823455       -22.4073
  12   2.0000      -0.769618       -20.9424
  13   2.0000      -0.759902       -20.6780
  14   2.0000      -0.730640       -19.8817
  15   2.0000      -0.632559       -17.2128
  16   0.0000      -0.102000        -2.7756
  17   0.0000      -0.077761        -2.1160
  18   0.0000      -0.073622        -2.0033
  19   0.0000      -0.071025        -1.9327
  20   0.0000      -0.051099        -1.3905

MULLIKEN ATOMIC CHARGES
-----------------------
   0 C :   -0.580572
   1 C :    0.579523
   2 N :   -0.317811
   3 N :   -0.342844
   4 H :    0.170527
   5 H :    0.160236
   6 H :    0.121505
   7 H :    0.172899
   8 H :    0.335193
   9 H :    0.348069
  10 H :    0.353275
Sum of atomic charges:    1.0000000

LOEWDIN ATOMIC CHARGES
----------------------
   0 C :    0.698913
   1 C :   -0.227544
   2 N :    0.953662
   3 N :    0.903330
   4 H :   -0.139649
   5 H :   -0.228426
   6 H :   -0.250314
   7 H :   -0.241156
   8 H :   -0.166587
   9 H :   -0.150171
  10 H :   -0.152058

  Mayer bond orders larger than 0.100000
B(  0-C ,  1-C ) :   0.4609 B(  0-C ,  8-H ) :   0.9378 B(  0-C ,  9-H ) :   0.9046
B(  0-C , 10-H ) :   0.9032 B(  1-C ,  2-N ) :   1.0315 B(  1-C ,  3-N ) :   1.0537
B(  2-N ,  3-N ) :  -0.1215 B(  2-N ,  6-H ) :   1.0918 B(  2-N ,  7-H ) :   1.0641
B(  3-N ,  4-H ) :   1.0635 B(  3-N ,  5-H ) :   1.0788

E(0)                                       ...   -188.589885246
E(0)                                       ...   -188.589885246
E(CORR)(strong-pairs)                      ...     -0.782754257
E(CORR)(weak-pairs)                        ...     -0.000662697
E(CORR)(corrected)                         ...     -0.783416954
E(TOT)                                     ...   -189.373302200
E(CCSD(T))                                 ...   -189.404125073
FINAL SINGLE POINT ENERGY      -189.404125073276

DIPOLE MOMENT
-------------
                                X             Y             Z
Electronic contribution:     -1.83693      -0.87324      -0.10514
Nuclear contribution   :      1.48163       0.51565       0.12876
                        -----------------------------------------
Total Dipole Moment    :     -0.35530      -0.35759       0.02362
                        -----------------------------------------
Magnitude (a.u.)       :      0.50464
Magnitude (Debye)      :      1.28270

Rotational constants in cm-1:     0.329497     0.300036     0.161709
Rotational constants in MHz :  9878.065920  8994.849253  4847.907140

                             ****ORCA TERMINATED NORMALLY****
TOTAL RUN TIME: 0 days 0 hours 50 minutes 1 seconds 616 msec
