                         Program Version 5.0.0 -  RELEASE  -
|  1> !DLPNO-CCSD(T) aug-cc-pVTZ aug-cc-pVTZ/C TightSCF TightPNO RIJCOSX def2/J
|  2> *xyz 0 1
|  3> C          3.84189       -6.95161       -3.63283
|  4> S          4.31812       -6.91593       -5.36869
|  5> F          5.40615       -5.89948       -5.51297
|  6> O          3.11191       -6.44508       -6.04379
|  7> O          4.76340       -8.23942       -5.69863
|  8> H          3.06224       -7.67071       -3.49159
|  9> H          3.49217       -5.98401       -3.33897
| 10> H          4.68822       -7.22131       -3.03626
| 11> *
| 12>
| 13> %MaxCore 64000
| 14>
| 15> %pal nprocs 2
| 16> end
| 17>
| 18> %scf
| 19>   MaxIter 150
| 20> end
| 21>
| 22>
| 23>                          ****END OF INPUT****

CARTESIAN COORDINATES (ANGSTROEM)
---------------------------------
  C      3.841890   -6.951610   -3.632830
  S      4.318120   -6.915930   -5.368690
  F      5.406150   -5.899480   -5.512970
  O      3.111910   -6.445080   -6.043790
  O      4.763400   -8.239420   -5.698630
  H      3.062240   -7.670710   -3.491590
  H      3.492170   -5.984010   -3.338970
  H      4.688220   -7.221310   -3.036260

 Total Charge           Charge          ....    0
 Multiplicity           Mult            ....    1
 Number of Electrons    NEL             ....   50
 Basis Dimension        Dim             ....  303

ORBITAL ENERGIES
----------------

  NO   OCC          E(Eh)            E(eV)
   0   2.0000     -92.258477     -2510.4808
   1   2.0000     -26.414242      -718.7681
   2   2.0000     -20.577925      -559.9538
   3   2.0000     -20.566473      -559.6422
   4   2.0000     -11.295692      -307.3714
   5   2.0000      -9.220849      -250.9121
   6   2.0000      -6.908378      -187.9865
   7   2.0000      -6.904856      -187.8907
   8   2.0000      -6.903578      -187.8559
   9   2.0000      -1.761041       -47.9204
  10   2.0000      -1.466743       -39.9121
  11   2.0000      -1.362468       -37.0746
  12   2.0000      -1.069340       -29.0982
  13   2.0000      -0.944487       -25.7008
  14   2.0000      -0.812531       -22.1101
  15   2.0000      -0.803055       -21.8522
  16   2.0000      -0.768715       -20.9178
  17   2.0000      -0.667769       -18.1709
  18   2.0000      -0.663330       -18.0501
  19   2.0000      -0.640282       -17.4230
  20   2.0000      -0.621127       -16.9017
  21   2.0000      -0.564238       -15.3537
  22   2.0000      -0.514040       -13.9877
  23   2.0000      -0.494112       -13.4455
  24   2.0000      -0.490209       -13.3393
  25   0.0000       0.021810         0.5935
  26   0.0000       0.041417         1.1270
  27   0.0000       0.043624         1.1871
  28   0.0000       0.065079         1.7709
  29   0.0000       0.091364         2.4861

MULLIKEN ATOMIC CHARGES
-----------------------
   0 C :   -1.007940
   1 S :    2.162733
   2 F :   -0.496336
   3 O :   -0.853851
   4 O :   -0.849036
   5 H :    0.354019
   6 H :    0.355094
   7 H :    0.335317
Sum of atomic charges:    0.0000000

LOEWDIN ATOMIC CHARGES
----------------------
   0 C :    0.516498
   1 S :   -0.119549
   2 F :    0.234941
   3 O :    0.006828
   4 O :    0.022270
   5 H :   -0.208098
   6 H :   -0.225166
   7 H :   -0.227724

  Mayer bond orders larger than 0.100000
B(  0-C ,  1-S ) :   0.8922 B(  0-C ,  5-H ) :   0.8668 B(  0-C ,  6-H ) :   0.8605
B(  0-C ,  7-H ) :   0.8796 B(  1-S ,  2-F ) :   0.5487 B(  1-S ,  3-O ) :   1.5549
B(  1-S ,  4-O ) :   1.5831

E(0)                                       ...   -686.389412267
E(0)                                       ...   -686.389412267
E(CORR)(strong-pairs)                      ...     -1.119983904
E(CORR)(weak-pairs)                        ...     -0.000960834
E(CORR)(corrected)                         ...     -1.120944738
E(TOT)                                     ...   -687.510357005
E(CCSD(T))                                 ...   -687.555861464
FINAL SINGLE POINT ENERGY      -687.555861463895

DIPOLE MOMENT
-------------
                                X             Y             Z
Electronic contribution:      2.93976       1.66729      -4.14599
Nuclear contribution   :     -2.64549      -1.17311       5.81218
                        -----------------------------------------
Total Dipole Moment    :      0.29427       0.49418       1.66619
                        -----------------------------------------
Magnitude (a.u.)       :      1.76267
Magnitude (Debye)      :      4.48036

Rotational constants in cm-1:     0.165958     0.149400     0.146699
Rotational constants in MHz :  4975.281722  4478.884828  4397.931002

                             ****ORCA TERMINATED NORMALLY****
TOTAL RUN TIME: 0 days 0 hours 53 minutes 39 seconds 181 msec
