                         Program Version 5.0.0 -  RELEASE  -
|  1> !DLPNO-CCSD(T) aug-cc-pVTZ aug-cc-pVTZ/C TightSCF TightPNO RIJCOSX def2/J
|  2> *xyz 0 1
|  3> C          5.55821       -1.99291       -6.21505
|  4> C          4.18188       -2.58967       -6.29891
|  5> C          3.14587       -1.76843       -6.48675
|  6> N          4.01910       -3.86431       -6.22743
|  7> H          4.76849       -4.59115       -5.99077
|  8> H          3.12241       -4.33339       -6.31462
|  9> H          3.28164       -0.77779       -6.56655
| 10> H          2.21255       -2.13419       -6.56225
| 11> H          5.49055       -0.92791       -6.29315
| 12> H          6.16046       -2.37160       -7.01429
| 13> H          6.00378       -2.25423       -5.27799
| 14> *
| 15>
| 16> %MaxCore 64000
| 17>
| 18> %pal nprocs 8
| 19> end
| 20>
| 21> %scf
| 22>   MaxIter 150
| 23> end
| 24>
| 25>
| 26>                          ****END OF INPUT****

CARTESIAN COORDINATES (ANGSTROEM)
---------------------------------
  C      5.558210   -1.992910   -6.215050
  C      4.181880   -2.589670   -6.298910
  C      3.145870   -1.768430   -6.486750
  N      4.019100   -3.864310   -6.227430
  H      4.768490   -4.591150   -5.990770
  H      3.122410   -4.333390   -6.314620
  H      3.281640   -0.777790   -6.566550
  H      2.212550   -2.134190   -6.562250
  H      5.490550   -0.927910   -6.293150
  H      6.160460   -2.371600   -7.014290
  H      6.003780   -2.254230   -5.277990

 Total Charge           Charge          ....    0
 Multiplicity           Mult            ....    1
 Number of Electrons    NEL             ....   32
 Basis Dimension        Dim             ....  345

ORBITAL ENERGIES
----------------

  NO   OCC          E(Eh)            E(eV)
   0   2.0000     -15.569730      -423.6739
   1   2.0000     -11.260413      -306.4114
   2   2.0000     -11.214785      -305.1698
   3   2.0000     -11.148340      -303.3618
   4   2.0000      -1.244406       -33.8620
   5   2.0000      -1.022947       -27.8358
   6   2.0000      -0.935954       -25.4686
   7   2.0000      -0.789043       -21.4709
   8   2.0000      -0.686134       -18.6707
   9   2.0000      -0.652143       -17.7457
  10   2.0000      -0.594621       -16.1805
  11   2.0000      -0.559240       -15.2177
  12   2.0000      -0.547500       -14.8982
  13   2.0000      -0.499510       -13.5924
  14   2.0000      -0.490533       -13.3481
  15   2.0000      -0.285520        -7.7694
  16   0.0000       0.025025         0.6810
  17   0.0000       0.037412         1.0180
  18   0.0000       0.042349         1.1524
  19   0.0000       0.047728         1.2988
  20   0.0000       0.057549         1.5660

MULLIKEN ATOMIC CHARGES
-----------------------
   0 C :   -0.592630
   1 C :    0.591731
   2 C :   -1.316862
   3 N :   -0.562040
   4 H :    0.119785
   5 H :    0.054418
   6 H :    0.210193
   7 H :    0.576024
   8 H :    0.310422
   9 H :    0.303281
  10 H :    0.305679
Sum of atomic charges:    0.0000000

LOEWDIN ATOMIC CHARGES
----------------------
   0 C :    0.606619
   1 C :   -0.332969
   2 C :    0.560395
   3 N :    0.791525
   4 H :   -0.194186
   5 H :   -0.268444
   6 H :   -0.313562
   7 H :   -0.301288
   8 H :   -0.189751
   9 H :   -0.178221
  10 H :   -0.180118

  Mayer bond orders larger than 0.100000
B(  0-C ,  1-C ) :   0.4669 B(  0-C ,  3-N ) :  -0.1035 B(  0-C ,  8-H ) :   0.9695
B(  0-C ,  9-H ) :   0.9632 B(  0-C , 10-H ) :   0.9671 B(  1-C ,  2-C ) :   1.2345
B(  1-C ,  3-N ) :   0.9121 B(  2-C ,  3-N ) :  -0.2756 B(  2-C ,  6-H ) :   1.3149
B(  2-C ,  7-H ) :   0.5518 B(  3-N ,  4-H ) :   1.0982 B(  3-N ,  5-H ) :   1.1838

E(0)                                       ...   -172.150797129
E(0)                                       ...   -172.150797129
E(CORR)(strong-pairs)                      ...     -0.763481708
E(CORR)(weak-pairs)                        ...     -0.000650561
E(CORR)(corrected)                         ...     -0.764132268
E(TOT)                                     ...   -172.914929397
E(CCSD(T))                                 ...   -172.946028756
FINAL SINGLE POINT ENERGY      -172.946028756293

DIPOLE MOMENT
-------------
                                X             Y             Z
Electronic contribution:     -0.82551      -1.48050       0.04959
Nuclear contribution   :      1.24351       0.69391       0.08872
                        -----------------------------------------
Total Dipole Moment    :      0.41800      -0.78659       0.13831
                        -----------------------------------------
Magnitude (a.u.)       :      0.90143
Magnitude (Debye)      :      2.29125

Rotational constants in cm-1:     0.350694     0.303314     0.167659
Rotational constants in MHz : 10513.535482  9093.138449  5026.287342

                             ****ORCA TERMINATED NORMALLY****
TOTAL RUN TIME: 0 days 0 hours 5 minutes 54 seconds 941 msec
