                         Program Version 5.0.0 -  RELEASE  -
|  1> !DLPNO-CCSD(T) aug-cc-pVTZ aug-cc-pVTZ/C TightSCF TightPNO RIJCOSX def2/J
|  2> *xyz 0 1
|  3> C          3.84189       -6.95161       -3.63283
|  4> S          4.31812       -6.91593       -5.36869
|  5> O          5.40615       -5.89948       -5.51297
|  6> F          3.11191       -6.44508       -6.04379
|  7> O          4.76340       -8.23942       -5.69863
|  8> H          3.06224       -7.67071       -3.49159
|  9> H          3.49217       -5.98401       -3.33897
| 10> H          4.68822       -7.22131       -3.03626
| 11> *
| 12>
| 13> %MaxCore 64000
| 14>
| 15> %pal nprocs 2
| 16> end
| 17>
| 18> %scf
| 19>   MaxIter 150
| 20> end
| 21>
| 22>
| 23>                          ****END OF INPUT****

CARTESIAN COORDINATES (ANGSTROEM)
---------------------------------
  C      3.841890   -6.951610   -3.632830
  S      4.318120   -6.915930   -5.368690
  O      5.406150   -5.899480   -5.512970
  F      3.111910   -6.445080   -6.043790
  O      4.763400   -8.239420   -5.698630
  H      3.062240   -7.670710   -3.491590
  H      3.492170   -5.984010   -3.338970
  H      4.688220   -7.221310   -3.036260

 Total Charge           Charge          ....    0
 Multiplicity           Mult            ....    1
 Number of Electrons    NEL             ....   50
 Basis Dimension        Dim             ....  303

ORBITAL ENERGIES
----------------

  NO   OCC          E(Eh)            E(eV)
   0   2.0000     -92.259617     -2510.5118
   1   2.0000     -26.428638      -719.1598
   2   2.0000     -20.577970      -559.9550
   3   2.0000     -20.559794      -559.4604
   4   2.0000     -11.296595      -307.3960
   5   2.0000      -9.222153      -250.9475
   6   2.0000      -6.909853      -188.0267
   7   2.0000      -6.905867      -187.9182
   8   2.0000      -6.904893      -187.8917
   9   2.0000      -1.790039       -48.7094
  10   2.0000      -1.459057       -39.7030
  11   2.0000      -1.341769       -36.5114
  12   2.0000      -1.074996       -29.2521
  13   2.0000      -0.959905       -26.1204
  14   2.0000      -0.830044       -22.5867
  15   2.0000      -0.822928       -22.3930
  16   2.0000      -0.770500       -20.9664
  17   2.0000      -0.666095       -18.1254
  18   2.0000      -0.659849       -17.9554
  19   2.0000      -0.639206       -17.3937
  20   2.0000      -0.615495       -16.7485
  21   2.0000      -0.561480       -15.2786
  22   2.0000      -0.507335       -13.8053
  23   2.0000      -0.489241       -13.3129
  24   2.0000      -0.479286       -13.0420
  25   0.0000       0.021069         0.5733
  26   0.0000       0.040619         1.1053
  27   0.0000       0.043737         1.1901
  28   0.0000       0.064014         1.7419
  29   0.0000       0.091115         2.4794

MULLIKEN ATOMIC CHARGES
-----------------------
   0 C :   -1.006765
   1 S :    2.138558
   2 O :   -0.842382
   3 F :   -0.489833
   4 O :   -0.841972
   5 H :    0.339008
   6 H :    0.351813
   7 H :    0.351574
Sum of atomic charges:    0.0000000

LOEWDIN ATOMIC CHARGES
----------------------
   0 C :    0.519597
   1 S :   -0.127670
   2 O :   -0.017026
   3 F :    0.263986
   4 O :    0.021852
   5 H :   -0.225732
   6 H :   -0.225335
   7 H :   -0.209673

  Mayer bond orders larger than 0.100000
B(  0-C ,  1-S ) :   0.9010 B(  0-C ,  5-H ) :   0.8712 B(  0-C ,  6-H ) :   0.8619
B(  0-C ,  7-H ) :   0.8718 B(  1-S ,  2-O ) :   1.4978 B(  1-S ,  3-F ) :   0.5839
B(  1-S ,  4-O ) :   1.5852

E(0)                                       ...   -686.379263700
E(0)                                       ...   -686.379263700
E(CORR)(strong-pairs)                      ...     -1.120348473
E(CORR)(weak-pairs)                        ...     -0.000963198
E(CORR)(corrected)                         ...     -1.121311671
E(TOT)                                     ...   -687.500575371
E(CCSD(T))                                 ...   -687.546214572
FINAL SINGLE POINT ENERGY      -687.546214572126

DIPOLE MOMENT
-------------
                                X             Y             Z
Electronic contribution:     -1.08479       0.69991      -5.08673
Nuclear contribution   :     -0.35339      -0.62802       6.34251
                        -----------------------------------------
Total Dipole Moment    :     -1.43818       0.07189       1.25578
                        -----------------------------------------
Magnitude (a.u.)       :      1.91063
Magnitude (Debye)      :      4.85644

Rotational constants in cm-1:     0.162638     0.154373     0.145390
Rotational constants in MHz :  4875.774584  4627.990015  4358.691210

                             ****ORCA TERMINATED NORMALLY****
TOTAL RUN TIME: 0 days 0 hours 46 minutes 57 seconds 192 msec
