                         Program Version 5.0.0 -  RELEASE  -
|  1> !DLPNO-CCSD(T) aug-cc-pVTZ aug-cc-pVTZ/C TightSCF TightPNO RIJCOSX def2/J
|  2> *xyz 0 1
|  3> C          5.55821       -1.99291       -6.21505
|  4> C          4.18188       -2.58967       -6.29891
|  5> N          3.14587       -1.76843       -6.48675
|  6> C          4.01910       -3.86431       -6.22743
|  7> H          4.76849       -4.59115       -5.99077
|  8> H          3.12241       -4.33339       -6.31462
|  9> H          3.28164       -0.77779       -6.56655
| 10> H          2.21255       -2.13419       -6.56225
| 11> H          5.49055       -0.92791       -6.29315
| 12> H          6.16046       -2.37160       -7.01429
| 13> H          6.00378       -2.25423       -5.27799
| 14> *
| 15>
| 16> %MaxCore 64000
| 17>
| 18> %pal nprocs 8
| 19> end
| 20>
| 21> %scf
| 22>   MaxIter 150
| 23> end
| 24>
| 25>
| 26>                          ****END OF INPUT****

CARTESIAN COORDINATES (ANGSTROEM)
---------------------------------
  C      5.558210   -1.992910   -6.215050
  C      4.181880   -2.589670   -6.298910
  N      3.145870   -1.768430   -6.486750
  C      4.019100   -3.864310   -6.227430
  H      4.768490   -4.591150   -5.990770
  H      3.122410   -4.333390   -6.314620
  H      3.281640   -0.777790   -6.566550
  H      2.212550   -2.134190   -6.562250
  H      5.490550   -0.927910   -6.293150
  H      6.160460   -2.371600   -7.014290
  H      6.003780   -2.254230   -5.277990

 Total Charge           Charge          ....    0
 Multiplicity           Mult            ....    1
 Number of Electrons    NEL             ....   32
 Basis Dimension        Dim             ....  345

ORBITAL ENERGIES
----------------

  NO   OCC          E(Eh)            E(eV)
   0   2.0000     -15.557605      -423.3439
   1   2.0000     -11.255860      -306.2875
   2   2.0000     -11.215029      -305.1765
   3   2.0000     -11.154582      -303.5316
   4   2.0000      -1.232270       -33.5318
   5   2.0000      -1.028476       -27.9863
   6   2.0000      -0.942760       -25.6538
   7   2.0000      -0.768905       -20.9230
   8   2.0000      -0.703721       -19.1492
   9   2.0000      -0.655013       -17.8238
  10   2.0000      -0.591619       -16.0988
  11   2.0000      -0.553885       -15.0720
  12   2.0000      -0.550778       -14.9874
  13   2.0000      -0.493785       -13.4366
  14   2.0000      -0.484492       -13.1837
  15   2.0000      -0.296486        -8.0678
  16   0.0000       0.027461         0.7473
  17   0.0000       0.037508         1.0206
  18   0.0000       0.041439         1.1276
  19   0.0000       0.050640         1.3780
  20   0.0000       0.057855         1.5743

MULLIKEN ATOMIC CHARGES
-----------------------
   0 C :   -0.732012
   1 C :    0.783702
   2 N :   -0.489444
   3 C :   -1.332056
   4 H :    0.249081
   5 H :    0.541542
   6 H :    0.069828
   7 H :    0.046526
   8 H :    0.300404
   9 H :    0.293804
  10 H :    0.268626
Sum of atomic charges:    0.0000000

LOEWDIN ATOMIC CHARGES
----------------------
   0 C :    0.610932
   1 C :   -0.322254
   2 N :    0.844994
   3 C :    0.508362
   4 H :   -0.225409
   5 H :   -0.293724
   6 H :   -0.299287
   7 H :   -0.279748
   8 H :   -0.194524
   9 H :   -0.174142
  10 H :   -0.175198

  Mayer bond orders larger than 0.100000
B(  0-C ,  1-C ) :   0.7968 B(  0-C ,  8-H ) :   0.9537 B(  0-C ,  9-H ) :   0.9492
B(  0-C , 10-H ) :   0.9921 B(  1-C ,  2-N ) :   0.8383 B(  1-C ,  3-C ) :   1.1941
B(  2-N ,  3-C ) :  -0.2836 B(  2-N ,  6-H ) :   1.1347 B(  2-N ,  7-H ) :   1.1919
B(  3-C ,  4-H ) :   1.2402 B(  3-C ,  5-H ) :   0.6178

E(0)                                       ...   -172.160897984
E(0)                                       ...   -172.160897984
E(CORR)(strong-pairs)                      ...     -0.762067474
E(CORR)(weak-pairs)                        ...     -0.000638935
E(CORR)(corrected)                         ...     -0.762706409
E(TOT)                                     ...   -172.923604393
E(CCSD(T))                                 ...   -172.954356846
FINAL SINGLE POINT ENERGY      -172.954356846244

DIPOLE MOMENT
-------------
                                X             Y             Z
Electronic contribution:     -1.57959       0.44696      -0.20504
Nuclear contribution   :      1.43935       0.22387       0.14687
                        -----------------------------------------
Total Dipole Moment    :     -0.14023       0.67083      -0.05817
                        -----------------------------------------
Magnitude (a.u.)       :      0.68779
Magnitude (Debye)      :      1.74823

Rotational constants in cm-1:     0.350137     0.303099     0.167465
Rotational constants in MHz : 10496.847516  9086.685989  5020.487860

                             ****ORCA TERMINATED NORMALLY****
TOTAL RUN TIME: 0 days 0 hours 5 minutes 25 seconds 878 msec
