                         Program Version 5.0.0 -  RELEASE  -
|  1> !DLPNO-CCSD(T) aug-cc-pVTZ aug-cc-pVTZ/C TightSCF TightPNO RIJCOSX def2/J
|  2> *xyz 0 1
|  3> C          3.84189       -6.95161       -3.63283
|  4> S          4.31812       -6.91593       -5.36869
|  5> O          5.40615       -5.89948       -5.51297
|  6> O          3.11191       -6.44508       -6.04379
|  7> F          4.76340       -8.23942       -5.69863
|  8> H          3.06224       -7.67071       -3.49159
|  9> H          3.49217       -5.98401       -3.33897
| 10> H          4.68822       -7.22131       -3.03626
| 11> *
| 12>
| 13> %MaxCore 64000
| 14>
| 15> %pal nprocs 2
| 16> end
| 17>
| 18> %scf
| 19>   MaxIter 150
| 20> end
| 21>
| 22>
| 23>                          ****END OF INPUT****

CARTESIAN COORDINATES (ANGSTROEM)
---------------------------------
  C      3.841890   -6.951610   -3.632830
  S      4.318120   -6.915930   -5.368690
  O      5.406150   -5.899480   -5.512970
  O      3.111910   -6.445080   -6.043790
  F      4.763400   -8.239420   -5.698630
  H      3.062240   -7.670710   -3.491590
  H      3.492170   -5.984010   -3.338970
  H      4.688220   -7.221310   -3.036260

 Total Charge           Charge          ....    0
 Multiplicity           Mult            ....    1
 Number of Electrons    NEL             ....   50
 Basis Dimension        Dim             ....  303

ORBITAL ENERGIES
----------------

  NO   OCC          E(Eh)            E(eV)
   0   2.0000     -92.260318     -2510.5309
   1   2.0000     -26.444085      -719.5801
   2   2.0000     -20.567091      -559.6590
   3   2.0000     -20.560381      -559.4764
   4   2.0000     -11.296957      -307.4058
   5   2.0000      -9.223051      -250.9720
   6   2.0000      -6.910682      -188.0492
   7   2.0000      -6.906735      -187.9418
   8   2.0000      -6.905706      -187.9138
   9   2.0000      -1.814862       -49.3849
  10   2.0000      -1.444792       -39.3148
  11   2.0000      -1.333121       -36.2761
  12   2.0000      -1.075387       -29.2628
  13   2.0000      -0.974640       -26.5213
  14   2.0000      -0.846235       -23.0272
  15   2.0000      -0.840723       -22.8772
  16   2.0000      -0.770402       -20.9637
  17   2.0000      -0.660040       -17.9606
  18   2.0000      -0.656842       -17.8736
  19   2.0000      -0.640888       -17.4394
  20   2.0000      -0.609097       -16.5744
  21   2.0000      -0.553938       -15.0734
  22   2.0000      -0.497147       -13.5281
  23   2.0000      -0.487284       -13.2597
  24   2.0000      -0.471970       -12.8429
  25   0.0000       0.020688         0.5629
  26   0.0000       0.040274         1.0959
  27   0.0000       0.044367         1.2073
  28   0.0000       0.062648         1.7047
  29   0.0000       0.090709         2.4683

MULLIKEN ATOMIC CHARGES
-----------------------
   0 C :   -0.998466
   1 S :    2.119091
   2 O :   -0.837631
   3 O :   -0.844227
   4 F :   -0.485432
   5 H :    0.340801
   6 H :    0.368789
   7 H :    0.337076
Sum of atomic charges:    0.0000000

LOEWDIN ATOMIC CHARGES
----------------------
   0 C :    0.516527
   1 S :   -0.128082
   2 O :   -0.016874
   3 O :    0.006500
   4 F :    0.283056
   5 H :   -0.225832
   6 H :   -0.207737
   7 H :   -0.227559

  Mayer bond orders larger than 0.100000
B(  0-C ,  1-S ) :   0.9088 B(  0-C ,  5-H ) :   0.8709 B(  0-C ,  6-H ) :   0.8526
B(  0-C ,  7-H ) :   0.8789 B(  1-S ,  2-O ) :   1.4979 B(  1-S ,  3-O ) :   1.5584
B(  1-S ,  4-F ) :   0.5853

E(0)                                       ...   -686.366317494
E(0)                                       ...   -686.366317494
E(CORR)(strong-pairs)                      ...     -1.121072213
E(CORR)(weak-pairs)                        ...     -0.000967179
E(CORR)(corrected)                         ...     -1.122039392
E(TOT)                                     ...   -687.488356886
E(CCSD(T))                                 ...   -687.534198193
FINAL SINGLE POINT ENERGY      -687.534198192841

DIPOLE MOMENT
-------------
                                X             Y             Z
Electronic contribution:      1.79850      -2.41865      -4.47816
Nuclear contribution   :     -2.00334       1.16464       5.99767
                        -----------------------------------------
Total Dipole Moment    :     -0.20484      -1.25400       1.51951
                        -----------------------------------------
Magnitude (a.u.)       :      1.98075
Magnitude (Debye)      :      5.03468

Rotational constants in cm-1:     0.163678     0.154408     0.144413
Rotational constants in MHz :  4906.945035  4629.020676  4329.393152

                             ****ORCA TERMINATED NORMALLY****
TOTAL RUN TIME: 0 days 0 hours 47 minutes 59 seconds 158 msec
