                         Program Version 5.0.0 -  RELEASE  -
|  1> !DLPNO-CCSD(T) aug-cc-pVTZ aug-cc-pVTZ/C TightSCF TightPNO RIJCOSX def2/J
|  2>
|  3> *xyzfile 0 1 D1.xyz
|  4>
|  5> %MaxCore 64000
|  6>
|  7> %pal nprocs 18
|  8> end
|  9>
| 10> %scf
| 11>   MaxIter 150
| 12> end
| 13>
| 14>
| 15>                          ****END OF INPUT****

CARTESIAN COORDINATES (ANGSTROEM)
---------------------------------
  C      5.558206   -1.992914   -6.215054
  C      4.930199   -7.375319   -2.649623
  C      3.841892   -6.951611   -3.632829
  H      3.458144   -5.954425   -3.407121
  H      2.988484   -7.643606   -3.567078
  S      4.318115   -6.915930   -5.368692
  C      4.181880   -2.589671   -6.298911
  C      3.145873   -1.768431   -6.486753
  N      4.019102   -3.864307   -6.227427
  H      4.768490   -4.591153   -5.990773
  H      3.122405   -4.333392   -6.314620
  H      3.281635   -0.777786   -6.566549
  H      2.212549   -2.134193   -6.562246
  F      5.406154   -5.899480   -5.512972
  O      3.111910   -6.445079   -6.043792
  C      6.419260   -2.542944   -5.077630
  C      5.872267   -5.002756   -2.427819
  C      6.173994   -6.485522   -2.606315
  H      6.734852   -6.613767   -3.534015
  H      6.821463   -6.831018   -1.793617
  H      4.469612   -7.406168   -1.655876
  H      5.230134   -8.398678   -2.885906
  C      5.896512   -2.169314   -3.694552
  H      7.428880   -2.143665   -5.208078
  H      6.505894   -3.627541   -5.175502
  C      6.807804   -2.623428   -2.551019
  H      4.894708   -2.589732   -3.557501
  H      5.778823   -1.081255   -3.635790
  C      7.111544   -4.122463   -2.520363
  H      7.751615   -2.071393   -2.614406
  H      6.345837   -2.326401   -1.604086
  H      5.362882   -4.828697   -1.471335
  H      5.174429   -4.702577   -3.211298
  H      7.778329   -4.329347   -1.677651
  H      7.673189   -4.402845   -3.417586
  O      4.763396   -8.239424   -5.698629
  H      6.036826   -2.198189   -7.176852
  H      5.467610   -0.907371   -6.127968

 Total Charge           Charge          ....    0
 Multiplicity           Mult            ....    1
 Number of Electrons    NEL             ....  136
 Basis Dimension        Dim             .... 1246

ORBITAL ENERGIES
----------------

  NO   OCC          E(Eh)            E(eV)
   0   2.0000     -92.268339     -2510.7492
   1   2.0000     -26.438730      -719.4344
   2   2.0000     -20.589485      -560.2684
   3   2.0000     -20.580910      -560.0350
   4   2.0000     -15.541393      -422.9028
   5   2.0000     -11.307200      -307.6846
   6   2.0000     -11.264345      -306.5184
   7   2.0000     -11.246261      -306.0263
   8   2.0000     -11.245429      -306.0037
   9   2.0000     -11.236472      -305.7600
  10   2.0000     -11.228804      -305.5513
  11   2.0000     -11.223371      -305.4034
  12   2.0000     -11.222487      -305.3794
  13   2.0000     -11.218187      -305.2624
  14   2.0000     -11.217970      -305.2565
  15   2.0000     -11.136081      -303.0282
  16   2.0000      -9.231805      -251.2102
  17   2.0000      -6.919545      -188.2904
  18   2.0000      -6.915190      -188.1719
  19   2.0000      -6.914303      -188.1477
  20   2.0000      -1.795287       -48.8522
  21   2.0000      -1.481705       -40.3192
  22   2.0000      -1.378239       -37.5038
  23   2.0000      -1.230377       -33.4803
  24   2.0000      -1.136855       -30.9354
  25   2.0000      -1.100430       -29.9442
  26   2.0000      -1.065793       -29.0017
  27   2.0000      -1.025467       -27.9044
  28   2.0000      -0.999726       -27.2039
  29   2.0000      -0.965739       -26.2791
  30   2.0000      -0.945778       -25.7359
  31   2.0000      -0.898234       -24.4422
  32   2.0000      -0.858678       -23.3658
  33   2.0000      -0.851682       -23.1754
  34   2.0000      -0.834531       -22.7087
  35   2.0000      -0.814976       -22.1766
  36   2.0000      -0.781009       -21.2523
  37   2.0000      -0.768626       -20.9154
  38   2.0000      -0.760285       -20.6884
  39   2.0000      -0.691745       -18.8233
  40   2.0000      -0.685947       -18.6656
  41   2.0000      -0.670082       -18.2339
  42   2.0000      -0.664753       -18.0888
  43   2.0000      -0.655226       -17.8296
  44   2.0000      -0.638382       -17.3713
  45   2.0000      -0.633025       -17.2255
  46   2.0000      -0.623138       -16.9565
  47   2.0000      -0.596836       -16.2407
  48   2.0000      -0.593134       -16.1400
  49   2.0000      -0.583834       -15.8869
  50   2.0000      -0.573954       -15.6181
  51   2.0000      -0.565107       -15.3773
  52   2.0000      -0.549588       -14.9551
  53   2.0000      -0.536681       -14.6038
  54   2.0000      -0.530312       -14.4305
  55   2.0000      -0.530043       -14.4232
  56   2.0000      -0.518353       -14.1051
  57   2.0000      -0.508437       -13.8353
  58   2.0000      -0.504180       -13.7194
  59   2.0000      -0.502404       -13.6711
  60   2.0000      -0.487919       -13.2770
  61   2.0000      -0.483652       -13.1608
  62   2.0000      -0.480422       -13.0729
  63   2.0000      -0.472222       -12.8498
  64   2.0000      -0.455405       -12.3922
  65   2.0000      -0.449897       -12.2423
  66   2.0000      -0.446818       -12.1585
  67   2.0000      -0.271733        -7.3942
  68   0.0000       0.018900         0.5143
  69   0.0000       0.026123         0.7109
  70   0.0000       0.030002         0.8164
  71   0.0000       0.033184         0.9030
  72   0.0000       0.041785         1.1370

MULLIKEN ATOMIC CHARGES
-----------------------
   0 C :   -0.100692
   1 C :   -0.667551
   2 C :   -0.451425
   3 H :    0.110897
   4 H :    0.435962
   5 S :    2.660112
   6 C :    0.894835
   7 C :   -1.890347
   8 N :   -0.721933
   9 H :    0.682881
  10 H :   -0.076030
  11 H :    0.245363
  12 H :    0.483393
  13 F :   -0.608627
  14 O :   -1.028902
  15 C :   -0.542758
  16 C :   -0.501615
  17 C :   -0.401096
  18 H :    0.162610
  19 H :    0.373769
  20 H :    0.184608
  21 H :    0.242455
  22 C :   -0.158484
  23 H :    0.375817
  24 H :    0.182786
  25 C :   -0.841539
  26 H :    0.059010
  27 H :    0.503929
  28 C :   -0.352373
  29 H :    0.092700
  30 H :    0.122475
  31 H :    0.215433
  32 H :    0.476111
  33 H :    0.502230
  34 H :    0.051241
  35 O :   -1.097826
  36 H :    0.227641
  37 H :    0.154938
Sum of atomic charges:   -0.0000000

LOEWDIN ATOMIC CHARGES
----------------------
   0 C :    0.303292
   1 C :    0.265566
   2 C :    0.208421
   3 H :   -0.194940
   4 H :   -0.153520
   5 S :    0.032726
   6 C :   -0.307996
   7 C :    0.571408
   8 N :    0.803454
   9 H :   -0.570317
  10 H :   -0.353552
  11 H :   -0.312111
  12 H :   -0.298927
  13 F :    0.453056
  14 O :    0.111872
  15 C :    0.284613
  16 C :    0.268396
  17 C :    0.281393
  18 H :   -0.165591
  19 H :   -0.127294
  20 H :   -0.135273
  21 H :   -0.151364
  22 C :    0.290985
  23 H :   -0.129669
  24 H :   -0.184498
  25 C :    0.303379
  26 H :   -0.151396
  27 H :   -0.128981
  28 C :    0.291230
  29 H :   -0.139726
  30 H :   -0.139821
  31 H :   -0.113789
  32 H :   -0.207342
  33 H :   -0.133167
  34 H :   -0.152508
  35 O :    0.064872
  36 H :   -0.133642
  37 H :   -0.149242

  Mayer bond orders larger than 0.100000
B(  0-C ,  8-N ) :  -0.1086 B(  0-C , 15-C ) :   0.8665 B(  0-C , 36-H ) :   1.0992
B(  0-C , 37-H ) :   1.1045 B(  1-C ,  2-C ) :   0.9375 B(  1-C ,  5-S ) :   0.1298
B(  1-C , 17-C ) :   0.9694 B(  1-C , 20-H ) :   1.0208 B(  1-C , 21-H ) :   0.9791
B(  2-C ,  3-H ) :   1.0615 B(  2-C ,  4-H ) :   0.7732 B(  2-C ,  5-S ) :   0.8321
B(  3-H ,  5-S ) :   0.1004 B(  5-S , 13-F ) :   0.6874 B(  5-S , 14-O ) :   1.2545
B(  5-S , 35-O ) :   0.9806 B(  6-C ,  7-C ) :   0.3773 B(  6-C ,  8-N ) :   0.7781
B(  6-C ,  9-H ) :  -0.2947 B(  6-C , 10-H ) :  -0.1579 B(  6-C , 11-H ) :  -0.2275
B(  6-C , 15-C ) :   0.1963 B(  6-C , 36-H ) :  -0.1142 B(  7-C ,  8-N ) :  -0.1332
B(  7-C , 11-H ) :   1.4069 B(  7-C , 12-H ) :   0.7046 B(  8-N ,  9-H ) :   0.3772
B(  8-N , 10-H ) :   1.4189 B(  8-N , 13-F ) :  -0.1872 B(  9-H , 13-F ) :  -0.2010
B(  9-H , 14-O ) :   0.1330 B( 11-H , 12-H ) :   0.1008 B( 13-F , 35-O ) :   0.1454
B( 15-C , 22-C ) :   0.8028 B( 15-C , 23-H ) :   0.9211 B( 15-C , 24-H ) :   1.0402
B( 16-C , 17-C ) :   0.8656 B( 16-C , 25-C ) :   0.1349 B( 16-C , 28-C ) :   0.8326
B( 16-C , 31-H ) :   0.9917 B( 16-C , 32-H ) :   0.9412 B( 17-C , 18-H ) :   1.0605
B( 17-C , 19-H ) :   0.8073 B( 22-C , 24-H ) :   0.1213 B( 22-C , 25-C ) :   0.8036
B( 22-C , 26-H ) :   1.1353 B( 22-C , 27-H ) :   0.7713 B( 25-C , 26-H ) :   0.1325
B( 25-C , 27-H ) :  -0.1173 B( 25-C , 28-C ) :   0.9057 B( 25-C , 29-H ) :   1.1451
B( 25-C , 30-H ) :   1.1305 B( 28-C , 33-H ) :   0.7246 B( 28-C , 34-H ) :   1.1361
B( 29-H , 30-H ) :   0.1067

E(0)                                       ...  -1130.673562578
E(0)                                       ...  -1130.673562578
E(CORR)(strong-pairs)                      ...     -3.178718856
E(CORR)(weak-pairs)                        ...     -0.006263262
E(CORR)(corrected)                         ...     -3.184982118
E(TOT)                                     ...  -1133.858544697
E(CCSD(T))                                 ...  -1133.992826580
FINAL SINGLE POINT ENERGY     -1133.992826580168

DIPOLE MOMENT
-------------
                                X             Y             Z
Electronic contribution:     -6.89038     -18.72305     -13.02083
Nuclear contribution   :      7.78491      18.17172      15.09294
                        -----------------------------------------
Total Dipole Moment    :      0.89454      -0.55133       2.07211
                        -----------------------------------------
Magnitude (a.u.)       :      2.32331
Magnitude (Debye)      :      5.90539

Rotational constants in cm-1:     0.018190     0.012573     0.008405
Rotational constants in MHz :   545.327178   376.916509   251.974803

                             ****ORCA TERMINATED NORMALLY****
TOTAL RUN TIME: 0 days 6 hours 5 minutes 32 seconds 758 msec
