                         Program Version 5.0.0 -  RELEASE  -
|  1> !DLPNO-CCSD(T) aug-cc-pVTZ aug-cc-pVTZ/C TightSCF TightPNO RIJCOSX def2/J
|  2>
|  3> *xyzfile 0 1 D3.xyz
|  4>
|  5> %MaxCore 64000
|  6>
|  7> %pal nprocs 18
|  8> end
|  9>
| 10> %scf
| 11>   MaxIter 150
| 12> end
| 13>
| 14>
| 15>                          ****END OF INPUT****

CARTESIAN COORDINATES (ANGSTROEM)
---------------------------------
  C      5.558206   -1.992914   -6.215054
  C      4.930199   -7.375319   -2.649623
  C      3.841892   -6.951611   -3.632829
  H      3.458144   -5.954425   -3.407121
  H      2.988484   -7.643606   -3.567078
  S      4.318115   -6.915930   -5.368692
  C      4.181880   -2.589671   -6.298911
  C      3.145873   -1.768431   -6.486753
  N      4.019102   -3.864307   -6.227427
  H      4.768490   -4.591153   -5.990773
  H      3.122405   -4.333392   -6.314620
  H      3.281635   -0.777786   -6.566549
  H      2.212549   -2.134193   -6.562246
  O      5.406154   -5.899480   -5.512972
  F      3.111910   -6.445079   -6.043792
  C      6.419260   -2.542944   -5.077630
  C      5.872267   -5.002756   -2.427819
  C      6.173994   -6.485522   -2.606315
  H      6.734852   -6.613767   -3.534015
  H      6.821463   -6.831018   -1.793617
  H      4.469612   -7.406168   -1.655876
  H      5.230134   -8.398678   -2.885906
  C      5.896512   -2.169314   -3.694552
  H      7.428880   -2.143665   -5.208078
  H      6.505894   -3.627541   -5.175502
  C      6.807804   -2.623428   -2.551019
  H      4.894708   -2.589732   -3.557501
  H      5.778823   -1.081255   -3.635790
  C      7.111544   -4.122463   -2.520363
  H      7.751615   -2.071393   -2.614406
  H      6.345837   -2.326401   -1.604086
  H      5.362882   -4.828697   -1.471335
  H      5.174429   -4.702577   -3.211298
  H      7.778329   -4.329347   -1.677651
  H      7.673189   -4.402845   -3.417586
  O      4.763396   -8.239424   -5.698629
  H      6.036826   -2.198189   -7.176852
  H      5.467610   -0.907371   -6.127968

 Total Charge           Charge          ....    0
 Multiplicity           Mult            ....    1
 Number of Electrons    NEL             ....  136
 Basis Dimension        Dim             .... 1246

ORBITAL ENERGIES
----------------

  NO   OCC          E(Eh)            E(eV)
   0   2.0000     -92.277701     -2511.0039
   1   2.0000     -26.448986      -719.7135
   2   2.0000     -20.595319      -560.4271
   3   2.0000     -20.585639      -560.1637
   4   2.0000     -15.528956      -422.5644
   5   2.0000     -11.312270      -307.8225
   6   2.0000     -11.265703      -306.5554
   7   2.0000     -11.239352      -305.8383
   8   2.0000     -11.232471      -305.6511
   9   2.0000     -11.222408      -305.3773
  10   2.0000     -11.216278      -305.2104
  11   2.0000     -11.213071      -305.1232
  12   2.0000     -11.209138      -305.0161
  13   2.0000     -11.207800      -304.9797
  14   2.0000     -11.207145      -304.9619
  15   2.0000     -11.130046      -302.8640
  16   2.0000      -9.241025      -251.4611
  17   2.0000      -6.928468      -188.5332
  18   2.0000      -6.924386      -188.4221
  19   2.0000      -6.923930      -188.4097
  20   2.0000      -1.812082       -49.3093
  21   2.0000      -1.482794       -40.3489
  22   2.0000      -1.377281       -37.4777
  23   2.0000      -1.221864       -33.2486
  24   2.0000      -1.133096       -30.8331
  25   2.0000      -1.091805       -29.7095
  26   2.0000      -1.059731       -28.8368
  27   2.0000      -1.023870       -27.8609
  28   2.0000      -0.995911       -27.1001
  29   2.0000      -0.964161       -26.2362
  30   2.0000      -0.936001       -25.4699
  31   2.0000      -0.891434       -24.2572
  32   2.0000      -0.852391       -23.1947
  33   2.0000      -0.849370       -23.1125
  34   2.0000      -0.827599       -22.5201
  35   2.0000      -0.811677       -22.0869
  36   2.0000      -0.791125       -21.5276
  37   2.0000      -0.764884       -20.8135
  38   2.0000      -0.755183       -20.5496
  39   2.0000      -0.706650       -19.2289
  40   2.0000      -0.686679       -18.6855
  41   2.0000      -0.676081       -18.3971
  42   2.0000      -0.659545       -17.9471
  43   2.0000      -0.642693       -17.4886
  44   2.0000      -0.630374       -17.1534
  45   2.0000      -0.625623       -17.0241
  46   2.0000      -0.614261       -16.7149
  47   2.0000      -0.592797       -16.1308
  48   2.0000      -0.583535       -15.8788
  49   2.0000      -0.583183       -15.8692
  50   2.0000      -0.570338       -15.5197
  51   2.0000      -0.558292       -15.1919
  52   2.0000      -0.550030       -14.9671
  53   2.0000      -0.543064       -14.7775
  54   2.0000      -0.527166       -14.3449
  55   2.0000      -0.521907       -14.2018
  56   2.0000      -0.512348       -13.9417
  57   2.0000      -0.503804       -13.7092
  58   2.0000      -0.495939       -13.4952
  59   2.0000      -0.486396       -13.2355
  60   2.0000      -0.479165       -13.0387
  61   2.0000      -0.475092       -12.9279
  62   2.0000      -0.468280       -12.7425
  63   2.0000      -0.459115       -12.4932
  64   2.0000      -0.444152       -12.0860
  65   2.0000      -0.438719       -11.9382
  66   2.0000      -0.436050       -11.8655
  67   2.0000      -0.265531        -7.2255
  68   0.0000       0.016762         0.4561
  69   0.0000       0.027651         0.7524
  70   0.0000       0.031669         0.8618
  71   0.0000       0.034640         0.9426
  72   0.0000       0.041619         1.1325

MULLIKEN ATOMIC CHARGES
-----------------------
   0 C :   -0.115492
   1 C :   -0.647809
   2 C :   -0.512861
   3 H :    0.107097
   4 H :    0.442656
   5 S :    2.495155
   6 C :    0.865145
   7 C :   -1.861761
   8 N :   -0.760399
   9 H :    0.703633
  10 H :   -0.115212
  11 H :    0.241322
  12 H :    0.487877
  13 O :   -0.855879
  14 F :   -0.568796
  15 C :   -0.551366
  16 C :   -0.512519
  17 C :   -0.436266
  18 H :    0.188101
  19 H :    0.406602
  20 H :    0.167355
  21 H :    0.241000
  22 C :   -0.167562
  23 H :    0.383750
  24 H :    0.191459
  25 C :   -0.852976
  26 H :    0.045774
  27 H :    0.510539
  28 C :   -0.351566
  29 H :    0.083886
  30 H :    0.121626
  31 H :    0.239634
  32 H :    0.515228
  33 H :    0.507500
  34 H :    0.049695
  35 O :   -1.077458
  36 H :    0.240585
  37 H :    0.152303
Sum of atomic charges:    0.0000000

LOEWDIN ATOMIC CHARGES
----------------------
   0 C :    0.304890
   1 C :    0.276463
   2 C :    0.214098
   3 H :   -0.194852
   4 H :   -0.169763
   5 S :    0.075917
   6 C :   -0.309878
   7 C :    0.563597
   8 N :    0.799268
   9 H :   -0.651018
  10 H :   -0.327104
  11 H :   -0.314916
  12 H :   -0.304525
  13 O :    0.273386
  14 F :    0.338421
  15 C :    0.288154
  16 C :    0.267760
  17 C :    0.282328
  18 H :   -0.172203
  19 H :   -0.130122
  20 H :   -0.133139
  21 H :   -0.149611
  22 C :    0.289764
  23 H :   -0.130457
  24 H :   -0.187077
  25 C :    0.301867
  26 H :   -0.151834
  27 H :   -0.131107
  28 C :    0.292965
  29 H :   -0.140676
  30 H :   -0.141445
  31 H :   -0.118039
  32 H :   -0.211400
  33 H :   -0.134817
  34 H :   -0.149493
  35 O :    0.068303
  36 H :   -0.133181
  37 H :   -0.150527

  Mayer bond orders larger than 0.100000
B(  0-C ,  8-N ) :  -0.1130 B(  0-C , 15-C ) :   0.8728 B(  0-C , 36-H ) :   1.0834
B(  0-C , 37-H ) :   1.1157 B(  1-C ,  2-C ) :   0.9126 B(  1-C ,  5-S ) :   0.1510
B(  1-C , 17-C ) :   0.9675 B(  1-C , 20-H ) :   1.0335 B(  1-C , 21-H ) :   0.9650
B(  2-C ,  3-H ) :   1.0501 B(  2-C ,  4-H ) :   0.7732 B(  2-C ,  5-S ) :   0.8814
B(  5-S , 13-O ) :   1.4881 B(  5-S , 14-F ) :   0.2603 B(  5-S , 35-O ) :   1.1399
B(  6-C ,  7-C ) :   0.4032 B(  6-C ,  8-N ) :   0.8053 B(  6-C ,  9-H ) :  -0.2809
B(  6-C , 10-H ) :  -0.1356 B(  6-C , 11-H ) :  -0.2138 B(  6-C , 15-C ) :   0.2028
B(  6-C , 36-H ) :  -0.1064 B(  7-C ,  8-N ) :  -0.1574 B(  7-C , 11-H ) :   1.4203
B(  7-C , 12-H ) :   0.6831 B(  8-N ,  9-H ) :   0.2421 B(  8-N , 10-H ) :   1.4120
B(  9-H , 14-F ) :   0.1293 B( 13-O , 32-H ) :  -0.1068 B( 13-O , 35-O ) :   0.1021
B( 15-C , 22-C ) :   0.7864 B( 15-C , 23-H ) :   0.9061 B( 15-C , 24-H ) :   1.0344
B( 16-C , 17-C ) :   0.8827 B( 16-C , 25-C ) :   0.1378 B( 16-C , 28-C ) :   0.8337
B( 16-C , 31-H ) :   0.9470 B( 16-C , 32-H ) :   0.9386 B( 17-C , 18-H ) :   1.0394
B( 17-C , 19-H ) :   0.7776 B( 22-C , 24-H ) :   0.1237 B( 22-C , 25-C ) :   0.8030
B( 22-C , 26-H ) :   1.1454 B( 22-C , 27-H ) :   0.7658 B( 25-C , 26-H ) :   0.1340
B( 25-C , 27-H ) :  -0.1196 B( 25-C , 28-C ) :   0.8967 B( 25-C , 29-H ) :   1.1564
B( 25-C , 30-H ) :   1.1320 B( 28-C , 33-H ) :   0.7188 B( 28-C , 34-H ) :   1.1383
B( 29-H , 30-H ) :   0.1080

E(0)                                       ...  -1130.671629404
E(0)                                       ...  -1130.671629404
E(CORR)(strong-pairs)                      ...     -3.179141391
E(CORR)(weak-pairs)                        ...     -0.006092081
E(CORR)(corrected)                         ...     -3.185233472
E(TOT)                                     ...  -1133.856862876
E(CCSD(T))                                 ...  -1133.991378831
FINAL SINGLE POINT ENERGY     -1133.991378830551

DIPOLE MOMENT
-------------
                                X             Y             Z
Electronic contribution:    -11.00963     -20.03164     -14.08965
Nuclear contribution   :     10.48431      18.81367      15.71750
                        -----------------------------------------
Total Dipole Moment    :     -0.52531      -1.21797       1.62785
                        -----------------------------------------
Magnitude (a.u.)       :      2.09983
Magnitude (Debye)      :      5.33735

Rotational constants in cm-1:     0.017977     0.012528     0.008321
Rotational constants in MHz :   538.924099   375.570730   249.458530

                             ****ORCA TERMINATED NORMALLY****
TOTAL RUN TIME: 0 days 6 hours 12 minutes 26 seconds 145 msec
