                         Program Version 5.0.0 -  RELEASE  -
|  1> !DLPNO-CCSD(T) aug-cc-pVTZ aug-cc-pVTZ/C TightSCF TightPNO RIJCOSX def2/J
|  2>
|  3> *xyzfile 0 1 D5.xyz
|  4>
|  5> %MaxCore 64000
|  6>
|  7> %pal nprocs 18
|  8> end
|  9>
| 10> %scf
| 11>   MaxIter 150
| 12> end
| 13>
| 14>
| 15>                          ****END OF INPUT****

CARTESIAN COORDINATES (ANGSTROEM)
---------------------------------
  C      5.558206   -1.992914   -6.215054
  C      4.930199   -7.375319   -2.649623
  C      3.841892   -6.951611   -3.632829
  H      3.458144   -5.954425   -3.407121
  H      2.988484   -7.643606   -3.567078
  S      4.318115   -6.915930   -5.368692
  C      4.181880   -2.589671   -6.298911
  C      3.145873   -1.768431   -6.486753
  N      4.019102   -3.864307   -6.227427
  H      4.768490   -4.591153   -5.990773
  H      3.122405   -4.333392   -6.314620
  H      3.281635   -0.777786   -6.566549
  H      2.212549   -2.134193   -6.562246
  O      5.406154   -5.899480   -5.512972
  O      3.111910   -6.445079   -6.043792
  C      6.419260   -2.542944   -5.077630
  C      5.872267   -5.002756   -2.427819
  C      6.173994   -6.485522   -2.606315
  H      6.734852   -6.613767   -3.534015
  H      6.821463   -6.831018   -1.793617
  H      4.469612   -7.406168   -1.655876
  H      5.230134   -8.398678   -2.885906
  C      5.896512   -2.169314   -3.694552
  H      7.428880   -2.143665   -5.208078
  H      6.505894   -3.627541   -5.175502
  C      6.807804   -2.623428   -2.551019
  H      4.894708   -2.589732   -3.557501
  H      5.778823   -1.081255   -3.635790
  C      7.111544   -4.122463   -2.520363
  H      7.751615   -2.071393   -2.614406
  H      6.345837   -2.326401   -1.604086
  H      5.362882   -4.828697   -1.471335
  H      5.174429   -4.702577   -3.211298
  H      7.778329   -4.329347   -1.677651
  H      7.673189   -4.402845   -3.417586
  F      4.763396   -8.239424   -5.698629
  H      6.036826   -2.198189   -7.176852
  H      5.467610   -0.907371   -6.127968

 Total Charge           Charge          ....    0
 Multiplicity           Mult            ....    1
 Number of Electrons    NEL             ....  136
 Basis Dimension        Dim             .... 1246

ORBITAL ENERGIES
----------------

  NO   OCC          E(Eh)            E(eV)
   0   2.0000     -92.281355     -2511.1033
   1   2.0000     -26.462401      -720.0786
   2   2.0000     -20.589075      -560.2572
   3   2.0000     -20.587789      -560.2222
   4   2.0000     -15.508181      -421.9991
   5   2.0000     -11.314118      -307.8728
   6   2.0000     -11.269465      -306.6577
   7   2.0000     -11.237608      -305.7909
   8   2.0000     -11.225602      -305.4642
   9   2.0000     -11.223825      -305.4158
  10   2.0000     -11.216587      -305.2188
  11   2.0000     -11.211317      -305.0755
  12   2.0000     -11.203326      -304.8580
  13   2.0000     -11.202506      -304.8357
  14   2.0000     -11.200342      -304.7768
  15   2.0000     -11.116007      -302.4819
  16   2.0000      -9.244711      -251.5614
  17   2.0000      -6.932193      -188.6346
  18   2.0000      -6.927966      -188.5195
  19   2.0000      -6.927645      -188.5108
  20   2.0000      -1.833216       -49.8843
  21   2.0000      -1.476395       -40.1747
  22   2.0000      -1.368769       -37.2461
  23   2.0000      -1.203607       -32.7518
  24   2.0000      -1.137981       -30.9660
  25   2.0000      -1.090654       -29.6782
  26   2.0000      -1.057896       -28.7868
  27   2.0000      -1.021311       -27.7913
  28   2.0000      -0.996977       -27.1291
  29   2.0000      -0.961684       -26.1687
  30   2.0000      -0.935354       -25.4523
  31   2.0000      -0.889477       -24.2039
  32   2.0000      -0.862949       -23.4820
  33   2.0000      -0.860500       -23.4154
  34   2.0000      -0.833454       -22.6794
  35   2.0000      -0.811464       -22.0810
  36   2.0000      -0.780265       -21.2321
  37   2.0000      -0.761604       -20.7243
  38   2.0000      -0.747589       -20.3429
  39   2.0000      -0.698292       -19.0015
  40   2.0000      -0.689283       -18.7564
  41   2.0000      -0.679118       -18.4797
  42   2.0000      -0.656937       -17.8762
  43   2.0000      -0.640594       -17.4315
  44   2.0000      -0.626226       -17.0405
  45   2.0000      -0.621110       -16.9013
  46   2.0000      -0.611250       -16.6330
  47   2.0000      -0.593505       -16.1501
  48   2.0000      -0.581845       -15.8328
  49   2.0000      -0.578297       -15.7363
  50   2.0000      -0.565240       -15.3810
  51   2.0000      -0.555131       -15.1059
  52   2.0000      -0.544411       -14.8142
  53   2.0000      -0.534705       -14.5501
  54   2.0000      -0.530083       -14.4243
  55   2.0000      -0.515145       -14.0178
  56   2.0000      -0.507271       -13.8035
  57   2.0000      -0.496727       -13.5166
  58   2.0000      -0.495374       -13.4798
  59   2.0000      -0.487561       -13.2672
  60   2.0000      -0.475190       -12.9306
  61   2.0000      -0.469838       -12.7849
  62   2.0000      -0.463172       -12.6036
  63   2.0000      -0.453922       -12.3519
  64   2.0000      -0.442213       -12.0332
  65   2.0000      -0.432795       -11.7769
  66   2.0000      -0.428464       -11.6591
  67   2.0000      -0.249966        -6.8019
  68   0.0000       0.014678         0.3994
  69   0.0000       0.027003         0.7348
  70   0.0000       0.028085         0.7642
  71   0.0000       0.035228         0.9586
  72   0.0000       0.043070         1.1720

MULLIKEN ATOMIC CHARGES
-----------------------
   0 C :   -0.108592
   1 C :   -0.685345
   2 C :   -0.408429
   3 H :    0.131400
   4 H :    0.452639
   5 S :    2.368457
   6 C :    0.905125
   7 C :   -1.891854
   8 N :   -0.759758
   9 H :    0.673537
  10 H :   -0.089243
  11 H :    0.223310
  12 H :    0.490788
  13 O :   -0.844678
  14 O :   -1.024668
  15 C :   -0.549503
  16 C :   -0.508247
  17 C :   -0.402111
  18 H :    0.174395
  19 H :    0.398136
  20 H :    0.148878
  21 H :    0.219966
  22 C :   -0.167104
  23 H :    0.388722
  24 H :    0.185689
  25 C :   -0.852764
  26 H :    0.046790
  27 H :    0.511022
  28 C :   -0.356612
  29 H :    0.086956
  30 H :    0.120664
  31 H :    0.242246
  32 H :    0.510257
  33 H :    0.502191
  34 H :    0.054584
  35 F :   -0.571362
  36 H :    0.236310
  37 H :    0.148207
Sum of atomic charges:    0.0000000

LOEWDIN ATOMIC CHARGES
----------------------
   0 C :    0.302688
   1 C :    0.265117
   2 C :    0.215629
   3 H :   -0.177672
   4 H :   -0.168554
   5 S :    0.092685
   6 C :   -0.311798
   7 C :    0.559251
   8 N :    0.803615
   9 H :   -0.642308
  10 H :   -0.349533
  11 H :   -0.319052
  12 H :   -0.305070
  13 O :    0.264744
  14 O :    0.112695
  15 C :    0.286571
  16 C :    0.269757
  17 C :    0.277753
  18 H :   -0.177275
  19 H :   -0.131188
  20 H :   -0.134456
  21 H :   -0.153710
  22 C :    0.290248
  23 H :   -0.131803
  24 H :   -0.187785
  25 C :    0.301588
  26 H :   -0.151062
  27 H :   -0.130825
  28 C :    0.292460
  29 H :   -0.140864
  30 H :   -0.141607
  31 H :   -0.117255
  32 H :   -0.209161
  33 H :   -0.135476
  34 H :   -0.150049
  35 F :    0.317796
  36 H :   -0.134198
  37 H :   -0.151891

  Mayer bond orders larger than 0.100000
B(  0-C ,  8-N ) :  -0.1261 B(  0-C , 15-C ) :   0.8654 B(  0-C , 36-H ) :   1.0959
B(  0-C , 37-H ) :   1.1134 B(  1-C ,  2-C ) :   0.8568 B(  1-C ,  5-S ) :   0.1271
B(  1-C , 17-C ) :   0.9422 B(  1-C , 20-H ) :   1.0680 B(  1-C , 21-H ) :   0.9985
B(  2-C ,  3-H ) :   1.0465 B(  2-C ,  4-H ) :   0.7842 B(  2-C ,  5-S ) :   0.8759
B(  5-S , 13-O ) :   1.5061 B(  5-S , 14-O ) :   1.3231 B(  5-S , 35-F ) :   0.2244
B(  6-C ,  7-C ) :   0.3397 B(  6-C ,  8-N ) :   0.7986 B(  6-C ,  9-H ) :  -0.2982
B(  6-C , 10-H ) :  -0.1501 B(  6-C , 11-H ) :  -0.2304 B(  6-C , 15-C ) :   0.2006
B(  6-C , 36-H ) :  -0.1094 B(  7-C ,  8-N ) :  -0.1386 B(  7-C , 11-H ) :   1.4528
B(  7-C , 12-H ) :   0.6806 B(  8-N ,  9-H ) :   0.2665 B(  8-N , 10-H ) :   1.4054
B(  9-H , 14-O ) :   0.1130 B( 15-C , 22-C ) :   0.7902 B( 15-C , 23-H ) :   0.9043
B( 15-C , 24-H ) :   1.0371 B( 16-C , 17-C ) :   0.8855 B( 16-C , 25-C ) :   0.1360
B( 16-C , 28-C ) :   0.8319 B( 16-C , 31-H ) :   0.9423 B( 16-C , 32-H ) :   0.9390
B( 17-C , 18-H ) :   1.0421 B( 17-C , 19-H ) :   0.7900 B( 22-C , 24-H ) :   0.1235
B( 22-C , 25-C ) :   0.8024 B( 22-C , 26-H ) :   1.1419 B( 22-C , 27-H ) :   0.7671
B( 25-C , 26-H ) :   0.1302 B( 25-C , 27-H ) :  -0.1192 B( 25-C , 28-C ) :   0.9029
B( 25-C , 29-H ) :   1.1517 B( 25-C , 30-H ) :   1.1329 B( 28-C , 33-H ) :   0.7237
B( 28-C , 34-H ) :   1.1321 B( 29-H , 30-H ) :   0.1078

E(0)                                       ...  -1130.662376508
E(0)                                       ...  -1130.662376508
E(CORR)(strong-pairs)                      ...     -3.179869930
E(CORR)(weak-pairs)                        ...     -0.006107784
E(CORR)(corrected)                         ...     -3.185977714
E(TOT)                                     ...  -1133.848354222
E(CCSD(T))                                 ...  -1133.983061619
FINAL SINGLE POINT ENERGY     -1133.983061618951

DIPOLE MOMENT
-------------
                                X             Y             Z
Electronic contribution:     -8.00244     -23.53213     -13.43586
Nuclear contribution   :      8.54118      20.92489      15.31138
                        -----------------------------------------
Total Dipole Moment    :      0.53874      -2.60723       1.87552
                        -----------------------------------------
Magnitude (a.u.)       :      3.25661
Magnitude (Debye)      :      8.27763

Rotational constants in cm-1:     0.018156     0.012306     0.008278
Rotational constants in MHz :   544.309022   368.914527   248.178402

                             ****ORCA TERMINATED NORMALLY****
TOTAL RUN TIME: 0 days 7 hours 31 minutes 38 seconds 281 msec
