                         Program Version 5.0.0 -  RELEASE  -
|  1> !DLPNO-CCSD(T) aug-cc-pVTZ aug-cc-pVTZ/C TightSCF TightPNO RIJCOSX def2/J
|  2>
|  3> *xyzfile 0 1 D6.xyz
|  4>
|  5> %MaxCore 64000
|  6>
|  7> %pal nprocs 18
|  8> end
|  9>
| 10> %scf
| 11>   MaxIter 150
| 12> end
| 13>
| 14>
| 15>                          ****END OF INPUT****

CARTESIAN COORDINATES (ANGSTROEM)
---------------------------------
  C      5.558206   -1.992914   -6.215054
  C      4.930199   -7.375319   -2.649623
  C      3.841892   -6.951611   -3.632829
  H      3.458144   -5.954425   -3.407121
  H      2.988484   -7.643606   -3.567078
  S      4.318115   -6.915930   -5.368692
  C      4.181880   -2.589671   -6.298911
  N      3.145873   -1.768431   -6.486753
  C      4.019102   -3.864307   -6.227427
  H      4.768490   -4.591153   -5.990773
  H      3.122405   -4.333392   -6.314620
  H      3.281635   -0.777786   -6.566549
  H      2.212549   -2.134193   -6.562246
  O      5.406154   -5.899480   -5.512972
  O      3.111910   -6.445079   -6.043792
  C      6.419260   -2.542944   -5.077630
  C      5.872267   -5.002756   -2.427819
  C      6.173994   -6.485522   -2.606315
  H      6.734852   -6.613767   -3.534015
  H      6.821463   -6.831018   -1.793617
  H      4.469612   -7.406168   -1.655876
  H      5.230134   -8.398678   -2.885906
  C      5.896512   -2.169314   -3.694552
  H      7.428880   -2.143665   -5.208078
  H      6.505894   -3.627541   -5.175502
  C      6.807804   -2.623428   -2.551019
  H      4.894708   -2.589732   -3.557501
  H      5.778823   -1.081255   -3.635790
  C      7.111544   -4.122463   -2.520363
  H      7.751615   -2.071393   -2.614406
  H      6.345837   -2.326401   -1.604086
  H      5.362882   -4.828697   -1.471335
  H      5.174429   -4.702577   -3.211298
  H      7.778329   -4.329347   -1.677651
  H      7.673189   -4.402845   -3.417586
  F      4.763396   -8.239424   -5.698629
  H      6.036826   -2.198189   -7.176852
  H      5.467610   -0.907371   -6.127968

 Total Charge           Charge          ....    0
 Multiplicity           Mult            ....    1
 Number of Electrons    NEL             ....  136
 Basis Dimension        Dim             .... 1246

ORBITAL ENERGIES
----------------

  NO   OCC          E(Eh)            E(eV)
   0   2.0000     -92.257203     -2510.4461
   1   2.0000     -26.441557      -719.5113
   2   2.0000     -20.564983      -559.6016
   3   2.0000     -20.558546      -559.4265
   4   2.0000     -15.529802      -422.5874
   5   2.0000     -11.297855      -307.4303
   6   2.0000     -11.257476      -306.3315
   7   2.0000     -11.227020      -305.5027
   8   2.0000     -11.216659      -305.2208
   9   2.0000     -11.214502      -305.1621
  10   2.0000     -11.210051      -305.0410
  11   2.0000     -11.207215      -304.9638
  12   2.0000     -11.201644      -304.8122
  13   2.0000     -11.199717      -304.7598
  14   2.0000     -11.198206      -304.7187
  15   2.0000     -11.099592      -302.0352
  16   2.0000      -9.220457      -250.9014
  17   2.0000      -6.908080      -187.9784
  18   2.0000      -6.903832      -187.8628
  19   2.0000      -6.903208      -187.8458
  20   2.0000      -1.812926       -49.3322
  21   2.0000      -1.450463       -39.4691
  22   2.0000      -1.342111       -36.5207
  23   2.0000      -1.203841       -32.7582
  24   2.0000      -1.124061       -30.5873
  25   2.0000      -1.084640       -29.5146
  26   2.0000      -1.049357       -28.5544
  27   2.0000      -1.019041       -27.7295
  28   2.0000      -0.981624       -26.7113
  29   2.0000      -0.957759       -26.0619
  30   2.0000      -0.925711       -25.1899
  31   2.0000      -0.884927       -24.0801
  32   2.0000      -0.847397       -23.0588
  33   2.0000      -0.840404       -22.8686
  34   2.0000      -0.831458       -22.6251
  35   2.0000      -0.802625       -21.8405
  36   2.0000      -0.764645       -20.8070
  37   2.0000      -0.752959       -20.4891
  38   2.0000      -0.726774       -19.7765
  39   2.0000      -0.680440       -18.5157
  40   2.0000      -0.676638       -18.4123
  41   2.0000      -0.667408       -18.1611
  42   2.0000      -0.648063       -17.6347
  43   2.0000      -0.641205       -17.4481
  44   2.0000      -0.635563       -17.2946
  45   2.0000      -0.615775       -16.7561
  46   2.0000      -0.608691       -16.5633
  47   2.0000      -0.581234       -15.8162
  48   2.0000      -0.578087       -15.7305
  49   2.0000      -0.571105       -15.5406
  50   2.0000      -0.567443       -15.4409
  51   2.0000      -0.542903       -14.7731
  52   2.0000      -0.529097       -14.3975
  53   2.0000      -0.519883       -14.1467
  54   2.0000      -0.510732       -13.8977
  55   2.0000      -0.502506       -13.6739
  56   2.0000      -0.494095       -13.4450
  57   2.0000      -0.489029       -13.3071
  58   2.0000      -0.482658       -13.1338
  59   2.0000      -0.473967       -12.8973
  60   2.0000      -0.467408       -12.7188
  61   2.0000      -0.460579       -12.5330
  62   2.0000      -0.455638       -12.3986
  63   2.0000      -0.438130       -11.9221
  64   2.0000      -0.435544       -11.8517
  65   2.0000      -0.428618       -11.6633
  66   2.0000      -0.412319       -11.2198
  67   2.0000      -0.261436        -7.1140
  68   0.0000       0.020034         0.5451
  69   0.0000       0.030412         0.8276
  70   0.0000       0.031046         0.8448
  71   0.0000       0.035673         0.9707
  72   0.0000       0.041476         1.1286

MULLIKEN ATOMIC CHARGES
-----------------------
   0 C :   -0.161279
   1 C :   -0.696944
   2 C :   -0.407378
   3 H :    0.115412
   4 H :    0.440587
   5 S :    2.378239
   6 C :    0.864535
   7 N :   -0.893088
   8 C :   -1.225003
   9 H :    0.503142
  10 H :    0.383353
  11 H :   -0.039422
  12 H :   -0.023146
  13 O :   -0.864305
  14 O :   -1.024550
  15 C :   -0.544226
  16 C :   -0.518435
  17 C :   -0.398519
  18 H :    0.185954
  19 H :    0.385282
  20 H :    0.173674
  21 H :    0.224343
  22 C :   -0.210603
  23 H :    0.429791
  24 H :    0.204511
  25 C :   -0.895764
  26 H :    0.065473
  27 H :    0.548464
  28 C :   -0.336488
  29 H :    0.075136
  30 H :    0.099461
  31 H :    0.255759
  32 H :    0.499101
  33 H :    0.506039
  34 H :    0.056964
  35 F :   -0.585859
  36 H :    0.299902
  37 H :    0.129886
Sum of atomic charges:   -0.0000000

LOEWDIN ATOMIC CHARGES
----------------------
   0 C :    0.305117
   1 C :    0.262903
   2 C :    0.212595
   3 H :   -0.178465
   4 H :   -0.171000
   5 S :    0.087580
   6 C :   -0.286320
   7 N :    0.846869
   8 C :    0.485742
   9 H :   -0.631234
  10 H :   -0.352836
  11 H :   -0.302744
  12 H :   -0.281675
  13 O :    0.254677
  14 O :    0.111144
  15 C :    0.288810
  16 C :    0.270240
  17 C :    0.277266
  18 H :   -0.177405
  19 H :   -0.132918
  20 H :   -0.136516
  21 H :   -0.154417
  22 C :    0.289097
  23 H :   -0.132030
  24 H :   -0.184244
  25 C :    0.300555
  26 H :   -0.153423
  27 H :   -0.134579
  28 C :    0.292618
  29 H :   -0.141790
  30 H :   -0.142410
  31 H :   -0.118422
  32 H :   -0.207984
  33 H :   -0.136163
  34 H :   -0.149169
  35 F :    0.311197
  36 H :   -0.134335
  37 H :   -0.156331

  Mayer bond orders larger than 0.100000
B(  0-C ,  6-C ) :   0.4999 B(  0-C ,  7-N ) :  -0.1494 B(  0-C , 15-C ) :   0.9014
B(  0-C , 24-H ) :   0.1081 B(  0-C , 36-H ) :   1.0641 B(  0-C , 37-H ) :   1.0977
B(  1-C ,  2-C ) :   0.8752 B(  1-C ,  5-S ) :   0.1163 B(  1-C , 17-C ) :   0.9464
B(  1-C , 20-H ) :   1.0363 B(  1-C , 21-H ) :   0.9919 B(  2-C ,  3-H ) :   1.0746
B(  2-C ,  4-H ) :   0.7874 B(  2-C ,  5-S ) :   0.8602 B(  3-H ,  5-S ) :   0.1061
B(  5-S , 13-O ) :   1.5727 B(  5-S , 14-O ) :   1.3576 B(  5-S , 35-F ) :   0.1485
B(  6-C ,  7-N ) :   0.7880 B(  6-C ,  8-C ) :   1.3704 B(  6-C ,  9-H ) :   0.1255
B(  6-C , 11-H ) :  -0.1714 B(  6-C , 15-C ) :   0.1769 B(  6-C , 36-H ) :  -0.1165
B(  7-N ,  8-C ) :  -0.6664 B(  7-N , 11-H ) :   1.3523 B(  7-N , 12-H ) :   1.2747
B(  8-C ,  9-H ) :   0.8025 B(  8-C , 10-H ) :   1.0033 B(  8-C , 12-H ) :  -0.1353
B(  9-H , 10-H ) :   0.2081 B(  9-H , 13-O ) :  -0.1561 B(  9-H , 14-O ) :   0.1852
B( 15-C , 22-C ) :   0.8094 B( 15-C , 23-H ) :   0.8396 B( 15-C , 24-H ) :   1.0493
B( 16-C , 17-C ) :   0.8814 B( 16-C , 25-C ) :   0.1415 B( 16-C , 28-C ) :   0.8308
B( 16-C , 31-H ) :   0.9276 B( 16-C , 32-H ) :   0.9253 B( 17-C , 18-H ) :   1.0342
B( 17-C , 19-H ) :   0.7949 B( 22-C , 24-H ) :   0.1572 B( 22-C , 25-C ) :   0.8087
B( 22-C , 26-H ) :   1.0981 B( 22-C , 27-H ) :   0.7388 B( 25-C , 26-H ) :   0.1466
B( 25-C , 27-H ) :  -0.1438 B( 25-C , 28-C ) :   0.8803 B( 25-C , 29-H ) :   1.1823
B( 25-C , 30-H ) :   1.1606 B( 28-C , 33-H ) :   0.7308 B( 28-C , 34-H ) :   1.1299
B( 29-H , 30-H ) :   0.1114

E(0)                                       ...  -1130.643563695
E(0)                                       ...  -1130.643563695
E(CORR)(strong-pairs)                      ...     -3.182661802
E(CORR)(weak-pairs)                        ...     -0.006030990
E(CORR)(corrected)                         ...     -3.188692792
E(TOT)                                     ...  -1133.832256487
E(CCSD(T))                                 ...  -1133.967105313
FINAL SINGLE POINT ENERGY     -1133.967105313183

DIPOLE MOMENT
-------------
                                X             Y             Z
Electronic contribution:     -8.78559     -21.67238     -13.86491
Nuclear contribution   :      8.67311      20.60825      15.35056
                        -----------------------------------------
Total Dipole Moment    :     -0.11249      -1.06414       1.48565
                        -----------------------------------------
Magnitude (a.u.)       :      1.83090
Magnitude (Debye)      :      4.65378

Rotational constants in cm-1:     0.017976     0.012151     0.008188
Rotational constants in MHz :   538.898457   364.286417   245.482451

                             ****ORCA TERMINATED NORMALLY****
TOTAL RUN TIME: 0 days 7 hours 32 minutes 41 seconds 139 msec
