                         Program Version 5.0.0 -  RELEASE  -
|  1> !DLPNO-CCSD(T) aug-cc-pVTZ aug-cc-pVTZ/C TightSCF TightPNO RIJCOSX def2/J
|  2> *xyz -1 1
|  3> C          0.69721        3.22791       -0.52513
|  4> O          1.48929        2.37470        0.19919
|  5> H          0.26505        2.70007       -1.34946
|  6> H          1.28994        4.03943       -0.89255
|  7> H         -0.08148        3.61005        0.10138
|  8> *
|  9>
| 10> %MaxCore 64000
| 11> %pal  nprocs 2
| 12> end
| 13>
| 14> %scf
| 15>   MaxIter 150
| 16> end
| 17>
| 18>
| 19>                          ****END OF INPUT****

CARTESIAN COORDINATES (ANGSTROEM)
---------------------------------
  C      0.697210    3.227910   -0.525130
  O      1.489290    2.374700    0.199190
  H      0.265050    2.700070   -1.349460
  H      1.289940    4.039430   -0.892550
  H     -0.081480    3.610050    0.101380

 Total Charge           Charge          ....   -1
 Multiplicity           Mult            ....    1
 Number of Electrons    NEL             ....   18
 Basis Dimension        Dim             ....  161

ORBITAL ENERGIES
----------------

  NO   OCC          E(Eh)            E(eV)
   0   2.0000     -20.185919      -549.2868
   1   2.0000     -11.004727      -299.4538
   2   2.0000      -0.973461       -26.4892
   3   2.0000      -0.632999       -17.2248
   4   2.0000      -0.357028        -9.7152
   5   2.0000      -0.357023        -9.7151
   6   2.0000      -0.248640        -6.7658
   7   2.0000      -0.096314        -2.6208
   8   2.0000      -0.096298        -2.6204
   9   0.0000       0.144761         3.9391
  10   0.0000       0.154645         4.2081
  11   0.0000       0.154645         4.2081
  12   0.0000       0.215876         5.8743
  13   0.0000       0.262354         7.1390

MULLIKEN ATOMIC CHARGES
-----------------------
   0 C :   -0.663057
   1 O :   -1.046813
   2 H :    0.235736
   3 H :    0.233322
   4 H :    0.240812
Sum of atomic charges:   -1.0000000

LOEWDIN ATOMIC CHARGES
----------------------
   0 C :   -0.137246
   1 O :    0.038002
   2 H :   -0.300227
   3 H :   -0.300289
   4 H :   -0.300241

  Mayer bond orders larger than 0.100000
B(  0-C ,  1-O ) :   1.1055 B(  0-C ,  2-H ) :   0.9460 B(  0-C ,  3-H ) :   0.9476
B(  0-C ,  4-H ) :   0.9412

E(0)                                       ...   -114.448442808
E(0)                                       ...   -114.448442808
E(CORR)(strong-pairs)                      ...     -0.463300387
E(CORR)(weak-pairs)                        ...     -0.000191372
E(CORR)(corrected)                         ...     -0.463491759
E(TOT)                                     ...   -114.911934567
E(CCSD(T))                                 ...   -114.930068276
FINAL SINGLE POINT ENERGY      -114.930068276290

DIPOLE MOMENT
-------------
                                X             Y             Z
Electronic contribution:      1.04584      -1.12643       0.95649
Nuclear contribution   :     -1.66672       1.79535      -1.52413
                        -----------------------------------------
Total Dipole Moment    :     -0.62088       0.66891      -0.56765
                        -----------------------------------------
Magnitude (a.u.)       :      1.07478
Magnitude (Debye)      :      2.73188

Rotational constants in cm-1:     5.477728     0.937442     0.937441
Rotational constants in MHz : 164218.159175 28103.818547 28103.787504

                             ****ORCA TERMINATED NORMALLY****
TOTAL RUN TIME: 0 days 0 hours 2 minutes 27 seconds 95 msec
