                         Program Version 5.0.0 -  RELEASE  -
|  1> !DLPNO-CCSD(T) aug-cc-pVTZ aug-cc-pVTZ/C TightSCF TightPNO RIJCOSX def2/J
|  2> *xyz 1 1
|  3> C          3.95643        0.50147       -0.37910
|  4> N          3.80389        1.96157       -0.15675
|  5> H          4.20643        2.24441        0.74536
|  6> H          2.80827        2.21132       -0.09610
|  7> H          4.28076        2.50155       -0.89104
|  8> H          3.52890        0.23799       -1.32393
|  9> H          3.45469       -0.03240        0.40073
| 10> H          4.99562        0.24661       -0.37434
| 11> *
| 12>
| 13> %MaxCore 64000
| 14> %pal  nprocs 2
| 15> end
| 16>
| 17> %scf
| 18>   MaxIter 150
| 19> end
| 20>
| 21>
| 22>                          ****END OF INPUT****

CARTESIAN COORDINATES (ANGSTROEM)
---------------------------------
  C      3.956430    0.501470   -0.379100
  N      3.803890    1.961570   -0.156750
  H      4.206430    2.244410    0.745360
  H      2.808270    2.211320   -0.096100
  H      4.280760    2.501550   -0.891040
  H      3.528900    0.237990   -1.323930
  H      3.454690   -0.032400    0.400730
  H      4.995620    0.246610   -0.374340

 Total Charge           Charge          ....    1
 Multiplicity           Mult            ....    1
 Number of Electrons    NEL             ....   18
 Basis Dimension        Dim             ....  230

ORBITAL ENERGIES
----------------

  NO   OCC          E(Eh)            E(eV)
   0   2.0000     -15.914873      -433.0657
   1   2.0000     -11.483312      -312.4768
   2   2.0000      -1.530428       -41.6451
   3   2.0000      -1.181167       -32.1412
   4   2.0000      -0.994875       -27.0719
   5   2.0000      -0.982284       -26.7293
   6   2.0000      -0.874128       -23.7862
   7   2.0000      -0.784537       -21.3483
   8   2.0000      -0.782517       -21.2934
   9   0.0000      -0.127725        -3.4756
  10   0.0000      -0.086553        -2.3552
  11   0.0000      -0.085732        -2.3329
  12   0.0000      -0.083132        -2.2621
  13   0.0000      -0.047044        -1.2801

MULLIKEN ATOMIC CHARGES
-----------------------
   0 C :   -0.806345
   1 N :    0.093419
   2 H :    0.174654
   3 H :    0.180246
   4 H :    0.180547
   5 H :    0.388270
   6 H :    0.396095
   7 H :    0.393114
Sum of atomic charges:    1.0000000

LOEWDIN ATOMIC CHARGES
----------------------
   0 C :    0.690061
   1 N :    1.093688
   2 H :   -0.126947
   3 H :   -0.124203
   4 H :   -0.119898
   5 H :   -0.137559
   6 H :   -0.137395
   7 H :   -0.137748

  Mayer bond orders larger than 0.100000
B(  0-C ,  1-N ) :   0.8122 B(  0-C ,  5-H ) :   0.8551 B(  0-C ,  6-H ) :   0.8463
B(  0-C ,  7-H ) :   0.8479 B(  1-N ,  2-H ) :   0.9816 B(  1-N ,  3-H ) :   0.9763
B(  1-N ,  4-H ) :   0.9779

E(0)                                       ...    -95.617380961
E(0)                                       ...    -95.617380961
E(CORR)(strong-pairs)                      ...     -0.429270017
E(CORR)(weak-pairs)                        ...     -0.000233842
E(CORR)(corrected)                         ...     -0.429503859
E(TOT)                                     ...    -96.046884820
E(CCSD(T))                                 ...    -96.060342584
FINAL SINGLE POINT ENERGY       -96.060342584072

DIPOLE MOMENT
-------------
                                X             Y             Z
Electronic contribution:     -0.10977       1.06964       0.14029
Nuclear contribution   :      0.02154      -0.23654       0.01355
                        -----------------------------------------
Total Dipole Moment    :     -0.08822       0.83310       0.15383
                        -----------------------------------------
Magnitude (a.u.)       :      0.85176
Magnitude (Debye)      :      2.16501

Rotational constants in cm-1:     2.873586     0.687737     0.684128
Rotational constants in MHz : 86147.950763 20617.847271 20509.632222

                             ****ORCA TERMINATED NORMALLY****
TOTAL RUN TIME: 0 days 0 hours 2 minutes 29 seconds 593 msec
