                         Program Version 5.0.0 -  RELEASE  -
|  1> !DLPNO-CCSD(T) aug-cc-pVTZ aug-cc-pVTZ/C TightSCF TightPNO RIJCOSX def2/J
|  2> *xyz 0 1
|  3> C          0.69721        3.22791       -0.52513
|  4> F          1.48929        2.37470        0.19919
|  5> H          0.26505        2.70007       -1.34946
|  6> H          1.28994        4.03943       -0.89255
|  7> H         -0.08148        3.61005        0.10138
|  8> *
|  9>
| 10> %MaxCore 64000
| 11> %pal  nprocs 2
| 12> end
| 13>
| 14> %scf
| 15>   MaxIter 150
| 16> end
| 17>
| 18>
| 19>                          ****END OF INPUT****

CARTESIAN COORDINATES (ANGSTROEM)
---------------------------------
  C      0.697210    3.227910   -0.525130
  F      1.489290    2.374700    0.199190
  H      0.265050    2.700070   -1.349460
  H      1.289940    4.039430   -0.892550
  H     -0.081480    3.610050    0.101380

 Total Charge           Charge          ....    0
 Multiplicity           Mult            ....    1
 Number of Electrons    NEL             ....   18
 Basis Dimension        Dim             ....  161

ORBITAL ENERGIES
----------------

  NO   OCC          E(Eh)            E(eV)
   0   2.0000     -26.279571      -715.1035
   1   2.0000     -11.297726      -307.4268
   2   2.0000      -1.592063       -43.3222
   3   2.0000      -0.961685       -26.1688
   4   2.0000      -0.700222       -19.0540
   5   2.0000      -0.700219       -19.0539
   6   2.0000      -0.680816       -18.5259
   7   2.0000      -0.532806       -14.4984
   8   2.0000      -0.532790       -14.4980
   9   0.0000       0.029391         0.7998
  10   0.0000       0.047165         1.2834
  11   0.0000       0.047166         1.2834
  12   0.0000       0.074973         2.0401
  13   0.0000       0.124019         3.3747

MULLIKEN ATOMIC CHARGES
-----------------------
   0 C :   -0.478491
   1 F :   -0.420538
   2 H :    0.298288
   3 H :    0.296843
   4 H :    0.303898
Sum of atomic charges:   -0.0000000

LOEWDIN ATOMIC CHARGES
----------------------
   0 C :    0.220353
   1 F :    0.428732
   2 H :   -0.216379
   3 H :   -0.216387
   4 H :   -0.216318

  Mayer bond orders larger than 0.100000
B(  0-C ,  1-F ) :   0.6721 B(  0-C ,  2-H ) :   0.9182 B(  0-C ,  3-H ) :   0.9190
B(  0-C ,  4-H ) :   0.9121

E(0)                                       ...   -139.097646880
E(0)                                       ...   -139.097646880
E(CORR)(strong-pairs)                      ...     -0.458463129
E(CORR)(weak-pairs)                        ...     -0.000195563
E(CORR)(corrected)                         ...     -0.458658692
E(TOT)                                     ...   -139.556305572
E(CCSD(T))                                 ...   -139.569951663
FINAL SINGLE POINT ENERGY      -139.569951663385

DIPOLE MOMENT
-------------
                                X             Y             Z
Electronic contribution:      1.65690      -1.78466       1.51519
Nuclear contribution   :     -2.11402       2.27717      -1.93317
                        -----------------------------------------
Total Dipole Moment    :     -0.45712       0.49250      -0.41798
                        -----------------------------------------
Magnitude (a.u.)       :      0.79135
Magnitude (Debye)      :      2.01144

Rotational constants in cm-1:     5.477728     0.872600     0.872599
Rotational constants in MHz : 164218.159175 26159.886777 26159.859881

                             ****ORCA TERMINATED NORMALLY****
TOTAL RUN TIME: 0 days 0 hours 1 minutes 24 seconds 512 msec
