                         Program Version 5.0.0 -  RELEASE  -
|  1> !DLPNO-CCSD(T) aug-cc-pVTZ aug-cc-pVTZ/C TightSCF TightPNO RIJCOSX def2/J
|  2> *xyz 0 1
|  3> C          3.95643        0.50147       -0.37910
|  4> C          3.80389        1.96157       -0.15675
|  5> H          4.20643        2.24441        0.74536
|  6> H          2.80827        2.21132       -0.09610
|  7> H          4.28076        2.50155       -0.89104
|  8> H          3.52890        0.23799       -1.32393
|  9> H          3.45469       -0.03240        0.40073
| 10> H          4.99562        0.24661       -0.37434
| 11> *
| 12>
| 13> %MaxCore 64000
| 14> %pal  nprocs 2
| 15> end
| 16>
| 17> %scf
| 18>   MaxIter 150
| 19> end
| 20>
| 21>
| 22>                          ****END OF INPUT****

CARTESIAN COORDINATES (ANGSTROEM)
---------------------------------
  C      3.956430    0.501470   -0.379100
  C      3.803890    1.961570   -0.156750
  H      4.206430    2.244410    0.745360
  H      2.808270    2.211320   -0.096100
  H      4.280760    2.501550   -0.891040
  H      3.528900    0.237990   -1.323930
  H      3.454690   -0.032400    0.400730
  H      4.995620    0.246610   -0.374340

 Total Charge           Charge          ....    0
 Multiplicity           Mult            ....    1
 Number of Electrons    NEL             ....   18
 Basis Dimension        Dim             ....  230

ORBITAL ENERGIES
----------------

  NO   OCC          E(Eh)            E(eV)
   0   2.0000     -11.196979      -304.6853
   1   2.0000     -11.180947      -304.2490
   2   2.0000      -1.039677       -28.2910
   3   2.0000      -0.851975       -23.1834
   4   2.0000      -0.619083       -16.8461
   5   2.0000      -0.611086       -16.6285
   6   2.0000      -0.512626       -13.9493
   7   2.0000      -0.496911       -13.5216
   8   2.0000      -0.489485       -13.3196
   9   0.0000       0.033158         0.9023
  10   0.0000       0.043400         1.1810
  11   0.0000       0.043826         1.1926
  12   0.0000       0.044141         1.2011
  13   0.0000       0.068681         1.8689

MULLIKEN ATOMIC CHARGES
-----------------------
   0 C :   -0.851483
   1 C :   -0.957678
   2 H :    0.294842
   3 H :    0.313450
   4 H :    0.327435
   5 H :    0.280076
   6 H :    0.303133
   7 H :    0.290224
Sum of atomic charges:   -0.0000000

LOEWDIN ATOMIC CHARGES
----------------------
   0 C :    0.583288
   1 C :    0.596728
   2 H :   -0.214871
   3 H :   -0.211687
   4 H :   -0.207481
   5 H :   -0.182109
   6 H :   -0.181622
   7 H :   -0.182247

  Mayer bond orders larger than 0.100000
B(  0-C ,  1-C ) :   0.7891 B(  0-C ,  5-H ) :   0.9422 B(  0-C ,  6-H ) :   0.9201
B(  0-C ,  7-H ) :   0.9299 B(  1-C ,  2-H ) :   0.9412 B(  1-C ,  3-H ) :   0.9174
B(  1-C ,  4-H ) :   0.9014

E(0)                                       ...    -79.251083331
E(0)                                       ...    -79.251083331
E(CORR)(strong-pairs)                      ...     -0.403638955
E(CORR)(weak-pairs)                        ...     -0.000235159
E(CORR)(corrected)                         ...     -0.403874114
E(TOT)                                     ...    -79.654957445
E(CCSD(T))                                 ...    -79.667957639
FINAL SINGLE POINT ENERGY       -79.667957639495

DIPOLE MOMENT
-------------
                                X             Y             Z
Electronic contribution:      0.00217       0.01241      -0.03782
Nuclear contribution   :     -0.00471       0.01526       0.05114
                        -----------------------------------------
Total Dipole Moment    :     -0.00254       0.02767       0.01331
                        -----------------------------------------
Magnitude (a.u.)       :      0.03081
Magnitude (Debye)      :      0.07832

Rotational constants in cm-1:     2.873610     0.717865     0.713933
Rotational constants in MHz : 86148.646881 21521.066032 21403.176468

                             ****ORCA TERMINATED NORMALLY****
TOTAL RUN TIME: 0 days 0 hours 2 minutes 55 seconds 450 msec
