                         Program Version 5.0.0 -  RELEASE  -
|  1> !wB97X-D3 RIJCOSX def2-TZVPD def2/J TightSCF
|  2> *xyz -1 1
|  3> C         -0.05517        1.61942       -3.78858
|  4> C          1.22302        2.46987       -3.75691
|  5> H          1.11470        3.25807       -4.53300
|  6> H          1.23773        3.01124       -2.79216
|  7> O          2.35381        1.71203       -3.93448
|  8> H         -0.10198        1.08015       -4.71156
|  9> H         -0.91014        2.25726       -3.70441
| 10> H         -0.04403        0.92826       -2.97183
| 11> *
| 12>
| 13> %MaxCore 64000
| 14>
| 15> %pal nprocs 4
| 16> end
| 17>
| 18> %scf
| 19>   MaxIter 150
| 20> end
| 21>
| 22>
| 23>                          ****END OF INPUT****

CARTESIAN COORDINATES (ANGSTROEM)
---------------------------------
  C     -0.055170    1.619420   -3.788580
  C      1.223020    2.469870   -3.756910
  H      1.114700    3.258070   -4.533000
  H      1.237730    3.011240   -2.792160
  O      2.353810    1.712030   -3.934480
  H     -0.101980    1.080150   -4.711560
  H     -0.910140    2.257260   -3.704410
  H     -0.044030    0.928260   -2.971830

 Total Charge           Charge          ....   -1
 Multiplicity           Mult            ....    1
 Number of Electrons    NEL             ....   26
 Basis Dimension        Dim             ....  159

ORBITAL ENERGIES
----------------

  NO   OCC          E(Eh)            E(eV)
   0   2.0000     -18.893108      -514.1076
   1   2.0000     -10.087062      -274.4829
   2   2.0000     -10.063321      -273.8369
   3   2.0000      -0.791758       -21.5448
   4   2.0000      -0.639962       -17.4142
   5   2.0000      -0.481624       -13.1056
   6   2.0000      -0.351543        -9.5660
   7   2.0000      -0.326882        -8.8949
   8   2.0000      -0.269097        -7.3225
   9   2.0000      -0.251954        -6.8560
  10   2.0000      -0.204956        -5.5771
  11   2.0000      -0.059119        -1.6087
  12   2.0000      -0.057904        -1.5757
  13   0.0000       0.212830         5.7914
  14   0.0000       0.233247         6.3470
  15   0.0000       0.262498         7.1429
  16   0.0000       0.263956         7.1826
  17   0.0000       0.287743         7.8299

MULLIKEN ATOMIC CHARGES
-----------------------
   0 C :   -0.887011
   1 C :   -0.241793
   2 H :    0.132474
   3 H :    0.134719
   4 O :   -0.922763
   5 H :    0.234496
   6 H :    0.314922
   7 H :    0.234956
Sum of atomic charges:   -1.0000000

LOEWDIN ATOMIC CHARGES
----------------------
   0 C :   -0.171082
   1 C :   -0.616791
   2 H :    0.057341
   3 H :    0.056137
   4 O :   -0.434758
   5 H :    0.040628
   6 H :    0.028680
   7 H :    0.039846

  Mayer bond orders larger than 0.100000
B(  0-C ,  1-C ) :   0.7809 B(  0-C ,  4-O ) :   0.2286 B(  0-C ,  5-H ) :   0.9956
B(  0-C ,  6-H ) :   0.9406 B(  0-C ,  7-H ) :   0.9909 B(  1-C ,  2-H ) :   1.0661
B(  1-C ,  3-H ) :   1.0700 B(  1-C ,  4-O ) :   1.0459

Dispersion correction           -0.000857260
FINAL SINGLE POINT ENERGY      -154.439713965526

DIPOLE MOMENT
-------------
                                X             Y             Z
Electronic contribution:      2.69976      -0.49578      -0.24286
Nuclear contribution   :     -4.28298       0.81046       0.39340
                        -----------------------------------------
Total Dipole Moment    :     -1.58322       0.31468       0.15055
                        -----------------------------------------
Magnitude (a.u.)       :      1.62120
Magnitude (Debye)      :      4.12075

Rotational constants in cm-1:     1.266793     0.328147     0.288309
Rotational constants in MHz : 37977.512300  9837.594308  8643.275638

                             ****ORCA TERMINATED NORMALLY****
TOTAL RUN TIME: 0 days 0 hours 0 minutes 23 seconds 580 msec
