                         Program Version 5.0.0 -  RELEASE  -
|  1> !wB97X-D3 RIJCOSX def2-TZVPD def2/J TightSCF
|  2> *xyz 1 1
|  3> C          1.63556       -1.67040       -5.29211
|  4> C          0.33848       -1.50091       -4.50540
|  5> N          2.48451       -0.50741       -5.14039
|  6> H          1.39834       -1.82924       -6.35259
|  7> H          2.15586       -2.56540       -4.93209
|  8> C          3.45115       -0.14953       -5.95259
|  9> N          3.92267        1.08956       -5.85071
| 10> N          3.96616       -1.00618       -6.86788
| 11> H          3.52139       -1.90647       -6.99527
| 12> H          4.44482       -0.62347       -7.67035
| 13> H          2.25200        0.24080       -4.49879
| 14> H          3.46428        1.64078       -5.13639
| 15> H          4.83447        1.31375       -6.22465
| 16> H         -0.17658       -0.62881       -4.85045
| 17> H          0.56384       -1.39374       -3.46490
| 18> H         -0.28102       -2.36136       -4.64938
| 19> *
| 20>
| 21> %MaxCore 64000
| 22>
| 23> %pal nprocs 4
| 24> end
| 25>
| 26> %scf
| 27>   MaxIter 150
| 28> end
| 29>
| 30>
| 31>                          ****END OF INPUT****

CARTESIAN COORDINATES (ANGSTROEM)
---------------------------------
  C      1.635560   -1.670400   -5.292110
  C      0.338480   -1.500910   -4.505400
  N      2.484510   -0.507410   -5.140390
  H      1.398340   -1.829240   -6.352590
  H      2.155860   -2.565400   -4.932090
  C      3.451150   -0.149530   -5.952590
  N      3.922670    1.089560   -5.850710
  N      3.966160   -1.006180   -6.867880
  H      3.521390   -1.906470   -6.995270
  H      4.444820   -0.623470   -7.670350
  H      2.252000    0.240800   -4.498790
  H      3.464280    1.640780   -5.136390
  H      4.834470    1.313750   -6.224650
  H     -0.176580   -0.628810   -4.850450
  H      0.563840   -1.393740   -3.464900
  H     -0.281020   -2.361360   -4.649380

 Total Charge           Charge          ....    1
 Multiplicity           Mult            ....    1
 Number of Electrons    NEL             ....   48
 Basis Dimension        Dim             ....  312

ORBITAL ENERGIES
----------------

  NO   OCC          E(Eh)            E(eV)
   0   2.0000     -14.649754      -398.6401
   1   2.0000     -14.644397      -398.4943
   2   2.0000     -14.642684      -398.4477
   3   2.0000     -10.611442      -288.7520
   4   2.0000     -10.485221      -285.3174
   5   2.0000     -10.412322      -283.3337
   6   2.0000      -1.338167       -36.4134
   7   2.0000      -1.222871       -33.2760
   8   2.0000      -1.208770       -32.8923
   9   2.0000      -1.051352       -28.6087
  10   2.0000      -0.940909       -25.6034
  11   2.0000      -0.923189       -25.1213
  12   2.0000      -0.880206       -23.9516
  13   2.0000      -0.849292       -23.1104
  14   2.0000      -0.788100       -21.4453
  15   2.0000      -0.783778       -21.3277
  16   2.0000      -0.765164       -20.8212
  17   2.0000      -0.740734       -20.1564
  18   2.0000      -0.703823       -19.1520
  19   2.0000      -0.643878       -17.5208
  20   2.0000      -0.626541       -17.0491
  21   2.0000      -0.617124       -16.7928
  22   2.0000      -0.572662       -15.5829
  23   2.0000      -0.545602       -14.8466
  24   0.0000      -0.089993        -2.4488
  25   0.0000      -0.089146        -2.4258
  26   0.0000      -0.060669        -1.6509
  27   0.0000      -0.047326        -1.2878
  28   0.0000      -0.028129        -0.7654

MULLIKEN ATOMIC CHARGES
-----------------------
   0 C :   -0.391292
   1 C :   -1.503720
   2 N :   -0.135375
   3 H :    0.377398
   4 H :    0.375525
   5 C :    0.772687
   6 N :   -0.401069
   7 N :   -0.427656
   8 H :    0.258939
   9 H :    0.240672
  10 H :    0.205441
  11 H :    0.220908
  12 H :    0.249676
  13 H :    0.408378
  14 H :    0.385548
  15 H :    0.363940
Sum of atomic charges:    1.0000000

LOEWDIN ATOMIC CHARGES
----------------------
   0 C :   -0.215864
   1 C :   -0.061810
   2 N :    0.078016
   3 H :    0.129500
   4 H :    0.132949
   5 C :   -0.426477
   6 N :    0.199352
   7 N :    0.209441
   8 H :    0.122490
   9 H :    0.137575
  10 H :    0.165632
  11 H :    0.138011
  12 H :    0.144851
  13 H :    0.080383
  14 H :    0.080555
  15 H :    0.085396

  Mayer bond orders larger than 0.100000
B(  0-C ,  1-C ) :   0.6872 B(  0-C ,  2-N ) :   0.9298 B(  0-C ,  3-H ) :   0.7965
B(  0-C ,  4-H ) :   0.8216 B(  1-C , 13-H ) :   0.9010 B(  1-C , 14-H ) :   0.9128
B(  1-C , 15-H ) :   0.9392 B(  2-N ,  5-C ) :   1.2321 B(  2-N ,  6-N ) :   0.1012
B(  2-N , 10-H ) :   0.9695 B(  5-C ,  6-N ) :   1.0780 B(  5-C ,  7-N ) :   1.1158
B(  6-N , 11-H ) :   0.9658 B(  6-N , 12-H ) :   0.9726 B(  7-N ,  8-H ) :   0.9300
B(  7-N ,  9-H ) :   0.9797

Dispersion correction           -0.003480723
FINAL SINGLE POINT ENERGY      -284.428895857746

DIPOLE MOMENT
-------------
                                X             Y             Z
Electronic contribution:      4.70857       2.48255      -1.70622
Nuclear contribution   :     -3.96322      -1.85512       1.24891
                        -----------------------------------------
Total Dipole Moment    :      0.74535       0.62743      -0.45731
                        -----------------------------------------
Magnitude (a.u.)       :      1.07627
Magnitude (Debye)      :      2.73565

Rotational constants in cm-1:     0.261404     0.067000     0.054949
Rotational constants in MHz :  7836.702504  2008.609425  1647.329138

                             ****ORCA TERMINATED NORMALLY****
TOTAL RUN TIME: 0 days 0 hours 1 minutes 22 seconds 801 msec
