                         Program Version 5.0.0 -  RELEASE  -
|  1> !wB97X-D3 RIJCOSX def2-TZVPD def2/J TightSCF
|  2> *xyz 0 1
|  3> C         -0.05517        1.61942       -3.78858
|  4> C          1.22302        2.46987       -3.75691
|  5> H          1.11470        3.25807       -4.53300
|  6> H          1.23773        3.01124       -2.79216
|  7> F          2.35381        1.71203       -3.93448
|  8> H         -0.10198        1.08015       -4.71156
|  9> H         -0.91014        2.25726       -3.70441
| 10> H         -0.04403        0.92826       -2.97183
| 11> *
| 12>
| 13> %MaxCore 64000
| 14>
| 15> %pal nprocs 4
| 16> end
| 17>
| 18> %scf
| 19>   MaxIter 150
| 20> end
| 21>
| 22>
| 23>                          ****END OF INPUT****

CARTESIAN COORDINATES (ANGSTROEM)
---------------------------------
  C     -0.055170    1.619420   -3.788580
  C      1.223020    2.469870   -3.756910
  H      1.114700    3.258070   -4.533000
  H      1.237730    3.011240   -2.792160
  F      2.353810    1.712030   -3.934480
  H     -0.101980    1.080150   -4.711560
  H     -0.910140    2.257260   -3.704410
  H     -0.044030    0.928260   -2.971830

 Total Charge           Charge          ....    0
 Multiplicity           Mult            ....    1
 Number of Electrons    NEL             ....   26
 Basis Dimension        Dim             ....  159

ORBITAL ENERGIES
----------------

  NO   OCC          E(Eh)            E(eV)
   0   2.0000     -24.770783      -674.0473
   1   2.0000     -10.353926      -281.7447
   2   2.0000     -10.268144      -279.4104
   3   2.0000      -1.312530       -35.7157
   4   2.0000      -0.881392       -23.9839
   5   2.0000      -0.742898       -20.2153
   6   2.0000      -0.609460       -16.5843
   7   2.0000      -0.599389       -16.3102
   8   2.0000      -0.558880       -15.2079
   9   2.0000      -0.504149       -13.7186
  10   2.0000      -0.497943       -13.5497
  11   2.0000      -0.432110       -11.7583
  12   2.0000      -0.427244       -11.6259
  13   0.0000       0.073082         1.9887
  14   0.0000       0.095814         2.6072
  15   0.0000       0.118277         3.2185
  16   0.0000       0.121200         3.2980
  17   0.0000       0.149361         4.0643

MULLIKEN ATOMIC CHARGES
-----------------------
   0 C :   -0.973658
   1 C :   -0.066116
   2 H :    0.217746
   3 H :    0.217175
   4 F :   -0.302328
   5 H :    0.289706
   6 H :    0.332755
   7 H :    0.284719
Sum of atomic charges:   -0.0000000

LOEWDIN ATOMIC CHARGES
----------------------
   0 C :   -0.087667
   1 C :   -0.282397
   2 H :    0.112891
   3 H :    0.110861
   4 F :   -0.052539
   5 H :    0.066068
   6 H :    0.067526
   7 H :    0.065257

  Mayer bond orders larger than 0.100000
B(  0-C ,  1-C ) :   0.8079 B(  0-C ,  5-H ) :   0.9538 B(  0-C ,  6-H ) :   0.9215
B(  0-C ,  7-H ) :   0.9553 B(  1-C ,  2-H ) :   0.9801 B(  1-C ,  3-H ) :   0.9835
B(  1-C ,  4-F ) :   0.7666

Dispersion correction           -0.000872722
FINAL SINGLE POINT ENERGY      -179.087663975301

DIPOLE MOMENT
-------------
                                X             Y             Z
Electronic contribution:      5.02405      -0.73555      -0.43194
Nuclear contribution   :     -5.66833       1.07099       0.52006
                        -----------------------------------------
Total Dipole Moment    :     -0.64428       0.33544       0.08812
                        -----------------------------------------
Magnitude (a.u.)       :      0.73170
Magnitude (Debye)      :      1.85983

Rotational constants in cm-1:     1.245689     0.305293     0.269541
Rotational constants in MHz : 37344.801915  9152.442838  8080.640229

                             ****ORCA TERMINATED NORMALLY****
TOTAL RUN TIME: 0 days 0 hours 0 minutes 18 seconds 444 msec
