                         Program Version 5.0.0 -  RELEASE  -
|  1> !wB97X-D3 RIJCOSX def2-TZVPD def2/J TightSCF
|  2> *xyz 0 1
|  3> C          1.63556       -1.67040       -5.29211
|  4> C          0.33848       -1.50091       -4.50540
|  5> C          2.48451       -0.50741       -5.14039
|  6> H          1.39834       -1.82924       -6.35259
|  7> H          2.15586       -2.56540       -4.93209
|  8> C          3.45115       -0.14953       -5.95259
|  9> N          3.92267        1.08956       -5.85071
| 10> N          3.96616       -1.00618       -6.86788
| 11> H          3.52139       -1.90647       -6.99527
| 12> H          4.44482       -0.62347       -7.67035
| 13> H          2.25200        0.24080       -4.49879
| 14> H          3.46428        1.64078       -5.13639
| 15> H          4.83447        1.31375       -6.22465
| 16> H         -0.17658       -0.62881       -4.85045
| 17> H          0.56384       -1.39374       -3.46490
| 18> H         -0.28102       -2.36136       -4.64938
| 19> *
| 20>
| 21> %MaxCore 64000
| 22>
| 23> %pal nprocs 4
| 24> end
| 25>
| 26> %scf
| 27>   MaxIter 150
| 28> end
| 29>
| 30>
| 31>                          ****END OF INPUT****

CARTESIAN COORDINATES (ANGSTROEM)
---------------------------------
  C      1.635560   -1.670400   -5.292110
  C      0.338480   -1.500910   -4.505400
  C      2.484510   -0.507410   -5.140390
  H      1.398340   -1.829240   -6.352590
  H      2.155860   -2.565400   -4.932090
  C      3.451150   -0.149530   -5.952590
  N      3.922670    1.089560   -5.850710
  N      3.966160   -1.006180   -6.867880
  H      3.521390   -1.906470   -6.995270
  H      4.444820   -0.623470   -7.670350
  H      2.252000    0.240800   -4.498790
  H      3.464280    1.640780   -5.136390
  H      4.834470    1.313750   -6.224650
  H     -0.176580   -0.628810   -4.850450
  H      0.563840   -1.393740   -3.464900
  H     -0.281020   -2.361360   -4.649380

 Total Charge           Charge          ....    0
 Multiplicity           Mult            ....    1
 Number of Electrons    NEL             ....   48
 Basis Dimension        Dim             ....  312

ORBITAL ENERGIES
----------------

  NO   OCC          E(Eh)            E(eV)
   0   2.0000     -14.422096      -392.4452
   1   2.0000     -14.416957      -392.3054
   2   2.0000     -10.315057      -280.6870
   3   2.0000     -10.251969      -278.9703
   4   2.0000     -10.241314      -278.6803
   5   2.0000     -10.195171      -277.4247
   6   2.0000      -1.075516       -29.2663
   7   2.0000      -0.985417       -26.8146
   8   2.0000      -0.893394       -24.3105
   9   2.0000      -0.811822       -22.0908
  10   2.0000      -0.721552       -19.6344
  11   2.0000      -0.685689       -18.6586
  12   2.0000      -0.635875       -17.3030
  13   2.0000      -0.616051       -16.7636
  14   2.0000      -0.563890       -15.3442
  15   2.0000      -0.542893       -14.7729
  16   2.0000      -0.527151       -14.3445
  17   2.0000      -0.495290       -13.4775
  18   2.0000      -0.476801       -12.9744
  19   2.0000      -0.436335       -11.8733
  20   2.0000      -0.425409       -11.5760
  21   2.0000      -0.423863       -11.5339
  22   2.0000      -0.359109        -9.7718
  23   2.0000      -0.249593        -6.7918
  24   0.0000       0.065577         1.7845
  25   0.0000       0.086875         2.3640
  26   0.0000       0.089520         2.4360
  27   0.0000       0.111237         3.0269
  28   0.0000       0.119859         3.2615

MULLIKEN ATOMIC CHARGES
-----------------------
   0 C :   -0.051456
   1 C :   -1.508574
   2 C :   -0.707397
   3 H :    0.279034
   4 H :    0.252184
   5 C :    0.366763
   6 N :   -0.438772
   7 N :   -0.460335
   8 H :    0.217992
   9 H :    0.189759
  10 H :    0.383613
  11 H :    0.203079
  12 H :    0.191602
  13 H :    0.378153
  14 H :    0.348389
  15 H :    0.355965
Sum of atomic charges:    0.0000000

LOEWDIN ATOMIC CHARGES
----------------------
   0 C :   -0.293615
   1 C :   -0.114099
   2 C :   -0.156001
   3 H :    0.107330
   4 H :    0.108488
   5 C :   -0.542831
   6 N :    0.096255
   7 N :    0.123296
   8 H :    0.095056
   9 H :    0.098010
  10 H :    0.069254
  11 H :    0.109074
  12 H :    0.102844
  13 H :    0.068579
  14 H :    0.067840
  15 H :    0.060519

  Mayer bond orders larger than 0.100000
B(  0-C ,  1-C ) :   0.5341 B(  0-C ,  2-C ) :   0.6762 B(  0-C ,  3-H ) :   0.8660
B(  0-C ,  4-H ) :   0.9357 B(  0-C ,  5-C ) :   0.1937 B(  1-C ,  2-C ) :   0.3226
B(  1-C , 13-H ) :   0.9379 B(  1-C , 14-H ) :   0.9582 B(  1-C , 15-H ) :   0.9227
B(  2-C ,  5-C ) :   1.2095 B(  2-C , 10-H ) :   0.8449 B(  5-C ,  6-N ) :   1.1129
B(  5-C ,  7-N ) :   0.9667 B(  5-C , 10-H ) :  -0.2189 B(  6-N , 11-H ) :   0.9618
B(  6-N , 12-H ) :   1.0249 B(  7-N ,  8-H ) :   0.9391 B(  7-N ,  9-H ) :   1.0177

Dispersion correction           -0.003473136
FINAL SINGLE POINT ENERGY      -267.945526595144

DIPOLE MOMENT
-------------
                                X             Y             Z
Electronic contribution:      4.51504       2.15476      -1.90298
Nuclear contribution   :     -3.99655      -1.83277       1.34879
                        -----------------------------------------
Total Dipole Moment    :      0.51849       0.32199      -0.55420
                        -----------------------------------------
Magnitude (a.u.)       :      0.82440
Magnitude (Debye)      :      2.09547

Rotational constants in cm-1:     0.262971     0.067064     0.055026
Rotational constants in MHz :  7883.664566  2010.513309  1649.636654

                             ****ORCA TERMINATED NORMALLY****
TOTAL RUN TIME: 0 days 0 hours 1 minutes 23 seconds 12 msec
