                         Program Version 5.0.0 -  RELEASE  -
|  1> !wB97X-D3 RIJCOSX def2-TZVPD def2/J TightSCF
|  2> *xyz 0 1
|  3> C          1.63556       -1.67040       -5.29211
|  4> C          0.33848       -1.50091       -4.50540
|  5> N          2.48451       -0.50741       -5.14039
|  6> H          1.39834       -1.82924       -6.35259
|  7> H          2.15586       -2.56540       -4.93209
|  8> C          3.45115       -0.14953       -5.95259
|  9> C          3.92267        1.08956       -5.85071
| 10> N          3.96616       -1.00618       -6.86788
| 11> H          3.52139       -1.90647       -6.99527
| 12> H          4.44482       -0.62347       -7.67035
| 13> H          2.25200        0.24080       -4.49879
| 14> H          3.46428        1.64078       -5.13639
| 15> H          4.83447        1.31375       -6.22465
| 16> H         -0.17658       -0.62881       -4.85045
| 17> H          0.56384       -1.39374       -3.46490
| 18> H         -0.28102       -2.36136       -4.64938
| 19> *
| 20>
| 21> %MaxCore 64000
| 22>
| 23> %pal nprocs 4
| 24> end
| 25>
| 26> %scf
| 27>   MaxIter 150
| 28> end
| 29>
| 30>
| 31>                          ****END OF INPUT****

CARTESIAN COORDINATES (ANGSTROEM)
---------------------------------
  C      1.635560   -1.670400   -5.292110
  C      0.338480   -1.500910   -4.505400
  N      2.484510   -0.507410   -5.140390
  H      1.398340   -1.829240   -6.352590
  H      2.155860   -2.565400   -4.932090
  C      3.451150   -0.149530   -5.952590
  C      3.922670    1.089560   -5.850710
  N      3.966160   -1.006180   -6.867880
  H      3.521390   -1.906470   -6.995270
  H      4.444820   -0.623470   -7.670350
  H      2.252000    0.240800   -4.498790
  H      3.464280    1.640780   -5.136390
  H      4.834470    1.313750   -6.224650
  H     -0.176580   -0.628810   -4.850450
  H      0.563840   -1.393740   -3.464900
  H     -0.281020   -2.361360   -4.649380

 Total Charge           Charge          ....    0
 Multiplicity           Mult            ....    1
 Number of Electrons    NEL             ....   48
 Basis Dimension        Dim             ....  312

ORBITAL ENERGIES
----------------

  NO   OCC          E(Eh)            E(eV)
   0   2.0000     -14.422613      -392.4592
   1   2.0000     -14.420843      -392.4111
   2   2.0000     -10.320466      -280.8342
   3   2.0000     -10.318374      -280.7772
   4   2.0000     -10.273674      -279.5609
   5   2.0000     -10.180834      -277.0346
   6   2.0000      -1.088505       -29.6197
   7   2.0000      -0.999467       -27.1969
   8   2.0000      -0.895033       -24.3551
   9   2.0000      -0.817198       -22.2371
  10   2.0000      -0.739998       -20.1364
  11   2.0000      -0.703053       -19.1310
  12   2.0000      -0.637625       -17.3507
  13   2.0000      -0.598780       -16.2936
  14   2.0000      -0.584037       -15.8924
  15   2.0000      -0.561862       -15.2891
  16   2.0000      -0.518916       -14.1204
  17   2.0000      -0.496259       -13.5039
  18   2.0000      -0.476998       -12.9798
  19   2.0000      -0.471553       -12.8316
  20   2.0000      -0.470815       -12.8115
  21   2.0000      -0.446266       -12.1435
  22   2.0000      -0.352197        -9.5838
  23   2.0000      -0.248518        -6.7625
  24   0.0000       0.062586         1.7031
  25   0.0000       0.080283         2.1846
  26   0.0000       0.089404         2.4328
  27   0.0000       0.114162         3.1065
  28   0.0000       0.121545         3.3074

MULLIKEN ATOMIC CHARGES
-----------------------
   0 C :   -0.323165
   1 C :   -1.445251
   2 N :   -0.141372
   3 H :    0.331220
   4 H :    0.292117
   5 C :    0.929285
   6 C :   -1.573197
   7 N :   -0.454635
   8 H :    0.205722
   9 H :    0.231608
  10 H :    0.163583
  11 H :    0.328783
  12 H :    0.375251
  13 H :    0.373851
  14 H :    0.351199
  15 H :    0.355001
Sum of atomic charges:   -0.0000000

LOEWDIN ATOMIC CHARGES
----------------------
   0 C :   -0.252559
   1 C :   -0.089482
   2 N :    0.005582
   3 H :    0.114295
   4 H :    0.113871
   5 C :   -0.560330
   6 C :   -0.013186
   7 N :    0.117648
   8 H :    0.087023
   9 H :    0.108940
  10 H :    0.143016
  11 H :    0.007331
  12 H :    0.009706
  13 H :    0.071297
  14 H :    0.069238
  15 H :    0.067610

  Mayer bond orders larger than 0.100000
B(  0-C ,  1-C ) :   0.6315 B(  0-C ,  2-N ) :   0.8966 B(  0-C ,  3-H ) :   0.8550
B(  0-C ,  4-H ) :   0.8998 B(  1-C , 13-H ) :   0.9457 B(  1-C , 14-H ) :   0.9405
B(  1-C , 15-H ) :   0.9372 B(  2-N ,  5-C ) :   1.1439 B(  2-N , 10-H ) :   0.9185
B(  5-C ,  6-C ) :   0.8360 B(  5-C ,  7-N ) :   1.0307 B(  6-C , 11-H ) :   0.9586
B(  6-C , 12-H ) :   0.9554 B(  7-N ,  8-H ) :   0.9774 B(  7-N ,  9-H ) :   0.9645

Dispersion correction           -0.003505480
FINAL SINGLE POINT ENERGY      -267.934563582279

DIPOLE MOMENT
-------------
                                X             Y             Z
Electronic contribution:      2.95194       0.54086      -1.28176
Nuclear contribution   :     -3.69145      -1.49398       1.19810
                        -----------------------------------------
Total Dipole Moment    :     -0.73951      -0.95312      -0.08367
                        -----------------------------------------
Magnitude (a.u.)       :      1.20926
Magnitude (Debye)      :      3.07370

Rotational constants in cm-1:     0.270790     0.068966     0.056679
Rotational constants in MHz :  8118.084803  2067.559423  1699.196934

                             ****ORCA TERMINATED NORMALLY****
TOTAL RUN TIME: 0 days 0 hours 1 minutes 21 seconds 951 msec
