                         Program Version 5.0.0 -  RELEASE  -
|  1> !wB97X-D3 RIJCOSX def2-TZVPD def2/J TightSCF
|  2> *xyz 0 1
|  3> C          1.63556       -1.67040       -5.29211
|  4> C          0.33848       -1.50091       -4.50540
|  5> N          2.48451       -0.50741       -5.14039
|  6> H          1.39834       -1.82924       -6.35259
|  7> H          2.15586       -2.56540       -4.93209
|  8> C          3.45115       -0.14953       -5.95259
|  9> N          3.92267        1.08956       -5.85071
| 10> C          3.96616       -1.00618       -6.86788
| 11> H          3.52139       -1.90647       -6.99527
| 12> H          4.44482       -0.62347       -7.67035
| 13> H          2.25200        0.24080       -4.49879
| 14> H          3.46428        1.64078       -5.13639
| 15> H          4.83447        1.31375       -6.22465
| 16> H         -0.17658       -0.62881       -4.85045
| 17> H          0.56384       -1.39374       -3.46490
| 18> H         -0.28102       -2.36136       -4.64938
| 19> *
| 20>
| 21> %MaxCore 64000
| 22>
| 23> %pal nprocs 4
| 24> end
| 25>
| 26> %scf
| 27>   MaxIter 150
| 28> end
| 29>
| 30>
| 31>                          ****END OF INPUT****

CARTESIAN COORDINATES (ANGSTROEM)
---------------------------------
  C      1.635560   -1.670400   -5.292110
  C      0.338480   -1.500910   -4.505400
  N      2.484510   -0.507410   -5.140390
  H      1.398340   -1.829240   -6.352590
  H      2.155860   -2.565400   -4.932090
  C      3.451150   -0.149530   -5.952590
  N      3.922670    1.089560   -5.850710
  C      3.966160   -1.006180   -6.867880
  H      3.521390   -1.906470   -6.995270
  H      4.444820   -0.623470   -7.670350
  H      2.252000    0.240800   -4.498790
  H      3.464280    1.640780   -5.136390
  H      4.834470    1.313750   -6.224650
  H     -0.176580   -0.628810   -4.850450
  H      0.563840   -1.393740   -3.464900
  H     -0.281020   -2.361360   -4.649380

 Total Charge           Charge          ....    0
 Multiplicity           Mult            ....    1
 Number of Electrons    NEL             ....   48
 Basis Dimension        Dim             ....  312

ORBITAL ENERGIES
----------------

  NO   OCC          E(Eh)            E(eV)
   0   2.0000     -14.429255      -392.6400
   1   2.0000     -14.423081      -392.4720
   2   2.0000     -10.322211      -280.8816
   3   2.0000     -10.311733      -280.5965
   4   2.0000     -10.269885      -279.4578
   5   2.0000     -10.183008      -277.0937
   6   2.0000      -1.097113       -29.8540
   7   2.0000      -1.004815       -27.3424
   8   2.0000      -0.880964       -23.9723
   9   2.0000      -0.817828       -22.2542
  10   2.0000      -0.756874       -20.5956
  11   2.0000      -0.674742       -18.3607
  12   2.0000      -0.639208       -17.3937
  13   2.0000      -0.627488       -17.0748
  14   2.0000      -0.578332       -15.7372
  15   2.0000      -0.566407       -15.4127
  16   2.0000      -0.501921       -13.6580
  17   2.0000      -0.493030       -13.4160
  18   2.0000      -0.490199       -13.3390
  19   2.0000      -0.467478       -12.7207
  20   2.0000      -0.457793       -12.4572
  21   2.0000      -0.447016       -12.1639
  22   2.0000      -0.345640        -9.4053
  23   2.0000      -0.253032        -6.8854
  24   0.0000       0.063125         1.7177
  25   0.0000       0.079433         2.1615
  26   0.0000       0.089833         2.4445
  27   0.0000       0.111805         3.0424
  28   0.0000       0.122421         3.3312

MULLIKEN ATOMIC CHARGES
-----------------------
   0 C :   -0.404222
   1 C :   -1.386096
   2 N :   -0.165168
   3 H :    0.318438
   4 H :    0.348855
   5 C :    0.869211
   6 N :   -0.441368
   7 C :   -1.511408
   8 H :    0.396757
   9 H :    0.341961
  10 H :    0.174688
  11 H :    0.160267
  12 H :    0.226928
  13 H :    0.368644
  14 H :    0.348087
  15 H :    0.354426
Sum of atomic charges:    0.0000000

LOEWDIN ATOMIC CHARGES
----------------------
   0 C :   -0.244930
   1 C :   -0.091471
   2 N :    0.005979
   3 H :    0.119539
   4 H :    0.120389
   5 C :   -0.570311
   6 N :    0.108640
   7 C :   -0.000395
   8 H :   -0.008491
   9 H :    0.003978
  10 H :    0.137239
  11 H :    0.100200
  12 H :    0.116140
  13 H :    0.068676
  14 H :    0.066720
  15 H :    0.068099

  Mayer bond orders larger than 0.100000
B(  0-C ,  1-C ) :   0.5771 B(  0-C ,  2-N ) :   0.9592 B(  0-C ,  3-H ) :   0.8886
B(  0-C ,  4-H ) :   0.8656 B(  0-C ,  7-C ) :   0.1697 B(  1-C , 13-H ) :   0.9500
B(  1-C , 14-H ) :   0.9397 B(  1-C , 15-H ) :   0.9393 B(  2-N ,  5-C ) :   1.0749
B(  2-N , 10-H ) :   0.9818 B(  5-C ,  6-N ) :   0.9872 B(  5-C ,  7-C ) :   1.1198
B(  5-C ,  9-H ) :  -0.1087 B(  6-N , 11-H ) :   1.0242 B(  6-N , 12-H ) :   0.9760
B(  7-C ,  8-H ) :   0.8553 B(  7-C ,  9-H ) :   1.0267

Dispersion correction           -0.003486481
FINAL SINGLE POINT ENERGY      -267.935157250753

DIPOLE MOMENT
-------------
                                X             Y             Z
Electronic contribution:      3.00947       2.62284      -0.20343
Nuclear contribution   :     -3.68222      -1.93858       0.98231
                        -----------------------------------------
Total Dipole Moment    :     -0.67276       0.68426       0.77888
                        -----------------------------------------
Magnitude (a.u.)       :      1.23591
Magnitude (Debye)      :      3.14142

Rotational constants in cm-1:     0.275407     0.068040     0.056255
Rotational constants in MHz :  8256.498401  2039.796466  1686.484500

                             ****ORCA TERMINATED NORMALLY****
TOTAL RUN TIME: 0 days 0 hours 1 minutes 25 seconds 228 msec
