                         Program Version 5.0.0 -  RELEASE  -
|  1> !wB97X-D3 RIJCOSX def2-TZVPD def2/J TightSCF xyzfile
|  2>
|  3> *xyzfile 0 1 D2.xyz
|  4>
|  5> %MaxCore 64000
|  6>
|  7> %pal nprocs 18
|  8> end
|  9>
| 10> %scf
| 11>   MaxIter 150
| 12> end
| 13>
| 14>
| 15>                          ****END OF INPUT****

CARTESIAN COORDINATES (ANGSTROEM)
---------------------------------
  C      1.635557   -1.670396   -5.292109
  C      0.338484   -1.500907   -4.505398
  N      2.484511   -0.507410   -5.140392
  C     -0.684873   -0.528026   -5.099889
  C     -0.290406    0.951335   -5.153423
  H      0.607991    1.070692   -5.764412
  C     -0.055168    1.619420   -3.788577
  H     -1.080912    1.483775   -5.689436
  H      0.045006    0.862302   -3.003015
  H     -0.922936    2.230329   -3.517028
  C      1.223022    2.469865   -3.756911
  H      1.114701    3.258074   -4.532999
  H      1.237732    3.011242   -2.792157
  F      2.353815    1.712032   -3.934477
  H      1.398337   -1.829239   -6.352591
  H      2.155864   -2.565398   -4.932091
  C      3.451149   -0.149530   -5.952589
  C      3.922667    1.089559   -5.850711
  N      3.966162   -1.006183   -6.867880
  H      3.521391   -1.906467   -6.995270
  H      4.444824   -0.623472   -7.670348
  H      2.251995    0.240804   -4.498792
  H      3.464277    1.640782   -5.136392
  H      4.834470    1.313745   -6.224653
  H     -0.937999   -0.869056   -6.110838
  H     -1.604638   -0.622496   -4.513132
  H      0.594887   -1.211578   -3.482312
  H     -0.126530   -2.487656   -4.434176

 Total Charge           Charge          ....    0
 Multiplicity           Mult            ....    1
 Number of Electrons    NEL             ....   88
 Basis Dimension        Dim             ....  563

ORBITAL ENERGIES
----------------

  NO   OCC          E(Eh)            E(eV)
   0   2.0000     -24.800142      -674.8462
   1   2.0000     -14.406113      -392.0103
   2   2.0000     -14.394977      -391.7072
   3   2.0000     -10.365771      -282.0670
   4   2.0000     -10.304834      -280.4088
   5   2.0000     -10.302180      -280.3366
   6   2.0000     -10.290057      -280.0067
   7   2.0000     -10.279172      -279.7105
   8   2.0000     -10.278738      -279.6987
   9   2.0000     -10.276586      -279.6401
  10   2.0000     -10.155312      -276.3401
  11   2.0000      -1.351513       -36.7765
  12   2.0000      -1.070753       -29.1367
  13   2.0000      -0.985150       -26.8073
  14   2.0000      -0.936753       -25.4904
  15   2.0000      -0.893866       -24.3233
  16   2.0000      -0.852754       -23.2046
  17   2.0000      -0.799271       -21.7493
  18   2.0000      -0.763584       -20.7782
  19   2.0000      -0.733064       -19.9477
  20   2.0000      -0.692018       -18.8308
  21   2.0000      -0.676426       -18.4065
  22   2.0000      -0.647782       -17.6271
  23   2.0000      -0.620948       -16.8968
  24   2.0000      -0.612887       -16.6775
  25   2.0000      -0.605868       -16.4865
  26   2.0000      -0.587227       -15.9793
  27   2.0000      -0.575414       -15.6578
  28   2.0000      -0.550986       -14.9931
  29   2.0000      -0.540409       -14.7053
  30   2.0000      -0.522531       -14.2188
  31   2.0000      -0.509365       -13.8605
  32   2.0000      -0.497642       -13.5415
  33   2.0000      -0.478889       -13.0312
  34   2.0000      -0.465620       -12.6702
  35   2.0000      -0.459652       -12.5078
  36   2.0000      -0.448841       -12.2136
  37   2.0000      -0.442917       -12.0524
  38   2.0000      -0.426609       -11.6086
  39   2.0000      -0.416883       -11.3440
  40   2.0000      -0.415663       -11.3108
  41   2.0000      -0.411661       -11.2019
  42   2.0000      -0.333495        -9.0748
  43   2.0000      -0.230231        -6.2649
  44   0.0000       0.063349         1.7238
  45   0.0000       0.072404         1.9702
  46   0.0000       0.079151         2.1538
  47   0.0000       0.082535         2.2459
  48   0.0000       0.099771         2.7149

MULLIKEN ATOMIC CHARGES
-----------------------
   0 C :   -0.848640
   1 C :   -0.636960
   2 N :   -0.133838
   3 C :   -0.570872
   4 C :   -0.622495
   5 H :    0.424795
   6 C :   -0.594052
   7 H :    0.313307
   8 H :    0.285290
   9 H :    0.321204
  10 C :   -0.344898
  11 H :    0.273680
  12 H :    0.274014
  13 F :   -0.451506
  14 H :    0.377520
  15 H :    0.352038
  16 C :    0.846771
  17 C :   -1.707966
  18 N :   -0.474381
  19 H :    0.214051
  20 H :    0.228007
  21 H :    0.323060
  22 H :    0.677710
  23 H :    0.384136
  24 H :    0.322286
  25 H :    0.228677
  26 H :    0.272314
  27 H :    0.266750
Sum of atomic charges:   -0.0000000

LOEWDIN ATOMIC CHARGES
----------------------
   0 C :   -0.195327
   1 C :   -0.195552
   2 N :    0.022700
   3 C :   -0.205441
   4 C :   -0.206177
   5 H :    0.106440
   6 C :   -0.174038
   7 H :    0.110634
   8 H :    0.107108
   9 H :    0.117450
  10 C :   -0.188630
  11 H :    0.134757
  12 H :    0.122886
  13 F :   -0.081282
  14 H :    0.118703
  15 H :    0.115712
  16 C :   -0.545022
  17 C :    0.000800
  18 N :    0.116656
  19 H :    0.084587
  20 H :    0.106039
  21 H :    0.087634
  22 H :   -0.013061
  23 H :    0.012096
  24 H :    0.112248
  25 H :    0.110732
  26 H :    0.106980
  27 H :    0.110368

  Mayer bond orders larger than 0.100000
B(  0-C ,  1-C ) :   1.0345 B(  0-C ,  2-N ) :   1.0694 B(  0-C ,  3-C ) :   0.1433
B(  0-C , 14-H ) :   0.8402 B(  0-C , 15-H ) :   0.8425 B(  0-C , 16-C ) :  -0.2356
B(  0-C , 18-N ) :   0.1154 B(  1-C ,  3-C ) :   0.8902 B(  1-C ,  6-C ) :   0.1004
B(  1-C , 26-H ) :   0.9237 B(  1-C , 27-H ) :   1.0083 B(  2-N , 16-C ) :   1.0666
B(  2-N , 21-H ) :   0.7299 B(  3-C ,  4-C ) :   0.8867 B(  3-C ,  6-C ) :   0.2678
B(  3-C , 24-H ) :   0.9101 B(  3-C , 25-H ) :   1.0099 B(  4-C ,  5-H ) :   0.8973
B(  4-C ,  6-C ) :   0.6591 B(  4-C ,  7-H ) :   0.9272 B(  4-C , 10-C ) :   0.2775
B(  6-C ,  8-H ) :   0.9831 B(  6-C ,  9-H ) :   0.9443 B(  6-C , 10-C ) :   0.8613
B( 10-C , 11-H ) :   0.9724 B( 10-C , 12-H ) :   0.9236 B( 10-C , 13-F ) :   0.7841
B( 13-F , 17-C ) :   0.1398 B( 13-F , 22-H ) :  -0.1398 B( 16-C , 17-C ) :   1.1175
B( 16-C , 18-N ) :   1.0162 B( 16-C , 23-H ) :  -0.1241 B( 17-C , 22-H ) :   0.5909
B( 17-C , 23-H ) :   0.9979 B( 18-N , 19-H ) :   0.9707 B( 18-N , 20-H ) :   0.9699

Dispersion correction           -0.011866316
FINAL SINGLE POINT ENERGY      -524.429658952334

DIPOLE MOMENT
-------------
                                X             Y             Z
Electronic contribution:      6.34016       2.43624       1.72533
Nuclear contribution   :     -7.85451      -2.70006      -1.48294
                        -----------------------------------------
Total Dipole Moment    :     -1.51435      -0.26382       0.24238
                        -----------------------------------------
Magnitude (a.u.)       :      1.55616
Magnitude (Debye)      :      3.95543

Rotational constants in cm-1:     0.044065     0.029250     0.019826
Rotational constants in MHz :  1321.026981   876.903192   594.367265

                             ****ORCA TERMINATED NORMALLY****
TOTAL RUN TIME: 0 days 0 hours 2 minutes 12 seconds 704 msec
