                         Program Version 5.0.0 -  RELEASE  -
|  1> !LC-BLYP RIJCOSX def2-SVP def2/J TightSCF
|  2> *xyz -1 1
|  3> C         -5.57236       -5.80780       -0.81644
|  4> S         -6.90318       -4.61903       -0.52846
|  5> O         -8.11485       -5.25093       -0.95701
|  6> O         -6.53271       -3.42684       -1.31485
|  7> O         -6.86563       -4.29496        0.91412
|  8> C         -4.45780       -5.94187        0.22919
|  9> H         -5.17735       -5.54257       -1.79771
| 10> H         -6.07420       -6.76889       -0.92127
| 11> H         -3.75515       -6.68239       -0.09144
| 12> H         -4.88182       -6.23486        1.16689
| 13> H         -3.95908       -5.00189        0.34143
| 14> *
| 15> %MaxCore 64000
| 16>
| 17> %pal nprocs 4
| 18> end
| 19>
| 20> %scf
| 21>   MaxIter 150
| 22> end
| 23>
| 24>                          ****END OF INPUT****

CARTESIAN COORDINATES (ANGSTROEM)
---------------------------------
  C     -5.572360   -5.807800   -0.816440
  S     -6.903180   -4.619030   -0.528460
  O     -8.114850   -5.250930   -0.957010
  O     -6.532710   -3.426840   -1.314850
  O     -6.865630   -4.294960    0.914120
  C     -4.457800   -5.941870    0.229190
  H     -5.177350   -5.542570   -1.797710
  H     -6.074200   -6.768890   -0.921270
  H     -3.755150   -6.682390   -0.091440
  H     -4.881820   -6.234860    1.166890
  H     -3.959080   -5.001890    0.341430

 Total Charge           Charge          ....   -1
 Multiplicity           Mult            ....    1
 Number of Electrons    NEL             ....   58
 Basis Dimension        Dim             ....  113

ORBITAL ENERGIES
----------------

  NO   OCC          E(Eh)            E(eV)
   0   2.0000     -88.261430     -2401.7156
   1   2.0000     -18.698081      -508.8006
   2   2.0000     -18.683472      -508.4031
   3   2.0000     -18.680534      -508.3232
   4   2.0000      -9.938894      -270.4511
   5   2.0000      -9.929991      -270.2088
   6   2.0000      -7.817516      -212.7254
   7   2.0000      -5.851455      -159.2262
   8   2.0000      -5.851206      -159.2194
   9   2.0000      -5.851007      -159.2140
  10   2.0000      -0.991557       -26.9816
  11   2.0000      -0.843817       -22.9614
  12   2.0000      -0.819121       -22.2894
  13   2.0000      -0.725586       -19.7442
  14   2.0000      -0.601745       -16.3743
  15   2.0000      -0.462625       -12.5887
  16   2.0000      -0.414074       -11.2675
  17   2.0000      -0.394827       -10.7438
  18   2.0000      -0.362689        -9.8693
  19   2.0000      -0.337880        -9.1942
  20   2.0000      -0.331346        -9.0164
  21   2.0000      -0.309234        -8.4147
  22   2.0000      -0.303243        -8.2517
  23   2.0000      -0.212720        -5.7884
  24   2.0000      -0.212402        -5.7798
  25   2.0000      -0.180049        -4.8994
  26   2.0000      -0.169247        -4.6055
  27   2.0000      -0.161359        -4.3908
  28   2.0000      -0.122285        -3.3275
  29   0.0000       0.270346         7.3565
  30   0.0000       0.328230         8.9316
  31   0.0000       0.335021         9.1164
  32   0.0000       0.339707         9.2439
  33   0.0000       0.361292         9.8313

MULLIKEN ATOMIC CHARGES
-----------------------
   0 C :   -0.097391
   1 S :    0.749908
   2 O :   -0.517763
   3 O :   -0.570519
   4 O :   -0.562612
   5 C :    0.042888
   6 H :   -0.002413
   7 H :   -0.010983
   8 H :   -0.038729
   9 H :    0.003274
  10 H :    0.004340
Sum of atomic charges:   -1.0000000

LOEWDIN ATOMIC CHARGES
----------------------
   0 C :   -0.201563
   1 S :    1.074338
   2 O :   -0.586873
   3 O :   -0.637275
   4 O :   -0.634081
   5 C :   -0.081547
   6 H :    0.011871
   7 H :    0.008276
   8 H :    0.005554
   9 H :    0.019989
  10 H :    0.021311

  Mayer bond orders larger than 0.100000
B(  0-C ,  1-S ) :   0.8806 B(  0-C ,  5-C ) :   1.0832 B(  0-C ,  6-H ) :   0.9423
B(  0-C ,  7-H ) :   0.9426 B(  1-S ,  2-O ) :   1.6873 B(  1-S ,  3-O ) :   1.6350
B(  1-S ,  4-O ) :   1.6472 B(  5-C ,  8-H ) :   0.9576 B(  5-C ,  9-H ) :   0.9644
B(  5-C , 10-H ) :   0.9674

FINAL SINGLE POINT ENERGY      -701.865016392407

DIPOLE MOMENT
-------------
                                X             Y             Z
Electronic contribution:     -6.79311       4.40286      -0.91209
Nuclear contribution   :      8.13140      -5.68016       0.80206
                        -----------------------------------------
Total Dipole Moment    :      1.33829      -1.27730      -0.11003
                        -----------------------------------------
Magnitude (a.u.)       :      1.85327
Magnitude (Debye)      :      4.71064

Rotational constants in cm-1:     0.162101     0.080498     0.079099
Rotational constants in MHz :  4859.669771  2413.267251  2371.338602

                             ****ORCA TERMINATED NORMALLY****
TOTAL RUN TIME: 0 days 0 hours 0 minutes 16 seconds 52 msec
