                         Program Version 5.0.0 -  RELEASE  -
|  1> !LC-BLYP RIJCOSX def2-SVP def2/J TightSCF
|  2> *xyz 1 1
|  3> C         -4.38262       -1.67089        1.21620
|  4> N         -5.76354       -1.91517        0.70501
|  5> C         -3.28173       -2.19127        0.29436
|  6> H         -5.84081       -2.11520       -0.30065
|  7> H         -6.40882       -1.14866        0.93612
|  8> H         -6.17478       -2.79061        1.05143
|  9> H         -4.32862       -2.13922        2.19810
| 10> H         -4.26158       -0.59740        1.35725
| 11> H         -3.36057       -1.71407       -0.66008
| 12> H         -3.38775       -3.24919        0.17403
| 13> H         -2.32559       -1.97514        0.72329
| 14> *
| 15> %MaxCore 64000
| 16>
| 17> %pal nprocs 4
| 18> end
| 19>
| 20> %scf
| 21>   MaxIter 150
| 22> end
| 23>
| 24>                          ****END OF INPUT****

CARTESIAN COORDINATES (ANGSTROEM)
---------------------------------
  C     -4.382620   -1.670890    1.216200
  N     -5.763540   -1.915170    0.705010
  C     -3.281730   -2.191270    0.294360
  H     -5.840810   -2.115200   -0.300650
  H     -6.408820   -1.148660    0.936120
  H     -6.174780   -2.790610    1.051430
  H     -4.328620   -2.139220    2.198100
  H     -4.261580   -0.597400    1.357250
  H     -3.360570   -1.714070   -0.660080
  H     -3.387750   -3.249190    0.174030
  H     -2.325590   -1.975140    0.723290

 Total Charge           Charge          ....    1
 Multiplicity           Mult            ....    1
 Number of Electrons    NEL             ....   26
 Basis Dimension        Dim             ....   82

ORBITAL ENERGIES
----------------

  NO   OCC          E(Eh)            E(eV)
   0   2.0000     -14.524372      -395.2283
   1   2.0000     -10.338143      -281.3152
   2   2.0000     -10.259123      -279.1649
   3   2.0000      -1.309692       -35.6385
   4   2.0000      -1.069154       -29.0932
   5   2.0000      -0.953272       -25.9399
   6   2.0000      -0.902101       -24.5474
   7   2.0000      -0.881300       -23.9814
   8   2.0000      -0.805282       -21.9128
   9   2.0000      -0.742493       -20.2043
  10   2.0000      -0.682339       -18.5674
  11   2.0000      -0.664482       -18.0815
  12   2.0000      -0.644096       -17.5267
  13   0.0000      -0.113326        -3.0838
  14   0.0000      -0.054469        -1.4822
  15   0.0000      -0.050187        -1.3657
  16   0.0000      -0.017869        -0.4862
  17   0.0000       0.028124         0.7653

MULLIKEN ATOMIC CHARGES
-----------------------
   0 C :   -0.051466
   1 N :    0.010908
   2 C :   -0.028763
   3 H :    0.206203
   4 H :    0.226049
   5 H :    0.214014
   6 H :    0.102322
   7 H :    0.102956
   8 H :    0.062710
   9 H :    0.058919
  10 H :    0.096148
Sum of atomic charges:    1.0000000

LOEWDIN ATOMIC CHARGES
----------------------
   0 C :    0.037320
   1 N :    0.282358
   2 C :   -0.053336
   3 H :    0.148401
   4 H :    0.154788
   5 H :    0.152277
   6 H :    0.060070
   7 H :    0.060568
   8 H :    0.044791
   9 H :    0.043562
  10 H :    0.069201

  Mayer bond orders larger than 0.100000
B(  0-C ,  1-N ) :   0.9244 B(  0-C ,  2-C ) :   1.1102 B(  0-C ,  6-H ) :   0.9538
B(  0-C ,  7-H ) :   0.9556 B(  1-N ,  3-H ) :   0.9324 B(  1-N ,  4-H ) :   0.9319
B(  1-N ,  5-H ) :   0.9342 B(  2-C ,  8-H ) :   0.9652 B(  2-C ,  9-H ) :   0.9698
B(  2-C , 10-H ) :   0.9539

FINAL SINGLE POINT ENERGY      -135.029691134145

DIPOLE MOMENT
-------------
                                X             Y             Z
Electronic contribution:     -1.88347       0.23695       0.29980
Nuclear contribution   :      0.19437      -0.25358      -0.32106
                        -----------------------------------------
Total Dipole Moment    :     -1.68911      -0.01663      -0.02126
                        -----------------------------------------
Magnitude (a.u.)       :      1.68932
Magnitude (Debye)      :      4.29391

Rotational constants in cm-1:     1.030014     0.272489     0.242697
Rotational constants in MHz : 30879.030706  8169.007780  7275.865152

                             ****ORCA TERMINATED NORMALLY****
TOTAL RUN TIME: 0 days 0 hours 0 minutes 9 seconds 772 msec
