                         Program Version 5.0.0 -  RELEASE  -
|  1> !LC-BLYP RIJCOSX def2-TZVP def2/J TightSCF xyzfile
|  2>
|  3> *xyzfile 0 1 B.xyz
|  4>
|  5> %MaxCore 64000
|  6>
|  7> %pal nprocs 18
|  8> end
|  9>
| 10> %scf
| 11>   MaxIter 150
| 12> end
| 13>
| 14>
| 15>                          ****END OF INPUT****

CARTESIAN COORDINATES (ANGSTROEM)
---------------------------------
  C     -4.382623   -1.670889    1.216201
  N     -5.763539   -1.915170    0.705012
  C     -3.281728   -2.191272    0.294361
  C     -5.572364   -5.807798   -0.816445
  S     -6.903179   -4.619033   -0.528458
  H     -5.840812   -2.115205   -0.300646
  H     -6.408823   -1.148656    0.936124
  H     -6.174781   -2.790606    1.051433
  O     -8.114853   -5.250932   -0.957007
  O     -6.532715   -3.426838   -1.314848
  H     -4.328618   -2.139223    2.198103
  H     -4.261583   -0.597399    1.357248
  O     -6.865632   -4.294957    0.914118
  C     -3.474641   -3.605898   -0.259608
  H     -2.354548   -2.127602    0.871433
  H     -3.166611   -1.499693   -0.545037
  C     -3.827078   -4.661097    0.786174
  H     -2.560559   -3.889391   -0.788050
  H     -4.255932   -3.570040   -1.019300
  C     -4.457800   -5.941875    0.229195
  H     -5.177347   -5.542575   -1.797714
  H     -6.074202   -6.768894   -0.921272
  H     -4.530506   -4.253640    1.511979
  H     -2.933400   -4.932302    1.356825
  H     -3.681064   -6.562236   -0.229885
  H     -4.843942   -6.512728    1.075805

 Total Charge           Charge          ....    0
 Multiplicity           Mult            ....    1
 Number of Electrons    NEL             ....   98
 Basis Dimension        Dim             ....  437

ORBITAL ENERGIES
----------------

  NO   OCC          E(Eh)            E(eV)
   0   2.0000     -88.427681     -2406.2395
   1   2.0000     -18.892969      -514.1038
   2   2.0000     -18.888774      -513.9897
   3   2.0000     -18.875880      -513.6388
   4   2.0000     -14.274507      -388.4291
   5   2.0000     -10.156487      -276.3721
   6   2.0000     -10.103175      -274.9214
   7   2.0000     -10.077158      -274.2134
   8   2.0000     -10.074623      -274.1444
   9   2.0000     -10.072654      -274.0909
  10   2.0000     -10.071292      -274.0538
  11   2.0000      -7.970169      -216.8793
  12   2.0000      -5.998298      -163.2220
  13   2.0000      -5.997650      -163.2044
  14   2.0000      -5.996273      -163.1669
  15   2.0000      -1.193811       -32.4853
  16   2.0000      -1.109167       -30.1820
  17   2.0000      -1.051338       -28.6084
  18   2.0000      -1.048293       -28.5255
  19   2.0000      -0.942796       -25.6548
  20   2.0000      -0.902263       -24.5518
  21   2.0000      -0.852078       -23.1862
  22   2.0000      -0.801044       -21.7975
  23   2.0000      -0.746774       -20.3208
  24   2.0000      -0.708776       -19.2868
  25   2.0000      -0.695285       -18.9197
  26   2.0000      -0.682895       -18.5825
  27   2.0000      -0.643204       -17.5025
  28   2.0000      -0.616021       -16.7628
  29   2.0000      -0.598218       -16.2783
  30   2.0000      -0.591548       -16.0969
  31   2.0000      -0.575674       -15.6649
  32   2.0000      -0.552978       -15.0473
  33   2.0000      -0.542989       -14.7755
  34   2.0000      -0.534674       -14.5492
  35   2.0000      -0.523220       -14.2375
  36   2.0000      -0.519018       -14.1232
  37   2.0000      -0.487749       -13.2723
  38   2.0000      -0.476341       -12.9619
  39   2.0000      -0.472285       -12.8515
  40   2.0000      -0.445538       -12.1237
  41   2.0000      -0.437561       -11.9066
  42   2.0000      -0.431157       -11.7324
  43   2.0000      -0.421205       -11.4616
  44   2.0000      -0.419036       -11.4025
  45   2.0000      -0.380663       -10.3584
  46   2.0000      -0.373723       -10.1695
  47   2.0000      -0.365553        -9.9472
  48   2.0000      -0.341117        -9.2823
  49   0.0000       0.051016         1.3882
  50   0.0000       0.089805         2.4437
  51   0.0000       0.101624         2.7653
  52   0.0000       0.104012         2.8303
  53   0.0000       0.121120         3.2959

MULLIKEN ATOMIC CHARGES
-----------------------
   0 C :   -0.295830
   1 N :   -0.285890
   2 C :   -0.227785
   3 C :   -0.375408
   4 S :    0.770286
   5 H :    0.306445
   6 H :    0.279925
   7 H :    0.300838
   8 O :   -0.422318
   9 O :   -0.558173
  10 H :    0.202770
  11 H :    0.169877
  12 O :   -0.544553
  13 C :   -0.358183
  14 H :    0.144619
  15 H :    0.156162
  16 C :   -0.292245
  17 H :    0.138033
  18 H :    0.196140
  19 C :   -0.205256
  20 H :    0.169381
  21 H :    0.172657
  22 H :    0.150977
  23 H :    0.130311
  24 H :    0.131945
  25 H :    0.145277
Sum of atomic charges:   -0.0000000

LOEWDIN ATOMIC CHARGES
----------------------
   0 C :   -0.288088
   1 N :    0.133064
   2 C :   -0.279209
   3 C :   -0.391918
   4 S :    0.437992
   5 H :    0.185284
   6 H :    0.200211
   7 H :    0.164016
   8 O :   -0.292563
   9 O :   -0.379954
  10 H :    0.144911
  11 H :    0.141400
  12 O :   -0.361099
  13 C :   -0.281946
  14 H :    0.152461
  15 H :    0.147687
  16 C :   -0.286116
  17 H :    0.145369
  18 H :    0.147721
  19 C :   -0.292136
  20 H :    0.138153
  21 H :    0.144097
  22 H :    0.137391
  23 H :    0.140388
  24 H :    0.144533
  25 H :    0.148351

  Mayer bond orders larger than 0.100000
B(  0-C ,  1-N ) :   0.8489 B(  0-C ,  2-C ) :   0.9081 B(  0-C , 10-H ) :   0.9788
B(  0-C , 11-H ) :   0.9815 B(  1-N ,  5-H ) :   0.8184 B(  1-N ,  6-H ) :   0.9061
B(  1-N ,  7-H ) :   0.7812 B(  2-C , 13-C ) :   0.9188 B(  2-C , 14-H ) :   0.9761
B(  2-C , 15-H ) :   0.9828 B(  3-C ,  4-S ) :   0.9095 B(  3-C , 19-C ) :   0.9020
B(  3-C , 20-H ) :   0.9557 B(  3-C , 21-H ) :   0.9611 B(  4-S ,  8-O ) :   2.0252
B(  4-S ,  9-O ) :   1.6147 B(  4-S , 12-O ) :   1.5747 B(  5-H ,  9-O ) :   0.1183
B(  7-H , 12-O ) :   0.1965 B( 13-C , 16-C ) :   0.8524 B( 13-C , 17-H ) :   0.9805
B( 13-C , 18-H ) :   0.9771 B( 16-C , 19-C ) :   0.9312 B( 16-C , 22-H ) :   0.9769
B( 16-C , 23-H ) :   0.9726 B( 19-C , 24-H ) :   0.9701 B( 19-C , 25-H ) :   0.9821

FINAL SINGLE POINT ENERGY      -915.091527130252

DIPOLE MOMENT
-------------
                                X             Y             Z
Electronic contribution:    -13.54688      -2.92304      -3.67555
Nuclear contribution   :     16.18863       5.15617       4.97370
                        -----------------------------------------
Total Dipole Moment    :      2.64175       2.23313       1.29816
                        -----------------------------------------
Magnitude (a.u.)       :      3.69471
Magnitude (Debye)      :      9.39122

Rotational constants in cm-1:     0.048546     0.025588     0.020102
Rotational constants in MHz :  1455.374030   767.095631   602.645620

                             ****ORCA TERMINATED NORMALLY****
TOTAL RUN TIME: 0 days 0 hours 0 minutes 48 seconds 360 msec
