                         Program Version 5.0.0 -  RELEASE  -
|  1> !LC-BLYP RIJCOSX def2-SVP def2/J TightSCF
|  2> *xyz 0 1
|  3> C         -5.57236       -5.80780       -0.81644
|  4> S         -6.90318       -4.61903       -0.52846
|  5> F         -8.11485       -5.25093       -0.95701
|  6> O         -6.53271       -3.42684       -1.31485
|  7> O         -6.86563       -4.29496        0.91412
|  8> C         -4.45780       -5.94187        0.22919
|  9> H         -5.17735       -5.54257       -1.79771
| 10> H         -6.07420       -6.76889       -0.92127
| 11> H         -3.75515       -6.68239       -0.09144
| 12> H         -4.88182       -6.23486        1.16689
| 13> H         -3.95908       -5.00189        0.34143
| 14> *
| 15> %MaxCore 64000
| 16>
| 17> %pal nprocs 4
| 18> end
| 19>
| 20> %scf
| 21>   MaxIter 150
| 22> end
| 23>
| 24>                          ****END OF INPUT****

CARTESIAN COORDINATES (ANGSTROEM)
---------------------------------
  C     -5.572360   -5.807800   -0.816440
  S     -6.903180   -4.619030   -0.528460
  F     -8.114850   -5.250930   -0.957010
  O     -6.532710   -3.426840   -1.314850
  O     -6.865630   -4.294960    0.914120
  C     -4.457800   -5.941870    0.229190
  H     -5.177350   -5.542570   -1.797710
  H     -6.074200   -6.768890   -0.921270
  H     -3.755150   -6.682390   -0.091440
  H     -4.881820   -6.234860    1.166890
  H     -3.959080   -5.001890    0.341430

 Total Charge           Charge          ....    0
 Multiplicity           Mult            ....    1
 Number of Electrons    NEL             ....   58
 Basis Dimension        Dim             ....  113

ORBITAL ENERGIES
----------------

  NO   OCC          E(Eh)            E(eV)
   0   2.0000     -88.536087     -2409.1894
   1   2.0000     -24.577809      -668.7962
   2   2.0000     -18.936303      -515.2830
   3   2.0000     -18.935078      -515.2497
   4   2.0000     -10.142902      -276.0024
   5   2.0000     -10.105226      -274.9772
   6   2.0000      -8.094631      -220.2661
   7   2.0000      -6.132956      -166.8862
   8   2.0000      -6.125738      -166.6898
   9   2.0000      -6.124838      -166.6653
  10   2.0000      -1.454187       -39.5704
  11   2.0000      -1.176360       -32.0104
  12   2.0000      -1.069472       -29.1018
  13   2.0000      -0.923543       -25.1309
  14   2.0000      -0.833258       -22.6741
  15   2.0000      -0.778226       -21.1766
  16   2.0000      -0.688640       -18.7389
  17   2.0000      -0.683835       -18.6081
  18   2.0000      -0.645742       -17.5715
  19   2.0000      -0.595322       -16.1995
  20   2.0000      -0.571560       -15.5529
  21   2.0000      -0.535121       -14.5614
  22   2.0000      -0.517316       -14.0769
  23   2.0000      -0.502449       -13.6723
  24   2.0000      -0.485099       -13.2002
  25   2.0000      -0.466803       -12.7024
  26   2.0000      -0.407076       -11.0771
  27   2.0000      -0.403686       -10.9849
  28   2.0000      -0.380046       -10.3416
  29   0.0000       0.112247         3.0544
  30   0.0000       0.119921         3.2632
  31   0.0000       0.155300         4.2259
  32   0.0000       0.171439         4.6651
  33   0.0000       0.175854         4.7852

MULLIKEN ATOMIC CHARGES
-----------------------
   0 C :   -0.146080
   1 S :    0.836121
   2 F :   -0.123065
   3 O :   -0.428434
   4 O :   -0.425050
   5 C :    0.032640
   6 H :    0.077041
   7 H :    0.049342
   8 H :    0.034690
   9 H :    0.042668
  10 H :    0.050126
Sum of atomic charges:   -0.0000000

LOEWDIN ATOMIC CHARGES
----------------------
   0 C :   -0.165886
   1 S :    1.128137
   2 F :   -0.093729
   3 O :   -0.503472
   4 O :   -0.503930
   5 C :   -0.057488
   6 H :    0.045676
   7 H :    0.032232
   8 H :    0.040179
   9 H :    0.037558
  10 H :    0.040725

  Mayer bond orders larger than 0.100000
B(  0-C ,  1-S ) :   0.9074 B(  0-C ,  5-C ) :   1.0889 B(  0-C ,  6-H ) :   0.9339
B(  0-C ,  7-H ) :   0.9348 B(  1-S ,  2-F ) :   1.0760 B(  1-S ,  3-O ) :   1.7823
B(  1-S ,  4-O ) :   1.7918 B(  5-C ,  8-H ) :   0.9589 B(  5-C ,  9-H ) :   0.9661
B(  5-C , 10-H ) :   0.9707

FINAL SINGLE POINT ENERGY      -726.353535187362

DIPOLE MOMENT
-------------
                                X             Y             Z
Electronic contribution:     -9.47761       3.60242      -1.87068
Nuclear contribution   :      9.80704      -5.24335       1.35017
                        -----------------------------------------
Total Dipole Moment    :      0.32943      -1.64093      -0.52051
                        -----------------------------------------
Magnitude (a.u.)       :      1.75274
Magnitude (Debye)      :      4.45511

Rotational constants in cm-1:     0.156316     0.078308     0.076228
Rotational constants in MHz :  4686.224999  2347.601204  2285.245115

                             ****ORCA TERMINATED NORMALLY****
TOTAL RUN TIME: 0 days 0 hours 0 minutes 15 seconds 324 msec
