                         Program Version 5.0.0 -  RELEASE  -
|  1> !LC-BLYP RIJCOSX def2-SVP def2/J TightSCF
|  2> *xyz 0 1
|  3> C         -4.38262       -1.67089        1.21620
|  4> C         -5.76354       -1.91517        0.70501
|  5> C         -3.28173       -2.19127        0.29436
|  6> H         -5.84081       -2.11520       -0.30065
|  7> H         -6.40882       -1.14866        0.93612
|  8> H         -6.17478       -2.79061        1.05143
|  9> H         -4.32862       -2.13922        2.19810
| 10> H         -4.26158       -0.59740        1.35725
| 11> H         -3.36057       -1.71407       -0.66008
| 12> H         -3.38775       -3.24919        0.17403
| 13> H         -2.32559       -1.97514        0.72329
| 14> *
| 15> %MaxCore 64000
| 16>
| 17> %pal nprocs 4
| 18> end
| 19>
| 20> %scf
| 21>   MaxIter 150
| 22> end
| 23>
| 24>                          ****END OF INPUT****

CARTESIAN COORDINATES (ANGSTROEM)
---------------------------------
  C     -4.382620   -1.670890    1.216200
  C     -5.763540   -1.915170    0.705010
  C     -3.281730   -2.191270    0.294360
  H     -5.840810   -2.115200   -0.300650
  H     -6.408820   -1.148660    0.936120
  H     -6.174780   -2.790610    1.051430
  H     -4.328620   -2.139220    2.198100
  H     -4.261580   -0.597400    1.357250
  H     -3.360570   -1.714070   -0.660080
  H     -3.387750   -3.249190    0.174030
  H     -2.325590   -1.975140    0.723290

 Total Charge           Charge          ....    0
 Multiplicity           Mult            ....    1
 Number of Electrons    NEL             ....   26
 Basis Dimension        Dim             ....   82

ORBITAL ENERGIES
----------------

  NO   OCC          E(Eh)            E(eV)
   0   2.0000     -10.070985      -274.0454
   1   2.0000     -10.063376      -273.8384
   2   2.0000     -10.046586      -273.3815
   3   2.0000      -0.889069       -24.1928
   4   2.0000      -0.791654       -21.5420
   5   2.0000      -0.689773       -18.7697
   6   2.0000      -0.566566       -15.4171
   7   2.0000      -0.544579       -14.8187
   8   2.0000      -0.509968       -13.8769
   9   2.0000      -0.483471       -13.1559
  10   2.0000      -0.436847       -11.8872
  11   2.0000      -0.430138       -11.7047
  12   2.0000      -0.415082       -11.2950
  13   0.0000       0.134489         3.6596
  14   0.0000       0.183833         5.0024
  15   0.0000       0.185605         5.0506
  16   0.0000       0.188424         5.1273
  17   0.0000       0.223584         6.0840

MULLIKEN ATOMIC CHARGES
-----------------------
   0 C :   -0.051870
   1 C :    0.062209
   2 C :    0.009066
   3 H :   -0.024216
   4 H :   -0.007730
   5 H :   -0.018224
   6 H :    0.004308
   7 H :    0.002408
   8 H :    0.009805
   9 H :    0.007144
  10 H :    0.007100
Sum of atomic charges:    0.0000000

LOEWDIN ATOMIC CHARGES
----------------------
   0 C :   -0.047536
   1 C :   -0.067103
   2 C :   -0.064625
   3 H :    0.018519
   4 H :    0.021129
   5 H :    0.020940
   6 H :    0.024703
   7 H :    0.023227
   8 H :    0.023555
   9 H :    0.022634
  10 H :    0.024558

  Mayer bond orders larger than 0.100000
B(  0-C ,  1-C ) :   1.1030 B(  0-C ,  2-C ) :   1.1113 B(  0-C ,  6-H ) :   0.9576
B(  0-C ,  7-H ) :   0.9611 B(  1-C ,  3-H ) :   0.9608 B(  1-C ,  4-H ) :   0.9629
B(  1-C ,  5-H ) :   0.9570 B(  2-C ,  8-H ) :   0.9713 B(  2-C ,  9-H ) :   0.9750
B(  2-C , 10-H ) :   0.9684

FINAL SINGLE POINT ENERGY      -118.638242058832

DIPOLE MOMENT
-------------
                                X             Y             Z
Electronic contribution:      0.18287       0.23374       0.33331
Nuclear contribution   :     -0.21528      -0.24783      -0.32864
                        -----------------------------------------
Total Dipole Moment    :     -0.03240      -0.01409       0.00467
                        -----------------------------------------
Magnitude (a.u.)       :      0.03564
Magnitude (Debye)      :      0.09058

Rotational constants in cm-1:     1.037566     0.286459     0.254172
Rotational constants in MHz : 31105.431429  8587.814531  7619.871198

                             ****ORCA TERMINATED NORMALLY****
TOTAL RUN TIME: 0 days 0 hours 0 minutes 9 seconds 675 msec
