                         Program Version 5.0.0 -  RELEASE  -
|  1> !LC-BLYP RIJCOSX def2-SVP def2/J TightSCF
|  2> *xyz 0 1
|  3> C         -5.57236       -5.80780       -0.81644
|  4> S         -6.90318       -4.61903       -0.52846
|  5> O         -8.11485       -5.25093       -0.95701
|  6> F         -6.53271       -3.42684       -1.31485
|  7> O         -6.86563       -4.29496        0.91412
|  8> C         -4.45780       -5.94187        0.22919
|  9> H         -5.17735       -5.54257       -1.79771
| 10> H         -6.07420       -6.76889       -0.92127
| 11> H         -3.75515       -6.68239       -0.09144
| 12> H         -4.88182       -6.23486        1.16689
| 13> H         -3.95908       -5.00189        0.34143
| 14> *
| 15> %MaxCore 64000
| 16>
| 17> %pal nprocs 4
| 18> end
| 19>
| 20> %scf
| 21>   MaxIter 150
| 22> end
| 23>
| 24>                          ****END OF INPUT****

CARTESIAN COORDINATES (ANGSTROEM)
---------------------------------
  C     -5.572360   -5.807800   -0.816440
  S     -6.903180   -4.619030   -0.528460
  O     -8.114850   -5.250930   -0.957010
  F     -6.532710   -3.426840   -1.314850
  O     -6.865630   -4.294960    0.914120
  C     -4.457800   -5.941870    0.229190
  H     -5.177350   -5.542570   -1.797710
  H     -6.074200   -6.768890   -0.921270
  H     -3.755150   -6.682390   -0.091440
  H     -4.881820   -6.234860    1.166890
  H     -3.959080   -5.001890    0.341430

 Total Charge           Charge          ....    0
 Multiplicity           Mult            ....    1
 Number of Electrons    NEL             ....   58
 Basis Dimension        Dim             ....  113

ORBITAL ENERGIES
----------------

  NO   OCC          E(Eh)            E(eV)
   0   2.0000     -88.534940     -2409.1582
   1   2.0000     -24.555065      -668.1773
   2   2.0000     -18.951798      -515.7046
   3   2.0000     -18.936761      -515.2955
   4   2.0000     -10.142265      -275.9851
   5   2.0000     -10.105079      -274.9732
   6   2.0000      -8.093284      -220.2295
   7   2.0000      -6.131407      -166.8441
   8   2.0000      -6.124657      -166.6604
   9   2.0000      -6.123726      -166.6351
  10   2.0000      -1.416890       -38.5555
  11   2.0000      -1.192961       -32.4621
  12   2.0000      -1.086455       -29.5639
  13   2.0000      -0.923622       -25.1330
  14   2.0000      -0.821320       -22.3493
  15   2.0000      -0.768816       -20.9205
  16   2.0000      -0.676413       -18.4061
  17   2.0000      -0.656802       -17.8725
  18   2.0000      -0.639727       -17.4079
  19   2.0000      -0.592137       -16.1129
  20   2.0000      -0.574157       -15.6236
  21   2.0000      -0.544912       -14.8278
  22   2.0000      -0.522188       -14.2095
  23   2.0000      -0.499415       -13.5898
  24   2.0000      -0.493916       -13.4401
  25   2.0000      -0.472109       -12.8467
  26   2.0000      -0.421170       -11.4606
  27   2.0000      -0.408947       -11.1280
  28   2.0000      -0.394033       -10.7222
  29   0.0000       0.110476         3.0062
  30   0.0000       0.123752         3.3675
  31   0.0000       0.153601         4.1797
  32   0.0000       0.170160         4.6303
  33   0.0000       0.180921         4.9231

MULLIKEN ATOMIC CHARGES
-----------------------
   0 C :   -0.153362
   1 S :    0.843738
   2 O :   -0.382323
   3 F :   -0.169120
   4 O :   -0.429087
   5 C :    0.029755
   6 H :    0.058495
   7 H :    0.083830
   8 H :    0.033374
   9 H :    0.051026
  10 H :    0.033672
Sum of atomic charges:    0.0000000

LOEWDIN ATOMIC CHARGES
----------------------
   0 C :   -0.167504
   1 S :    1.134807
   2 O :   -0.458839
   3 F :   -0.139075
   4 O :   -0.506954
   5 C :   -0.063468
   6 H :    0.035793
   7 H :    0.051664
   8 H :    0.039420
   9 H :    0.040001
  10 H :    0.034156

  Mayer bond orders larger than 0.100000
B(  0-C ,  1-S ) :   0.9061 B(  0-C ,  5-C ) :   1.0776 B(  0-C ,  6-H ) :   0.9351
B(  0-C ,  7-H ) :   0.9386 B(  1-S ,  2-O ) :   1.8373 B(  1-S ,  3-F ) :   1.0258
B(  1-S ,  4-O ) :   1.7978 B(  5-C ,  8-H ) :   0.9580 B(  5-C ,  9-H ) :   0.9675
B(  5-C , 10-H ) :   0.9712

FINAL SINGLE POINT ENERGY      -726.373815230826

DIPOLE MOMENT
-------------
                                X             Y             Z
Electronic contribution:     -6.77887       6.72459      -2.50082
Nuclear contribution   :      8.15840      -7.14411       1.72305
                        -----------------------------------------
Total Dipole Moment    :      1.37953      -0.41952      -0.77776
                        -----------------------------------------
Magnitude (a.u.)       :      1.63829
Magnitude (Debye)      :      4.16421

Rotational constants in cm-1:     0.153926     0.078297     0.077402
Rotational constants in MHz :  4614.585804  2347.272644  2320.438903

                             ****ORCA TERMINATED NORMALLY****
TOTAL RUN TIME: 0 days 0 hours 0 minutes 15 seconds 638 msec
