                         Program Version 5.0.0 -  RELEASE  -
|  1> !LC-BLYP RIJCOSX def2-SVP def2/J TightSCF
|  2> *xyz 0 1
|  3> C         -5.57236       -5.80780       -0.81644
|  4> S         -6.90318       -4.61903       -0.52846
|  5> O         -8.11485       -5.25093       -0.95701
|  6> O         -6.53271       -3.42684       -1.31485
|  7> F         -6.86563       -4.29496        0.91412
|  8> C         -4.45780       -5.94187        0.22919
|  9> H         -5.17735       -5.54257       -1.79771
| 10> H         -6.07420       -6.76889       -0.92127
| 11> H         -3.75515       -6.68239       -0.09144
| 12> H         -4.88182       -6.23486        1.16689
| 13> H         -3.95908       -5.00189        0.34143
| 14> *
| 15> %MaxCore 64000
| 16>
| 17> %pal nprocs 4
| 18> end
| 19>
| 20> %scf
| 21>   MaxIter 150
| 22> end
| 23>
| 24>                          ****END OF INPUT****

CARTESIAN COORDINATES (ANGSTROEM)
---------------------------------
  C     -5.572360   -5.807800   -0.816440
  S     -6.903180   -4.619030   -0.528460
  O     -8.114850   -5.250930   -0.957010
  O     -6.532710   -3.426840   -1.314850
  F     -6.865630   -4.294960    0.914120
  C     -4.457800   -5.941870    0.229190
  H     -5.177350   -5.542570   -1.797710
  H     -6.074200   -6.768890   -0.921270
  H     -3.755150   -6.682390   -0.091440
  H     -4.881820   -6.234860    1.166890
  H     -3.959080   -5.001890    0.341430

 Total Charge           Charge          ....    0
 Multiplicity           Mult            ....    1
 Number of Electrons    NEL             ....   58
 Basis Dimension        Dim             ....  113

ORBITAL ENERGIES
----------------

  NO   OCC          E(Eh)            E(eV)
   0   2.0000     -88.533869     -2409.1290
   1   2.0000     -24.554767      -668.1692
   2   2.0000     -18.951192      -515.6881
   3   2.0000     -18.934243      -515.2269
   4   2.0000     -10.141280      -275.9583
   5   2.0000     -10.112763      -275.1823
   6   2.0000      -8.092277      -220.2020
   7   2.0000      -6.130492      -166.8192
   8   2.0000      -6.123664      -166.6334
   9   2.0000      -6.122622      -166.6050
  10   2.0000      -1.414491       -38.4903
  11   2.0000      -1.193018       -32.4637
  12   2.0000      -1.086161       -29.5559
  13   2.0000      -0.926772       -25.2187
  14   2.0000      -0.818253       -22.2658
  15   2.0000      -0.774005       -21.0617
  16   2.0000      -0.682571       -18.5737
  17   2.0000      -0.656555       -17.8658
  18   2.0000      -0.629222       -17.1220
  19   2.0000      -0.598412       -16.2836
  20   2.0000      -0.567144       -15.4328
  21   2.0000      -0.548875       -14.9357
  22   2.0000      -0.528679       -14.3861
  23   2.0000      -0.509563       -13.8659
  24   2.0000      -0.492439       -13.4000
  25   2.0000      -0.474380       -12.9085
  26   2.0000      -0.421247       -11.4627
  27   2.0000      -0.406259       -11.0549
  28   2.0000      -0.392574       -10.6825
  29   0.0000       0.097457         2.6519
  30   0.0000       0.141476         3.8498
  31   0.0000       0.162277         4.4158
  32   0.0000       0.165819         4.5122
  33   0.0000       0.179145         4.8748

MULLIKEN ATOMIC CHARGES
-----------------------
   0 C :   -0.141125
   1 S :    0.843883
   2 O :   -0.381760
   3 O :   -0.433915
   4 F :   -0.169330
   5 C :   -0.000157
   6 H :    0.090495
   7 H :    0.071278
   8 H :    0.042854
   9 H :    0.033939
  10 H :    0.043837
Sum of atomic charges:    0.0000000

LOEWDIN ATOMIC CHARGES
----------------------
   0 C :   -0.162779
   1 S :    1.135376
   2 O :   -0.458803
   3 O :   -0.509132
   4 F :   -0.140286
   5 C :   -0.071516
   6 H :    0.054139
   7 H :    0.043035
   8 H :    0.043128
   9 H :    0.031554
  10 H :    0.035285

  Mayer bond orders larger than 0.100000
B(  0-C ,  1-S ) :   0.9185 B(  0-C ,  5-C ) :   1.0719 B(  0-C ,  6-H ) :   0.9358
B(  0-C ,  7-H ) :   0.9389 B(  1-S ,  2-O ) :   1.8354 B(  1-S ,  3-O ) :   1.7877
B(  1-S ,  4-F ) :   1.0278 B(  5-C ,  8-H ) :   0.9602 B(  5-C ,  9-H ) :   0.9727
B(  5-C , 10-H ) :   0.9716

FINAL SINGLE POINT ENERGY      -726.373341027220

DIPOLE MOMENT
-------------
                                X             Y             Z
Electronic contribution:     -7.31562       5.21360       1.31335
Nuclear contribution   :      8.50531      -6.23950      -0.59960
                        -----------------------------------------
Total Dipole Moment    :      1.18969      -1.02590       0.71374
                        -----------------------------------------
Magnitude (a.u.)       :      1.72547
Magnitude (Debye)      :      4.38581

Rotational constants in cm-1:     0.152799     0.080212     0.076962
Rotational constants in MHz :  4580.804531  2404.707790  2307.252710

                             ****ORCA TERMINATED NORMALLY****
TOTAL RUN TIME: 0 days 0 hours 0 minutes 15 seconds 292 msec
