                         Program Version 5.0.0 -  RELEASE  -
|  1> !wB97X-D3 RIJCOSX def2-SVPD def2/J TightSCF CPCM(Water)
|  2> *xyz -1 1
|  3> C         -0.25875        1.00432       -5.40983
|  4> C          0.39596       -0.37070       -5.33994
|  5> O         -0.32633       -1.39040       -5.49128
|  6> O          1.61941       -0.40073       -5.03683
|  7> H         -1.28979        0.89539       -5.67439
|  8> H          0.23798        1.59877       -6.14792
|  9> H         -0.18395        1.48386       -4.45623
| 10> *
| 11> %MaxCore 64000
| 12>
| 13> %pal nprocs 18
| 14> end
| 15>
| 16> %scf
| 17>   MaxIter 150
| 18> end
| 19>
| 20>
| 21>                          ****END OF INPUT****

CARTESIAN COORDINATES (ANGSTROEM)
---------------------------------
  C     -0.258750    1.004320   -5.409830
  C      0.395960   -0.370700   -5.339940
  O     -0.326330   -1.390400   -5.491280
  O      1.619410   -0.400730   -5.036830
  H     -1.289790    0.895390   -5.674390
  H      0.237980    1.598770   -6.147920
  H     -0.183950    1.483860   -4.456230

 Total Charge           Charge          ....   -1
 Multiplicity           Mult            ....    1
 Number of Electrons    NEL             ....   32
 Basis Dimension        Dim             ....  110

ORBITAL ENERGIES
----------------

  NO   OCC          E(Eh)            E(eV)
   0   2.0000     -19.179341      -521.8964
   1   2.0000     -19.177068      -521.8346
   2   2.0000     -10.370262      -282.1892
   3   2.0000     -10.261584      -279.2319
   4   2.0000      -1.122970       -30.5576
   5   2.0000      -1.026732       -27.9388
   6   2.0000      -0.818826       -22.2814
   7   2.0000      -0.589581       -16.0433
   8   2.0000      -0.531972       -14.4757
   9   2.0000      -0.522640       -14.2217
  10   2.0000      -0.521232       -14.1835
  11   2.0000      -0.469481       -12.7752
  12   2.0000      -0.448761       -12.2114
  13   2.0000      -0.343745        -9.3538
  14   2.0000      -0.334503        -9.1023
  15   2.0000      -0.323105        -8.7921
  16   0.0000       0.096733         2.6322
  17   0.0000       0.130290         3.5454
  18   0.0000       0.133701         3.6382
  19   0.0000       0.149721         4.0741
  20   0.0000       0.171239         4.6597

MULLIKEN ATOMIC CHARGES
-----------------------
   0 C :    0.404075
   1 C :    0.019198
   2 O :   -0.677317
   3 O :   -0.702811
   4 H :   -0.047452
   5 H :    0.001503
   6 H :    0.002804
Sum of atomic charges:   -1.0000000

LOEWDIN ATOMIC CHARGES
----------------------
   0 C :    0.156932
   1 C :   -0.349801
   2 O :   -0.373964
   3 O :   -0.381509
   4 H :   -0.025599
   5 H :   -0.014398
   6 H :   -0.011661

  Mayer bond orders larger than 0.100000
B(  0-C ,  1-C ) :   1.2253 B(  0-C ,  4-H ) :   0.8816 B(  0-C ,  5-H ) :   0.8175
B(  0-C ,  6-H ) :   0.8309 B(  1-C ,  2-O ) :   1.5140 B(  1-C ,  3-O ) :   1.4964
B(  1-C ,  4-H ) :   0.2134 B(  1-C ,  5-H ) :   0.1545 B(  1-C ,  6-H ) :   0.1407

Dispersion correction           -0.000907174
FINAL SINGLE POINT ENERGY      -228.415715420951

DIPOLE MOMENT
-------------
                                X             Y             Z
Electronic contribution:      1.25802      -2.66894       0.13399
Nuclear contribution   :     -2.15615       4.52621      -0.30445
                        -----------------------------------------
Total Dipole Moment    :     -0.89813       1.85727      -0.17045
                        -----------------------------------------
Magnitude (a.u.)       :      2.07006
Magnitude (Debye)      :      5.26167

Rotational constants in cm-1:     0.393591     0.332639     0.186460
Rotational constants in MHz : 11799.557437  9972.275109  5589.926304

                             ****ORCA TERMINATED NORMALLY****
TOTAL RUN TIME: 0 days 0 hours 0 minutes 7 seconds 652 msec
