                         Program Version 5.0.0 -  RELEASE  -
|  1> !wB97X-D3 RIJCOSX def2-SVPD def2/J TightSCF CPCM(Water)
|  2> *xyz 1 1
|  3> C          0.81607       -2.10149       -2.18655
|  4> N          1.10055       -2.46749       -3.59927
|  5> H          1.70061       -1.75723       -4.07838
|  6> H          0.29386       -2.35977       -4.25632
|  7> H          1.50132       -3.42848       -3.69491
|  8> H          0.40947       -1.11246       -2.14929
|  9> H          1.72290       -2.13590       -1.61965
| 10> H          0.11112       -2.79271       -1.77405
| 11> *
| 12> %MaxCore 64000
| 13>
| 14> %pal nprocs 18
| 15> end
| 16>
| 17> %scf
| 18>   MaxIter 150
| 19> end
| 20>
| 21>
| 22>                          ****END OF INPUT****

CARTESIAN COORDINATES (ANGSTROEM)
---------------------------------
  C      0.816070   -2.101490   -2.186550
  N      1.100550   -2.467490   -3.599270
  H      1.700610   -1.757230   -4.078380
  H      0.293860   -2.359770   -4.256320
  H      1.501320   -3.428480   -3.694910
  H      0.409470   -1.112460   -2.149290
  H      1.722900   -2.135900   -1.619650
  H      0.111120   -2.792710   -1.774050

 Total Charge           Charge          ....    1
 Multiplicity           Mult            ....    1
 Number of Electrons    NEL             ....   18
 Basis Dimension        Dim             ....   88

ORBITAL ENERGIES
----------------

  NO   OCC          E(Eh)            E(eV)
   0   2.0000     -14.561275      -396.2324
   1   2.0000     -10.342998      -281.4473
   2   2.0000      -1.100782       -29.9538
   3   2.0000      -0.836788       -22.7702
   4   2.0000      -0.689420       -18.7601
   5   2.0000      -0.656501       -17.8643
   6   2.0000      -0.602754       -16.4018
   7   2.0000      -0.518926       -14.1207
   8   2.0000      -0.512281       -13.9399
   9   0.0000       0.083816         2.2808
  10   0.0000       0.120282         3.2730
  11   0.0000       0.155542         4.2325
  12   0.0000       0.156242         4.2516
  13   0.0000       0.195067         5.3080

MULLIKEN ATOMIC CHARGES
-----------------------
   0 C :    0.776049
   1 N :   -1.035182
   2 H :    0.437178
   3 H :    0.421705
   4 H :    0.463644
   5 H :   -0.023700
   6 H :   -0.016651
   7 H :   -0.023041
Sum of atomic charges:    1.0000000

LOEWDIN ATOMIC CHARGES
----------------------
   0 C :    0.265036
   1 N :    0.303733
   2 H :    0.125622
   3 H :    0.126389
   4 H :    0.130446
   5 H :    0.016935
   6 H :    0.016531
   7 H :    0.015307

  Mayer bond orders larger than 0.100000
B(  0-C ,  1-N ) :   0.7132 B(  0-C ,  5-H ) :   0.9220 B(  0-C ,  6-H ) :   0.9150
B(  0-C ,  7-H ) :   0.9245 B(  1-N ,  2-H ) :   0.7082 B(  1-N ,  3-H ) :   0.7292
B(  1-N ,  4-H ) :   0.6516

Dispersion correction           -0.000532430
FINAL SINGLE POINT ENERGY       -96.236973527087

DIPOLE MOMENT
-------------
                                X             Y             Z
Electronic contribution:      0.25600      -0.35486      -1.21071
Nuclear contribution   :     -0.05716       0.15480       0.08012
                        -----------------------------------------
Total Dipole Moment    :      0.19884      -0.20006      -1.13059
                        -----------------------------------------
Magnitude (a.u.)       :      1.16524
Magnitude (Debye)      :      2.96181

Rotational constants in cm-1:     2.875975     0.681325     0.670600
Rotational constants in MHz : 86219.567947 20425.600745 20104.086440

                             ****ORCA TERMINATED NORMALLY****
TOTAL RUN TIME: 0 days 0 hours 0 minutes 5 seconds 57 msec
