                         Program Version 5.0.0 -  RELEASE  -
|  1> !wB97X-D3 RIJCOSX def2-SVPD def2/J TightSCF CPCM(Water)
|  2> *xyz 0 1
|  3> C         -0.25875        1.00432       -5.40983
|  4> C          0.39596       -0.37070       -5.33994
|  5> F         -0.32633       -1.39040       -5.49128
|  6> O          1.61941       -0.40073       -5.03683
|  7> H         -1.28979        0.89539       -5.67439
|  8> H          0.23798        1.59877       -6.14792
|  9> H         -0.18395        1.48386       -4.45623
| 10> *
| 11> %MaxCore 64000
| 12>
| 13> %pal nprocs 18
| 14> end
| 15>
| 16> %scf
| 17>   MaxIter 150
| 18> end
| 19>
| 20>
| 21>                          ****END OF INPUT****

CARTESIAN COORDINATES (ANGSTROEM)
---------------------------------
  C     -0.258750    1.004320   -5.409830
  C      0.395960   -0.370700   -5.339940
  F     -0.326330   -1.390400   -5.491280
  O      1.619410   -0.400730   -5.036830
  H     -1.289790    0.895390   -5.674390
  H      0.237980    1.598770   -6.147920
  H     -0.183950    1.483860   -4.456230

 Total Charge           Charge          ....    0
 Multiplicity           Mult            ....    1
 Number of Electrons    NEL             ....   32
 Basis Dimension        Dim             ....  110

ORBITAL ENERGIES
----------------

  NO   OCC          E(Eh)            E(eV)
   0   2.0000     -24.877573      -676.9532
   1   2.0000     -19.262846      -524.1687
   2   2.0000     -10.485401      -285.3223
   3   2.0000     -10.302782      -280.3529
   4   2.0000      -1.425771       -38.7972
   5   2.0000      -1.148618       -31.2555
   6   2.0000      -0.873988       -23.7824
   7   2.0000      -0.767816       -20.8933
   8   2.0000      -0.657543       -17.8927
   9   2.0000      -0.650709       -17.7067
  10   2.0000      -0.613495       -16.6940
  11   2.0000      -0.534383       -14.5413
  12   2.0000      -0.521862       -14.2006
  13   2.0000      -0.505274       -13.7492
  14   2.0000      -0.457261       -12.4427
  15   2.0000      -0.403290       -10.9741
  16   0.0000       0.048153         1.3103
  17   0.0000       0.091254         2.4831
  18   0.0000       0.131132         3.5683
  19   0.0000       0.152441         4.1481
  20   0.0000       0.161273         4.3885

MULLIKEN ATOMIC CHARGES
-----------------------
   0 C :    0.231628
   1 C :    0.438844
   2 F :   -0.354611
   3 O :   -0.539965
   4 H :    0.040613
   5 H :    0.087409
   6 H :    0.096082
Sum of atomic charges:    0.0000000

LOEWDIN ATOMIC CHARGES
----------------------
   0 C :    0.219405
   1 C :   -0.013575
   2 F :   -0.037394
   3 O :   -0.195801
   4 H :   -0.001326
   5 H :    0.013299
   6 H :    0.015392

  Mayer bond orders larger than 0.100000
B(  0-C ,  1-C ) :   1.2760 B(  0-C ,  4-H ) :   0.8976 B(  0-C ,  5-H ) :   0.8164
B(  0-C ,  6-H ) :   0.8266 B(  1-C ,  2-F ) :   0.8050 B(  1-C ,  3-O ) :   1.7774
B(  1-C ,  4-H ) :   0.1366 B(  1-C ,  5-H ) :   0.1340 B(  1-C ,  6-H ) :   0.1178

Dispersion correction           -0.000909260
FINAL SINGLE POINT ENERGY      -252.846257147049

DIPOLE MOMENT
-------------
                                X             Y             Z
Electronic contribution:      0.12781      -4.90192      -0.16752
Nuclear contribution   :     -1.44986       5.66477      -0.12483
                        -----------------------------------------
Total Dipole Moment    :     -1.32204       0.76285      -0.29235
                        -----------------------------------------
Magnitude (a.u.)       :      1.55410
Magnitude (Debye)      :      3.95020

Rotational constants in cm-1:     0.371735     0.317798     0.176902
Rotational constants in MHz : 11144.324945  9527.341239  5303.391856

                             ****ORCA TERMINATED NORMALLY****
TOTAL RUN TIME: 0 days 0 hours 0 minutes 9 seconds 80 msec
