                         Program Version 5.0.0 -  RELEASE  -
|  1> !wB97X-D3 RIJCOSX def2-SVPD def2/J TightSCF CPCM(Water)
|  2> *xyz 0 1
|  3> C          0.81607       -2.10149       -2.18655
|  4> C          1.10055       -2.46749       -3.59927
|  5> H          1.70061       -1.75723       -4.07838
|  6> H          0.29386       -2.35977       -4.25632
|  7> H          1.50132       -3.42848       -3.69491
|  8> H          0.40947       -1.11246       -2.14929
|  9> H          1.72290       -2.13590       -1.61965
| 10> H          0.11112       -2.79271       -1.77405
| 11> *
| 12> %MaxCore 64000
| 13>
| 14> %pal nprocs 18
| 15> end
| 16>
| 17> %scf
| 18>   MaxIter 150
| 19> end
| 20>
| 21>
| 22>                          ****END OF INPUT****

CARTESIAN COORDINATES (ANGSTROEM)
---------------------------------
  C      0.816070   -2.101490   -2.186550
  C      1.100550   -2.467490   -3.599270
  H      1.700610   -1.757230   -4.078380
  H      0.293860   -2.359770   -4.256320
  H      1.501320   -3.428480   -3.694910
  H      0.409470   -1.112460   -2.149290
  H      1.722900   -2.135900   -1.619650
  H      0.111120   -2.792710   -1.774050

 Total Charge           Charge          ....    0
 Multiplicity           Mult            ....    1
 Number of Electrons    NEL             ....   18
 Basis Dimension        Dim             ....   88

ORBITAL ENERGIES
----------------

  NO   OCC          E(Eh)            E(eV)
   0   2.0000     -10.264073      -279.2996
   1   2.0000     -10.254460      -279.0380
   2   2.0000      -0.872887       -23.7525
   3   2.0000      -0.725759       -19.7489
   4   2.0000      -0.550514       -14.9803
   5   2.0000      -0.532187       -14.4815
   6   2.0000      -0.468291       -12.7429
   7   2.0000      -0.442451       -12.0397
   8   2.0000      -0.421464       -11.4686
   9   0.0000       0.102267         2.7828
  10   0.0000       0.130174         3.5422
  11   0.0000       0.184238         5.0134
  12   0.0000       0.187995         5.1156
  13   0.0000       0.205357         5.5880

MULLIKEN ATOMIC CHARGES
-----------------------
   0 C :    0.203649
   1 C :    0.288407
   2 H :   -0.139669
   3 H :   -0.152717
   4 H :   -0.111270
   5 H :   -0.020203
   6 H :   -0.032025
   7 H :   -0.036171
Sum of atomic charges:   -0.0000000

LOEWDIN ATOMIC CHARGES
----------------------
   0 C :    0.070240
   1 C :    0.060172
   2 H :   -0.030408
   3 H :   -0.030696
   4 H :   -0.023015
   5 H :   -0.014470
   6 H :   -0.015180
   7 H :   -0.016643

  Mayer bond orders larger than 0.100000
B(  0-C ,  1-C ) :   1.4137 B(  0-C ,  2-H ) :   0.1216 B(  0-C ,  3-H ) :   0.1111
B(  0-C ,  4-H ) :   0.1367 B(  0-C ,  5-H ) :   0.8857 B(  0-C ,  6-H ) :   0.8657
B(  0-C ,  7-H ) :   0.8800 B(  1-C ,  2-H ) :   0.8247 B(  1-C ,  3-H ) :   0.8306
B(  1-C ,  4-H ) :   0.8675 B(  1-C ,  5-H ) :   0.1370 B(  1-C ,  6-H ) :   0.1432
B(  1-C ,  7-H ) :   0.1359 B(  2-H ,  3-H ) :   0.2416

Dispersion correction           -0.000521512
FINAL SINGLE POINT ENERGY       -79.738649056338

DIPOLE MOMENT
-------------
                                X             Y             Z
Electronic contribution:      0.00372      -0.06331       0.11486
Nuclear contribution   :     -0.00793       0.09023      -0.16124
                        -----------------------------------------
Total Dipole Moment    :     -0.00421       0.02692      -0.04638
                        -----------------------------------------
Magnitude (a.u.)       :      0.05379
Magnitude (Debye)      :      0.13673

Rotational constants in cm-1:     2.876169     0.710562     0.698917
Rotational constants in MHz : 86225.370734 21302.115394 20952.991121

                             ****ORCA TERMINATED NORMALLY****
TOTAL RUN TIME: 0 days 0 hours 0 minutes 5 seconds 432 msec
