                         Program Version 5.0.0 -  RELEASE  -
|  1> !wB97X-D3 RIJCOSX def2-SVPD def2/J TightSCF CPCM(Water)
|  2> *xyz 0 1
|  3> C         -0.25875        1.00432       -5.40983
|  4> C          0.39596       -0.37070       -5.33994
|  5> O         -0.32633       -1.39040       -5.49128
|  6> F          1.61941       -0.40073       -5.03683
|  7> H         -1.28979        0.89539       -5.67439
|  8> H          0.23798        1.59877       -6.14792
|  9> H         -0.18395        1.48386       -4.45623
| 10> *
| 11> %MaxCore 64000
| 12>
| 13> %pal nprocs 18
| 14> end
| 15>
| 16> %scf
| 17>   MaxIter 150
| 18> end
| 19>
| 20>
| 21>                          ****END OF INPUT****

CARTESIAN COORDINATES (ANGSTROEM)
---------------------------------
  C     -0.258750    1.004320   -5.409830
  C      0.395960   -0.370700   -5.339940
  O     -0.326330   -1.390400   -5.491280
  F      1.619410   -0.400730   -5.036830
  H     -1.289790    0.895390   -5.674390
  H      0.237980    1.598770   -6.147920
  H     -0.183950    1.483860   -4.456230

 Total Charge           Charge          ....    0
 Multiplicity           Mult            ....    1
 Number of Electrons    NEL             ....   32
 Basis Dimension        Dim             ....  110

ORBITAL ENERGIES
----------------

  NO   OCC          E(Eh)            E(eV)
   0   2.0000     -24.875476      -676.8961
   1   2.0000     -19.264571      -524.2156
   2   2.0000     -10.485107      -285.3143
   3   2.0000     -10.302495      -280.3452
   4   2.0000      -1.423461       -38.7343
   5   2.0000      -1.150156       -31.2973
   6   2.0000      -0.874866       -23.8063
   7   2.0000      -0.765826       -20.8392
   8   2.0000      -0.656711       -17.8700
   9   2.0000      -0.649117       -17.6634
  10   2.0000      -0.613572       -16.6961
  11   2.0000      -0.531654       -14.4670
  12   2.0000      -0.523581       -14.2474
  13   2.0000      -0.504729       -13.7344
  14   2.0000      -0.461669       -12.5626
  15   2.0000      -0.403991       -10.9932
  16   0.0000       0.051123         1.3911
  17   0.0000       0.090251         2.4559
  18   0.0000       0.130955         3.5635
  19   0.0000       0.153810         4.1854
  20   0.0000       0.161324         4.3899

MULLIKEN ATOMIC CHARGES
-----------------------
   0 C :    0.244120
   1 C :    0.442953
   2 O :   -0.513984
   3 F :   -0.377515
   4 H :    0.006063
   5 H :    0.096120
   6 H :    0.102242
Sum of atomic charges:   -0.0000000

LOEWDIN ATOMIC CHARGES
----------------------
   0 C :    0.219830
   1 C :   -0.016641
   2 O :   -0.190592
   3 F :   -0.041127
   4 H :    0.003736
   5 H :    0.010761
   6 H :    0.014032

  Mayer bond orders larger than 0.100000
B(  0-C ,  1-C ) :   1.2652 B(  0-C ,  4-H ) :   0.9102 B(  0-C ,  5-H ) :   0.8148
B(  0-C ,  6-H ) :   0.8206 B(  1-C ,  2-O ) :   1.8125 B(  1-C ,  3-F ) :   0.7637
B(  1-C ,  4-H ) :   0.1811 B(  1-C ,  5-H ) :   0.1185 B(  1-C ,  6-H ) :   0.1101

Dispersion correction           -0.000902822
FINAL SINGLE POINT ENERGY      -252.848597045242

DIPOLE MOMENT
-------------
                                X             Y             Z
Electronic contribution:      3.68937      -3.08908       0.66495
Nuclear contribution   :     -3.46039       4.64214      -0.59441
                        -----------------------------------------
Total Dipole Moment    :      0.22898       1.55307       0.07054
                        -----------------------------------------
Magnitude (a.u.)       :      1.57144
Magnitude (Debye)      :      3.99428

Rotational constants in cm-1:     0.366844     0.321935     0.177045
Rotational constants in MHz : 10997.709774  9651.373819  5307.687677

                             ****ORCA TERMINATED NORMALLY****
TOTAL RUN TIME: 0 days 0 hours 0 minutes 7 seconds 87 msec
