                         Program Version 5.0.0 -  RELEASE  -
|  1> !wB97X-D3 RIJCOSX def2-SVPD def2/J TightSCF CPCM(Water) xyzfile
|  2>
|  3> *xyzfile 0 1 D2.xyz
|  4>
|  5> %MaxCore 64000
|  6>
|  7> %pal nprocs 18
|  8> end
|  9>
| 10> %scf
| 11>   MaxIter 150
| 12> end
| 13>
| 14>
| 15>                          ****END OF INPUT****

CARTESIAN COORDINATES (ANGSTROEM)
---------------------------------
  C      0.816067   -2.101491   -2.186546
  H      1.696232   -2.368691   -1.600457
  C      1.100552   -2.467492   -3.599269
  C      0.516243   -0.613634   -2.039373
  H     -0.020066   -2.712849   -1.840844
  C     -0.868621   -0.193925   -2.546303
  C     -0.984801    1.284739   -2.928686
  H     -0.764939    1.904116   -2.051568
  H     -2.032613    1.478953   -3.178952
  C     -0.106085    1.769914   -4.089836
  H     -0.347744    2.822196   -4.262942
  H      0.949683    1.745875   -3.808781
  C     -0.258747    1.004323   -5.409829
  C      0.395958   -0.370696   -5.339939
  H      0.239150    1.569393   -6.201253
  H     -1.309360    0.888694   -5.682455
  H      1.700606   -1.757225   -4.078378
  H      0.293855   -2.359766   -4.256324
  H      1.501324   -3.428479   -3.694915
  O     -0.326329   -1.390398   -5.491279
  F      1.619412   -0.400726   -5.036827
  H     -1.607271   -0.412651   -1.768955
  H     -1.157234   -0.796164   -3.409254
  H      1.299044   -0.056805   -2.558982
  H      0.612393   -0.365579   -0.979171

 Total Charge           Charge          ....    0
 Multiplicity           Mult            ....    1
 Number of Electrons    NEL             ....   80
 Basis Dimension        Dim             ....  326

ORBITAL ENERGIES
----------------

  NO   OCC          E(Eh)            E(eV)
   0   2.0000     -24.880447      -677.0314
   1   2.0000     -19.262729      -524.1655
   2   2.0000     -10.483770      -285.2779
   3   2.0000     -10.311143      -280.5805
   4   2.0000     -10.294703      -280.1331
   5   2.0000     -10.282336      -279.7966
   6   2.0000     -10.275950      -279.6228
   7   2.0000     -10.273316      -279.5511
   8   2.0000     -10.267080      -279.3815
   9   2.0000     -10.221975      -278.1541
  10   2.0000      -1.433029       -38.9947
  11   2.0000      -1.156958       -31.4824
  12   2.0000      -0.931046       -25.3351
  13   2.0000      -0.905268       -24.6336
  14   2.0000      -0.852270       -23.1914
  15   2.0000      -0.812345       -22.1050
  16   2.0000      -0.771016       -20.9804
  17   2.0000      -0.742292       -20.1988
  18   2.0000      -0.706206       -19.2168
  19   2.0000      -0.666329       -18.1317
  20   2.0000      -0.662253       -18.0208
  21   2.0000      -0.651099       -17.7173
  22   2.0000      -0.614395       -16.7185
  23   2.0000      -0.575239       -15.6531
  24   2.0000      -0.553394       -15.0586
  25   2.0000      -0.544915       -14.8279
  26   2.0000      -0.539185       -14.6720
  27   2.0000      -0.525054       -14.2874
  28   2.0000      -0.515154       -14.0181
  29   2.0000      -0.488102       -13.2819
  30   2.0000      -0.481117       -13.0919
  31   2.0000      -0.471704       -12.8357
  32   2.0000      -0.457443       -12.4476
  33   2.0000      -0.441283       -12.0079
  34   2.0000      -0.423653       -11.5282
  35   2.0000      -0.422264       -11.4904
  36   2.0000      -0.405304       -11.0289
  37   2.0000      -0.395838       -10.7713
  38   2.0000      -0.393747       -10.7144
  39   2.0000      -0.363703        -9.8969
  40   0.0000       0.041428         1.1273
  41   0.0000       0.092593         2.5196
  42   0.0000       0.111254         3.0274
  43   0.0000       0.113305         3.0832
  44   0.0000       0.115342         3.1386

MULLIKEN ATOMIC CHARGES
-----------------------
   0 C :    0.123088
   1 H :   -0.071193
   2 C :    1.269047
   3 C :    0.133226
   4 H :   -0.151467
   5 C :    0.173620
   6 C :    0.283457
   7 H :   -0.044342
   8 H :    0.093806
   9 C :    0.000886
  10 H :   -0.161485
  11 H :    0.088400
  12 C :    0.148316
  13 C :    0.525683
  14 H :    0.102411
  15 H :    0.022384
  16 H :   -0.322460
  17 H :   -0.311206
  18 H :   -0.233236
  19 O :   -0.570663
  20 F :   -0.464441
  21 H :   -0.086924
  22 H :   -0.297738
  23 H :   -0.026762
  24 H :   -0.222407
Sum of atomic charges:   -0.0000000

LOEWDIN ATOMIC CHARGES
----------------------
   0 C :   -0.053178
   1 H :    0.019853
   2 C :    0.120970
   3 C :   -0.023151
   4 H :    0.024382
   5 C :   -0.015977
   6 C :   -0.023067
   7 H :    0.027626
   8 H :    0.026374
   9 C :   -0.015854
  10 H :    0.030202
  11 H :    0.017604
  12 C :    0.077441
  13 C :    0.041623
  14 H :    0.051140
  15 H :    0.045396
  16 H :   -0.072589
  17 H :   -0.106281
  18 H :   -0.014134
  19 O :   -0.169217
  20 F :   -0.038589
  21 H :    0.028092
  22 H :   -0.005649
  23 H :    0.006061
  24 H :    0.020921

  Mayer bond orders larger than 0.100000
B(  0-C ,  1-H ) :   0.8080 B(  0-C ,  2-C ) :   1.0708 B(  0-C ,  3-C ) :   1.1647
B(  0-C ,  4-H ) :   0.8403 B(  0-C , 16-H ) :   0.2510 B(  0-C , 17-H ) :   0.1946
B(  0-C , 18-H ) :   0.1741 B(  0-C , 23-H ) :   0.1429 B(  1-H ,  3-C ) :   0.1641
B(  1-H ,  4-H ) :  -0.1130 B(  2-C ,  3-C ) :   0.1095 B(  2-C ,  4-H ) :   0.1391
B(  2-C , 16-H ) :   0.4279 B(  2-C , 17-H ) :   0.3866 B(  2-C , 18-H ) :   0.6641
B(  2-C , 23-H ) :  -0.1552 B(  2-C , 24-H ) :   0.1016 B(  3-C ,  5-C ) :   1.1262
B(  3-C , 21-H ) :   0.2259 B(  3-C , 22-H ) :   0.1023 B(  3-C , 23-H ) :   0.8279
B(  3-C , 24-H ) :   0.9455 B(  5-C ,  6-C ) :   1.2278 B(  5-C ,  7-H ) :   0.1690
B(  5-C ,  8-H ) :   0.1977 B(  5-C , 21-H ) :   0.7881 B(  5-C , 22-H ) :   0.8908
B(  5-C , 23-H ) :   0.1005 B(  5-C , 24-H ) :   0.1904 B(  6-C ,  7-H ) :   0.8427
B(  6-C ,  8-H ) :   0.6902 B(  6-C ,  9-C ) :   1.2268 B(  6-C , 10-H ) :   0.1435
B(  6-C , 21-H ) :   0.1020 B(  7-H ,  9-C ) :   0.1363 B(  8-H ,  9-C ) :   0.1411
B(  9-C , 10-H ) :   0.9597 B(  9-C , 11-H ) :   0.8190 B(  9-C , 12-C ) :   1.1842
B(  9-C , 14-H ) :   0.1511 B( 10-H , 11-H ) :  -0.1016 B( 10-H , 12-C ) :   0.1022
B( 12-C , 13-C ) :   1.2333 B( 12-C , 14-H ) :   0.7384 B( 12-C , 15-H ) :   0.8976
B( 13-C , 14-H ) :   0.1683 B( 13-C , 15-H ) :   0.1895 B( 13-C , 16-H ) :   0.1196
B( 13-C , 17-H ) :   0.1064 B( 13-C , 19-O ) :   1.7343 B( 13-C , 20-F ) :   0.6241
B( 16-H , 17-H ) :   0.3877 B( 16-H , 20-F ) :   0.1843 B( 16-H , 23-H ) :   0.2229
B( 16-H , 24-H ) :  -0.1542 B( 17-H , 19-O ) :   0.2024 B( 18-H , 23-H ) :  -0.1194

Dispersion correction           -0.010991985
FINAL SINGLE POINT ENERGY      -488.461119540810

DIPOLE MOMENT
-------------
                                X             Y             Z
Electronic contribution:      3.68788       0.15707      -9.81902
Nuclear contribution   :     -3.57245       1.60200       9.69133
                        -----------------------------------------
Total Dipole Moment    :      0.11543       1.75907      -0.12768
                        -----------------------------------------
Magnitude (a.u.)       :      1.76747
Magnitude (Debye)      :      4.49255

Rotational constants in cm-1:     0.051520     0.042563     0.028962
Rotational constants in MHz :  1544.537298  1275.996546   868.258224

                             ****ORCA TERMINATED NORMALLY****
TOTAL RUN TIME: 0 days 0 hours 0 minutes 43 seconds 259 msec
