                         Program Version 5.0.0 -  RELEASE  -
|  1> !PBE0 D3BJ RIJCOSX def2-SVPD def2/J TightSCF
|  2> *xyz -1 1
|  3> C          4.93020       -7.37532       -2.64962
|  4> C          3.84189       -6.95161       -3.63283
|  5> H          3.45814       -5.95442       -3.40712
|  6> H          2.98848       -7.64361       -3.56708
|  7> S          4.31812       -6.91593       -5.36869
|  8> O          5.40615       -5.89948       -5.51297
|  9> O          3.11191       -6.44508       -6.04379
| 10> C          6.17399       -6.48552       -2.60631
| 11> H          4.46961       -7.40617       -1.65588
| 12> H          5.23013       -8.39868       -2.88591
| 13> O          4.76340       -8.23942       -5.69863
| 14> H          6.62449       -6.45478       -3.57637
| 15> H          6.87304       -6.88376       -1.90088
| 16> H          5.89434       -5.49571       -2.31140
| 17> *
| 18>
| 19> %MaxCore 64000
| 20>
| 21> %pal nprocs 8
| 22> end
| 23>
| 24> %scf
| 25>   MaxIter 150
| 26> end
| 27>
| 28>
| 29>                          ****END OF INPUT****

CARTESIAN COORDINATES (ANGSTROEM)
---------------------------------
  C      4.930200   -7.375320   -2.649620
  C      3.841890   -6.951610   -3.632830
  H      3.458140   -5.954420   -3.407120
  H      2.988480   -7.643610   -3.567080
  S      4.318120   -6.915930   -5.368690
  O      5.406150   -5.899480   -5.512970
  O      3.111910   -6.445080   -6.043790
  C      6.173990   -6.485520   -2.606310
  H      4.469610   -7.406170   -1.655880
  H      5.230130   -8.398680   -2.885910
  O      4.763400   -8.239420   -5.698630
  H      6.624490   -6.454780   -3.576370
  H      6.873040   -6.883760   -1.900880
  H      5.894340   -5.495710   -2.311400

 Total Charge           Charge          ....   -1
 Multiplicity           Mult            ....    1
 Number of Electrons    NEL             ....   66
 Basis Dimension        Dim             ....  212

ORBITAL ENERGIES
----------------

  NO   OCC          E(Eh)            E(eV)
   0   2.0000     -89.040234     -2422.9079
   1   2.0000     -19.004718      -517.1447
   2   2.0000     -18.994994      -516.8801
   3   2.0000     -18.988327      -516.6986
   4   2.0000     -10.106367      -275.0082
   5   2.0000     -10.101273      -274.8696
   6   2.0000     -10.084021      -274.4002
   7   2.0000      -7.999417      -217.6752
   8   2.0000      -5.941731      -161.6827
   9   2.0000      -5.941492      -161.6762
  10   2.0000      -5.941100      -161.6655
  11   2.0000      -0.958518       -26.0826
  12   2.0000      -0.820680       -22.3318
  13   2.0000      -0.791173       -21.5289
  14   2.0000      -0.676382       -18.4053
  15   2.0000      -0.584110       -15.8944
  16   2.0000      -0.487505       -13.2657
  17   2.0000      -0.401488       -10.9250
  18   2.0000      -0.348620        -9.4864
  19   2.0000      -0.334682        -9.1072
  20   2.0000      -0.310665        -8.4536
  21   2.0000      -0.295688        -8.0461
  22   2.0000      -0.280594        -7.6354
  23   2.0000      -0.270717        -7.3666
  24   2.0000      -0.236702        -6.4410
  25   2.0000      -0.229919        -6.2564
  26   2.0000      -0.217216        -5.9108
  27   2.0000      -0.167922        -4.5694
  28   2.0000      -0.166794        -4.5387
  29   2.0000      -0.132794        -3.6135
  30   2.0000      -0.121476        -3.3055
  31   2.0000      -0.114072        -3.1041
  32   2.0000      -0.079404        -2.1607
  33   0.0000       0.141489         3.8501
  34   0.0000       0.166826         4.5396
  35   0.0000       0.173269         4.7149
  36   0.0000       0.182231         4.9587
  37   0.0000       0.200049         5.4436

MULLIKEN ATOMIC CHARGES
-----------------------
   0 C :   -0.409088
   1 C :   -0.146852
   2 H :    0.066973
   3 H :    0.079618
   4 S :    1.440594
   5 O :   -0.874282
   6 O :   -0.866771
   7 C :    0.621340
   8 H :   -0.050966
   9 H :    0.025143
  10 O :   -0.815620
  11 H :   -0.045943
  12 H :   -0.034464
  13 H :    0.010317
Sum of atomic charges:   -1.0000000

LOEWDIN ATOMIC CHARGES
----------------------
   0 C :   -0.100101
   1 C :   -0.102235
   2 H :    0.009160
   3 H :    0.012943
   4 S :    0.874752
   5 O :   -0.589675
   6 O :   -0.588162
   7 C :    0.114121
   8 H :    0.007897
   9 H :    0.018250
  10 O :   -0.570181
  11 H :   -0.037965
  12 H :   -0.031661
  13 H :   -0.017143

  Mayer bond orders larger than 0.100000
B(  0-C ,  1-C ) :   1.2429 B(  0-C ,  2-H ) :   0.1297 B(  0-C ,  3-H ) :   0.1191
B(  0-C ,  7-C ) :   1.2785 B(  0-C ,  8-H ) :   0.9058 B(  0-C ,  9-H ) :   0.9296
B(  0-C , 11-H ) :   0.2102 B(  0-C , 12-H ) :   0.1813 B(  0-C , 13-H ) :   0.2004
B(  1-C ,  2-H ) :   0.9462 B(  1-C ,  3-H ) :   0.9121 B(  1-C ,  4-S ) :   0.9383
B(  1-C ,  8-H ) :   0.1319 B(  1-C ,  9-H ) :   0.1288 B(  4-S ,  5-O ) :   1.2187
B(  4-S ,  6-O ) :   1.2972 B(  4-S , 10-O ) :   1.2572 B(  7-C , 11-H ) :   0.8531
B(  7-C , 12-H ) :   0.7920 B(  7-C , 13-H ) :   0.7756 B( 11-H , 13-H ) :   0.1119

Dispersion correction           -0.011443401
FINAL SINGLE POINT ENERGY      -741.561872293752

DIPOLE MOMENT
-------------
                                X             Y             Z
Electronic contribution:     -3.08684      -0.30445     -10.15403
Nuclear contribution   :      3.14317       0.05805      12.49367
                        -----------------------------------------
Total Dipole Moment    :      0.05634      -0.24640       2.33964
                        -----------------------------------------
Magnitude (a.u.)       :      2.35326
Magnitude (Debye)      :      5.98150

Rotational constants in cm-1:     0.133431     0.055055     0.052069
Rotational constants in MHz :  4000.170974  1650.506165  1561.001383

                             ****ORCA TERMINATED NORMALLY****
TOTAL RUN TIME: 0 days 0 hours 0 minutes 14 seconds 296 msec
