                         Program Version 5.0.0 -  RELEASE  -
|  1> !PBE0 D3BJ RIJCOSX def2-SVPD def2/J TightSCF
|  2> *xyz 1 1
|  3> C          5.55821       -1.99291       -6.21505
|  4> C          4.18188       -2.58967       -6.29891
|  5> N          3.14587       -1.76843       -6.48675
|  6> N          4.01910       -3.86431       -6.22743
|  7> H          4.76849       -4.59115       -5.99077
|  8> H          3.12241       -4.33339       -6.31462
|  9> H          3.28164       -0.77779       -6.56655
| 10> H          2.21255       -2.13419       -6.56225
| 11> C          6.41926       -2.54294       -5.07763
| 12> C          5.89651       -2.16931       -3.69455
| 13> H          7.42888       -2.14367       -5.20808
| 14> H          6.50589       -3.62754       -5.17550
| 15> H          6.03683       -2.19819       -7.17685
| 16> H          5.46761       -0.90737       -6.12797
| 17> H          5.81870       -1.10488       -3.61824
| 18> H          6.57185       -2.53200       -2.94804
| 19> H          4.93221       -2.60892       -3.54698
| 20> *
| 21>
| 22> %MaxCore 64000
| 23>
| 24> %pal nprocs 8
| 25> end
| 26>
| 27> %scf
| 28>   MaxIter 150
| 29> end
| 30>
| 31>
| 32>                          ****END OF INPUT****

CARTESIAN COORDINATES (ANGSTROEM)
---------------------------------
  C      5.558210   -1.992910   -6.215050
  C      4.181880   -2.589670   -6.298910
  N      3.145870   -1.768430   -6.486750
  N      4.019100   -3.864310   -6.227430
  H      4.768490   -4.591150   -5.990770
  H      3.122410   -4.333390   -6.314620
  H      3.281640   -0.777790   -6.566550
  H      2.212550   -2.134190   -6.562250
  C      6.419260   -2.542940   -5.077630
  C      5.896510   -2.169310   -3.694550
  H      7.428880   -2.143670   -5.208080
  H      6.505890   -3.627540   -5.175500
  H      6.036830   -2.198190   -7.176850
  H      5.467610   -0.907370   -6.127970
  H      5.818700   -1.104880   -3.618240
  H      6.571850   -2.532000   -2.948040
  H      4.932210   -2.608920   -3.546980

 Total Charge           Charge          ....    1
 Multiplicity           Mult            ....    1
 Number of Electrons    NEL             ....   48
 Basis Dimension        Dim             ....  208

ORBITAL ENERGIES
----------------

  NO   OCC          E(Eh)            E(eV)
   0   2.0000     -14.645937      -398.5362
   1   2.0000     -14.635027      -398.2393
   2   2.0000     -10.554423      -287.2004
   3   2.0000     -10.426434      -283.7177
   4   2.0000     -10.394475      -282.8480
   5   2.0000     -10.356454      -281.8134
   6   2.0000      -1.220690       -33.2167
   7   2.0000      -1.120931       -30.5021
   8   2.0000      -0.990719       -26.9588
   9   2.0000      -0.904747       -24.6194
  10   2.0000      -0.852710       -23.2034
  11   2.0000      -0.797538       -21.7021
  12   2.0000      -0.785301       -21.3691
  13   2.0000      -0.744040       -20.2464
  14   2.0000      -0.711265       -19.3545
  15   2.0000      -0.667611       -18.1666
  16   2.0000      -0.641597       -17.4587
  17   2.0000      -0.602177       -16.3861
  18   2.0000      -0.588469       -16.0131
  19   2.0000      -0.573904       -15.6167
  20   2.0000      -0.513949       -13.9853
  21   2.0000      -0.511326       -13.9139
  22   2.0000      -0.505296       -13.7498
  23   2.0000      -0.502674       -13.6784
  24   0.0000      -0.201829        -5.4921
  25   0.0000      -0.148358        -4.0370
  26   0.0000      -0.115641        -3.1468
  27   0.0000      -0.103100        -2.8055
  28   0.0000      -0.084172        -2.2904

MULLIKEN ATOMIC CHARGES
-----------------------
   0 C :   -0.073236
   1 C :    1.116259
   2 N :   -0.113075
   3 N :   -0.116718
   4 H :    0.106037
   5 H :   -0.131552
   6 H :    0.019551
   7 H :   -0.116523
   8 C :   -0.436283
   9 C :    0.560696
  10 H :   -0.037637
  11 H :   -0.039983
  12 H :    0.015544
  13 H :    0.195072
  14 H :    0.069544
  15 H :   -0.009400
  16 H :   -0.008297
Sum of atomic charges:    1.0000000

LOEWDIN ATOMIC CHARGES
----------------------
   0 C :    0.040549
   1 C :   -0.040065
   2 N :    0.283617
   3 N :    0.260233
   4 H :    0.098983
   5 H :    0.051489
   6 H :    0.040888
   7 H :    0.040245
   8 C :   -0.059790
   9 C :    0.141514
  10 H :    0.044085
  11 H :    0.015512
  12 H :    0.058169
  13 H :    0.042500
  14 H :   -0.002688
  15 H :    0.001840
  16 H :   -0.017079

  Mayer bond orders larger than 0.100000
B(  0-C ,  1-C ) :   1.0278 B(  0-C ,  8-C ) :   1.2414 B(  0-C , 10-H ) :   0.1135
B(  0-C , 11-H ) :   0.1305 B(  0-C , 12-H ) :   0.8921 B(  0-C , 13-H ) :   0.8091
B(  1-C ,  2-N ) :   0.8415 B(  1-C ,  3-N ) :   0.9917 B(  1-C ,  4-H ) :  -0.1024
B(  1-C ,  5-H ) :  -0.2554 B(  1-C ,  7-H ) :  -0.2344 B(  1-C , 12-H ) :   0.1424
B(  2-N ,  3-N ) :   0.1783 B(  2-N ,  6-H ) :   1.1273 B(  2-N ,  7-H ) :   1.3482
B(  3-N ,  4-H ) :   1.0927 B(  3-N ,  5-H ) :   1.3448 B(  4-H ,  5-H ) :  -0.1818
B(  6-H ,  7-H ) :  -0.1809 B(  8-C ,  9-C ) :   1.3501 B(  8-C , 10-H ) :   0.9852
B(  8-C , 11-H ) :   0.9268 B(  8-C , 13-H ) :   0.1226 B(  8-C , 14-H ) :   0.1949
B(  8-C , 15-H ) :   0.1871 B(  8-C , 16-H ) :   0.1870 B(  9-C , 14-H ) :   0.7890
B(  9-C , 15-H ) :   0.8098 B(  9-C , 16-H ) :   0.8568

Dispersion correction           -0.011501385
FINAL SINGLE POINT ENERGY      -267.859748790303

DIPOLE MOMENT
-------------
                                X             Y             Z
Electronic contribution:     -4.01977      -0.93954      -3.72374
Nuclear contribution   :      2.70373       0.48594       2.85544
                        -----------------------------------------
Total Dipole Moment    :     -1.31604      -0.45360      -0.86831
                        -----------------------------------------
Magnitude (a.u.)       :      1.64063
Magnitude (Debye)      :      4.17015

Rotational constants in cm-1:     0.185545     0.074107     0.068805
Rotational constants in MHz :  5562.487769  2221.680591  2062.713441

                             ****ORCA TERMINATED NORMALLY****
TOTAL RUN TIME: 0 days 0 hours 0 minutes 13 seconds 622 msec
