                         Program Version 5.0.0 -  RELEASE  -
|  1> !PBE0 D3BJ RIJCOSX def2-SVPD def2/J TightSCF
|  2> *xyz 0 1
|  3> C          4.93020       -7.37532       -2.64962
|  4> C          3.84189       -6.95161       -3.63283
|  5> H          3.45814       -5.95442       -3.40712
|  6> H          2.98848       -7.64361       -3.56708
|  7> S          4.31812       -6.91593       -5.36869
|  8> F          5.40615       -5.89948       -5.51297
|  9> O          3.11191       -6.44508       -6.04379
| 10> C          6.17399       -6.48552       -2.60631
| 11> H          4.46961       -7.40617       -1.65588
| 12> H          5.23013       -8.39868       -2.88591
| 13> O          4.76340       -8.23942       -5.69863
| 14> H          6.62449       -6.45478       -3.57637
| 15> H          6.87304       -6.88376       -1.90088
| 16> H          5.89434       -5.49571       -2.31140
| 17> *
| 18>
| 19> %MaxCore 64000
| 20>
| 21> %pal nprocs 8
| 22> end
| 23>
| 24> %scf
| 25>   MaxIter 150
| 26> end
| 27>
| 28>
| 29>                          ****END OF INPUT****

CARTESIAN COORDINATES (ANGSTROEM)
---------------------------------
  C      4.930200   -7.375320   -2.649620
  C      3.841890   -6.951610   -3.632830
  H      3.458140   -5.954420   -3.407120
  H      2.988480   -7.643610   -3.567080
  S      4.318120   -6.915930   -5.368690
  F      5.406150   -5.899480   -5.512970
  O      3.111910   -6.445080   -6.043790
  C      6.173990   -6.485520   -2.606310
  H      4.469610   -7.406170   -1.655880
  H      5.230130   -8.398680   -2.885910
  O      4.763400   -8.239420   -5.698630
  H      6.624490   -6.454780   -3.576370
  H      6.873040   -6.883760   -1.900880
  H      5.894340   -5.495710   -2.311400

 Total Charge           Charge          ....    0
 Multiplicity           Mult            ....    1
 Number of Electrons    NEL             ....   66
 Basis Dimension        Dim             ....  212

ORBITAL ENERGIES
----------------

  NO   OCC          E(Eh)            E(eV)
   0   2.0000     -89.294555     -2429.8284
   1   2.0000     -24.880608      -677.0358
   2   2.0000     -19.236423      -523.4497
   3   2.0000     -19.226407      -523.1771
   4   2.0000     -10.299329      -280.2590
   5   2.0000     -10.266781      -279.3733
   6   2.0000     -10.240723      -278.6642
   7   2.0000      -8.254603      -224.6192
   8   2.0000      -6.200604      -168.7270
   9   2.0000      -6.194739      -168.5674
  10   2.0000      -6.193479      -168.5331
  11   2.0000      -1.367332       -37.2070
  12   2.0000      -1.144770       -31.1508
  13   2.0000      -1.047211       -28.4960
  14   2.0000      -0.855646       -23.2833
  15   2.0000      -0.771551       -20.9950
  16   2.0000      -0.719379       -19.5753
  17   2.0000      -0.657289       -17.8857
  18   2.0000      -0.589988       -16.0544
  19   2.0000      -0.580143       -15.7865
  20   2.0000      -0.567557       -15.4440
  21   2.0000      -0.511483       -13.9182
  22   2.0000      -0.496659       -13.5148
  23   2.0000      -0.483422       -13.1546
  24   2.0000      -0.472162       -12.8482
  25   2.0000      -0.452982       -12.3263
  26   2.0000      -0.413302       -11.2465
  27   2.0000      -0.401481       -10.9248
  28   2.0000      -0.389293       -10.5932
  29   2.0000      -0.379350       -10.3226
  30   2.0000      -0.356755        -9.7078
  31   2.0000      -0.342119        -9.3095
  32   2.0000      -0.334083        -9.0909
  33   0.0000      -0.000358        -0.0097
  34   0.0000       0.029550         0.8041
  35   0.0000       0.034493         0.9386
  36   0.0000       0.040893         1.1127
  37   0.0000       0.047655         1.2967

MULLIKEN ATOMIC CHARGES
-----------------------
   0 C :   -0.368030
   1 C :   -0.166100
   2 H :    0.123162
   3 H :    0.128496
   4 S :    1.575366
   5 F :   -0.442310
   6 O :   -0.728348
   7 C :    0.617588
   8 H :   -0.015549
   9 H :    0.041835
  10 O :   -0.693983
  11 H :   -0.087947
  12 H :   -0.010787
  13 H :    0.026608
Sum of atomic charges:   -0.0000000

LOEWDIN ATOMIC CHARGES
----------------------
   0 C :   -0.082200
   1 C :   -0.055691
   2 H :    0.027530
   3 H :    0.044971
   4 S :    1.127332
   5 F :   -0.279805
   6 O :   -0.475549
   7 C :    0.132687
   8 H :    0.033273
   9 H :    0.031051
  10 O :   -0.458792
  11 H :   -0.030814
  12 H :   -0.007681
  13 H :   -0.006313

  Mayer bond orders larger than 0.100000
B(  0-C ,  1-C ) :   1.2746 B(  0-C ,  2-H ) :   0.1284 B(  0-C ,  3-H ) :   0.1151
B(  0-C ,  7-C ) :   1.2941 B(  0-C ,  8-H ) :   0.8929 B(  0-C ,  9-H ) :   0.9349
B(  0-C , 11-H ) :   0.1897 B(  0-C , 12-H ) :   0.1724 B(  0-C , 13-H ) :   0.1915
B(  1-C ,  2-H ) :   0.9309 B(  1-C ,  3-H ) :   0.8852 B(  1-C ,  4-S ) :   1.0124
B(  1-C ,  8-H ) :   0.1226 B(  1-C ,  9-H ) :   0.1268 B(  4-S ,  5-F ) :   0.5723
B(  4-S ,  6-O ) :   1.5114 B(  4-S , 10-O ) :   1.4866 B(  7-C , 11-H ) :   0.8665
B(  7-C , 12-H ) :   0.8020 B(  7-C , 13-H ) :   0.7824

Dispersion correction           -0.010971187
FINAL SINGLE POINT ENERGY      -766.051895439644

DIPOLE MOMENT
-------------
                                X             Y             Z
Electronic contribution:     -1.89530       1.39400     -11.72682
Nuclear contribution   :      2.27444      -1.01744      13.40618
                        -----------------------------------------
Total Dipole Moment    :      0.37914       0.37656       1.67936
                        -----------------------------------------
Magnitude (a.u.)       :      1.76232
Magnitude (Debye)      :      4.47947

Rotational constants in cm-1:     0.126966     0.054929     0.051005
Rotational constants in MHz :  3806.345018  1646.729702  1529.089209

                             ****ORCA TERMINATED NORMALLY****
TOTAL RUN TIME: 0 days 0 hours 0 minutes 13 seconds 776 msec
