                         Program Version 5.0.0 -  RELEASE  -
|  1> !PBE0 D3BJ RIJCOSX def2-SVPD def2/J TightSCF
|  2> *xyz 0 1
|  3> C          5.55821       -1.99291       -6.21505
|  4> C          4.18188       -2.58967       -6.29891
|  5> C          3.14587       -1.76843       -6.48675
|  6> N          4.01910       -3.86431       -6.22743
|  7> H          4.76849       -4.59115       -5.99077
|  8> H          3.12241       -4.33339       -6.31462
|  9> H          3.28164       -0.77779       -6.56655
| 10> H          2.21255       -2.13419       -6.56225
| 11> C          6.41926       -2.54294       -5.07763
| 12> C          5.89651       -2.16931       -3.69455
| 13> H          7.42888       -2.14367       -5.20808
| 14> H          6.50589       -3.62754       -5.17550
| 15> H          6.03683       -2.19819       -7.17685
| 16> H          5.46761       -0.90737       -6.12797
| 17> H          5.81870       -1.10488       -3.61824
| 18> H          6.57185       -2.53200       -2.94804
| 19> H          4.93221       -2.60892       -3.54698
| 20> *
| 21>
| 22> %MaxCore 64000
| 23>
| 24> %pal nprocs 8
| 25> end
| 26>
| 27> %scf
| 28>   MaxIter 150
| 29> end
| 30>
| 31>
| 32>                          ****END OF INPUT****

CARTESIAN COORDINATES (ANGSTROEM)
---------------------------------
  C      5.558210   -1.992910   -6.215050
  C      4.181880   -2.589670   -6.298910
  C      3.145870   -1.768430   -6.486750
  N      4.019100   -3.864310   -6.227430
  H      4.768490   -4.591150   -5.990770
  H      3.122410   -4.333390   -6.314620
  H      3.281640   -0.777790   -6.566550
  H      2.212550   -2.134190   -6.562250
  C      6.419260   -2.542940   -5.077630
  C      5.896510   -2.169310   -3.694550
  H      7.428880   -2.143670   -5.208080
  H      6.505890   -3.627540   -5.175500
  H      6.036830   -2.198190   -7.176850
  H      5.467610   -0.907370   -6.127970
  H      5.818700   -1.104880   -3.618240
  H      6.571850   -2.532000   -2.948040
  H      4.932210   -2.608920   -3.546980

 Total Charge           Charge          ....    0
 Multiplicity           Mult            ....    1
 Number of Electrons    NEL             ....   48
 Basis Dimension        Dim             ....  208

ORBITAL ENERGIES
----------------

  NO   OCC          E(Eh)            E(eV)
   0   2.0000     -14.405633      -391.9972
   1   2.0000     -10.254985      -279.0523
   2   2.0000     -10.232301      -278.4351
   3   2.0000     -10.229962      -278.3714
   4   2.0000     -10.212430      -277.8944
   5   2.0000     -10.161462      -276.5074
   6   2.0000      -0.953067       -25.9343
   7   2.0000      -0.810592       -22.0573
   8   2.0000      -0.749494       -20.3948
   9   2.0000      -0.694679       -18.9032
  10   2.0000      -0.615753       -16.7555
  11   2.0000      -0.593596       -16.1526
  12   2.0000      -0.533781       -14.5249
  13   2.0000      -0.480780       -13.0827
  14   2.0000      -0.468085       -12.7372
  15   2.0000      -0.460263       -12.5244
  16   2.0000      -0.408363       -11.1121
  17   2.0000      -0.403124       -10.9696
  18   2.0000      -0.386600       -10.5199
  19   2.0000      -0.380432       -10.3521
  20   2.0000      -0.349355        -9.5064
  21   2.0000      -0.338669        -9.2157
  22   2.0000      -0.333620        -9.0783
  23   2.0000      -0.196211        -5.3392
  24   0.0000       0.019125         0.5204
  25   0.0000       0.043240         1.1766
  26   0.0000       0.051070         1.3897
  27   0.0000       0.055297         1.5047
  28   0.0000       0.073216         1.9923

MULLIKEN ATOMIC CHARGES
-----------------------
   0 C :    0.137737
   1 C :    0.019881
   2 C :    0.477015
   3 N :   -0.032880
   4 H :   -0.028462
   5 H :   -0.217686
   6 H :   -0.142412
   7 H :   -0.402447
   8 C :   -0.464432
   9 C :    0.559355
  10 H :   -0.059116
  11 H :   -0.054020
  12 H :   -0.058796
  13 H :    0.243012
  14 H :    0.051205
  15 H :   -0.018149
  16 H :   -0.009806
Sum of atomic charges:   -0.0000000

LOEWDIN ATOMIC CHARGES
----------------------
   0 C :    0.001170
   1 C :   -0.268294
   2 C :    0.177568
   3 N :    0.145084
   4 H :    0.043404
   5 H :    0.012024
   6 H :   -0.091750
   7 H :   -0.090572
   8 C :   -0.084109
   9 C :    0.122538
  10 H :    0.021313
  11 H :    0.002687
  12 H :    0.029544
  13 H :    0.029050
  14 H :   -0.012701
  15 H :   -0.018791
  16 H :   -0.018163

  Mayer bond orders larger than 0.100000
B(  0-C ,  1-C ) :   1.0953 B(  0-C ,  8-C ) :   1.2134 B(  0-C , 10-H ) :   0.1404
B(  0-C , 11-H ) :   0.1478 B(  0-C , 12-H ) :   0.8597 B(  0-C , 13-H ) :   0.7791
B(  1-C ,  2-C ) :   1.6483 B(  1-C ,  3-N ) :   1.1174 B(  1-C ,  5-H ) :  -0.1532
B(  1-C ,  7-H ) :   0.2399 B(  1-C , 12-H ) :   0.2274 B(  2-C ,  3-N ) :   0.2723
B(  2-C ,  6-H ) :   1.0694 B(  2-C ,  7-H ) :   0.6681 B(  3-N ,  4-H ) :   1.1778
B(  3-N ,  5-H ) :   1.3038 B(  4-H ,  5-H ) :  -0.1683 B(  8-C ,  9-C ) :   1.3223
B(  8-C , 10-H ) :   0.9637 B(  8-C , 11-H ) :   0.9289 B(  8-C , 13-H ) :   0.1462
B(  8-C , 14-H ) :   0.2089 B(  8-C , 15-H ) :   0.1906 B(  8-C , 16-H ) :   0.2007
B(  9-C , 14-H ) :   0.7945 B(  9-C , 15-H ) :   0.7958 B(  9-C , 16-H ) :   0.8544

Dispersion correction           -0.011874307
FINAL SINGLE POINT ENERGY      -251.406110883280

DIPOLE MOMENT
-------------
                                X             Y             Z
Electronic contribution:     -1.93684      -1.41345      -2.52084
Nuclear contribution   :      2.30279       0.65856       2.66048
                        -----------------------------------------
Total Dipole Moment    :      0.36595      -0.75489       0.13964
                        -----------------------------------------
Magnitude (a.u.)       :      0.85046
Magnitude (Debye)      :      2.16169

Rotational constants in cm-1:     0.189707     0.076319     0.071159
Rotational constants in MHz :  5687.269526  2287.988194  2133.283230

                             ****ORCA TERMINATED NORMALLY****
TOTAL RUN TIME: 0 days 0 hours 0 minutes 13 seconds 525 msec
