                         Program Version 5.0.0 -  RELEASE  -
|  1> !PBE0 D3BJ RIJCOSX def2-SVPD def2/J TightSCF
|  2> *xyz 0 1
|  3> C          4.93020       -7.37532       -2.64962
|  4> C          3.84189       -6.95161       -3.63283
|  5> H          3.45814       -5.95442       -3.40712
|  6> H          2.98848       -7.64361       -3.56708
|  7> S          4.31812       -6.91593       -5.36869
|  8> O          5.40615       -5.89948       -5.51297
|  9> F          3.11191       -6.44508       -6.04379
| 10> C          6.17399       -6.48552       -2.60631
| 11> H          4.46961       -7.40617       -1.65588
| 12> H          5.23013       -8.39868       -2.88591
| 13> O          4.76340       -8.23942       -5.69863
| 14> H          6.62449       -6.45478       -3.57637
| 15> H          6.87304       -6.88376       -1.90088
| 16> H          5.89434       -5.49571       -2.31140
| 17> *
| 18>
| 19> %MaxCore 64000
| 20>
| 21> %pal nprocs 8
| 22> end
| 23>
| 24> %scf
| 25>   MaxIter 150
| 26> end
| 27>
| 28>
| 29>                          ****END OF INPUT****

CARTESIAN COORDINATES (ANGSTROEM)
---------------------------------
  C      4.930200   -7.375320   -2.649620
  C      3.841890   -6.951610   -3.632830
  H      3.458140   -5.954420   -3.407120
  H      2.988480   -7.643610   -3.567080
  S      4.318120   -6.915930   -5.368690
  O      5.406150   -5.899480   -5.512970
  F      3.111910   -6.445080   -6.043790
  C      6.173990   -6.485520   -2.606310
  H      4.469610   -7.406170   -1.655880
  H      5.230130   -8.398680   -2.885910
  O      4.763400   -8.239420   -5.698630
  H      6.624490   -6.454780   -3.576370
  H      6.873040   -6.883760   -1.900880
  H      5.894340   -5.495710   -2.311400

 Total Charge           Charge          ....    0
 Multiplicity           Mult            ....    1
 Number of Electrons    NEL             ....   66
 Basis Dimension        Dim             ....  212

ORBITAL ENERGIES
----------------

  NO   OCC          E(Eh)            E(eV)
   0   2.0000     -89.296895     -2429.8921
   1   2.0000     -24.895568      -677.4428
   2   2.0000     -19.236499      -523.4517
   3   2.0000     -19.219527      -522.9899
   4   2.0000     -10.300399      -280.2881
   5   2.0000     -10.265151      -279.3290
   6   2.0000     -10.224139      -278.2130
   7   2.0000      -8.256979      -224.6838
   8   2.0000      -6.203106      -168.7951
   9   2.0000      -6.197034      -168.6299
  10   2.0000      -6.195683      -168.5931
  11   2.0000      -1.394881       -37.9566
  12   2.0000      -1.139221       -30.9998
  13   2.0000      -1.029372       -28.0106
  14   2.0000      -0.852560       -23.1993
  15   2.0000      -0.776302       -21.1242
  16   2.0000      -0.722943       -19.6723
  17   2.0000      -0.652763       -17.7626
  18   2.0000      -0.599726       -16.3194
  19   2.0000      -0.591472       -16.0948
  20   2.0000      -0.576196       -15.6791
  21   2.0000      -0.511644       -13.9225
  22   2.0000      -0.502252       -13.6670
  23   2.0000      -0.469807       -12.7841
  24   2.0000      -0.464453       -12.6384
  25   2.0000      -0.446678       -12.1547
  26   2.0000      -0.406298       -11.0559
  27   2.0000      -0.389744       -10.6055
  28   2.0000      -0.387597       -10.5470
  29   2.0000      -0.372840       -10.1455
  30   2.0000      -0.353822        -9.6280
  31   2.0000      -0.331589        -9.0230
  32   2.0000      -0.322352        -8.7716
  33   0.0000       0.004545         0.1237
  34   0.0000       0.020124         0.5476
  35   0.0000       0.040601         1.1048
  36   0.0000       0.042975         1.1694
  37   0.0000       0.056738         1.5439

MULLIKEN ATOMIC CHARGES
-----------------------
   0 C :   -0.419265
   1 C :   -0.179162
   2 H :    0.117203
   3 H :    0.137754
   4 S :    1.626105
   5 O :   -0.751442
   6 F :   -0.458613
   7 C :    0.637781
   8 H :   -0.021299
   9 H :    0.041805
  10 O :   -0.685367
  11 H :   -0.060521
  12 H :   -0.012059
  13 H :    0.027079
Sum of atomic charges:    0.0000000

LOEWDIN ATOMIC CHARGES
----------------------
   0 C :   -0.069120
   1 C :   -0.067924
   2 H :    0.026023
   3 H :    0.030564
   4 S :    1.137994
   5 O :   -0.484495
   6 F :   -0.269024
   7 C :    0.136616
   8 H :    0.034883
   9 H :    0.032348
  10 O :   -0.460324
  11 H :   -0.031712
  12 H :   -0.010222
  13 H :   -0.005607

  Mayer bond orders larger than 0.100000
B(  0-C ,  1-C ) :   1.3041 B(  0-C ,  2-H ) :   0.1249 B(  0-C ,  3-H ) :   0.1299
B(  0-C ,  7-C ) :   1.2953 B(  0-C ,  8-H ) :   0.9049 B(  0-C ,  9-H ) :   0.9252
B(  0-C , 11-H ) :   0.1959 B(  0-C , 12-H ) :   0.1729 B(  0-C , 13-H ) :   0.1959
B(  1-C ,  2-H ) :   0.9242 B(  1-C ,  3-H ) :   0.8635 B(  1-C ,  4-S ) :   0.9739
B(  1-C ,  8-H ) :   0.1207 B(  1-C ,  9-H ) :   0.1252 B(  4-S ,  5-O ) :   1.4133
B(  4-S ,  6-F ) :   0.6222 B(  4-S , 10-O ) :   1.4729 B(  7-C , 11-H ) :   0.8641
B(  7-C , 12-H ) :   0.7909 B(  7-C , 13-H ) :   0.7711 B( 11-H , 13-H ) :   0.1085

Dispersion correction           -0.011064559
FINAL SINGLE POINT ENERGY      -766.040446032412

DIPOLE MOMENT
-------------
                                X             Y             Z
Electronic contribution:     -5.84733       0.46794     -12.71765
Nuclear contribution   :      4.74176      -0.43068      13.97705
                        -----------------------------------------
Total Dipole Moment    :     -1.10557       0.03726       1.25940
                        -----------------------------------------
Magnitude (a.u.)       :      1.67624
Magnitude (Debye)      :      4.26065

Rotational constants in cm-1:     0.131248     0.052952     0.050354
Rotational constants in MHz :  3934.713341  1587.473971  1509.583923

                             ****ORCA TERMINATED NORMALLY****
TOTAL RUN TIME: 0 days 0 hours 0 minutes 14 seconds 555 msec
