                         Program Version 5.0.0 -  RELEASE  -
|  1> !PBE0 D3BJ RIJCOSX def2-SVPD def2/J TightSCF
|  2> *xyz 0 1
|  3> C          5.55821       -1.99291       -6.21505
|  4> C          4.18188       -2.58967       -6.29891
|  5> N          3.14587       -1.76843       -6.48675
|  6> C          4.01910       -3.86431       -6.22743
|  7> H          4.76849       -4.59115       -5.99077
|  8> H          3.12241       -4.33339       -6.31462
|  9> H          3.28164       -0.77779       -6.56655
| 10> H          2.21255       -2.13419       -6.56225
| 11> C          6.41926       -2.54294       -5.07763
| 12> C          5.89651       -2.16931       -3.69455
| 13> H          7.42888       -2.14367       -5.20808
| 14> H          6.50589       -3.62754       -5.17550
| 15> H          6.03683       -2.19819       -7.17685
| 16> H          5.46761       -0.90737       -6.12797
| 17> H          5.81870       -1.10488       -3.61824
| 18> H          6.57185       -2.53200       -2.94804
| 19> H          4.93221       -2.60892       -3.54698
| 20> *
| 21>
| 22> %MaxCore 64000
| 23>
| 24> %pal nprocs 8
| 25> end
| 26>
| 27> %scf
| 28>   MaxIter 150
| 29> end
| 30>
| 31>
| 32>                          ****END OF INPUT****

CARTESIAN COORDINATES (ANGSTROEM)
---------------------------------
  C      5.558210   -1.992910   -6.215050
  C      4.181880   -2.589670   -6.298910
  N      3.145870   -1.768430   -6.486750
  C      4.019100   -3.864310   -6.227430
  H      4.768490   -4.591150   -5.990770
  H      3.122410   -4.333390   -6.314620
  H      3.281640   -0.777790   -6.566550
  H      2.212550   -2.134190   -6.562250
  C      6.419260   -2.542940   -5.077630
  C      5.896510   -2.169310   -3.694550
  H      7.428880   -2.143670   -5.208080
  H      6.505890   -3.627540   -5.175500
  H      6.036830   -2.198190   -7.176850
  H      5.467610   -0.907370   -6.127970
  H      5.818700   -1.104880   -3.618240
  H      6.571850   -2.532000   -2.948040
  H      4.932210   -2.608920   -3.546980

 Total Charge           Charge          ....    0
 Multiplicity           Mult            ....    1
 Number of Electrons    NEL             ....   48
 Basis Dimension        Dim             ....  208

ORBITAL ENERGIES
----------------

  NO   OCC          E(Eh)            E(eV)
   0   2.0000     -14.394902      -391.7052
   1   2.0000     -10.252871      -278.9948
   2   2.0000     -10.231266      -278.4069
   3   2.0000     -10.226641      -278.2811
   4   2.0000     -10.208562      -277.7891
   5   2.0000     -10.168518      -276.6994
   6   2.0000      -0.942860       -25.6565
   7   2.0000      -0.811864       -22.0920
   8   2.0000      -0.747491       -20.3403
   9   2.0000      -0.698380       -19.0039
  10   2.0000      -0.620724       -16.8908
  11   2.0000      -0.567390       -15.4395
  12   2.0000      -0.536683       -14.6039
  13   2.0000      -0.504718       -13.7341
  14   2.0000      -0.465913       -12.6781
  15   2.0000      -0.450598       -12.2614
  16   2.0000      -0.413562       -11.2536
  17   2.0000      -0.402796       -10.9606
  18   2.0000      -0.378597       -10.3022
  19   2.0000      -0.363382        -9.8881
  20   2.0000      -0.345315        -9.3965
  21   2.0000      -0.338217        -9.2034
  22   2.0000      -0.332984        -9.0609
  23   2.0000      -0.204290        -5.5590
  24   0.0000       0.028071         0.7638
  25   0.0000       0.042591         1.1590
  26   0.0000       0.050194         1.3658
  27   0.0000       0.059459         1.6180
  28   0.0000       0.075320         2.0496

MULLIKEN ATOMIC CHARGES
-----------------------
   0 C :    0.237968
   1 C :    0.403580
   2 N :    0.005418
   3 C :    0.051397
   4 H :    0.114885
   5 H :   -0.513305
   6 H :   -0.141021
   7 H :   -0.176226
   8 C :   -0.490870
   9 C :    0.551645
  10 H :   -0.055096
  11 H :   -0.004433
  12 H :   -0.050839
  13 H :    0.040829
  14 H :    0.055976
  15 H :   -0.050778
  16 H :    0.020869
Sum of atomic charges:   -0.0000000

LOEWDIN ATOMIC CHARGES
----------------------
   0 C :   -0.001287
   1 C :   -0.254343
   2 N :    0.172243
   3 C :    0.150211
   4 H :   -0.042647
   5 H :   -0.083000
   6 H :   -0.012879
   7 H :    0.002065
   8 C :   -0.076837
   9 C :    0.121707
  10 H :    0.020845
  11 H :    0.010106
  12 H :    0.031636
  13 H :    0.016404
  14 H :   -0.017246
  15 H :   -0.018535
  16 H :   -0.018442

  Mayer bond orders larger than 0.100000
B(  0-C ,  1-C ) :   0.9125 B(  0-C ,  8-C ) :   1.2376 B(  0-C , 10-H ) :   0.1158
B(  0-C , 11-H ) :   0.1486 B(  0-C , 12-H ) :   0.9028 B(  0-C , 13-H ) :   0.7578
B(  1-C ,  2-N ) :   0.8920 B(  1-C ,  3-C ) :   1.6288 B(  1-C ,  5-H ) :   0.1031
B(  1-C ,  7-H ) :  -0.1667 B(  1-C , 12-H ) :   0.1315 B(  1-C , 13-H ) :   0.1070
B(  2-N ,  3-C ) :   0.3125 B(  2-N ,  6-H ) :   1.1617 B(  2-N ,  7-H ) :   1.3238
B(  3-C ,  4-H ) :   0.8149 B(  3-C ,  5-H ) :   0.9018 B(  4-H ,  5-H ) :  -0.1138
B(  6-H ,  7-H ) :  -0.1604 B(  8-C ,  9-C ) :   1.3416 B(  8-C , 10-H ) :   0.9632
B(  8-C , 11-H ) :   0.9068 B(  8-C , 12-H ) :   0.1121 B(  8-C , 13-H ) :   0.1428
B(  8-C , 14-H ) :   0.2086 B(  8-C , 15-H ) :   0.1959 B(  8-C , 16-H ) :   0.1997
B(  9-C , 14-H ) :   0.7999 B(  9-C , 15-H ) :   0.8155 B(  9-C , 16-H ) :   0.8514

Dispersion correction           -0.011910265
FINAL SINGLE POINT ENERGY      -251.415711027717

DIPOLE MOMENT
-------------
                                X             Y             Z
Electronic contribution:     -2.70292       0.43170      -2.78964
Nuclear contribution   :      2.50934       0.16282       2.72182
                        -----------------------------------------
Total Dipole Moment    :     -0.19358       0.59452      -0.06783
                        -----------------------------------------
Magnitude (a.u.)       :      0.62891
Magnitude (Debye)      :      1.59857

Rotational constants in cm-1:     0.192764     0.074934     0.070466
Rotational constants in MHz :  5778.908020  2246.454937  2112.518546

                             ****ORCA TERMINATED NORMALLY****
TOTAL RUN TIME: 0 days 0 hours 0 minutes 13 seconds 724 msec
