                         Program Version 5.0.0 -  RELEASE  -
|  1> !PBE0 D3BJ RIJCOSX def2-SVPD def2/J TightSCF
|  2> *xyz 0 1
|  3> C          4.93020       -7.37532       -2.64962
|  4> C          3.84189       -6.95161       -3.63283
|  5> H          3.45814       -5.95442       -3.40712
|  6> H          2.98848       -7.64361       -3.56708
|  7> S          4.31812       -6.91593       -5.36869
|  8> O          5.40615       -5.89948       -5.51297
|  9> O          3.11191       -6.44508       -6.04379
| 10> C          6.17399       -6.48552       -2.60631
| 11> H          4.46961       -7.40617       -1.65588
| 12> H          5.23013       -8.39868       -2.88591
| 13> F          4.76340       -8.23942       -5.69863
| 14> H          6.62449       -6.45478       -3.57637
| 15> H          6.87304       -6.88376       -1.90088
| 16> H          5.89434       -5.49571       -2.31140
| 17> *
| 18>
| 19> %MaxCore 64000
| 20>
| 21> %pal nprocs 8
| 22> end
| 23>
| 24> %scf
| 25>   MaxIter 150
| 26> end
| 27>
| 28>
| 29>                          ****END OF INPUT****

CARTESIAN COORDINATES (ANGSTROEM)
---------------------------------
  C      4.930200   -7.375320   -2.649620
  C      3.841890   -6.951610   -3.632830
  H      3.458140   -5.954420   -3.407120
  H      2.988480   -7.643610   -3.567080
  S      4.318120   -6.915930   -5.368690
  O      5.406150   -5.899480   -5.512970
  O      3.111910   -6.445080   -6.043790
  C      6.173990   -6.485520   -2.606310
  H      4.469610   -7.406170   -1.655880
  H      5.230130   -8.398680   -2.885910
  F      4.763400   -8.239420   -5.698630
  H      6.624490   -6.454780   -3.576370
  H      6.873040   -6.883760   -1.900880
  H      5.894340   -5.495710   -2.311400

 Total Charge           Charge          ....    0
 Multiplicity           Mult            ....    1
 Number of Electrons    NEL             ....   66
 Basis Dimension        Dim             ....  212

ORBITAL ENERGIES
----------------

  NO   OCC          E(Eh)            E(eV)
   0   2.0000     -89.298427     -2429.9337
   1   2.0000     -24.909463      -677.8209
   2   2.0000     -19.227214      -523.1991
   3   2.0000     -19.220153      -523.0070
   4   2.0000     -10.300701      -280.2963
   5   2.0000     -10.267522      -279.3935
   6   2.0000     -10.228213      -278.3238
   7   2.0000      -8.258485      -224.7248
   8   2.0000      -6.204920      -168.8444
   9   2.0000      -6.198260      -168.6632
  10   2.0000      -6.197041      -168.6301
  11   2.0000      -1.417875       -38.5823
  12   2.0000      -1.127574       -30.6829
  13   2.0000      -1.021563       -27.7982
  14   2.0000      -0.855865       -23.2893
  15   2.0000      -0.777413       -21.1545
  16   2.0000      -0.734968       -19.9995
  17   2.0000      -0.656983       -17.8774
  18   2.0000      -0.618605       -16.8331
  19   2.0000      -0.612980       -16.6800
  20   2.0000      -0.566494       -15.4151
  21   2.0000      -0.509361       -13.8604
  22   2.0000      -0.503663       -13.7054
  23   2.0000      -0.474663       -12.9162
  24   2.0000      -0.458470       -12.4756
  25   2.0000      -0.448659       -12.2086
  26   2.0000      -0.401006       -10.9119
  27   2.0000      -0.396331       -10.7847
  28   2.0000      -0.391923       -10.6648
  29   2.0000      -0.374238       -10.1835
  30   2.0000      -0.342918        -9.3313
  31   2.0000      -0.332877        -9.0580
  32   2.0000      -0.314679        -8.5628
  33   0.0000      -0.003143        -0.0855
  34   0.0000       0.028512         0.7758
  35   0.0000       0.037831         1.0294
  36   0.0000       0.040192         1.0937
  37   0.0000       0.048366         1.3161

MULLIKEN ATOMIC CHARGES
-----------------------
   0 C :   -0.384321
   1 C :   -0.157426
   2 H :    0.107158
   3 H :    0.126035
   4 S :    1.582025
   5 O :   -0.736532
   6 O :   -0.716206
   7 C :    0.651192
   8 H :   -0.027126
   9 H :    0.017875
  10 F :   -0.416122
  11 H :   -0.064255
  12 H :   -0.010981
  13 H :    0.028683
Sum of atomic charges:   -0.0000000

LOEWDIN ATOMIC CHARGES
----------------------
   0 C :   -0.084932
   1 C :   -0.056303
   2 H :    0.040263
   3 H :    0.031679
   4 S :    1.137924
   5 O :   -0.480014
   6 O :   -0.475106
   7 C :    0.133474
   8 H :    0.032316
   9 H :    0.025207
  10 F :   -0.253281
  11 H :   -0.036881
  12 H :   -0.010988
  13 H :   -0.003357

  Mayer bond orders larger than 0.100000
B(  0-C ,  1-C ) :   1.2462 B(  0-C ,  2-H ) :   0.1237 B(  0-C ,  3-H ) :   0.1173
B(  0-C ,  7-C ) :   1.3047 B(  0-C ,  8-H ) :   0.9055 B(  0-C ,  9-H ) :   0.9240
B(  0-C , 11-H ) :   0.2025 B(  0-C , 12-H ) :   0.1720 B(  0-C , 13-H ) :   0.1993
B(  1-C ,  2-H ) :   0.9365 B(  1-C ,  3-H ) :   0.8952 B(  1-C ,  4-S ) :   1.0038
B(  1-C ,  8-H ) :   0.1184 B(  1-C ,  9-H ) :   0.1187 B(  4-S ,  5-O ) :   1.4453
B(  4-S ,  6-O ) :   1.5218 B(  4-S , 10-F ) :   0.6262 B(  7-C , 11-H ) :   0.8570
B(  7-C , 12-H ) :   0.7946 B(  7-C , 13-H ) :   0.7741 B( 11-H , 13-H ) :   0.1109

Dispersion correction           -0.011003207
FINAL SINGLE POINT ENERGY      -766.028144656073

DIPOLE MOMENT
-------------
                                X             Y             Z
Electronic contribution:     -3.01137      -2.58239     -12.10743
Nuclear contribution   :      2.96568       1.49902      13.60585
                        -----------------------------------------
Total Dipole Moment    :     -0.04569      -1.08336       1.49842
                        -----------------------------------------
Magnitude (a.u.)       :      1.84960
Magnitude (Debye)      :      4.70131

Rotational constants in cm-1:     0.127173     0.053596     0.051689
Rotational constants in MHz :  3812.547794  1606.772866  1549.597841

                             ****ORCA TERMINATED NORMALLY****
TOTAL RUN TIME: 0 days 0 hours 0 minutes 13 seconds 807 msec
