                         Program Version 5.0.0 -  RELEASE  -
|  1> !PBE0 D3BJ RIJCOSX def2-SVPD def2/J TightSCF xyzfile
|  2>
|  3> *xyzfile 0 1 D1.xyz
|  4>
|  5> %MaxCore 64000
|  6>
|  7> %pal nprocs 4
|  8> end
|  9>
| 10> %scf
| 11>   MaxIter 150
| 12> end
| 13>
| 14>
| 15>                          ****END OF INPUT****

CARTESIAN COORDINATES (ANGSTROEM)
---------------------------------
  C      5.558206   -1.992914   -6.215054
  C      4.930199   -7.375319   -2.649623
  C      3.841892   -6.951611   -3.632829
  H      3.458144   -5.954425   -3.407121
  H      2.988484   -7.643606   -3.567078
  S      4.318115   -6.915930   -5.368692
  C      4.181880   -2.589671   -6.298911
  C      3.145873   -1.768431   -6.486753
  N      4.019102   -3.864307   -6.227427
  H      4.768490   -4.591153   -5.990773
  H      3.122405   -4.333392   -6.314620
  H      3.281635   -0.777786   -6.566549
  H      2.212549   -2.134193   -6.562246
  F      5.406154   -5.899480   -5.512972
  O      3.111910   -6.445079   -6.043792
  C      6.419260   -2.542944   -5.077630
  C      5.872267   -5.002756   -2.427819
  C      6.173994   -6.485522   -2.606315
  H      6.734852   -6.613767   -3.534015
  H      6.821463   -6.831018   -1.793617
  H      4.469612   -7.406168   -1.655876
  H      5.230134   -8.398678   -2.885906
  C      5.896512   -2.169314   -3.694552
  H      7.428880   -2.143665   -5.208078
  H      6.505894   -3.627541   -5.175502
  C      6.807804   -2.623428   -2.551019
  H      4.894708   -2.589732   -3.557501
  H      5.778823   -1.081255   -3.635790
  C      7.111544   -4.122463   -2.520363
  H      7.751615   -2.071393   -2.614406
  H      6.345837   -2.326401   -1.604086
  H      5.362882   -4.828697   -1.471335
  H      5.174429   -4.702577   -3.211298
  H      7.778329   -4.329347   -1.677651
  H      7.673189   -4.402845   -3.417586
  O      4.763396   -8.239424   -5.698629
  H      6.036826   -2.198189   -7.176852
  H      5.467610   -0.907371   -6.127968

 Total Charge           Charge          ....    0
 Multiplicity           Mult            ....    1
 Number of Electrons    NEL             ....  136
 Basis Dimension        Dim             ....  512

ORBITAL ENERGIES
----------------

  NO   OCC          E(Eh)            E(eV)
   0   2.0000     -89.315124     -2430.3881
   1   2.0000     -24.912832      -677.9126
   2   2.0000     -19.254039      -523.9290
   3   2.0000     -19.246753      -523.7308
   4   2.0000     -14.380035      -391.3006
   5   2.0000     -10.309742      -280.5423
   6   2.0000     -10.272056      -279.5169
   7   2.0000     -10.255005      -279.0529
   8   2.0000     -10.245849      -278.8037
   9   2.0000     -10.243182      -278.7312
  10   2.0000     -10.238451      -278.6024
  11   2.0000     -10.232887      -278.4510
  12   2.0000     -10.231878      -278.4235
  13   2.0000     -10.227578      -278.3065
  14   2.0000     -10.225520      -278.2505
  15   2.0000     -10.151159      -276.2271
  16   2.0000      -8.274278      -225.1545
  17   2.0000      -6.220715      -169.2743
  18   2.0000      -6.214319      -169.1002
  19   2.0000      -6.212870      -169.0608
  20   2.0000      -1.402633       -38.1676
  21   2.0000      -1.164694       -31.6929
  22   2.0000      -1.067207       -29.0402
  23   2.0000      -0.938416       -25.5356
  24   2.0000      -0.873559       -23.7708
  25   2.0000      -0.839174       -22.8351
  26   2.0000      -0.811346       -22.0778
  27   2.0000      -0.779853       -21.2209
  28   2.0000      -0.762582       -20.7509
  29   2.0000      -0.731857       -19.9148
  30   2.0000      -0.715872       -19.4799
  31   2.0000      -0.677066       -18.4239
  32   2.0000      -0.643217       -17.5028
  33   2.0000      -0.637172       -17.3383
  34   2.0000      -0.625189       -17.0123
  35   2.0000      -0.606394       -16.5008
  36   2.0000      -0.589724       -16.0472
  37   2.0000      -0.576944       -15.6994
  38   2.0000      -0.573722       -15.6118
  39   2.0000      -0.526764       -14.3340
  40   2.0000      -0.523000       -14.2316
  41   2.0000      -0.508597       -13.8396
  42   2.0000      -0.504045       -13.7158
  43   2.0000      -0.494588       -13.4584
  44   2.0000      -0.481960       -13.1148
  45   2.0000      -0.478990       -13.0340
  46   2.0000      -0.468192       -12.7402
  47   2.0000      -0.450793       -12.2667
  48   2.0000      -0.447897       -12.1879
  49   2.0000      -0.437922       -11.9165
  50   2.0000      -0.425971       -11.5913
  51   2.0000      -0.423872       -11.5341
  52   2.0000      -0.409850       -11.1526
  53   2.0000      -0.393653       -10.7118
  54   2.0000      -0.388629       -10.5751
  55   2.0000      -0.384419       -10.4606
  56   2.0000      -0.382263       -10.4019
  57   2.0000      -0.371292       -10.1034
  58   2.0000      -0.370155       -10.0724
  59   2.0000      -0.358536        -9.7563
  60   2.0000      -0.355528        -9.6744
  61   2.0000      -0.350895        -9.5483
  62   2.0000      -0.349212        -9.5026
  63   2.0000      -0.342781        -9.3276
  64   2.0000      -0.332400        -9.0451
  65   2.0000      -0.325534        -8.8582
  66   2.0000      -0.321067        -8.7367
  67   2.0000      -0.185072        -5.0361
  68   0.0000      -0.011826        -0.3218
  69   0.0000       0.016214         0.4412
  70   0.0000       0.021287         0.5792
  71   0.0000       0.024944         0.6788
  72   0.0000       0.031815         0.8657

MULLIKEN ATOMIC CHARGES
-----------------------
   0 C :    0.606887
   1 C :    0.382308
   2 C :   -0.177750
   3 H :    0.329391
   4 H :   -0.141731
   5 S :    1.609488
   6 C :   -0.262601
   7 C :    0.356752
   8 N :    0.687201
   9 H :   -0.207855
  10 H :   -0.279547
  11 H :   -0.226866
  12 H :   -0.295545
  13 F :   -0.649336
  14 O :   -0.753615
  15 C :    0.110018
  16 C :   -0.150526
  17 C :    0.013234
  18 H :    0.113259
  19 H :   -0.242850
  20 H :    0.137445
  21 H :    0.068833
  22 C :   -0.210332
  23 H :   -0.097986
  24 H :   -0.429208
  25 C :    0.487194
  26 H :    0.206904
  27 H :   -0.243673
  28 C :   -0.035421
  29 H :    0.092567
  30 H :    0.006671
  31 H :    0.049646
  32 H :   -0.208809
  33 H :   -0.253761
  34 H :    0.155515
  35 O :   -0.785326
  36 H :   -0.076666
  37 H :    0.316095
Sum of atomic charges:   -0.0000000

LOEWDIN ATOMIC CHARGES
----------------------
   0 C :    0.013772
   1 C :   -0.032009
   2 C :   -0.037616
   3 H :    0.021158
   4 H :    0.047148
   5 S :    1.150803
   6 C :   -0.255194
   7 C :    0.176679
   8 N :    0.181377
   9 H :   -0.063805
  10 H :   -0.017930
  11 H :   -0.095874
  12 H :   -0.090076
  13 F :   -0.277463
  14 O :   -0.452247
  15 C :   -0.033413
  16 C :   -0.038520
  17 C :   -0.033019
  18 H :    0.017703
  19 H :    0.035476
  20 H :    0.039722
  21 H :    0.033147
  22 C :   -0.032999
  23 H :    0.030478
  24 H :   -0.010753
  25 C :   -0.034523
  26 H :    0.017232
  27 H :    0.030040
  28 C :   -0.037071
  29 H :    0.024962
  30 H :    0.024292
  31 H :    0.043172
  32 H :   -0.014476
  33 H :    0.027278
  34 H :    0.018811
  35 O :   -0.435914
  36 H :    0.031427
  37 H :    0.028226

  Mayer bond orders larger than 0.100000
B(  0-C ,  6-C ) :   1.0194 B(  0-C ,  8-N ) :   0.1536 B(  0-C , 15-C ) :   1.1976
B(  0-C , 24-H ) :   0.1404 B(  0-C , 36-H ) :   0.5819 B(  0-C , 37-H ) :   0.6819
B(  1-C ,  2-C ) :   1.2638 B(  1-C ,  4-H ) :   0.1539 B(  1-C , 17-C ) :   1.2607
B(  1-C , 20-H ) :   0.7213 B(  1-C , 21-H ) :   0.7131 B(  2-C ,  3-H ) :   0.7922
B(  2-C ,  4-H ) :   0.8806 B(  2-C ,  5-S ) :   1.0412 B(  2-C , 20-H ) :   0.1489
B(  2-C , 21-H ) :   0.1189 B(  2-C , 35-O ) :   0.1154 B(  4-H ,  5-S ) :   0.1134
B(  5-S , 13-F ) :   0.5073 B(  5-S , 14-O ) :   1.4599 B(  5-S , 35-O ) :   1.4212
B(  6-C ,  7-C ) :   1.7257 B(  6-C ,  8-N ) :   1.2490 B(  6-C , 10-H ) :  -0.2306
B(  6-C , 11-H ) :   0.1467 B(  6-C , 12-H ) :   0.3022 B(  6-C , 24-H ) :  -0.1047
B(  6-C , 36-H ) :   0.2637 B(  7-C ,  8-N ) :   0.1900 B(  7-C , 11-H ) :   0.9289
B(  7-C , 12-H ) :   0.6655 B(  8-N ,  9-H ) :   0.7898 B(  8-N , 10-H ) :   1.0521
B(  8-N , 13-F ) :  -0.1310 B(  9-H , 10-H ) :  -0.1906 B( 10-H , 14-O ) :   0.1520
B( 13-F , 24-H ) :   0.1328 B( 13-F , 35-O ) :   0.1132 B( 15-C , 22-C ) :   1.2199
B( 15-C , 23-H ) :   0.8292 B( 15-C , 24-H ) :   0.7861 B( 15-C , 26-H ) :   0.1029
B( 15-C , 27-H ) :   0.1765 B( 15-C , 36-H ) :   0.2189 B( 15-C , 37-H ) :   0.1307
B( 16-C , 17-C ) :   1.2126 B( 16-C , 18-H ) :   0.1044 B( 16-C , 19-H ) :   0.1725
B( 16-C , 28-C ) :   1.2285 B( 16-C , 31-H ) :   0.8163 B( 16-C , 32-H ) :   1.0398
B( 16-C , 33-H ) :   0.1879 B( 16-C , 34-H ) :   0.1121 B( 17-C , 18-H ) :   0.8733
B( 17-C , 19-H ) :   0.9477 B( 17-C , 20-H ) :   0.1057 B( 17-C , 21-H ) :   0.2152
B( 17-C , 31-H ) :   0.1022 B( 22-C , 23-H ) :   0.1418 B( 22-C , 24-H ) :   0.1588
B( 22-C , 25-C ) :   1.1095 B( 22-C , 26-H ) :   0.8186 B( 22-C , 27-H ) :   1.0766
B( 22-C , 29-H ) :   0.1346 B( 22-C , 30-H ) :   0.1948 B( 25-C , 28-C ) :   1.1631
B( 25-C , 29-H ) :   0.7222 B( 25-C , 30-H ) :   0.7547 B( 26-H , 32-H ) :   0.1278
B( 28-C , 29-H ) :   0.1856 B( 28-C , 30-H ) :   0.1295 B( 28-C , 31-H ) :   0.1013
B( 28-C , 33-H ) :   1.0304 B( 28-C , 34-H ) :   0.8287 B( 31-H , 32-H ) :   0.1041

Dispersion correction           -0.040263234
FINAL SINGLE POINT ENERGY     -1133.989038789500

DIPOLE MOMENT
-------------
                                X             Y             Z
Electronic contribution:     -7.01666     -18.77738     -13.17412
Nuclear contribution   :      7.78491      18.17172      15.09294
                        -----------------------------------------
Total Dipole Moment    :      0.76825      -0.60566       1.91882
                        -----------------------------------------
Magnitude (a.u.)       :      2.15381
Magnitude (Debye)      :      5.47455

Rotational constants in cm-1:     0.018190     0.012573     0.008405
Rotational constants in MHz :   545.327178   376.916509   251.974803

                             ****ORCA TERMINATED NORMALLY****
TOTAL RUN TIME: 0 days 0 hours 4 minutes 0 seconds 225 msec
