                         Program Version 5.0.0 -  RELEASE  -
|  1> !PBE0 D3BJ RIJCOSX def2-SVPD def2/J TightSCF xyzfile
|  2>
|  3> *xyzfile 0 1 D5.xyz
|  4>
|  5> %MaxCore 64000
|  6>
|  7> %pal nprocs 4
|  8> end
|  9>
| 10> %scf
| 11>   MaxIter 150
| 12> end
| 13>
| 14>
| 15>                          ****END OF INPUT****

CARTESIAN COORDINATES (ANGSTROEM)
---------------------------------
  C      5.558206   -1.992914   -6.215054
  C      4.930199   -7.375319   -2.649623
  C      3.841892   -6.951611   -3.632829
  H      3.458144   -5.954425   -3.407121
  H      2.988484   -7.643606   -3.567078
  S      4.318115   -6.915930   -5.368692
  C      4.181880   -2.589671   -6.298911
  C      3.145873   -1.768431   -6.486753
  N      4.019102   -3.864307   -6.227427
  H      4.768490   -4.591153   -5.990773
  H      3.122405   -4.333392   -6.314620
  H      3.281635   -0.777786   -6.566549
  H      2.212549   -2.134193   -6.562246
  O      5.406154   -5.899480   -5.512972
  O      3.111910   -6.445079   -6.043792
  C      6.419260   -2.542944   -5.077630
  C      5.872267   -5.002756   -2.427819
  C      6.173994   -6.485522   -2.606315
  H      6.734852   -6.613767   -3.534015
  H      6.821463   -6.831018   -1.793617
  H      4.469612   -7.406168   -1.655876
  H      5.230134   -8.398678   -2.885906
  C      5.896512   -2.169314   -3.694552
  H      7.428880   -2.143665   -5.208078
  H      6.505894   -3.627541   -5.175502
  C      6.807804   -2.623428   -2.551019
  H      4.894708   -2.589732   -3.557501
  H      5.778823   -1.081255   -3.635790
  C      7.111544   -4.122463   -2.520363
  H      7.751615   -2.071393   -2.614406
  H      6.345837   -2.326401   -1.604086
  H      5.362882   -4.828697   -1.471335
  H      5.174429   -4.702577   -3.211298
  H      7.778329   -4.329347   -1.677651
  H      7.673189   -4.402845   -3.417586
  F      4.763396   -8.239424   -5.698629
  H      6.036826   -2.198189   -7.176852
  H      5.467610   -0.907371   -6.127968

 Total Charge           Charge          ....    0
 Multiplicity           Mult            ....    1
 Number of Electrons    NEL             ....  136
 Basis Dimension        Dim             ....  512

ORBITAL ENERGIES
----------------

  NO   OCC          E(Eh)            E(eV)
   0   2.0000     -89.328757     -2430.7591
   1   2.0000     -24.933039      -678.4625
   2   2.0000     -19.254524      -523.9422
   3   2.0000     -19.254287      -523.9358
   4   2.0000     -14.350877      -390.5072
   5   2.0000     -10.316493      -280.7261
   6   2.0000     -10.276702      -279.6433
   7   2.0000     -10.247145      -278.8390
   8   2.0000     -10.234720      -278.5009
   9   2.0000     -10.227484      -278.3040
  10   2.0000     -10.224950      -278.2350
  11   2.0000     -10.222019      -278.1553
  12   2.0000     -10.214245      -277.9437
  13   2.0000     -10.213911      -277.9346
  14   2.0000     -10.209323      -277.8098
  15   2.0000     -10.133392      -275.7436
  16   2.0000      -8.287499      -225.5143
  17   2.0000      -6.233862      -169.6320
  18   2.0000      -6.227803      -169.4671
  19   2.0000      -6.225900      -169.4154
  20   2.0000      -1.440509       -39.1983
  21   2.0000      -1.160530       -31.5796
  22   2.0000      -1.057225       -28.7686
  23   2.0000      -0.914696       -24.8901
  24   2.0000      -0.876136       -23.8409
  25   2.0000      -0.830885       -22.6095
  26   2.0000      -0.805705       -21.9243
  27   2.0000      -0.778042       -21.1716
  28   2.0000      -0.758497       -20.6398
  29   2.0000      -0.726312       -19.7640
  30   2.0000      -0.702738       -19.1225
  31   2.0000      -0.669350       -18.2140
  32   2.0000      -0.647500       -17.6194
  33   2.0000      -0.640822       -17.4376
  34   2.0000      -0.623265       -16.9599
  35   2.0000      -0.608287       -16.5523
  36   2.0000      -0.590171       -16.0594
  37   2.0000      -0.571204       -15.5433
  38   2.0000      -0.560289       -15.2462
  39   2.0000      -0.529956       -14.4208
  40   2.0000      -0.526278       -14.3208
  41   2.0000      -0.519267       -14.1300
  42   2.0000      -0.500245       -13.6124
  43   2.0000      -0.482181       -13.1208
  44   2.0000      -0.476437       -12.9645
  45   2.0000      -0.467455       -12.7201
  46   2.0000      -0.455485       -12.3944
  47   2.0000      -0.446712       -12.1557
  48   2.0000      -0.436828       -11.8867
  49   2.0000      -0.433754       -11.8031
  50   2.0000      -0.419232       -11.4079
  51   2.0000      -0.413598       -11.2546
  52   2.0000      -0.405715       -11.0401
  53   2.0000      -0.390941       -10.6380
  54   2.0000      -0.383268       -10.4293
  55   2.0000      -0.372746       -10.1429
  56   2.0000      -0.371105       -10.0983
  57   2.0000      -0.363398        -9.8886
  58   2.0000      -0.362243        -9.8571
  59   2.0000      -0.352341        -9.5877
  60   2.0000      -0.342456        -9.3187
  61   2.0000      -0.339736        -9.2447
  62   2.0000      -0.334366        -9.0986
  63   2.0000      -0.326751        -8.8914
  64   2.0000      -0.318727        -8.6730
  65   2.0000      -0.309049        -8.4097
  66   2.0000      -0.304321        -8.2810
  67   2.0000      -0.165588        -4.5059
  68   0.0000      -0.016489        -0.4487
  69   0.0000       0.013326         0.3626
  70   0.0000       0.021333         0.5805
  71   0.0000       0.025910         0.7050
  72   0.0000       0.031015         0.8440

MULLIKEN ATOMIC CHARGES
-----------------------
   0 C :    0.601518
   1 C :    0.368527
   2 C :   -0.219173
   3 H :    0.316462
   4 H :   -0.104399
   5 S :    1.752575
   6 C :   -0.291132
   7 C :    0.375729
   8 N :    0.670915
   9 H :   -0.179397
  10 H :   -0.294192
  11 H :   -0.235734
  12 H :   -0.312340
  13 O :   -0.998646
  14 O :   -0.764660
  15 C :    0.140181
  16 C :   -0.196596
  17 C :    0.084030
  18 H :    0.152043
  19 H :   -0.260216
  20 H :    0.117288
  21 H :    0.056929
  22 C :   -0.209859
  23 H :   -0.080669
  24 H :   -0.450964
  25 C :    0.488908
  26 H :    0.219038
  27 H :   -0.245718
  28 C :   -0.060665
  29 H :    0.091153
  30 H :    0.001080
  31 H :    0.056506
  32 H :   -0.164474
  33 H :   -0.253274
  34 H :    0.172707
  35 F :   -0.566632
  36 H :   -0.083939
  37 H :    0.307088
Sum of atomic charges:    0.0000000

LOEWDIN ATOMIC CHARGES
----------------------
   0 C :    0.013165
   1 C :   -0.034357
   2 C :   -0.035854
   3 H :    0.034842
   4 H :    0.035382
   5 S :    1.200104
   6 C :   -0.257263
   7 C :    0.165845
   8 N :    0.183247
   9 H :   -0.102696
  10 H :   -0.020409
  11 H :   -0.102269
  12 H :   -0.095949
  13 O :   -0.452193
  14 O :   -0.449860
  15 C :   -0.029428
  16 C :   -0.035283
  17 C :   -0.033900
  18 H :    0.013305
  19 H :    0.032949
  20 H :    0.039869
  21 H :    0.027734
  22 C :   -0.033339
  23 H :    0.028188
  24 H :   -0.008283
  25 C :   -0.036068
  26 H :    0.017225
  27 H :    0.028037
  28 C :   -0.035216
  29 H :    0.023694
  30 H :    0.022322
  31 H :    0.040369
  32 H :   -0.010997
  33 H :    0.025005
  34 H :    0.021693
  35 F :   -0.235406
  36 H :    0.030359
  37 H :    0.025437

  Mayer bond orders larger than 0.100000
B(  0-C ,  6-C ) :   1.0182 B(  0-C ,  8-N ) :   0.1519 B(  0-C , 15-C ) :   1.2015
B(  0-C , 23-H ) :   0.1002 B(  0-C , 24-H ) :   0.1469 B(  0-C , 36-H ) :   0.5807
B(  0-C , 37-H ) :   0.6799 B(  1-C ,  2-C ) :   1.2621 B(  1-C ,  4-H ) :   0.1525
B(  1-C , 17-C ) :   1.2593 B(  1-C , 20-H ) :   0.7386 B(  1-C , 21-H ) :   0.6996
B(  2-C ,  3-H ) :   0.7828 B(  2-C ,  4-H ) :   0.9048 B(  2-C ,  5-S ) :   1.0286
B(  2-C , 20-H ) :   0.1458 B(  2-C , 21-H ) :   0.1022 B(  2-C , 35-F ) :   0.1312
B(  4-H ,  5-S ) :   0.1035 B(  5-S , 13-O ) :   1.1485 B(  5-S , 14-O ) :   1.4261
B(  5-S , 35-F ) :   0.4745 B(  6-C ,  7-C ) :   1.7331 B(  6-C ,  8-N ) :   1.2764
B(  6-C , 10-H ) :  -0.2165 B(  6-C , 11-H ) :   0.1591 B(  6-C , 12-H ) :   0.3075
B(  6-C , 24-H ) :  -0.1059 B(  6-C , 36-H ) :   0.2685 B(  7-C ,  8-N ) :   0.1813
B(  7-C , 11-H ) :   0.9097 B(  7-C , 12-H ) :   0.6683 B(  8-N ,  9-H ) :   0.7728
B(  8-N , 10-H ) :   1.0391 B(  8-N , 13-O ) :  -0.1406 B(  9-H , 10-H ) :  -0.2116
B(  9-H , 13-O ) :   0.1003 B( 10-H , 14-O ) :   0.1628 B( 13-O , 14-O ) :   0.1327
B( 13-O , 24-H ) :   0.1720 B( 13-O , 35-F ) :   0.1347 B( 15-C , 22-C ) :   1.2233
B( 15-C , 23-H ) :   0.8077 B( 15-C , 24-H ) :   0.7396 B( 15-C , 26-H ) :   0.1082
B( 15-C , 27-H ) :   0.1905 B( 15-C , 36-H ) :   0.2188 B( 15-C , 37-H ) :   0.1439
B( 16-C , 17-C ) :   1.2162 B( 16-C , 18-H ) :   0.1082 B( 16-C , 19-H ) :   0.1560
B( 16-C , 28-C ) :   1.2467 B( 16-C , 31-H ) :   0.8149 B( 16-C , 32-H ) :   1.0276
B( 16-C , 33-H ) :   0.1900 B( 16-C , 34-H ) :   0.1188 B( 17-C , 18-H ) :   0.8466
B( 17-C , 19-H ) :   0.9396 B( 17-C , 20-H ) :   0.1100 B( 17-C , 21-H ) :   0.2179
B( 17-C , 28-C ) :   0.1026 B( 22-C , 23-H ) :   0.1447 B( 22-C , 24-H ) :   0.1659
B( 22-C , 25-C ) :   1.1049 B( 22-C , 26-H ) :   0.8086 B( 22-C , 27-H ) :   1.0802
B( 22-C , 29-H ) :   0.1362 B( 22-C , 30-H ) :   0.1954 B( 25-C , 28-C ) :   1.1630
B( 25-C , 29-H ) :   0.7207 B( 25-C , 30-H ) :   0.7522 B( 26-H , 32-H ) :   0.1262
B( 28-C , 29-H ) :   0.1837 B( 28-C , 30-H ) :   0.1312 B( 28-C , 31-H ) :   0.1028
B( 28-C , 33-H ) :   1.0325 B( 28-C , 34-H ) :   0.8174 B( 31-H , 32-H ) :   0.1167

Dispersion correction           -0.040629550
FINAL SINGLE POINT ENERGY     -1133.978521725550

DIPOLE MOMENT
-------------
                                X             Y             Z
Electronic contribution:     -8.09760     -23.36576     -13.57226
Nuclear contribution   :      8.54118      20.92489      15.31138
                        -----------------------------------------
Total Dipole Moment    :      0.44357      -2.44087       1.73912
                        -----------------------------------------
Magnitude (a.u.)       :      3.02971
Magnitude (Debye)      :      7.70091

Rotational constants in cm-1:     0.018156     0.012306     0.008278
Rotational constants in MHz :   544.309022   368.914527   248.178402

                             ****ORCA TERMINATED NORMALLY****
TOTAL RUN TIME: 0 days 0 hours 4 minutes 29 seconds 829 msec
