                         Program Version 5.0.0 -  RELEASE  -
|  1> !CAM-B3LYP RIJCOSX def2-SVP def2/J TightSCF
|  2> *xyz -1 1
|  3> C         -0.90349       -0.87394       -1.98739
|  4> C         -0.96015       -0.52236       -0.48987
|  5> H         -1.69039       -1.20813       -0.02168
|  6> H         -1.41449        0.48633       -0.40668
|  7> O          0.26170       -0.58031        0.13861
|  8> H         -1.88568       -0.80774       -2.40670
|  9> H         -0.53143       -1.87013       -2.10605
| 10> H         -0.25399       -0.18836       -2.49039
| 11> *
| 12>
| 13> %MaxCore 64000
| 14>
| 15> %pal nprocs 4
| 16> end
| 17>
| 18> %scf
| 19>   MaxIter 150
| 20> end
| 21>
| 22>
| 23>                          ****END OF INPUT****

CARTESIAN COORDINATES (ANGSTROEM)
---------------------------------
  C     -0.903490   -0.873940   -1.987390
  C     -0.960150   -0.522360   -0.489870
  H     -1.690390   -1.208130   -0.021680
  H     -1.414490    0.486330   -0.406680
  O      0.261700   -0.580310    0.138610
  H     -1.885680   -0.807740   -2.406700
  H     -0.531430   -1.870130   -2.106050
  H     -0.253990   -0.188360   -2.490390

 Total Charge           Charge          ....   -1
 Multiplicity           Mult            ....    1
 Number of Electrons    NEL             ....   26
 Basis Dimension        Dim             ....   67

ORBITAL ENERGIES
----------------

  NO   OCC          E(Eh)            E(eV)
   0   2.0000     -18.812420      -511.9120
   1   2.0000     -10.045483      -273.3515
   2   2.0000     -10.035371      -273.0763
   3   2.0000      -0.701322       -19.0839
   4   2.0000      -0.578595       -15.7444
   5   2.0000      -0.419257       -11.4086
   6   2.0000      -0.302583        -8.2337
   7   2.0000      -0.278928        -7.5900
   8   2.0000      -0.218591        -5.9482
   9   2.0000      -0.202390        -5.5073
  10   2.0000      -0.129288        -3.5181
  11   2.0000       0.017976         0.4892
  12   2.0000       0.020926         0.5694
  13   0.0000       0.293526         7.9873
  14   0.0000       0.339854         9.2479
  15   0.0000       0.353450         9.6179
  16   0.0000       0.360926         9.8213
  17   0.0000       0.405240        11.0271

MULLIKEN ATOMIC CHARGES
-----------------------
   0 C :    0.071950
   1 C :    0.262259
   2 H :   -0.178521
   3 H :   -0.179693
   4 O :   -0.712470
   5 H :   -0.122382
   6 H :   -0.070578
   7 H :   -0.070565
Sum of atomic charges:   -1.0000000

LOEWDIN ATOMIC CHARGES
----------------------
   0 C :   -0.107838
   1 C :    0.011541
   2 H :   -0.081106
   3 H :   -0.081823
   4 O :   -0.676692
   5 H :   -0.034185
   6 H :   -0.014941
   7 H :   -0.014955

  Mayer bond orders larger than 0.100000
B(  0-C ,  1-C ) :   0.9989 B(  0-C ,  5-H ) :   0.9205 B(  0-C ,  6-H ) :   0.9558
B(  0-C ,  7-H ) :   0.9558 B(  1-C ,  2-H ) :   0.8724 B(  1-C ,  3-H ) :   0.8708
B(  1-C ,  4-O ) :   1.5185

FINAL SINGLE POINT ENERGY      -154.197433765385

DIPOLE MOMENT
-------------
                                X             Y             Z
Electronic contribution:      2.17444       0.15512       2.27019
Nuclear contribution   :     -2.90669      -0.27617      -3.31210
                        -----------------------------------------
Total Dipole Moment    :     -0.73226      -0.12104      -1.04192
                        -----------------------------------------
Magnitude (a.u.)       :      1.27924
Magnitude (Debye)      :      3.25156

Rotational constants in cm-1:     1.291883     0.321656     0.284469
Rotational constants in MHz : 38729.676116  9643.011620  8528.167295

                             ****ORCA TERMINATED NORMALLY****
TOTAL RUN TIME: 0 days 0 hours 0 minutes 10 seconds 184 msec
