                         Program Version 5.0.0 -  RELEASE  -
|  1> !CAM-B3LYP RIJCOSX def2-SVP def2/J TightSCF
|  2> *xyz 1 1
|  3> C          4.36645       -0.13321       -1.41606
|  4> C          4.50829       -0.93187       -2.72425
|  5> C          3.05650       -0.32080       -0.70738
|  6> N          2.38983        0.71129       -0.24391
|  7> N          2.51600       -1.50772       -0.55023
|  8> H          2.96768       -2.32291       -0.95631
|  9> H          1.54987       -1.49063       -0.24988
| 10> H          2.74307        1.64947       -0.41280
| 11> H          1.44036        0.50278        0.03703
| 12> H          4.48784        0.93300       -1.61157
| 13> H          5.16967       -0.41443       -0.72982
| 14> H          5.46700       -0.73824       -3.15818
| 15> H          3.74074       -0.63528       -3.40821
| 16> H          4.41574       -1.97727       -2.51573
| 17> *
| 18>
| 19> %MaxCore 64000
| 20>
| 21> %pal nprocs 4
| 22> end
| 23>
| 24> %scf
| 25>   MaxIter 150
| 26> end
| 27>
| 28>
| 29>                          ****END OF INPUT****

CARTESIAN COORDINATES (ANGSTROEM)
---------------------------------
  C      4.366450   -0.133210   -1.416060
  C      4.508290   -0.931870   -2.724250
  C      3.056500   -0.320800   -0.707380
  N      2.389830    0.711290   -0.243910
  N      2.516000   -1.507720   -0.550230
  H      2.967680   -2.322910   -0.956310
  H      1.549870   -1.490630   -0.249880
  H      2.743070    1.649470   -0.412800
  H      1.440360    0.502780    0.037030
  H      4.487840    0.933000   -1.611570
  H      5.169670   -0.414430   -0.729820
  H      5.467000   -0.738240   -3.158180
  H      3.740740   -0.635280   -3.408210
  H      4.415740   -1.977270   -2.515730

 Total Charge           Charge          ....    1
 Multiplicity           Mult            ....    1
 Number of Electrons    NEL             ....   40
 Basis Dimension        Dim             ....  115

ORBITAL ENERGIES
----------------

  NO   OCC          E(Eh)            E(eV)
   0   2.0000     -14.650956      -398.6728
   1   2.0000     -14.649983      -398.6463
   2   2.0000     -10.582443      -287.9629
   3   2.0000     -10.459203      -284.6094
   4   2.0000     -10.418423      -283.4997
   5   2.0000      -1.288393       -35.0590
   6   2.0000      -1.178912       -32.0798
   7   2.0000      -1.046913       -28.4880
   8   2.0000      -0.932615       -25.3777
   9   2.0000      -0.891413       -24.2566
  10   2.0000      -0.841034       -22.8857
  11   2.0000      -0.826527       -22.4909
  12   2.0000      -0.773748       -21.0548
  13   2.0000      -0.732484       -19.9319
  14   2.0000      -0.697226       -18.9725
  15   2.0000      -0.670787       -18.2530
  16   2.0000      -0.620564       -16.8864
  17   2.0000      -0.606687       -16.5088
  18   2.0000      -0.591920       -16.1070
  19   2.0000      -0.556589       -15.1456
  20   0.0000      -0.157027        -4.2729
  21   0.0000      -0.106849        -2.9075
  22   0.0000      -0.060971        -1.6591
  23   0.0000      -0.057985        -1.5779
  24   0.0000      -0.018480        -0.5029

MULLIKEN ATOMIC CHARGES
-----------------------
   0 C :    0.027568
   1 C :    0.001923
   2 C :   -0.114449
   3 N :    0.032508
   4 N :    0.030084
   5 H :    0.184573
   6 H :    0.170198
   7 H :    0.190985
   8 H :    0.167575
   9 H :    0.046889
  10 H :    0.101155
  11 H :    0.074143
  12 H :    0.052609
  13 H :    0.034238
Sum of atomic charges:    1.0000000

LOEWDIN ATOMIC CHARGES
----------------------
   0 C :   -0.034044
   1 C :   -0.025347
   2 C :    0.155543
   3 N :    0.097035
   4 N :    0.093844
   5 H :    0.120887
   6 H :    0.110496
   7 H :    0.124750
   8 H :    0.109788
   9 H :    0.052214
  10 H :    0.073220
  11 H :    0.054954
  12 H :    0.038969
  13 H :    0.027692

  Mayer bond orders larger than 0.100000
B(  0-C ,  1-C ) :   1.0815 B(  0-C ,  2-C ) :   1.0183 B(  0-C ,  9-H ) :   0.9211
B(  0-C , 10-H ) :   0.9128 B(  1-C , 11-H ) :   0.9582 B(  1-C , 12-H ) :   0.9770
B(  1-C , 13-H ) :   0.9698 B(  2-C ,  3-N ) :   1.5234 B(  2-C ,  4-N ) :   1.5121
B(  3-N ,  7-H ) :   0.9143 B(  3-N ,  8-H ) :   0.9268 B(  4-N ,  5-H ) :   0.9211
B(  4-N ,  6-H ) :   0.9257

FINAL SINGLE POINT ENERGY      -228.733416152391

DIPOLE MOMENT
-------------
                                X             Y             Z
Electronic contribution:     -2.71560       0.62642       3.14808
Nuclear contribution   :      1.78847      -0.48174      -2.67127
                        -----------------------------------------
Total Dipole Moment    :     -0.92713       0.14468       0.47681
                        -----------------------------------------
Magnitude (a.u.)       :      1.05254
Magnitude (Debye)      :      2.67535

Rotational constants in cm-1:     0.286883     0.123210     0.094446
Rotational constants in MHz :  8600.540572  3693.747366  2831.415242

                             ****ORCA TERMINATED NORMALLY****
TOTAL RUN TIME: 0 days 0 hours 0 minutes 17 seconds 885 msec
