                         Program Version 5.0.0 -  RELEASE  -
|  1> !CAM-B3LYP RIJCOSX def2-SVP def2/J TightSCF
|  2> *xyz 0 1
|  3> C         -0.90349       -0.87394       -1.98739
|  4> C         -0.96015       -0.52236       -0.48987
|  5> H         -1.69039       -1.20813       -0.02168
|  6> H         -1.41449        0.48633       -0.40668
|  7> F          0.26170       -0.58031        0.13861
|  8> H         -1.88568       -0.80774       -2.40670
|  9> H         -0.53143       -1.87013       -2.10605
| 10> H         -0.25399       -0.18836       -2.49039
| 11> *
| 12>
| 13> %MaxCore 64000
| 14>
| 15> %pal nprocs 4
| 16> end
| 17>
| 18> %scf
| 19>   MaxIter 150
| 20> end
| 21>
| 22>
| 23>                          ****END OF INPUT****

CARTESIAN COORDINATES (ANGSTROEM)
---------------------------------
  C     -0.903490   -0.873940   -1.987390
  C     -0.960150   -0.522360   -0.489870
  H     -1.690390   -1.208130   -0.021680
  H     -1.414490    0.486330   -0.406680
  F      0.261700   -0.580310    0.138610
  H     -1.885680   -0.807740   -2.406700
  H     -0.531430   -1.870130   -2.106050
  H     -0.253990   -0.188360   -2.490390

 Total Charge           Charge          ....    0
 Multiplicity           Mult            ....    1
 Number of Electrons    NEL             ....   26
 Basis Dimension        Dim             ....   67

ORBITAL ENERGIES
----------------

  NO   OCC          E(Eh)            E(eV)
   0   2.0000     -24.735928      -673.0988
   1   2.0000     -10.333030      -281.1760
   2   2.0000     -10.253963      -279.0245
   3   2.0000      -1.245060       -33.8798
   4   2.0000      -0.836370       -22.7588
   5   2.0000      -0.698128       -18.9970
   6   2.0000      -0.568514       -15.4700
   7   2.0000      -0.561919       -15.2906
   8   2.0000      -0.519814       -14.1449
   9   2.0000      -0.468009       -12.7352
  10   2.0000      -0.465719       -12.6729
  11   2.0000      -0.395549       -10.7634
  12   2.0000      -0.390866       -10.6360
  13   0.0000       0.105267         2.8645
  14   0.0000       0.152014         4.1365
  15   0.0000       0.160643         4.3713
  16   0.0000       0.178583         4.8595
  17   0.0000       0.198661         5.4058

MULLIKEN ATOMIC CHARGES
-----------------------
   0 C :   -0.033501
   1 C :    0.226379
   2 H :    0.005703
   3 H :    0.006072
   4 F :   -0.265983
   5 H :    0.013431
   6 H :    0.023927
   7 H :    0.023972
Sum of atomic charges:    0.0000000

LOEWDIN ATOMIC CHARGES
----------------------
   0 C :   -0.071553
   1 C :    0.111796
   2 H :    0.009762
   3 H :    0.010244
   4 F :   -0.140708
   5 H :    0.029837
   6 H :    0.025312
   7 H :    0.025309

  Mayer bond orders larger than 0.100000
B(  0-C ,  1-C ) :   1.0943 B(  0-C ,  5-H ) :   0.9614 B(  0-C ,  6-H ) :   0.9718
B(  0-C ,  7-H ) :   0.9719 B(  1-C ,  2-H ) :   0.9609 B(  1-C ,  3-H ) :   0.9606
B(  1-C ,  4-F ) :   1.0082

FINAL SINGLE POINT ENERGY      -178.844483833470

DIPOLE MOMENT
-------------
                                X             Y             Z
Electronic contribution:      3.25304       0.37741       4.00977
Nuclear contribution   :     -3.84149      -0.36812      -4.38946
                        -----------------------------------------
Total Dipole Moment    :     -0.58845       0.00929      -0.37969
                        -----------------------------------------
Magnitude (a.u.)       :      0.70038
Magnitude (Debye)      :      1.78022

Rotational constants in cm-1:     1.270659     0.299196     0.265842
Rotational constants in MHz : 38093.410361  8969.665806  7969.741481

                             ****ORCA TERMINATED NORMALLY****
TOTAL RUN TIME: 0 days 0 hours 0 minutes 8 seconds 607 msec
