                         Program Version 5.0.0 -  RELEASE  -
|  1> !CAM-B3LYP RIJCOSX def2-SVP def2/J TightSCF
|  2> *xyz 0 1
|  3> C          4.36645       -0.13321       -1.41606
|  4> C          4.50829       -0.93187       -2.72425
|  5> C          3.05650       -0.32080       -0.70738
|  6> C          2.38983        0.71129       -0.24391
|  7> N          2.51600       -1.50772       -0.55023
|  8> H          2.96768       -2.32291       -0.95631
|  9> H          1.54987       -1.49063       -0.24988
| 10> H          2.74307        1.64947       -0.41280
| 11> H          1.44036        0.50278        0.03703
| 12> H          4.48784        0.93300       -1.61157
| 13> H          5.16967       -0.41443       -0.72982
| 14> H          5.46700       -0.73824       -3.15818
| 15> H          3.74074       -0.63528       -3.40821
| 16> H          4.41574       -1.97727       -2.51573
| 17> *
| 18>
| 19> %MaxCore 64000
| 20>
| 21> %pal nprocs 4
| 22> end
| 23>
| 24> %scf
| 25>   MaxIter 150
| 26> end
| 27>
| 28>
| 29>                          ****END OF INPUT****

CARTESIAN COORDINATES (ANGSTROEM)
---------------------------------
  C      4.366450   -0.133210   -1.416060
  C      4.508290   -0.931870   -2.724250
  C      3.056500   -0.320800   -0.707380
  C      2.389830    0.711290   -0.243910
  N      2.516000   -1.507720   -0.550230
  H      2.967680   -2.322910   -0.956310
  H      1.549870   -1.490630   -0.249880
  H      2.743070    1.649470   -0.412800
  H      1.440360    0.502780    0.037030
  H      4.487840    0.933000   -1.611570
  H      5.169670   -0.414430   -0.729820
  H      5.467000   -0.738240   -3.158180
  H      3.740740   -0.635280   -3.408210
  H      4.415740   -1.977270   -2.515730

 Total Charge           Charge          ....    0
 Multiplicity           Mult            ....    1
 Number of Electrons    NEL             ....   40
 Basis Dimension        Dim             ....  115

ORBITAL ENERGIES
----------------

  NO   OCC          E(Eh)            E(eV)
   0   2.0000     -14.394426      -391.6922
   1   2.0000     -10.269736      -279.4537
   2   2.0000     -10.256224      -279.0861
   3   2.0000     -10.250636      -278.9340
   4   2.0000     -10.183784      -277.1149
   5   2.0000      -0.999715       -27.2036
   6   2.0000      -0.849792       -23.1240
   7   2.0000      -0.790592       -21.5131
   8   2.0000      -0.704996       -19.1839
   9   2.0000      -0.627101       -17.0643
  10   2.0000      -0.598622       -16.2893
  11   2.0000      -0.535773       -14.5791
  12   2.0000      -0.505840       -13.7646
  13   2.0000      -0.495305       -13.4779
  14   2.0000      -0.454641       -12.3714
  15   2.0000      -0.444485       -12.0951
  16   2.0000      -0.420433       -11.4406
  17   2.0000      -0.405262       -11.0278
  18   2.0000      -0.386270       -10.5110
  19   2.0000      -0.239030        -6.5043
  20   0.0000       0.088969         2.4210
  21   0.0000       0.107345         2.9210
  22   0.0000       0.138010         3.7554
  23   0.0000       0.142512         3.8779
  24   0.0000       0.163307         4.4438

MULLIKEN ATOMIC CHARGES
-----------------------
   0 C :    0.073425
   1 C :    0.011889
   2 C :   -0.159107
   3 C :   -0.023165
   4 N :   -0.046385
   5 H :    0.102381
   6 H :    0.115129
   7 H :   -0.048239
   8 H :   -0.066079
   9 H :    0.000211
  10 H :    0.014588
  11 H :    0.011355
  12 H :    0.017293
  13 H :   -0.003297
Sum of atomic charges:    0.0000000

LOEWDIN ATOMIC CHARGES
----------------------
   0 C :   -0.028358
   1 C :   -0.049246
   2 C :    0.008761
   3 C :   -0.178865
   4 N :   -0.011941
   5 H :    0.068577
   6 H :    0.079078
   7 H :   -0.002209
   8 H :   -0.009799
   9 H :    0.032780
  10 H :    0.028936
  11 H :    0.025049
  12 H :    0.024436
  13 H :    0.012802

  Mayer bond orders larger than 0.100000
B(  0-C ,  1-C ) :   1.0870 B(  0-C ,  2-C ) :   1.0296 B(  0-C ,  9-H ) :   0.9303
B(  0-C , 10-H ) :   0.9317 B(  1-C , 11-H ) :   0.9659 B(  1-C , 12-H ) :   0.9748
B(  1-C , 13-H ) :   0.9711 B(  2-C ,  3-C ) :   1.8761 B(  2-C ,  4-N ) :   1.2731
B(  3-C ,  7-H ) :   0.9406 B(  3-C ,  8-H ) :   0.9385 B(  4-N ,  5-H ) :   0.9524
B(  4-N ,  6-H ) :   0.9420

FINAL SINGLE POINT ENERGY      -212.271270762883

DIPOLE MOMENT
-------------
                                X             Y             Z
Electronic contribution:     -1.49314      -0.51165       2.07467
Nuclear contribution   :      1.56827      -0.21459      -2.46657
                        -----------------------------------------
Total Dipole Moment    :      0.07513      -0.72624      -0.39191
                        -----------------------------------------
Magnitude (a.u.)       :      0.82865
Magnitude (Debye)      :      2.10627

Rotational constants in cm-1:     0.294070     0.127722     0.097792
Rotational constants in MHz :  8815.983970  3829.010547  2931.715816

                             ****ORCA TERMINATED NORMALLY****
TOTAL RUN TIME: 0 days 0 hours 0 minutes 20 seconds 578 msec
