                         Program Version 5.0.0 -  RELEASE  -
|  1> !CAM-B3LYP RIJCOSX def2-SVP def2/J TightSCF
|  2> *xyz 0 1
|  3> C          4.36645       -0.13321       -1.41606
|  4> C          4.50829       -0.93187       -2.72425
|  5> C          3.05650       -0.32080       -0.70738
|  6> N          2.38983        0.71129       -0.24391
|  7> C          2.51600       -1.50772       -0.55023
|  8> H          2.96768       -2.32291       -0.95631
|  9> H          1.54987       -1.49063       -0.24988
| 10> H          2.74307        1.64947       -0.41280
| 11> H          1.44036        0.50278        0.03703
| 12> H          4.48784        0.93300       -1.61157
| 13> H          5.16967       -0.41443       -0.72982
| 14> H          5.46700       -0.73824       -3.15818
| 15> H          3.74074       -0.63528       -3.40821
| 16> H          4.41574       -1.97727       -2.51573
| 17> *
| 18>
| 19> %MaxCore 64000
| 20>
| 21> %pal nprocs 4
| 22> end
| 23>
| 24> %scf
| 25>   MaxIter 150
| 26> end
| 27>
| 28>
| 29>                          ****END OF INPUT****

CARTESIAN COORDINATES (ANGSTROEM)
---------------------------------
  C      4.366450   -0.133210   -1.416060
  C      4.508290   -0.931870   -2.724250
  C      3.056500   -0.320800   -0.707380
  N      2.389830    0.711290   -0.243910
  C      2.516000   -1.507720   -0.550230
  H      2.967680   -2.322910   -0.956310
  H      1.549870   -1.490630   -0.249880
  H      2.743070    1.649470   -0.412800
  H      1.440360    0.502780    0.037030
  H      4.487840    0.933000   -1.611570
  H      5.169670   -0.414430   -0.729820
  H      5.467000   -0.738240   -3.158180
  H      3.740740   -0.635280   -3.408210
  H      4.415740   -1.977270   -2.515730

 Total Charge           Charge          ....    0
 Multiplicity           Mult            ....    1
 Number of Electrons    NEL             ....   40
 Basis Dimension        Dim             ....  115

ORBITAL ENERGIES
----------------

  NO   OCC          E(Eh)            E(eV)
   0   2.0000     -14.394437      -391.6925
   1   2.0000     -10.270050      -279.4623
   2   2.0000     -10.257618      -279.1240
   3   2.0000     -10.243463      -278.7388
   4   2.0000     -10.181882      -277.0631
   5   2.0000      -0.999548       -27.1991
   6   2.0000      -0.850998       -23.1568
   7   2.0000      -0.778798       -21.1922
   8   2.0000      -0.714754       -19.4494
   9   2.0000      -0.617182       -16.7944
  10   2.0000      -0.595539       -16.2054
  11   2.0000      -0.542817       -14.7708
  12   2.0000      -0.516917       -14.0660
  13   2.0000      -0.471274       -12.8240
  14   2.0000      -0.452720       -12.3191
  15   2.0000      -0.443218       -12.0606
  16   2.0000      -0.420096       -11.4314
  17   2.0000      -0.403609       -10.9828
  18   2.0000      -0.387306       -10.5391
  19   2.0000      -0.237262        -6.4562
  20   0.0000       0.095581         2.6009
  21   0.0000       0.104451         2.8423
  22   0.0000       0.137192         3.7332
  23   0.0000       0.141358         3.8465
  24   0.0000       0.169076         4.6008

MULLIKEN ATOMIC CHARGES
-----------------------
   0 C :    0.072752
   1 C :    0.025891
   2 C :   -0.163254
   3 N :   -0.050042
   4 C :   -0.025522
   5 H :   -0.049785
   6 H :   -0.063285
   7 H :    0.106039
   8 H :    0.112297
   9 H :   -0.025221
  10 H :    0.025474
  11 H :    0.002078
  12 H :    0.012123
  13 H :    0.020455
Sum of atomic charges:    0.0000000

LOEWDIN ATOMIC CHARGES
----------------------
   0 C :   -0.030154
   1 C :   -0.039614
   2 C :    0.009355
   3 N :   -0.009469
   4 C :   -0.183555
   5 H :   -0.003701
   6 H :   -0.009127
   7 H :    0.069889
   8 H :    0.078246
   9 H :    0.015325
  10 H :    0.036408
  11 H :    0.019838
  12 H :    0.022920
  13 H :    0.023639

  Mayer bond orders larger than 0.100000
B(  0-C ,  1-C ) :   1.1083 B(  0-C ,  2-C ) :   1.0010 B(  0-C ,  9-H ) :   0.9305
B(  0-C , 10-H ) :   0.9312 B(  1-C , 11-H ) :   0.9641 B(  1-C , 12-H ) :   0.9754
B(  1-C , 13-H ) :   0.9735 B(  2-C ,  3-N ) :   1.2754 B(  2-C ,  4-C ) :   1.8751
B(  3-N ,  7-H ) :   0.9461 B(  3-N ,  8-H ) :   0.9432 B(  4-C ,  5-H ) :   0.9504
B(  4-C ,  6-H ) :   0.9384

FINAL SINGLE POINT ENERGY      -212.269826194363

DIPOLE MOMENT
-------------
                                X             Y             Z
Electronic contribution:     -1.60840       1.52359       2.37552
Nuclear contribution   :      1.59749      -0.72853      -2.53752
                        -----------------------------------------
Total Dipole Moment    :     -0.01092       0.79506      -0.16200
                        -----------------------------------------
Magnitude (a.u.)       :      0.81147
Magnitude (Debye)      :      2.06259

Rotational constants in cm-1:     0.304597     0.124127     0.096828
Rotational constants in MHz :  9131.600925  3721.227051  2902.830760

                             ****ORCA TERMINATED NORMALLY****
TOTAL RUN TIME: 0 days 0 hours 0 minutes 20 seconds 580 msec
