                         Program Version 5.0.0 -  RELEASE  -
|  1> !CAM-B3LYP RIJCOSX def2-TZVP def2/J TightSCF xyzfile
|  2>
|  3> *xyzfile 0 1 D2.xyz
|  4>
|  5> %MaxCore 64000
|  6>
|  7> %pal nprocs 18
|  8> end
|  9>
| 10> %scf
| 11>   MaxIter 150
| 12> end
| 13>
| 14>
| 15>                          ****END OF INPUT****

CARTESIAN COORDINATES (ANGSTROEM)
---------------------------------
  C      4.366454   -0.133215   -1.416062
  C      4.508292   -0.931872   -2.724249
  H      4.753716   -1.972051   -2.488408
  C      3.294164   -0.918214   -3.656570
  H      5.385637   -0.536236   -3.242640
  H      2.483463   -1.477378   -3.185764
  H      3.553092   -1.478495   -4.560331
  C      2.772335    0.460100   -4.051448
  H      2.608762    1.065107   -3.155194
  C      1.465354    0.410537   -4.853644
  H      3.532940    0.988848   -4.635671
  C      0.326171   -0.375613   -4.192580
  H      1.666704   -0.022269   -5.839323
  H      1.138198    1.439246   -5.035449
  C     -0.017405    0.080588   -2.778406
  H      0.585573   -1.439385   -4.168057
  H     -0.560005   -0.311425   -4.831461
  H      0.902090    0.201296   -2.206729
  C     -0.903495   -0.873945   -1.987388
  H     -0.479549    1.074657   -2.811915
  H     -0.502554   -1.892096   -2.081204
  H     -1.917039   -0.895427   -2.406277
  C     -0.960148   -0.522365   -0.489867
  H     -1.690392   -1.208130   -0.021677
  H     -1.414490    0.486329   -0.406677
  F      0.261703   -0.580307    0.138611
  C      3.056503   -0.320797   -0.707384
  N      2.389825    0.711285   -0.243909
  C      2.515999   -1.507721   -0.550229
  H      2.967683   -2.322915   -0.956305
  H      1.549872   -1.490634   -0.249876
  H      2.743071    1.649471   -0.412802
  H      1.440364    0.502778    0.037031
  H      4.487835    0.932997   -1.611569
  H      5.169672   -0.414432   -0.729817

 Total Charge           Charge          ....    0
 Multiplicity           Mult            ....    1
 Number of Electrons    NEL             ....  104
 Basis Dimension        Dim             ....  535

ORBITAL ENERGIES
----------------

  NO   OCC          E(Eh)            E(eV)
   0   2.0000     -24.772992      -674.1074
   1   2.0000     -14.360581      -390.7713
   2   2.0000     -10.335663      -281.2477
   3   2.0000     -10.253567      -279.0137
   4   2.0000     -10.243248      -278.7329
   5   2.0000     -10.235059      -278.5101
   6   2.0000     -10.234753      -278.5018
   7   2.0000     -10.233224      -278.4602
   8   2.0000     -10.231971      -278.4261
   9   2.0000     -10.230712      -278.3918
  10   2.0000     -10.227980      -278.3175
  11   2.0000     -10.222081      -278.1570
  12   2.0000     -10.143945      -276.0308
  13   2.0000      -1.319190       -35.8970
  14   2.0000      -0.998239       -27.1635
  15   2.0000      -0.902676       -24.5631
  16   2.0000      -0.879480       -23.9319
  17   2.0000      -0.853690       -23.2301
  18   2.0000      -0.810607       -22.0577
  19   2.0000      -0.778837       -21.1932
  20   2.0000      -0.766462       -20.8565
  21   2.0000      -0.720350       -19.6017
  22   2.0000      -0.694705       -18.9039
  23   2.0000      -0.664282       -18.0760
  24   2.0000      -0.629030       -17.1168
  25   2.0000      -0.619804       -16.8657
  26   2.0000      -0.603697       -16.4274
  27   2.0000      -0.596179       -16.2229
  28   2.0000      -0.583539       -15.8789
  29   2.0000      -0.555375       -15.1125
  30   2.0000      -0.547485       -14.8978
  31   2.0000      -0.532322       -14.4852
  32   2.0000      -0.519773       -14.1437
  33   2.0000      -0.505401       -13.7526
  34   2.0000      -0.497669       -13.5423
  35   2.0000      -0.482708       -13.1351
  36   2.0000      -0.465494       -12.6667
  37   2.0000      -0.456589       -12.4244
  38   2.0000      -0.446966       -12.1626
  39   2.0000      -0.434150       -11.8138
  40   2.0000      -0.429573       -11.6893
  41   2.0000      -0.424569       -11.5531
  42   2.0000      -0.416295       -11.3280
  43   2.0000      -0.413204       -11.2439
  44   2.0000      -0.397662       -10.8209
  45   2.0000      -0.391415       -10.6509
  46   2.0000      -0.378653       -10.3037
  47   2.0000      -0.371666       -10.1136
  48   2.0000      -0.370629       -10.0853
  49   2.0000      -0.363608        -9.8943
  50   2.0000      -0.361561        -9.8386
  51   2.0000      -0.227483        -6.1901
  52   0.0000       0.066597         1.8122
  53   0.0000       0.076210         2.0738
  54   0.0000       0.082501         2.2450
  55   0.0000       0.088858         2.4179
  56   0.0000       0.092901         2.5280

MULLIKEN ATOMIC CHARGES
-----------------------
   0 C :   -0.209194
   1 C :   -0.238460
   2 H :    0.119328
   3 C :   -0.160352
   4 H :    0.099762
   5 H :    0.112790
   6 H :    0.094764
   7 C :   -0.240673
   8 H :    0.100299
   9 C :   -0.162189
  10 H :    0.101792
  11 C :   -0.234049
  12 H :    0.103111
  13 H :    0.099085
  14 C :   -0.212688
  15 H :    0.118506
  16 H :    0.102050
  17 H :    0.109531
  18 C :   -0.199762
  19 H :    0.093753
  20 H :    0.120621
  21 H :    0.112780
  22 C :    0.011351
  23 H :    0.123946
  24 H :    0.108704
  25 F :   -0.238450
  26 C :    0.137262
  27 N :   -0.430802
  28 C :   -0.442473
  29 H :    0.086000
  30 H :    0.133523
  31 H :    0.209638
  32 H :    0.248673
  33 H :    0.097608
  34 H :    0.124214
Sum of atomic charges:   -0.0000000

LOEWDIN ATOMIC CHARGES
----------------------
   0 C :   -0.218019
   1 C :   -0.256245
   2 H :    0.137525
   3 C :   -0.268005
   4 H :    0.134469
   5 H :    0.139980
   6 H :    0.133837
   7 C :   -0.267954
   8 H :    0.132343
   9 C :   -0.264262
  10 H :    0.133334
  11 C :   -0.269209
  12 H :    0.135352
  13 H :    0.133879
  14 C :   -0.272871
  15 H :    0.135784
  16 H :    0.133078
  17 H :    0.147126
  18 C :   -0.272059
  19 H :    0.133097
  20 H :    0.142390
  21 H :    0.141956
  22 C :   -0.332622
  23 H :    0.127927
  24 H :    0.126503
  25 F :    0.139449
  26 C :   -0.379775
  27 N :   -0.010663
  28 C :   -0.291285
  29 H :    0.100781
  30 H :    0.095442
  31 H :    0.161085
  32 H :    0.155055
  33 H :    0.133826
  34 H :    0.148753

  Mayer bond orders larger than 0.100000
B(  0-C ,  1-C ) :   0.9475 B(  0-C , 26-C ) :   0.9171 B(  0-C , 33-H ) :   0.9929
B(  0-C , 34-H ) :   0.9763 B(  1-C ,  2-H ) :   0.9866 B(  1-C ,  3-C ) :   0.9501
B(  1-C ,  4-H ) :   0.9807 B(  3-C ,  5-H ) :   0.9750 B(  3-C ,  6-H ) :   0.9748
B(  3-C ,  7-C ) :   0.9127 B(  7-C ,  8-H ) :   0.9841 B(  7-C ,  9-C ) :   0.9509
B(  7-C , 10-H ) :   0.9788 B(  9-C , 11-C ) :   0.9520 B(  9-C , 12-H ) :   0.9829
B(  9-C , 13-H ) :   0.9867 B( 11-C , 14-C ) :   0.9401 B( 11-C , 15-H ) :   0.9868
B( 11-C , 16-H ) :   0.9812 B( 14-C , 17-H ) :   0.9904 B( 14-C , 18-C ) :   0.9393
B( 14-C , 19-H ) :   0.9730 B( 18-C , 20-H ) :   0.9699 B( 18-C , 21-H ) :   0.9605
B( 18-C , 22-C ) :   0.9602 B( 22-C , 23-H ) :   0.9827 B( 22-C , 24-H ) :   0.9799
B( 22-C , 25-F ) :   0.9083 B( 26-C , 27-N ) :   1.1595 B( 26-C , 28-C ) :   1.7260
B( 27-N , 31-H ) :   0.9308 B( 27-N , 32-H ) :   0.8865 B( 28-C , 29-H ) :   1.0107
B( 28-C , 30-H ) :   0.9800

FINAL SINGLE POINT ENERGY      -586.864995745368

DIPOLE MOMENT
-------------
                                X             Y             Z
Electronic contribution:     -2.80390       0.02759      10.67620
Nuclear contribution   :      1.85154       0.58682     -11.15333
                        -----------------------------------------
Total Dipole Moment    :     -0.95236       0.61441      -0.47713
                        -----------------------------------------
Magnitude (a.u.)       :      1.22969
Magnitude (Debye)      :      3.12563

Rotational constants in cm-1:     0.028379     0.022321     0.014415
Rotational constants in MHz :   850.785777   669.176075   432.155504

                             ****ORCA TERMINATED NORMALLY****
TOTAL RUN TIME: 0 days 0 hours 2 minutes 4 seconds 559 msec
