                         Program Version 5.0.0 -  RELEASE  -
|  1> !LC-BLYP RIJCOSX def2-SVP def2/J TightSCF
|  2> *xyz -1 1
|  3> C          4.08422        1.74208       -2.11472
|  4> C          4.26524        2.50052       -0.79589
|  5> H          4.86853        3.39267       -0.98113
|  6> H          3.30764        2.82457       -0.38781
|  7> C          4.98224        1.65026        0.24742
|  8> O          4.36806        1.38927        1.31371
|  9> O          6.12892        1.23351       -0.04562
| 10> H          3.57911        2.36849       -2.81997
| 11> H          3.50424        0.85965       -1.94198
| 12> H          5.04288        1.46841       -2.50327
| 13> *
| 14> %MaxCore 64000
| 15> %pal nprocs 8
| 16> end
| 17> %scf
| 18>   MaxIter 150
| 19> end
| 20>
| 21>
| 22>                          ****END OF INPUT****

CARTESIAN COORDINATES (ANGSTROEM)
---------------------------------
  C      4.084220    1.742080   -2.114720
  C      4.265240    2.500520   -0.795890
  H      4.868530    3.392670   -0.981130
  H      3.307640    2.824570   -0.387810
  C      4.982240    1.650260    0.247420
  O      4.368060    1.389270    1.313710
  O      6.128920    1.233510   -0.045620
  H      3.579110    2.368490   -2.819970
  H      3.504240    0.859650   -1.941980
  H      5.042880    1.468410   -2.503270

 Total Charge           Charge          ....   -1
 Multiplicity           Mult            ....    1
 Number of Electrons    NEL             ....   40
 Basis Dimension        Dim             ....   95

ORBITAL ENERGIES
----------------

  NO   OCC          E(Eh)            E(eV)
   0   2.0000     -18.644532      -507.3435
   1   2.0000     -18.643215      -507.3077
   2   2.0000      -9.933239      -270.2972
   3   2.0000      -9.913525      -269.7607
   4   2.0000      -9.891315      -269.1564
   5   2.0000      -0.862657       -23.4741
   6   2.0000      -0.765672       -20.8350
   7   2.0000      -0.693858       -18.8808
   8   2.0000      -0.560114       -15.2415
   9   2.0000      -0.404771       -11.0144
  10   2.0000      -0.383885       -10.4461
  11   2.0000      -0.335521        -9.1300
  12   2.0000      -0.311659        -8.4807
  13   2.0000      -0.292662        -7.9637
  14   2.0000      -0.279668        -7.6102
  15   2.0000      -0.244715        -6.6590
  16   2.0000      -0.236575        -6.4375
  17   2.0000      -0.104104        -2.8328
  18   2.0000      -0.101994        -2.7754
  19   2.0000      -0.084673        -2.3041
  20   0.0000       0.288089         7.8393
  21   0.0000       0.340240         9.2584
  22   0.0000       0.357121         9.7177
  23   0.0000       0.357913         9.7393
  24   0.0000       0.370969        10.0946

MULLIKEN ATOMIC CHARGES
-----------------------
   0 C :    0.022422
   1 C :    0.050837
   2 H :   -0.052551
   3 H :   -0.066849
   4 C :   -0.125600
   5 O :   -0.367079
   6 O :   -0.374748
   7 H :   -0.055987
   8 H :   -0.019396
   9 H :   -0.011049
Sum of atomic charges:   -1.0000000

LOEWDIN ATOMIC CHARGES
----------------------
   0 C :   -0.073453
   1 C :   -0.097163
   2 H :    0.004990
   3 H :   -0.003011
   4 C :   -0.091068
   5 O :   -0.379845
   6 O :   -0.382839
   7 H :   -0.004477
   8 H :    0.013328
   9 H :    0.013538

  Mayer bond orders larger than 0.100000
B(  0-C ,  1-C ) :   1.1011 B(  0-C ,  7-H ) :   0.9630 B(  0-C ,  8-H ) :   0.9707
B(  0-C ,  9-H ) :   0.9591 B(  1-C ,  2-H ) :   0.9299 B(  1-C ,  3-H ) :   0.9287
B(  1-C ,  4-C ) :   0.9198 B(  4-C ,  5-O ) :   1.9396 B(  4-C ,  6-O ) :   1.8958
B(  5-O ,  6-O ) :   0.1209

FINAL SINGLE POINT ENERGY      -267.006329867424

DIPOLE MOMENT
-------------
                                X             Y             Z
Electronic contribution:      2.52636      -1.57950       5.27480
Nuclear contribution   :     -3.31311       2.28398      -6.76358
                        -----------------------------------------
Total Dipole Moment    :     -0.78676       0.70448      -1.48878
                        -----------------------------------------
Magnitude (a.u.)       :      1.82530
Magnitude (Debye)      :      4.63955

Rotational constants in cm-1:     0.309287     0.135287     0.107346
Rotational constants in MHz :  9272.201029  4055.789113  3218.155789

                             ****ORCA TERMINATED NORMALLY****
TOTAL RUN TIME: 0 days 0 hours 0 minutes 11 seconds 583 msec
