                         Program Version 5.0.0 -  RELEASE  -
|  1> !LC-BLYP RIJCOSX def2-SVP def2/J TightSCF
|  2> *xyz 1 1
|  3> C          3.91385       -1.65829        3.01513
|  4> N          5.03927       -0.90115        2.49282
|  5> C          6.21038       -1.41726        2.17824
|  6> N          6.53591       -2.67712        2.55608
|  7> N          7.07675       -0.70082        1.47891
|  8> H          7.95464       -1.12155        1.20755
|  9> H          6.75616        0.10664        0.96028
| 10> H          4.84217        0.01761        2.11519
| 11> H          5.99388       -3.12692        3.28278
| 12> C          3.13916       -2.37657        1.91061
| 13> H          3.26723       -0.93940        3.52069
| 14> H          4.24720       -2.35509        3.79006
| 15> H          7.49844       -2.97548        2.46878
| 16> H          2.82969       -1.66654        1.17238
| 17> H          2.27790       -2.85264        2.33072
| 18> H          3.76754       -3.11338        1.45548
| 19> *
| 20> %MaxCore 64000
| 21> %pal nprocs 8
| 22> end
| 23> %scf
| 24>   MaxIter 150
| 25> end
| 26>
| 27>
| 28>                          ****END OF INPUT****

CARTESIAN COORDINATES (ANGSTROEM)
---------------------------------
  C      3.913850   -1.658290    3.015130
  N      5.039270   -0.901150    2.492820
  C      6.210380   -1.417260    2.178240
  N      6.535910   -2.677120    2.556080
  N      7.076750   -0.700820    1.478910
  H      7.954640   -1.121550    1.207550
  H      6.756160    0.106640    0.960280
  H      4.842170    0.017610    2.115190
  H      5.993880   -3.126920    3.282780
  C      3.139160   -2.376570    1.910610
  H      3.267230   -0.939400    3.520690
  H      4.247200   -2.355090    3.790060
  H      7.498440   -2.975480    2.468780
  H      2.829690   -1.666540    1.172380
  H      2.277900   -2.852640    2.330720
  H      3.767540   -3.113380    1.455480

 Total Charge           Charge          ....    1
 Multiplicity           Mult            ....    1
 Number of Electrons    NEL             ....   48
 Basis Dimension        Dim             ....  134

ORBITAL ENERGIES
----------------

  NO   OCC          E(Eh)            E(eV)
   0   2.0000     -14.409178      -392.0937
   1   2.0000     -14.409016      -392.0893
   2   2.0000     -14.405758      -392.0006
   3   2.0000     -10.420545      -283.5574
   4   2.0000     -10.290699      -280.0242
   5   2.0000     -10.219022      -278.0737
   6   2.0000      -1.307994       -35.5923
   7   2.0000      -1.198541       -32.6140
   8   2.0000      -1.180494       -32.1229
   9   2.0000      -1.031600       -28.0712
  10   2.0000      -0.940375       -25.5889
  11   2.0000      -0.903751       -24.5923
  12   2.0000      -0.890121       -24.2214
  13   2.0000      -0.844765       -22.9872
  14   2.0000      -0.792649       -21.5691
  15   2.0000      -0.784147       -21.3377
  16   2.0000      -0.759762       -20.6742
  17   2.0000      -0.733918       -19.9709
  18   2.0000      -0.702472       -19.1152
  19   2.0000      -0.662583       -18.0298
  20   2.0000      -0.628202       -17.0942
  21   2.0000      -0.607443       -16.5294
  22   2.0000      -0.573095       -15.5947
  23   2.0000      -0.543887       -14.7999
  24   0.0000      -0.075319        -2.0495
  25   0.0000      -0.065036        -1.7697
  26   0.0000      -0.033630        -0.9151
  27   0.0000      -0.022670        -0.6169
  28   0.0000       0.000069         0.0019

MULLIKEN ATOMIC CHARGES
-----------------------
   0 C :   -0.022334
   1 N :   -0.031289
   2 C :   -0.094206
   3 N :   -0.008028
   4 N :    0.032937
   5 H :    0.170526
   6 H :    0.172549
   7 H :    0.162142
   8 H :    0.164579
   9 C :    0.017438
  10 H :    0.074215
  11 H :    0.054887
  12 H :    0.168092
  13 H :    0.039997
  14 H :    0.067698
  15 H :    0.030797
Sum of atomic charges:    1.0000000

LOEWDIN ATOMIC CHARGES
----------------------
   0 C :    0.024677
   1 N :    0.045360
   2 C :    0.134175
   3 N :    0.033442
   4 N :    0.051192
   5 H :    0.113621
   6 H :    0.114232
   7 H :    0.110291
   8 H :    0.107088
   9 C :   -0.061657
  10 H :    0.054893
  11 H :    0.037779
  12 H :    0.111747
  13 H :    0.037898
  14 H :    0.053207
  15 H :    0.032057

  Mayer bond orders larger than 0.100000
B(  0-C ,  1-N ) :   0.9531 B(  0-C ,  9-C ) :   1.0987 B(  0-C , 10-H ) :   0.9460
B(  0-C , 11-H ) :   0.9518 B(  1-N ,  2-C ) :   1.4066 B(  1-N ,  7-H ) :   0.9072
B(  2-C ,  3-N ) :   1.3827 B(  2-C ,  4-N ) :   1.4131 B(  3-N ,  8-H ) :   0.9236
B(  3-N , 12-H ) :   0.9246 B(  4-N ,  5-H ) :   0.9243 B(  4-N ,  6-H ) :   0.9234
B(  9-C , 13-H ) :   0.9667 B(  9-C , 14-H ) :   0.9614 B(  9-C , 15-H ) :   0.9650

FINAL SINGLE POINT ENERGY      -283.455523378522

DIPOLE MOMENT
-------------
                                X             Y             Z
Electronic contribution:      4.80876       1.93520       0.06005
Nuclear contribution   :     -3.67981      -1.62355      -0.28562
                        -----------------------------------------
Total Dipole Moment    :      1.12895       0.31165      -0.22557
                        -----------------------------------------
Magnitude (a.u.)       :      1.19271
Magnitude (Debye)      :      3.03162

Rotational constants in cm-1:     0.222027     0.074735     0.065694
Rotational constants in MHz :  6656.200457  2240.503315  1969.451902

                             ****ORCA TERMINATED NORMALLY****
TOTAL RUN TIME: 0 days 0 hours 0 minutes 17 seconds 599 msec
