                         Program Version 5.0.0 -  RELEASE  -
|  1> !LC-BLYP RIJCOSX def2-SVP def2/J TightSCF
|  2> *xyz 0 1
|  3> C          4.08422        1.74208       -2.11472
|  4> C          4.26524        2.50052       -0.79589
|  5> H          4.86853        3.39267       -0.98113
|  6> H          3.30764        2.82457       -0.38781
|  7> C          4.98224        1.65026        0.24742
|  8> F          4.36806        1.38927        1.31371
|  9> O          6.12892        1.23351       -0.04562
| 10> H          3.57911        2.36849       -2.81997
| 11> H          3.50424        0.85965       -1.94198
| 12> H          5.04288        1.46841       -2.50327
| 13> *
| 14> %MaxCore 64000
| 15> %pal nprocs 8
| 16> end
| 17> %scf
| 18>   MaxIter 150
| 19> end
| 20>
| 21>
| 22>                          ****END OF INPUT****

CARTESIAN COORDINATES (ANGSTROEM)
---------------------------------
  C      4.084220    1.742080   -2.114720
  C      4.265240    2.500520   -0.795890
  H      4.868530    3.392670   -0.981130
  H      3.307640    2.824570   -0.387810
  C      4.982240    1.650260    0.247420
  F      4.368060    1.389270    1.313710
  O      6.128920    1.233510   -0.045620
  H      3.579110    2.368490   -2.819970
  H      3.504240    0.859650   -1.941980
  H      5.042880    1.468410   -2.503270

 Total Charge           Charge          ....    0
 Multiplicity           Mult            ....    1
 Number of Electrons    NEL             ....   40
 Basis Dimension        Dim             ....   95

ORBITAL ENERGIES
----------------

  NO   OCC          E(Eh)            E(eV)
   0   2.0000     -24.524296      -667.3400
   1   2.0000     -18.948112      -515.6043
   2   2.0000     -10.253630      -279.0155
   3   2.0000     -10.111446      -275.1464
   4   2.0000     -10.088686      -274.5271
   5   2.0000      -1.368709       -37.2445
   6   2.0000      -1.104879       -30.0653
   7   2.0000      -0.899788       -24.4845
   8   2.0000      -0.782200       -21.2848
   9   2.0000      -0.729741       -19.8573
  10   2.0000      -0.645811       -17.5734
  11   2.0000      -0.628395       -17.0995
  12   2.0000      -0.599028       -16.3004
  13   2.0000      -0.564011       -15.3475
  14   2.0000      -0.527978       -14.3670
  15   2.0000      -0.495372       -13.4798
  16   2.0000      -0.472356       -12.8535
  17   2.0000      -0.467151       -12.7118
  18   2.0000      -0.438681       -11.9371
  19   2.0000      -0.381712       -10.3869
  20   0.0000       0.066558         1.8111
  21   0.0000       0.134201         3.6518
  22   0.0000       0.178644         4.8612
  23   0.0000       0.183785         5.0010
  24   0.0000       0.203586         5.5399

MULLIKEN ATOMIC CHARGES
-----------------------
   0 C :    0.003388
   1 C :   -0.040796
   2 H :    0.054611
   3 H :    0.017225
   4 C :    0.104266
   5 F :   -0.025324
   6 O :   -0.197314
   7 H :    0.022736
   8 H :    0.020170
   9 H :    0.041038
Sum of atomic charges:    0.0000000

LOEWDIN ATOMIC CHARGES
----------------------
   0 C :   -0.051064
   1 C :   -0.079916
   2 H :    0.053644
   3 H :    0.030379
   4 C :    0.066370
   5 F :    0.060985
   6 O :   -0.176425
   7 H :    0.031538
   8 H :    0.029320
   9 H :    0.035170

  Mayer bond orders larger than 0.100000
B(  0-C ,  1-C ) :   1.0981 B(  0-C ,  7-H ) :   0.9681 B(  0-C ,  8-H ) :   0.9759
B(  0-C ,  9-H ) :   0.9685 B(  1-C ,  2-H ) :   0.9318 B(  1-C ,  3-H ) :   0.9356
B(  1-C ,  4-C ) :   0.9944 B(  4-C ,  5-F ) :   1.2648 B(  4-C ,  6-O ) :   2.1341

FINAL SINGLE POINT ENERGY      -291.552000557283

DIPOLE MOMENT
-------------
                                X             Y             Z
Electronic contribution:      1.99024      -2.08664       8.19841
Nuclear contribution   :     -2.87511       2.61564      -8.50037
                        -----------------------------------------
Total Dipole Moment    :     -0.88487       0.52900      -0.30196
                        -----------------------------------------
Magnitude (a.u.)       :      1.07425
Magnitude (Debye)      :      2.73053

Rotational constants in cm-1:     0.297822     0.128965     0.102219
Rotational constants in MHz :  8928.481997  3866.271686  3064.463504

                             ****ORCA TERMINATED NORMALLY****
TOTAL RUN TIME: 0 days 0 hours 0 minutes 11 seconds 559 msec
