                         Program Version 5.0.0 -  RELEASE  -
|  1> !LC-BLYP RIJCOSX def2-SVP def2/J TightSCF
|  2> *xyz 0 1
|  3> C          3.91385       -1.65829        3.01513
|  4> C          5.03927       -0.90115        2.49282
|  5> C          6.21038       -1.41726        2.17824
|  6> N          6.53591       -2.67712        2.55608
|  7> N          7.07675       -0.70082        1.47891
|  8> H          7.95464       -1.12155        1.20755
|  9> H          6.75616        0.10664        0.96028
| 10> H          4.84217        0.01761        2.11519
| 11> H          5.99388       -3.12692        3.28278
| 12> C          3.13916       -2.37657        1.91061
| 13> H          3.26723       -0.93940        3.52069
| 14> H          4.24720       -2.35509        3.79006
| 15> H          7.49844       -2.97548        2.46878
| 16> H          2.82969       -1.66654        1.17238
| 17> H          2.27790       -2.85264        2.33072
| 18> H          3.76754       -3.11338        1.45548
| 19> *
| 20> %MaxCore 64000
| 21> %pal nprocs 8
| 22> end
| 23> %scf
| 24>   MaxIter 150
| 25> end
| 26>
| 27>
| 28>                          ****END OF INPUT****

CARTESIAN COORDINATES (ANGSTROEM)
---------------------------------
  C      3.913850   -1.658290    3.015130
  C      5.039270   -0.901150    2.492820
  C      6.210380   -1.417260    2.178240
  N      6.535910   -2.677120    2.556080
  N      7.076750   -0.700820    1.478910
  H      7.954640   -1.121550    1.207550
  H      6.756160    0.106640    0.960280
  H      4.842170    0.017610    2.115190
  H      5.993880   -3.126920    3.282780
  C      3.139160   -2.376570    1.910610
  H      3.267230   -0.939400    3.520690
  H      4.247200   -2.355090    3.790060
  H      7.498440   -2.975480    2.468780
  H      2.829690   -1.666540    1.172380
  H      2.277900   -2.852640    2.330720
  H      3.767540   -3.113380    1.455480

 Total Charge           Charge          ....    0
 Multiplicity           Mult            ....    1
 Number of Electrons    NEL             ....   48
 Basis Dimension        Dim             ....  134

ORBITAL ENERGIES
----------------

  NO   OCC          E(Eh)            E(eV)
   0   2.0000     -14.177472      -385.7886
   1   2.0000     -14.175618      -385.7382
   2   2.0000     -10.119751      -275.3724
   3   2.0000     -10.052876      -273.5527
   4   2.0000     -10.044124      -273.3145
   5   2.0000      -9.995360      -271.9876
   6   2.0000      -1.042692       -28.3731
   7   2.0000      -0.951442       -25.8901
   8   2.0000      -0.867462       -23.6049
   9   2.0000      -0.785850       -21.3841
  10   2.0000      -0.710292       -19.3280
  11   2.0000      -0.671641       -18.2763
  12   2.0000      -0.635603       -17.2956
  13   2.0000      -0.604062       -16.4374
  14   2.0000      -0.564154       -15.3514
  15   2.0000      -0.533171       -14.5083
  16   2.0000      -0.516333       -14.0501
  17   2.0000      -0.483996       -13.1702
  18   2.0000      -0.474674       -12.9165
  19   2.0000      -0.448233       -12.1970
  20   2.0000      -0.417851       -11.3703
  21   2.0000      -0.407915       -11.0999
  22   2.0000      -0.354513        -9.6468
  23   2.0000      -0.241295        -6.5660
  24   0.0000       0.117077         3.1858
  25   0.0000       0.149861         4.0779
  26   0.0000       0.158587         4.3154
  27   0.0000       0.182920         4.9775
  28   0.0000       0.185008         5.0343

MULLIKEN ATOMIC CHARGES
-----------------------
   0 C :    0.051202
   1 C :   -0.152949
   2 C :   -0.131893
   3 N :   -0.037350
   4 N :   -0.007572
   5 H :    0.092277
   6 H :    0.117146
   7 H :   -0.120438
   8 H :    0.110302
   9 C :    0.062649
  10 H :   -0.018716
  11 H :   -0.034255
  12 H :    0.095573
  13 H :   -0.008856
  14 H :   -0.010432
  15 H :   -0.006689
Sum of atomic charges:    0.0000000

LOEWDIN ATOMIC CHARGES
----------------------
   0 C :   -0.046718
   1 C :   -0.222261
   2 C :    0.020038
   3 N :   -0.035359
   4 N :   -0.019895
   5 H :    0.064968
   6 H :    0.083668
   7 H :   -0.009648
   8 H :    0.077262
   9 C :   -0.066359
  10 H :    0.025524
  11 H :    0.009886
  12 H :    0.065173
  13 H :    0.020676
  14 H :    0.014731
  15 H :    0.018312

  Mayer bond orders larger than 0.100000
B(  0-C ,  1-C ) :   1.0656 B(  0-C ,  9-C ) :   1.0975 B(  0-C , 10-H ) :   0.9165
B(  0-C , 11-H ) :   0.9333 B(  1-C ,  2-C ) :   1.7335 B(  1-C ,  7-H ) :   0.9283
B(  2-C ,  3-N ) :   1.2500 B(  2-C ,  4-N ) :   1.2473 B(  3-N ,  8-H ) :   0.9418
B(  3-N , 12-H ) :   0.9475 B(  4-N ,  5-H ) :   0.9494 B(  4-N ,  6-H ) :   0.9411
B(  9-C , 13-H ) :   0.9638 B(  9-C , 14-H ) :   0.9630 B(  9-C , 15-H ) :   0.9691

FINAL SINGLE POINT ENERGY      -266.984873484189

DIPOLE MOMENT
-------------
                                X             Y             Z
Electronic contribution:      4.79909       1.17841      -0.06401
Nuclear contribution   :     -3.74303      -1.46908      -0.23637
                        -----------------------------------------
Total Dipole Moment    :      1.05606      -0.29067      -0.30038
                        -----------------------------------------
Magnitude (a.u.)       :      1.13578
Magnitude (Debye)      :      2.88691

Rotational constants in cm-1:     0.225937     0.074877     0.065953
Rotational constants in MHz :  6773.424301  2244.750632  1977.214101

                             ****ORCA TERMINATED NORMALLY****
TOTAL RUN TIME: 0 days 0 hours 0 minutes 17 seconds 615 msec
