                         Program Version 5.0.0 -  RELEASE  -
|  1> !LC-BLYP RIJCOSX def2-SVP def2/J TightSCF
|  2> *xyz 0 1
|  3> C          4.08422        1.74208       -2.11472
|  4> C          4.26524        2.50052       -0.79589
|  5> H          4.86853        3.39267       -0.98113
|  6> H          3.30764        2.82457       -0.38781
|  7> C          4.98224        1.65026        0.24742
|  8> O          4.36806        1.38927        1.31371
|  9> F          6.12892        1.23351       -0.04562
| 10> H          3.57911        2.36849       -2.81997
| 11> H          3.50424        0.85965       -1.94198
| 12> H          5.04288        1.46841       -2.50327
| 13> *
| 14> %MaxCore 64000
| 15> %pal nprocs 8
| 16> end
| 17> %scf
| 18>   MaxIter 150
| 19> end
| 20>
| 21>
| 22>                          ****END OF INPUT****

CARTESIAN COORDINATES (ANGSTROEM)
---------------------------------
  C      4.084220    1.742080   -2.114720
  C      4.265240    2.500520   -0.795890
  H      4.868530    3.392670   -0.981130
  H      3.307640    2.824570   -0.387810
  C      4.982240    1.650260    0.247420
  O      4.368060    1.389270    1.313710
  F      6.128920    1.233510   -0.045620
  H      3.579110    2.368490   -2.819970
  H      3.504240    0.859650   -1.941980
  H      5.042880    1.468410   -2.503270

 Total Charge           Charge          ....    0
 Multiplicity           Mult            ....    1
 Number of Electrons    NEL             ....   40
 Basis Dimension        Dim             ....   95

ORBITAL ENERGIES
----------------

  NO   OCC          E(Eh)            E(eV)
   0   2.0000     -24.526292      -667.3943
   1   2.0000     -18.946595      -515.5631
   2   2.0000     -10.252876      -278.9949
   3   2.0000     -10.110721      -275.1267
   4   2.0000     -10.093274      -274.6520
   5   2.0000      -1.371762       -37.3275
   6   2.0000      -1.101143       -29.9636
   7   2.0000      -0.903840       -24.5947
   8   2.0000      -0.779693       -21.2165
   9   2.0000      -0.735141       -20.0042
  10   2.0000      -0.649049       -17.6615
  11   2.0000      -0.634137       -17.2558
  12   2.0000      -0.593060       -16.1380
  13   2.0000      -0.562724       -15.3125
  14   2.0000      -0.530055       -14.4235
  15   2.0000      -0.498565       -13.5667
  16   2.0000      -0.476066       -12.9544
  17   2.0000      -0.470307       -12.7977
  18   2.0000      -0.441167       -12.0048
  19   2.0000      -0.376381       -10.2419
  20   0.0000       0.070258         1.9118
  21   0.0000       0.130023         3.5381
  22   0.0000       0.175781         4.7832
  23   0.0000       0.185054         5.0356
  24   0.0000       0.206043         5.6067

MULLIKEN ATOMIC CHARGES
-----------------------
   0 C :   -0.017537
   1 C :   -0.032867
   2 H :    0.037272
   3 H :    0.044313
   4 C :    0.100889
   5 O :   -0.191178
   6 F :   -0.027144
   7 H :    0.028669
   8 H :    0.031769
   9 H :    0.025815
Sum of atomic charges:   -0.0000000

LOEWDIN ATOMIC CHARGES
----------------------
   0 C :   -0.059318
   1 C :   -0.076361
   2 H :    0.042942
   3 H :    0.046702
   4 C :    0.064329
   5 O :   -0.175497
   6 F :    0.062845
   7 H :    0.034132
   8 H :    0.032030
   9 H :    0.028198

  Mayer bond orders larger than 0.100000
B(  0-C ,  1-C ) :   1.0815 B(  0-C ,  7-H ) :   0.9676 B(  0-C ,  8-H ) :   0.9758
B(  0-C ,  9-H ) :   0.9721 B(  1-C ,  2-H ) :   0.9298 B(  1-C ,  3-H ) :   0.9465
B(  1-C ,  4-C ) :   1.0044 B(  4-C ,  5-O ) :   2.1570 B(  4-C ,  6-F ) :   1.2513

FINAL SINGLE POINT ENERGY      -291.550830539475

DIPOLE MOMENT
-------------
                                X             Y             Z
Electronic contribution:      4.86985      -2.34139       5.95224
Nuclear contribution   :     -4.79499       2.78546      -7.01827
                        -----------------------------------------
Total Dipole Moment    :      0.07486       0.44408      -1.06603
                        -----------------------------------------
Magnitude (a.u.)       :      1.15725
Magnitude (Debye)      :      2.94150

Rotational constants in cm-1:     0.286098     0.133492     0.103343
Rotational constants in MHz :  8577.003657  4001.981591  3098.148068

                             ****ORCA TERMINATED NORMALLY****
TOTAL RUN TIME: 0 days 0 hours 0 minutes 11 seconds 736 msec
