                         Program Version 5.0.0 -  RELEASE  -
|  1> !LC-BLYP RIJCOSX def2-SVP def2/J TightSCF
|  2> *xyz 0 1
|  3> C          3.91385       -1.65829        3.01513
|  4> N          5.03927       -0.90115        2.49282
|  5> C          6.21038       -1.41726        2.17824
|  6> C          6.53591       -2.67712        2.55608
|  7> N          7.07675       -0.70082        1.47891
|  8> H          7.95464       -1.12155        1.20755
|  9> H          6.75616        0.10664        0.96028
| 10> H          4.84217        0.01761        2.11519
| 11> H          5.99388       -3.12692        3.28278
| 12> C          3.13916       -2.37657        1.91061
| 13> H          3.26723       -0.93940        3.52069
| 14> H          4.24720       -2.35509        3.79006
| 15> H          7.49844       -2.97548        2.46878
| 16> H          2.82969       -1.66654        1.17238
| 17> H          2.27790       -2.85264        2.33072
| 18> H          3.76754       -3.11338        1.45548
| 19> *
| 20> %MaxCore 64000
| 21> %pal nprocs 8
| 22> end
| 23> %scf
| 24>   MaxIter 150
| 25> end
| 26>
| 27>
| 28>                          ****END OF INPUT****

CARTESIAN COORDINATES (ANGSTROEM)
---------------------------------
  C      3.913850   -1.658290    3.015130
  N      5.039270   -0.901150    2.492820
  C      6.210380   -1.417260    2.178240
  C      6.535910   -2.677120    2.556080
  N      7.076750   -0.700820    1.478910
  H      7.954640   -1.121550    1.207550
  H      6.756160    0.106640    0.960280
  H      4.842170    0.017610    2.115190
  H      5.993880   -3.126920    3.282780
  C      3.139160   -2.376570    1.910610
  H      3.267230   -0.939400    3.520690
  H      4.247200   -2.355090    3.790060
  H      7.498440   -2.975480    2.468780
  H      2.829690   -1.666540    1.172380
  H      2.277900   -2.852640    2.330720
  H      3.767540   -3.113380    1.455480

 Total Charge           Charge          ....    0
 Multiplicity           Mult            ....    1
 Number of Electrons    NEL             ....   48
 Basis Dimension        Dim             ....  134

ORBITAL ENERGIES
----------------

  NO   OCC          E(Eh)            E(eV)
   0   2.0000     -14.182298      -385.9200
   1   2.0000     -14.180285      -385.8652
   2   2.0000     -10.127029      -275.5705
   3   2.0000     -10.112569      -275.1770
   4   2.0000     -10.063567      -273.8436
   5   2.0000      -9.987557      -271.7752
   6   2.0000      -1.058248       -28.7964
   7   2.0000      -0.974588       -26.5199
   8   2.0000      -0.849945       -23.1282
   9   2.0000      -0.797929       -21.7127
  10   2.0000      -0.739147       -20.1132
  11   2.0000      -0.659108       -17.9353
  12   2.0000      -0.648605       -17.6494
  13   2.0000      -0.615081       -16.7372
  14   2.0000      -0.564710       -15.3665
  15   2.0000      -0.538075       -14.6418
  16   2.0000      -0.517094       -14.0708
  17   2.0000      -0.492029       -13.3888
  18   2.0000      -0.471345       -12.8260
  19   2.0000      -0.459824       -12.5125
  20   2.0000      -0.456553       -12.4234
  21   2.0000      -0.436638       -11.8815
  22   2.0000      -0.340795        -9.2735
  23   2.0000      -0.246178        -6.6989
  24   0.0000       0.115487         3.1426
  25   0.0000       0.147080         4.0023
  26   0.0000       0.162802         4.4301
  27   0.0000       0.175897         4.7864
  28   0.0000       0.190642         5.1876

MULLIKEN ATOMIC CHARGES
-----------------------
   0 C :    0.046627
   1 N :   -0.069956
   2 C :   -0.120758
   3 C :   -0.078957
   4 N :   -0.020997
   5 H :    0.119370
   6 H :    0.094981
   7 H :    0.091402
   8 H :   -0.071921
   9 C :    0.031612
  10 H :    0.002366
  11 H :    0.032606
  12 H :   -0.083061
  13 H :   -0.006315
  14 H :    0.006294
  15 H :    0.026709
Sum of atomic charges:   -0.0000000

LOEWDIN ATOMIC CHARGES
----------------------
   0 C :    0.028255
   1 N :   -0.014401
   2 C :    0.032303
   3 C :   -0.286155
   4 N :   -0.015814
   5 H :    0.085767
   6 H :    0.065089
   7 H :    0.066784
   8 H :   -0.009283
   9 C :   -0.074820
  10 H :    0.023172
  11 H :    0.032949
  12 H :   -0.011210
  13 H :    0.019009
  14 H :    0.026081
  15 H :    0.032274

  Mayer bond orders larger than 0.100000
B(  0-C ,  1-N ) :   1.0213 B(  0-C ,  9-C ) :   1.1085 B(  0-C , 10-H ) :   0.9550
B(  0-C , 11-H ) :   0.9456 B(  1-N ,  2-C ) :   1.2174 B(  1-N ,  7-H ) :   0.9337
B(  2-C ,  3-C ) :   1.7428 B(  2-C ,  4-N ) :   1.2577 B(  3-C ,  8-H ) :   0.9294
B(  3-C , 12-H ) :   0.9289 B(  4-N ,  5-H ) :   0.9434 B(  4-N ,  6-H ) :   0.9500
B(  9-C , 13-H ) :   0.9647 B(  9-C , 14-H ) :   0.9622 B(  9-C , 15-H ) :   0.9615

FINAL SINGLE POINT ENERGY      -266.976959993258

DIPOLE MOMENT
-------------
                                X             Y             Z
Electronic contribution:      3.11693       2.93172      -0.27138
Nuclear contribution   :     -3.42552      -1.84584      -0.22295
                        -----------------------------------------
Total Dipole Moment    :     -0.30860       1.08587      -0.49434
                        -----------------------------------------
Magnitude (a.u.)       :      1.23236
Magnitude (Debye)      :      3.13242

Rotational constants in cm-1:     0.233526     0.075277     0.067092
Rotational constants in MHz :  7000.931279  2256.752901  2011.361214

                             ****ORCA TERMINATED NORMALLY****
TOTAL RUN TIME: 0 days 0 hours 0 minutes 17 seconds 498 msec
