                         Program Version 5.0.0 -  RELEASE  -
|  1> !LC-BLYP RIJCOSX def2-SVP def2/J TightSCF
|  2> *xyz 0 1
|  3> C          3.91385       -1.65829        3.01513
|  4> N          5.03927       -0.90115        2.49282
|  5> C          6.21038       -1.41726        2.17824
|  6> N          6.53591       -2.67712        2.55608
|  7> C          7.07675       -0.70082        1.47891
|  8> H          7.95464       -1.12155        1.20755
|  9> H          6.75616        0.10664        0.96028
| 10> H          4.84217        0.01761        2.11519
| 11> H          5.99388       -3.12692        3.28278
| 12> C          3.13916       -2.37657        1.91061
| 13> H          3.26723       -0.93940        3.52069
| 14> H          4.24720       -2.35509        3.79006
| 15> H          7.49844       -2.97548        2.46878
| 16> H          2.82969       -1.66654        1.17238
| 17> H          2.27790       -2.85264        2.33072
| 18> H          3.76754       -3.11338        1.45548
| 19> *
| 20> %MaxCore 64000
| 21> %pal nprocs 8
| 22> end
| 23> %scf
| 24>   MaxIter 150
| 25> end
| 26>
| 27>
| 28>                          ****END OF INPUT****

CARTESIAN COORDINATES (ANGSTROEM)
---------------------------------
  C      3.913850   -1.658290    3.015130
  N      5.039270   -0.901150    2.492820
  C      6.210380   -1.417260    2.178240
  N      6.535910   -2.677120    2.556080
  C      7.076750   -0.700820    1.478910
  H      7.954640   -1.121550    1.207550
  H      6.756160    0.106640    0.960280
  H      4.842170    0.017610    2.115190
  H      5.993880   -3.126920    3.282780
  C      3.139160   -2.376570    1.910610
  H      3.267230   -0.939400    3.520690
  H      4.247200   -2.355090    3.790060
  H      7.498440   -2.975480    2.468780
  H      2.829690   -1.666540    1.172380
  H      2.277900   -2.852640    2.330720
  H      3.767540   -3.113380    1.455480

 Total Charge           Charge          ....    0
 Multiplicity           Mult            ....    1
 Number of Electrons    NEL             ....   48
 Basis Dimension        Dim             ....  134

ORBITAL ENERGIES
----------------

  NO   OCC          E(Eh)            E(eV)
   0   2.0000     -14.178608      -385.8195
   1   2.0000     -14.177571      -385.7913
   2   2.0000     -10.123719      -275.4804
   3   2.0000     -10.122500      -275.4472
   4   2.0000     -10.072336      -274.0822
   5   2.0000      -9.988272      -271.7947
   6   2.0000      -1.054002       -28.6809
   7   2.0000      -0.966790       -26.3077
   8   2.0000      -0.868509       -23.6333
   9   2.0000      -0.795481       -21.6461
  10   2.0000      -0.726546       -19.7703
  11   2.0000      -0.696407       -18.9502
  12   2.0000      -0.632843       -17.2205
  13   2.0000      -0.595668       -16.2089
  14   2.0000      -0.572257       -15.5719
  15   2.0000      -0.537924       -14.6377
  16   2.0000      -0.531091       -14.4517
  17   2.0000      -0.500425       -13.6173
  18   2.0000      -0.474265       -12.9054
  19   2.0000      -0.464808       -12.6481
  20   2.0000      -0.455281       -12.3888
  21   2.0000      -0.449860       -12.2413
  22   2.0000      -0.343965        -9.3598
  23   2.0000      -0.247004        -6.7213
  24   0.0000       0.115925         3.1545
  25   0.0000       0.142602         3.8804
  26   0.0000       0.158118         4.3026
  27   0.0000       0.177579         4.8322
  28   0.0000       0.186304         5.0696

MULLIKEN ATOMIC CHARGES
-----------------------
   0 C :    0.019920
   1 N :   -0.056524
   2 C :   -0.099389
   3 N :   -0.053327
   4 C :   -0.066299
   5 H :   -0.080830
   6 H :   -0.075423
   7 H :    0.113325
   8 H :    0.092921
   9 C :    0.037438
  10 H :    0.010879
  11 H :    0.007570
  12 H :    0.117814
  13 H :    0.008826
  14 H :    0.006381
  15 H :    0.016718
Sum of atomic charges:    0.0000000

LOEWDIN ATOMIC CHARGES
----------------------
   0 C :    0.015281
   1 N :   -0.014949
   2 C :    0.035157
   3 N :   -0.032443
   4 C :   -0.265041
   5 H :   -0.009337
   6 H :   -0.008818
   7 H :    0.085954
   8 H :    0.061926
   9 C :   -0.076945
  10 H :    0.027402
  11 H :    0.019498
  12 H :    0.084049
  13 H :    0.025582
  14 H :    0.025435
  15 H :    0.027247

  Mayer bond orders larger than 0.100000
B(  0-C ,  1-N ) :   1.0394 B(  0-C ,  9-C ) :   1.0893 B(  0-C , 10-H ) :   0.9528
B(  0-C , 11-H ) :   0.9518 B(  1-N ,  2-C ) :   1.2231 B(  1-N ,  7-H ) :   0.9256
B(  2-C ,  3-N ) :   1.2229 B(  2-C ,  4-C ) :   1.7776 B(  3-N ,  8-H ) :   0.9511
B(  3-N , 12-H ) :   0.9438 B(  4-C ,  5-H ) :   0.9253 B(  4-C ,  6-H ) :   0.9288
B(  9-C , 13-H ) :   0.9656 B(  9-C , 14-H ) :   0.9603 B(  9-C , 15-H ) :   0.9632

FINAL SINGLE POINT ENERGY      -266.977725183543

DIPOLE MOMENT
-------------
                                X             Y             Z
Electronic contribution:      2.55431       0.88572       1.02262
Nuclear contribution   :     -3.31079      -1.42658      -0.45147
                        -----------------------------------------
Total Dipole Moment    :     -0.75648      -0.54087       0.57115
                        -----------------------------------------
Magnitude (a.u.)       :      1.09133
Magnitude (Debye)      :      2.77395

Rotational constants in cm-1:     0.225507     0.077571     0.068070
Rotational constants in MHz :  6760.542142  2325.533779  2040.680522

                             ****ORCA TERMINATED NORMALLY****
TOTAL RUN TIME: 0 days 0 hours 0 minutes 17 seconds 386 msec
