                         Program Version 5.0.0 -  RELEASE  -
|  1> !LC-BLYP RIJCOSX def2-TZVP def2/J TightSCF xyzfile
|  2>
|  3> *xyzfile 0 1 D4.xyz
|  4>
|  5> %MaxCore 64000
|  6>
|  7> %pal nprocs 18
|  8> end
|  9>
| 10> %scf
| 11>   MaxIter 150
| 12> end
| 13>
| 14>
| 15>                          ****END OF INPUT****

CARTESIAN COORDINATES (ANGSTROEM)
---------------------------------
  C      3.913853   -1.658291    3.015134
  C      5.039266   -0.901154    2.492821
  C      4.084215    1.742081   -2.114724
  C      4.265245    2.500518   -0.795890
  H      4.868534    3.392674   -0.981134
  H      3.307640    2.824571   -0.387809
  C      4.982240    1.650257    0.247422
  C      6.210384   -1.417261    2.178244
  N      6.535913   -2.677122    2.556078
  N      7.076754   -0.700820    1.478906
  H      7.954643   -1.121554    1.207554
  H      6.756161    0.106637    0.960278
  H      4.842168    0.017609    2.115191
  H      5.993876   -3.126918    3.282784
  H      7.498441   -2.975482    2.468776
  O      4.368065    1.389270    1.313706
  F      6.128919    1.233512   -0.045620
  C      3.139159   -2.376572    1.910609
  H      3.267235   -0.939401    3.520693
  H      4.247195   -2.355095    3.790065
  C      1.997274    0.430918   -1.399218
  C      3.412746    0.376886   -1.965497
  H      4.047407   -0.246590   -1.326706
  H      3.390774   -0.118719   -2.942839
  H      5.068475    1.598504   -2.565728
  H      3.503356    2.363939   -2.804565
  C      2.399946   -1.389579    1.009490
  H      2.440750   -3.087118    2.362976
  H      3.844475   -2.970462    1.318677
  C      2.070177   -1.936705   -0.372401
  H      1.481611   -1.061542    1.509912
  H      3.008628   -0.490001    0.897451
  C      1.322238   -0.935775   -1.256413
  H      1.472747   -2.850902   -0.283997
  H      3.003539   -2.234041   -0.862535
  H      1.376444    1.058920   -2.047420
  H      2.015341    0.929780   -0.426535
  H      0.316648   -0.787213   -0.848278
  H      1.185611   -1.379252   -2.248613

 Total Charge           Charge          ....    0
 Multiplicity           Mult            ....    1
 Number of Electrons    NEL             ....  126
 Basis Dimension        Dim             ....  634

ORBITAL ENERGIES
----------------

  NO   OCC          E(Eh)            E(eV)
   0   2.0000     -24.551441      -668.0787
   1   2.0000     -18.956416      -515.8303
   2   2.0000     -14.150087      -385.0434
   3   2.0000     -14.141159      -384.8005
   4   2.0000     -10.264838      -279.3204
   5   2.0000     -10.105134      -274.9747
   6   2.0000     -10.088904      -274.5330
   7   2.0000     -10.088654      -274.5262
   8   2.0000     -10.071771      -274.0668
   9   2.0000     -10.061286      -273.7815
  10   2.0000     -10.055363      -273.6203
  11   2.0000     -10.046340      -273.3748
  12   2.0000     -10.035081      -273.0684
  13   2.0000     -10.030222      -272.9362
  14   2.0000     -10.023470      -272.7525
  15   2.0000      -9.952663      -270.8257
  16   2.0000      -1.429668       -38.9032
  17   2.0000      -1.143880       -31.1266
  18   2.0000      -1.041225       -28.3332
  19   2.0000      -0.952826       -25.9277
  20   2.0000      -0.943918       -25.6853
  21   2.0000      -0.910018       -24.7628
  22   2.0000      -0.879738       -23.9389
  23   2.0000      -0.850581       -23.1455
  24   2.0000      -0.816412       -22.2157
  25   2.0000      -0.791776       -21.5453
  26   2.0000      -0.775463       -21.1014
  27   2.0000      -0.740154       -20.1406
  28   2.0000      -0.713122       -19.4050
  29   2.0000      -0.696355       -18.9488
  30   2.0000      -0.683663       -18.6034
  31   2.0000      -0.677150       -18.4262
  32   2.0000      -0.657780       -17.8991
  33   2.0000      -0.646307       -17.5869
  34   2.0000      -0.636239       -17.3130
  35   2.0000      -0.614451       -16.7201
  36   2.0000      -0.589645       -16.0451
  37   2.0000      -0.587911       -15.9979
  38   2.0000      -0.584658       -15.9094
  39   2.0000      -0.562590       -15.3089
  40   2.0000      -0.551377       -15.0037
  41   2.0000      -0.539627       -14.6840
  42   2.0000      -0.529929       -14.4201
  43   2.0000      -0.514158       -13.9910
  44   2.0000      -0.510239       -13.8843
  45   2.0000      -0.503091       -13.6898
  46   2.0000      -0.494717       -13.4619
  47   2.0000      -0.487537       -13.2666
  48   2.0000      -0.480228       -13.0677
  49   2.0000      -0.473379       -12.8813
  50   2.0000      -0.463838       -12.6217
  51   2.0000      -0.459187       -12.4951
  52   2.0000      -0.439679       -11.9643
  53   2.0000      -0.430609       -11.7175
  54   2.0000      -0.429201       -11.6792
  55   2.0000      -0.424065       -11.5394
  56   2.0000      -0.403406       -10.9772
  57   2.0000      -0.398450       -10.8424
  58   2.0000      -0.392579       -10.6826
  59   2.0000      -0.388163       -10.5624
  60   2.0000      -0.357757        -9.7351
  61   2.0000      -0.347520        -9.4565
  62   2.0000      -0.231298        -6.2939
  63   0.0000       0.039644         1.0788
  64   0.0000       0.086693         2.3590
  65   0.0000       0.099594         2.7101
  66   0.0000       0.111593         3.0366
  67   0.0000       0.113636         3.0922

MULLIKEN ATOMIC CHARGES
-----------------------
   0 C :   -0.359046
   1 C :   -0.418129
   2 C :   -0.264205
   3 C :   -0.300327
   4 H :    0.163308
   5 H :    0.183572
   6 C :    0.334036
   7 C :    0.331208
   8 N :   -0.449893
   9 N :   -0.439918
  10 H :    0.200575
  11 H :    0.220319
  12 H :    0.164334
  13 H :    0.230645
  14 H :    0.202970
  15 O :   -0.269416
  16 F :   -0.097426
  17 C :   -0.154367
  18 H :    0.117678
  19 H :    0.098667
  20 C :   -0.298043
  21 C :   -0.302405
  22 H :    0.159124
  23 H :    0.137259
  24 H :    0.150911
  25 H :    0.143559
  26 C :   -0.233621
  27 H :    0.102470
  28 H :    0.117365
  29 C :   -0.292025
  30 H :    0.119673
  31 H :    0.115082
  32 C :   -0.227240
  33 H :    0.126192
  34 H :    0.138503
  35 H :    0.128421
  36 H :    0.164056
  37 H :    0.130309
  38 H :    0.125823
Sum of atomic charges:   -0.0000000

LOEWDIN ATOMIC CHARGES
----------------------
   0 C :   -0.294440
   1 C :   -0.285896
   2 C :   -0.273827
   3 C :   -0.236717
   4 H :    0.157227
   5 H :    0.159745
   6 C :   -0.506945
   7 C :   -0.469126
   8 N :   -0.035809
   9 N :   -0.026400
  10 H :    0.157601
  11 H :    0.151144
  12 H :    0.116131
  13 H :    0.170698
  14 H :    0.156872
  15 O :    0.115059
  16 F :    0.356520
  17 C :   -0.269247
  18 H :    0.146985
  19 H :    0.127880
  20 C :   -0.279526
  21 C :   -0.275575
  22 H :    0.145180
  23 H :    0.145142
  24 H :    0.144442
  25 H :    0.146996
  26 C :   -0.275939
  27 H :    0.129772
  28 H :    0.140466
  29 C :   -0.283456
  30 H :    0.138598
  31 H :    0.143886
  32 C :   -0.277864
  33 H :    0.139767
  34 H :    0.137428
  35 H :    0.140201
  36 H :    0.143147
  37 H :    0.141389
  38 H :    0.138492

  Mayer bond orders larger than 0.100000
B(  0-C ,  1-C ) :   0.9737 B(  0-C , 17-C ) :   0.8869 B(  0-C , 18-H ) :   1.0025
B(  0-C , 19-H ) :   1.0129 B(  1-C ,  7-C ) :   1.6111 B(  1-C , 12-H ) :   1.0160
B(  2-C ,  3-C ) :   0.8916 B(  2-C , 21-C ) :   0.9183 B(  2-C , 24-H ) :   0.9904
B(  2-C , 25-H ) :   0.9759 B(  3-C ,  4-H ) :   0.9605 B(  3-C ,  5-H ) :   0.9848
B(  3-C ,  6-C ) :   0.9408 B(  6-C , 15-O ) :   2.0211 B(  6-C , 16-F ) :   1.0993
B(  7-C ,  8-N ) :   1.1132 B(  7-C ,  9-N ) :   1.1494 B(  8-N , 13-H ) :   0.9237
B(  8-N , 14-H ) :   0.9370 B(  9-N , 10-H ) :   0.9393 B(  9-N , 11-H ) :   0.9114
B( 17-C , 26-C ) :   0.9388 B( 17-C , 27-H ) :   0.9813 B( 17-C , 28-H ) :   0.9837
B( 20-C , 21-C ) :   0.8656 B( 20-C , 32-C ) :   0.9352 B( 20-C , 35-H ) :   0.9805
B( 20-C , 36-H ) :   0.9809 B( 21-C , 22-H ) :   0.9798 B( 21-C , 23-H ) :   0.9805
B( 26-C , 29-C ) :   0.8841 B( 26-C , 30-H ) :   0.9770 B( 26-C , 31-H ) :   0.9836
B( 29-C , 32-C ) :   0.9275 B( 29-C , 33-H ) :   0.9883 B( 29-C , 34-H ) :   0.9911
B( 32-C , 37-H ) :   0.9913 B( 32-C , 38-H ) :   0.9931

FINAL SINGLE POINT ENERGY      -754.045176452679

DIPOLE MOMENT
-------------
                                X             Y             Z
Electronic contribution:     14.34920       8.75490       3.66763
Nuclear contribution   :    -13.61164      -8.17416      -5.14068
                        -----------------------------------------
Total Dipole Moment    :      0.73756       0.58073      -1.47305
                        -----------------------------------------
Magnitude (a.u.)       :      1.74675
Magnitude (Debye)      :      4.43987

Rotational constants in cm-1:     0.019858     0.013613     0.009401
Rotational constants in MHz :   595.331791   408.100423   281.843625

                             ****ORCA TERMINATED NORMALLY****
TOTAL RUN TIME: 0 days 0 hours 1 minutes 27 seconds 450 msec
