                         Program Version 5.0.0 -  RELEASE  -
|  1> !LC-BLYP RIJCOSX def2-TZVP def2/J TightSCF xyzfile
|  2>
|  3> *xyzfile 0 1 D5.xyz
|  4>
|  5> %MaxCore 64000
|  6>
|  7> %pal nprocs 18
|  8> end
|  9>
| 10> %scf
| 11>   MaxIter 150
| 12> end
| 13>
| 14>
| 15>                          ****END OF INPUT****

CARTESIAN COORDINATES (ANGSTROEM)
---------------------------------
  C      3.913853   -1.658291    3.015134
  N      5.039266   -0.901154    2.492821
  C      4.084215    1.742081   -2.114724
  C      4.265245    2.500518   -0.795890
  H      4.868534    3.392674   -0.981134
  H      3.307640    2.824571   -0.387809
  C      4.982240    1.650257    0.247422
  C      6.210384   -1.417261    2.178244
  C      6.535913   -2.677122    2.556078
  N      7.076754   -0.700820    1.478906
  H      7.954643   -1.121554    1.207554
  H      6.756161    0.106637    0.960278
  H      4.842168    0.017609    2.115191
  H      5.993876   -3.126918    3.282784
  H      7.498441   -2.975482    2.468776
  O      4.368065    1.389270    1.313706
  F      6.128919    1.233512   -0.045620
  C      3.139159   -2.376572    1.910609
  H      3.267235   -0.939401    3.520693
  H      4.247195   -2.355095    3.790065
  C      1.997274    0.430918   -1.399218
  C      3.412746    0.376886   -1.965497
  H      4.047407   -0.246590   -1.326706
  H      3.390774   -0.118719   -2.942839
  H      5.068475    1.598504   -2.565728
  H      3.503356    2.363939   -2.804565
  C      2.399946   -1.389579    1.009490
  H      2.440750   -3.087118    2.362976
  H      3.844475   -2.970462    1.318677
  C      2.070177   -1.936705   -0.372401
  H      1.481611   -1.061542    1.509912
  H      3.008628   -0.490001    0.897451
  C      1.322238   -0.935775   -1.256413
  H      1.472747   -2.850902   -0.283997
  H      3.003539   -2.234041   -0.862535
  H      1.376444    1.058920   -2.047420
  H      2.015341    0.929780   -0.426535
  H      0.316648   -0.787213   -0.848278
  H      1.185611   -1.379252   -2.248613

 Total Charge           Charge          ....    0
 Multiplicity           Mult            ....    1
 Number of Electrons    NEL             ....  126
 Basis Dimension        Dim             ....  634

ORBITAL ENERGIES
----------------

  NO   OCC          E(Eh)            E(eV)
   0   2.0000     -24.569158      -668.5608
   1   2.0000     -18.984523      -516.5951
   2   2.0000     -14.144415      -384.8891
   3   2.0000     -14.134958      -384.6318
   4   2.0000     -10.288407      -279.9618
   5   2.0000     -10.119924      -275.3771
   6   2.0000     -10.100588      -274.8510
   7   2.0000     -10.095707      -274.7181
   8   2.0000     -10.082468      -274.3579
   9   2.0000     -10.078295      -274.2444
  10   2.0000     -10.071700      -274.0649
  11   2.0000     -10.064932      -273.8807
  12   2.0000     -10.057052      -273.6663
  13   2.0000     -10.050256      -273.4814
  14   2.0000     -10.044790      -273.3326
  15   2.0000      -9.956973      -270.9430
  16   2.0000      -1.447482       -39.3880
  17   2.0000      -1.170412       -31.8485
  18   2.0000      -1.049785       -28.5661
  19   2.0000      -0.969366       -26.3778
  20   2.0000      -0.957240       -26.0478
  21   2.0000      -0.920099       -25.0372
  22   2.0000      -0.882503       -24.0141
  23   2.0000      -0.852336       -23.1932
  24   2.0000      -0.815899       -22.2017
  25   2.0000      -0.802988       -21.8504
  26   2.0000      -0.787783       -21.4367
  27   2.0000      -0.760096       -20.6833
  28   2.0000      -0.729077       -19.8392
  29   2.0000      -0.702401       -19.1133
  30   2.0000      -0.701292       -19.0831
  31   2.0000      -0.698012       -18.9939
  32   2.0000      -0.664583       -18.0842
  33   2.0000      -0.658987       -17.9319
  34   2.0000      -0.639652       -17.4058
  35   2.0000      -0.612329       -16.6623
  36   2.0000      -0.606907       -16.5148
  37   2.0000      -0.598392       -16.2831
  38   2.0000      -0.595107       -16.1937
  39   2.0000      -0.573631       -15.6093
  40   2.0000      -0.554845       -15.0981
  41   2.0000      -0.550831       -14.9889
  42   2.0000      -0.535559       -14.5733
  43   2.0000      -0.526820       -14.3355
  44   2.0000      -0.518378       -14.1058
  45   2.0000      -0.517182       -14.0732
  46   2.0000      -0.504819       -13.7368
  47   2.0000      -0.492721       -13.4076
  48   2.0000      -0.489990       -13.3333
  49   2.0000      -0.477635       -12.9971
  50   2.0000      -0.470785       -12.8107
  51   2.0000      -0.459802       -12.5118
  52   2.0000      -0.456229       -12.4146
  53   2.0000      -0.447181       -12.1684
  54   2.0000      -0.441299       -12.0083
  55   2.0000      -0.437748       -11.9117
  56   2.0000      -0.421395       -11.4667
  57   2.0000      -0.413959       -11.2644
  58   2.0000      -0.408742       -11.1224
  59   2.0000      -0.404975       -11.0199
  60   2.0000      -0.399415       -10.8686
  61   2.0000      -0.324671        -8.8347
  62   2.0000      -0.236912        -6.4467
  63   0.0000       0.018558         0.5050
  64   0.0000       0.077318         2.1039
  65   0.0000       0.102691         2.7944
  66   0.0000       0.103320         2.8115
  67   0.0000       0.111129         3.0240

MULLIKEN ATOMIC CHARGES
-----------------------
   0 C :   -0.264335
   1 N :   -0.265962
   2 C :   -0.269078
   3 C :   -0.302504
   4 H :    0.171332
   5 H :    0.188040
   6 C :    0.346029
   7 C :    0.297363
   8 C :   -0.556046
   9 N :   -0.438128
  10 H :    0.232056
  11 H :    0.199273
  12 H :    0.216236
  13 H :    0.078821
  14 H :    0.074820
  15 O :   -0.305635
  16 F :   -0.082822
  17 C :   -0.153057
  18 H :    0.141838
  19 H :    0.151920
  20 C :   -0.296947
  21 C :   -0.304743
  22 H :    0.156786
  23 H :    0.143728
  24 H :    0.157615
  25 H :    0.148965
  26 C :   -0.269440
  27 H :    0.116892
  28 H :    0.150322
  29 C :   -0.292615
  30 H :    0.122421
  31 H :    0.099541
  32 C :   -0.231031
  33 H :    0.132784
  34 H :    0.146740
  35 H :    0.133224
  36 H :    0.161058
  37 H :    0.133529
  38 H :    0.131013
Sum of atomic charges:    0.0000000

LOEWDIN ATOMIC CHARGES
----------------------
   0 C :   -0.288667
   1 N :    0.123323
   2 C :   -0.271352
   3 C :   -0.233340
   4 H :    0.160228
   5 H :    0.160957
   6 C :   -0.499687
   7 C :   -0.471469
   8 C :   -0.387288
   9 N :   -0.019330
  10 H :    0.175186
  11 H :    0.140188
  12 H :    0.155348
  13 H :    0.095789
  14 H :    0.092089
  15 O :    0.099913
  16 F :    0.363447
  17 C :   -0.274579
  18 H :    0.137893
  19 H :    0.138714
  20 C :   -0.279636
  21 C :   -0.274923
  22 H :    0.144234
  23 H :    0.147284
  24 H :    0.146313
  25 H :    0.149061
  26 C :   -0.283037
  27 H :    0.137665
  28 H :    0.149641
  29 C :   -0.281575
  30 H :    0.139341
  31 H :    0.137378
  32 C :   -0.276762
  33 H :    0.141995
  34 H :    0.139793
  35 H :    0.141581
  36 H :    0.141782
  37 H :    0.142235
  38 H :    0.140270

  Mayer bond orders larger than 0.100000
B(  0-C ,  1-N ) :   0.9607 B(  0-C , 17-C ) :   0.8869 B(  0-C , 18-H ) :   0.9917
B(  0-C , 19-H ) :   0.9965 B(  1-N ,  7-C ) :   1.2225 B(  1-N , 12-H ) :   0.8817
B(  2-C ,  3-C ) :   0.8904 B(  2-C , 21-C ) :   0.9159 B(  2-C , 24-H ) :   0.9898
B(  2-C , 25-H ) :   0.9747 B(  3-C ,  4-H ) :   0.9588 B(  3-C ,  5-H ) :   0.9822
B(  3-C ,  6-C ) :   0.9417 B(  6-C , 15-O ) :   1.9690 B(  6-C , 16-F ) :   1.1258
B(  7-C ,  8-C ) :   1.6022 B(  7-C ,  9-N ) :   1.1507 B(  8-C , 13-H ) :   1.0103
B(  8-C , 14-H ) :   1.0029 B(  9-N , 10-H ) :   0.9324 B(  9-N , 11-H ) :   0.9166
B( 12-H , 15-O ) :   0.1076 B( 17-C , 26-C ) :   0.9126 B( 17-C , 27-H ) :   0.9788
B( 17-C , 28-H ) :   0.9774 B( 20-C , 21-C ) :   0.8601 B( 20-C , 32-C ) :   0.9340
B( 20-C , 35-H ) :   0.9801 B( 20-C , 36-H ) :   0.9819 B( 21-C , 22-H ) :   0.9799
B( 21-C , 23-H ) :   0.9798 B( 26-C , 29-C ) :   0.8869 B( 26-C , 30-H ) :   0.9731
B( 26-C , 31-H ) :   0.9886 B( 29-C , 32-C ) :   0.9237 B( 29-C , 33-H ) :   0.9885
B( 29-C , 34-H ) :   0.9900 B( 32-C , 37-H ) :   0.9915 B( 32-C , 38-H ) :   0.9923

FINAL SINGLE POINT ENERGY      -754.055063417870

DIPOLE MOMENT
-------------
                                X             Y             Z
Electronic contribution:     12.77566      10.43511       3.20094
Nuclear contribution   :    -13.35170      -8.48261      -5.12969
                        -----------------------------------------
Total Dipole Moment    :     -0.57604       1.95250      -1.92875
                        -----------------------------------------
Magnitude (a.u.)       :      2.80431
Magnitude (Debye)      :      7.12799

Rotational constants in cm-1:     0.019886     0.013843     0.009504
Rotational constants in MHz :   596.157485   415.004628   284.931121

                             ****ORCA TERMINATED NORMALLY****
TOTAL RUN TIME: 0 days 0 hours 1 minutes 45 seconds 713 msec
