                         Program Version 5.0.0 -  RELEASE  -
|  1> !PBE0 D3BJ RIJCOSX def2-SVP def2/J TightSCF
|  2> *xyz -1 1
|  3> C         -0.77455        2.78833       -0.54394
|  4> C          0.69721        3.22791       -0.52513
|  5> O          1.48929        2.37470        0.19919
|  6> H          0.71600        4.26403       -0.13077
|  7> H          1.03615        3.33092       -1.58367
|  8> H         -1.34746        3.48478       -1.11982
|  9> H         -1.15078        2.75876        0.45729
| 10> H         -0.85058        1.81526       -0.98241
| 11> *
| 12>
| 13> %MaxCore 64000
| 14> %pal nprocs 4
| 15> end
| 16>
| 17> %scf
| 18>   MaxIter 150
| 19> end
| 20>
| 21>
| 22>                          ****END OF INPUT****

CARTESIAN COORDINATES (ANGSTROEM)
---------------------------------
  C     -0.774550    2.788330   -0.543940
  C      0.697210    3.227910   -0.525130
  O      1.489290    2.374700    0.199190
  H      0.716000    4.264030   -0.130770
  H      1.036150    3.330920   -1.583670
  H     -1.347460    3.484780   -1.119820
  H     -1.150780    2.758760    0.457290
  H     -0.850580    1.815260   -0.982410

 Total Charge           Charge          ....   -1
 Multiplicity           Mult            ....    1
 Number of Electrons    NEL             ....   26
 Basis Dimension        Dim             ....   67

ORBITAL ENERGIES
----------------

  NO   OCC          E(Eh)            E(eV)
   0   2.0000     -18.823419      -512.2113
   1   2.0000     -10.019789      -272.6523
   2   2.0000     -10.007670      -272.3225
   3   2.0000      -0.653343       -17.7784
   4   2.0000      -0.520269       -14.1572
   5   2.0000      -0.362426        -9.8621
   6   2.0000      -0.245173        -6.6715
   7   2.0000      -0.222934        -6.0663
   8   2.0000      -0.166192        -4.5223
   9   2.0000      -0.146706        -3.9921
  10   2.0000      -0.083225        -2.2647
  11   2.0000       0.064952         1.7674
  12   2.0000       0.067627         1.8402
  13   0.0000       0.262937         7.1549
  14   0.0000       0.306386         8.3372
  15   0.0000       0.319553         8.6955
  16   0.0000       0.327596         8.9143
  17   0.0000       0.370466        10.0809

MULLIKEN ATOMIC CHARGES
-----------------------
   0 C :   -0.003091
   1 C :    0.212069
   2 O :   -0.722934
   3 H :   -0.149750
   4 H :   -0.150233
   5 H :   -0.101316
   6 H :   -0.041835
   7 H :   -0.042910
Sum of atomic charges:   -1.0000000

LOEWDIN ATOMIC CHARGES
----------------------
   0 C :   -0.119720
   1 C :    0.002710
   2 O :   -0.669249
   3 H :   -0.078748
   4 H :   -0.079455
   5 H :   -0.033576
   6 H :   -0.010666
   7 H :   -0.011297

  Mayer bond orders larger than 0.100000
B(  0-C ,  1-C ) :   0.9951 B(  0-C ,  5-H ) :   0.9210 B(  0-C ,  6-H ) :   0.9615
B(  0-C ,  7-H ) :   0.9609 B(  1-C ,  2-O ) :   1.4811 B(  1-C ,  3-H ) :   0.8729
B(  1-C ,  4-H ) :   0.8721

Dispersion correction           -0.003050327
FINAL SINGLE POINT ENERGY      -154.099068980851

DIPOLE MOMENT
-------------
                                X             Y             Z
Electronic contribution:      2.60775      -1.24857       1.36222
Nuclear contribution   :     -3.69910       1.55962      -1.78699
                        -----------------------------------------
Total Dipole Moment    :     -1.09134       0.31106      -0.42477
                        -----------------------------------------
Magnitude (a.u.)       :      1.21170
Magnitude (Debye)      :      3.07990

Rotational constants in cm-1:     1.268893     0.327436     0.287754
Rotational constants in MHz : 38040.440181  9816.269339  8626.646564

                             ****ORCA TERMINATED NORMALLY****
TOTAL RUN TIME: 0 days 0 hours 0 minutes 7 seconds 853 msec
