                         Program Version 5.0.0 -  RELEASE  -
|  1> !PBE0 D3BJ RIJCOSX def2-SVP def2/J TightSCF
|  2> *xyz 1 1
|  3> C          3.95643        0.50147       -0.37910
|  4> H          3.16840        0.02920        0.20738
|  5> N          3.80389        1.96157       -0.15675
|  6> C          3.84232        0.14849       -1.85406
|  7> H          4.92323        0.17798        0.00937
|  8> H          4.20643        2.24441        0.74536
|  9> H          2.80827        2.21132       -0.09610
| 10> H          4.28076        2.50155       -0.89104
| 11> H          4.62951        0.62800       -2.39748
| 12> H          2.89665        0.48102       -2.22825
| 13> H          3.92053       -0.91187       -1.97413
| 14> *
| 15>
| 16> %MaxCore 64000
| 17> %pal nprocs 4
| 18> end
| 19>
| 20> %scf
| 21>   MaxIter 150
| 22> end
| 23>
| 24>
| 25>                          ****END OF INPUT****

CARTESIAN COORDINATES (ANGSTROEM)
---------------------------------
  C      3.956430    0.501470   -0.379100
  H      3.168400    0.029200    0.207380
  N      3.803890    1.961570   -0.156750
  C      3.842320    0.148490   -1.854060
  H      4.923230    0.177980    0.009370
  H      4.206430    2.244410    0.745360
  H      2.808270    2.211320   -0.096100
  H      4.280760    2.501550   -0.891040
  H      4.629510    0.628000   -2.397480
  H      2.896650    0.481020   -2.228250
  H      3.920530   -0.911870   -1.974130

 Total Charge           Charge          ....    1
 Multiplicity           Mult            ....    1
 Number of Electrons    NEL             ....   26
 Basis Dimension        Dim             ....   82

ORBITAL ENERGIES
----------------

  NO   OCC          E(Eh)            E(eV)
   0   2.0000     -14.734779      -400.9537
   1   2.0000     -10.486089      -285.3410
   2   2.0000     -10.407505      -283.2026
   3   2.0000      -1.237813       -33.6826
   4   2.0000      -0.983873       -26.7725
   5   2.0000      -0.860974       -23.4283
   6   2.0000      -0.822371       -22.3779
   7   2.0000      -0.804018       -21.8784
   8   2.0000      -0.714082       -19.4312
   9   2.0000      -0.657074       -17.8799
  10   2.0000      -0.596342       -16.2273
  11   2.0000      -0.581079       -15.8120
  12   2.0000      -0.562492       -15.3062
  13   0.0000      -0.173033        -4.7085
  14   0.0000      -0.116519        -3.1706
  15   0.0000      -0.110222        -2.9993
  16   0.0000      -0.080200        -2.1824
  17   0.0000      -0.039220        -1.0672

MULLIKEN ATOMIC CHARGES
-----------------------
   0 C :   -0.081672
   1 H :    0.119627
   2 N :   -0.020331
   3 C :   -0.090869
   4 H :    0.126044
   5 H :    0.222550
   6 H :    0.225448
   7 H :    0.221273
   8 H :    0.082581
   9 H :    0.078773
  10 H :    0.116576
Sum of atomic charges:    1.0000000

LOEWDIN ATOMIC CHARGES
----------------------
   0 C :    0.042614
   1 H :    0.057093
   2 N :    0.293708
   3 C :   -0.049934
   4 H :    0.059126
   5 H :    0.149256
   6 H :    0.149364
   7 H :    0.145121
   8 H :    0.043351
   9 H :    0.042595
  10 H :    0.067706

  Mayer bond orders larger than 0.100000
B(  0-C ,  1-H ) :   0.9505 B(  0-C ,  2-N ) :   0.9138 B(  0-C ,  3-C ) :   1.0914
B(  0-C ,  4-H ) :   0.9513 B(  2-N ,  5-H ) :   0.9306 B(  2-N ,  6-H ) :   0.9322
B(  2-N ,  7-H ) :   0.9286 B(  3-C ,  8-H ) :   0.9657 B(  3-C ,  9-H ) :   0.9701
B(  3-C , 10-H ) :   0.9566

Dispersion correction           -0.005018800
FINAL SINGLE POINT ENERGY      -135.274103213968

DIPOLE MOMENT
-------------
                                X             Y             Z
Electronic contribution:     -0.01485       1.38994       1.27696
Nuclear contribution   :     -0.06214      -0.04120      -0.39947
                        -----------------------------------------
Total Dipole Moment    :     -0.07699       1.34873       0.87749
                        -----------------------------------------
Magnitude (a.u.)       :      1.61090
Magnitude (Debye)      :      4.09459

Rotational constants in cm-1:     1.011771     0.281435     0.249812
Rotational constants in MHz : 30332.138762  8437.210602  7489.166323

                             ****ORCA TERMINATED NORMALLY****
TOTAL RUN TIME: 0 days 0 hours 0 minutes 8 seconds 674 msec
