                         Program Version 5.0.0 -  RELEASE  -
|  1> !PBE0 D3BJ RIJCOSX def2-TZVP def2/J TightSCF xyzfile
|  2>
|  3> *xyzfile 0 1 B.xyz
|  4>
|  5> %MaxCore 64000
|  6>
|  7> %pal nprocs 18
|  8> end
|  9>
| 10> %scf
| 11>   MaxIter 150
| 12> end
| 13>
| 14>
| 15>                          ****END OF INPUT****

CARTESIAN COORDINATES (ANGSTROEM)
---------------------------------
  C      3.956426    0.501466   -0.379100
  H      3.168398    0.029201    0.207383
  N      3.803893    1.961572   -0.156747
  C      3.842322    0.148490   -1.854058
  H      4.923231    0.177982    0.009371
  H      4.620021    0.694502   -2.402150
  H      4.096015   -0.910930   -1.955103
  C      2.475619    0.412708   -2.485377
  H      2.174689    1.445076   -2.287971
  C      1.383931   -0.532740   -1.995203
  H      2.575613    0.318574   -3.571460
  H      1.264698   -0.412309   -0.915491
  H      1.705223   -1.566885   -2.164984
  C      0.031398   -0.317260   -2.677791
  C     -0.587292    1.060853   -2.436460
  H     -0.662815   -1.089530   -2.329985
  H      0.149465   -0.478040   -3.755648
  H      0.104376    1.828590   -2.793130
  C     -0.951213    1.334978   -0.972500
  H     -1.478832    1.161355   -3.062484
  H     -0.317007    0.741648   -0.311389
  H     -1.980916    1.012842   -0.788958
  C     -0.774550    2.788332   -0.543943
  H     -1.352609    3.459372   -1.192585
  H     -1.171014    2.902331    0.469968
  C      0.697208    3.227911   -0.525126
  O      1.489294    2.374703    0.199189
  H      0.715998    4.264030   -0.130774
  H      1.036148    3.330920   -1.583669
  H      4.206425    2.244406    0.745359
  H      2.808269    2.211323   -0.096097
  H      4.280757    2.501552   -0.891037

 Total Charge           Charge          ....    0
 Multiplicity           Mult            ....    1
 Number of Electrons    NEL             ....   90
 Basis Dimension        Dim             ....  467

ORBITAL ENERGIES
----------------

  NO   OCC          E(Eh)            E(eV)
   0   2.0000     -19.071582      -518.9641
   1   2.0000     -14.464332      -393.5945
   2   2.0000     -10.288074      -279.9527
   3   2.0000     -10.244389      -278.7640
   4   2.0000     -10.218100      -278.0486
   5   2.0000     -10.205818      -277.7144
   6   2.0000     -10.200287      -277.5639
   7   2.0000     -10.200069      -277.5580
   8   2.0000     -10.187310      -277.2108
   9   2.0000     -10.174110      -276.8516
  10   2.0000     -10.166545      -276.6458
  11   2.0000      -1.016158       -27.6511
  12   2.0000      -0.914876       -24.8951
  13   2.0000      -0.841228       -22.8910
  14   2.0000      -0.801482       -21.8094
  15   2.0000      -0.762658       -20.7530
  16   2.0000      -0.719150       -19.5691
  17   2.0000      -0.680399       -18.5146
  18   2.0000      -0.640064       -17.4170
  19   2.0000      -0.611850       -16.6493
  20   2.0000      -0.586987       -15.9727
  21   2.0000      -0.583128       -15.8677
  22   2.0000      -0.563161       -15.3244
  23   2.0000      -0.525316       -14.2946
  24   2.0000      -0.507074       -13.7982
  25   2.0000      -0.480741       -13.0816
  26   2.0000      -0.479744       -13.0545
  27   2.0000      -0.449589       -12.2339
  28   2.0000      -0.435373       -11.8471
  29   2.0000      -0.430265       -11.7081
  30   2.0000      -0.413027       -11.2390
  31   2.0000      -0.402621       -10.9559
  32   2.0000      -0.392838       -10.6897
  33   2.0000      -0.375573       -10.2199
  34   2.0000      -0.366335        -9.9685
  35   2.0000      -0.354552        -9.6478
  36   2.0000      -0.346520        -9.4293
  37   2.0000      -0.335443        -9.1279
  38   2.0000      -0.325579        -8.8595
  39   2.0000      -0.319939        -8.7060
  40   2.0000      -0.298889        -8.1332
  41   2.0000      -0.293584        -7.9888
  42   2.0000      -0.289637        -7.8814
  43   2.0000      -0.191361        -5.2072
  44   2.0000      -0.183240        -4.9862
  45   0.0000       0.000965         0.0263
  46   0.0000       0.042211         1.1486
  47   0.0000       0.047762         1.2997
  48   0.0000       0.062334         1.6962
  49   0.0000       0.073957         2.0125

MULLIKEN ATOMIC CHARGES
-----------------------
   0 C :   -0.180996
   1 H :    0.165601
   2 N :   -0.272874
   3 C :   -0.215250
   4 H :    0.138598
   5 H :    0.121861
   6 H :    0.114485
   7 C :   -0.212098
   8 H :    0.106387
   9 C :   -0.222638
  10 H :    0.101390
  11 H :    0.113685
  12 H :    0.091196
  13 C :   -0.145778
  14 C :   -0.237854
  15 H :    0.094582
  16 H :    0.088952
  17 H :    0.100778
  18 C :   -0.146428
  19 H :    0.094215
  20 H :    0.088853
  21 H :    0.085556
  22 C :   -0.110229
  23 H :    0.060569
  24 H :    0.071736
  25 C :   -0.031544
  26 O :   -0.710420
  27 H :    0.040650
  28 H :    0.011128
  29 H :    0.269165
  30 H :    0.268461
  31 H :    0.258261
Sum of atomic charges:    0.0000000

LOEWDIN ATOMIC CHARGES
----------------------
   0 C :   -0.281173
   1 H :    0.148344
   2 N :    0.142736
   3 C :   -0.278018
   4 H :    0.130910
   5 H :    0.137004
   6 H :    0.148371
   7 C :   -0.270042
   8 H :    0.142825
   9 C :   -0.273691
  10 H :    0.139248
  11 H :    0.138245
  12 H :    0.133475
  13 C :   -0.272753
  14 C :   -0.268930
  15 H :    0.137487
  16 H :    0.133224
  17 H :    0.132999
  18 C :   -0.276293
  19 H :    0.132428
  20 H :    0.138995
  21 H :    0.128423
  22 C :   -0.287416
  23 H :    0.126355
  24 H :    0.131352
  25 C :   -0.480691
  26 O :   -0.275196
  27 H :    0.096493
  28 H :    0.081647
  29 H :    0.193545
  30 H :    0.081929
  31 H :    0.188170

  Mayer bond orders larger than 0.100000
B(  0-C ,  1-H ) :   0.9647 B(  0-C ,  2-N ) :   0.9032 B(  0-C ,  3-C ) :   1.0179
B(  0-C ,  4-H ) :   0.9576 B(  2-N , 29-H ) :   0.9056 B(  2-N , 30-H ) :   0.6466
B(  2-N , 31-H ) :   0.9001 B(  3-C ,  5-H ) :   0.9698 B(  3-C ,  6-H ) :   0.9531
B(  3-C ,  7-C ) :   0.9830 B(  7-C ,  8-H ) :   0.9706 B(  7-C ,  9-C ) :   0.9910
B(  7-C , 10-H ) :   0.9519 B(  9-C , 11-H ) :   0.9639 B(  9-C , 12-H ) :   0.9485
B(  9-C , 13-C ) :   1.0258 B( 13-C , 14-C ) :   0.9887 B( 13-C , 15-H ) :   0.9539
B( 13-C , 16-H ) :   0.9611 B( 14-C , 17-H ) :   0.9829 B( 14-C , 18-C ) :   0.9826
B( 14-C , 19-H ) :   0.9516 B( 18-C , 20-H ) :   0.9542 B( 18-C , 21-H ) :   0.9533
B( 18-C , 22-C ) :   1.0178 B( 22-C , 23-H ) :   0.9488 B( 22-C , 24-H ) :   0.9439
B( 22-C , 25-C ) :   0.9951 B( 25-C , 26-O ) :   1.2105 B( 25-C , 27-H ) :   0.9496
B( 25-C , 28-H ) :   0.9486 B( 26-O , 30-H ) :   0.4110

Dispersion correction           -0.028718452
FINAL SINGLE POINT ENERGY      -485.158621568946

DIPOLE MOMENT
-------------
                                X             Y             Z
Electronic contribution:      2.14802       0.89966       2.60945
Nuclear contribution   :      0.61785      -1.47632      -2.91844
                        -----------------------------------------
Total Dipole Moment    :      2.76587      -0.57666      -0.30899
                        -----------------------------------------
Magnitude (a.u.)       :      2.84219
Magnitude (Debye)      :      7.22428

Rotational constants in cm-1:     0.040993     0.027400     0.018162
Rotational constants in MHz :  1228.944366   821.418004   544.476857

                             ****ORCA TERMINATED NORMALLY****
TOTAL RUN TIME: 0 days 0 hours 0 minutes 38 seconds 472 msec
