                         Program Version 5.0.0 -  RELEASE  -
|  1> !PBE0 D3BJ RIJCOSX def2-SVP def2/J TightSCF
|  2> *xyz 0 1
|  3> C         -0.77455        2.78833       -0.54394
|  4> C          0.69721        3.22791       -0.52513
|  5> F          1.48929        2.37470        0.19919
|  6> H          0.71600        4.26403       -0.13077
|  7> H          1.03615        3.33092       -1.58367
|  8> H         -1.34746        3.48478       -1.11982
|  9> H         -1.15078        2.75876        0.45729
| 10> H         -0.85058        1.81526       -0.98241
| 11> *
| 12>
| 13> %MaxCore 64000
| 14> %pal nprocs 4
| 15> end
| 16>
| 17> %scf
| 18>   MaxIter 150
| 19> end
| 20>
| 21>
| 22>                          ****END OF INPUT****

CARTESIAN COORDINATES (ANGSTROEM)
---------------------------------
  C     -0.774550    2.788330   -0.543940
  C      0.697210    3.227910   -0.525130
  F      1.489290    2.374700    0.199190
  H      0.716000    4.264030   -0.130770
  H      1.036150    3.330920   -1.583670
  H     -1.347460    3.484780   -1.119820
  H     -1.150780    2.758760    0.457290
  H     -0.850580    1.815260   -0.982410

 Total Charge           Charge          ....    0
 Multiplicity           Mult            ....    1
 Number of Electrons    NEL             ....   26
 Basis Dimension        Dim             ....   67

ORBITAL ENERGIES
----------------

  NO   OCC          E(Eh)            E(eV)
   0   2.0000     -24.750309      -673.4901
   1   2.0000     -10.306188      -280.4456
   2   2.0000     -10.225664      -278.2545
   3   2.0000      -1.200524       -32.6679
   4   2.0000      -0.777426       -21.1548
   5   2.0000      -0.640049       -17.4166
   6   2.0000      -0.516794       -14.0627
   7   2.0000      -0.504330       -13.7235
   8   2.0000      -0.466408       -12.6916
   9   2.0000      -0.413005       -11.2384
  10   2.0000      -0.410702       -11.1758
  11   2.0000      -0.343058        -9.3351
  12   2.0000      -0.336464        -9.1557
  13   0.0000       0.074970         2.0400
  14   0.0000       0.120242         3.2719
  15   0.0000       0.126529         3.4430
  16   0.0000       0.142423         3.8755
  17   0.0000       0.157208         4.2778

MULLIKEN ATOMIC CHARGES
-----------------------
   0 C :   -0.113961
   1 C :    0.187907
   2 F :   -0.273502
   3 H :    0.029379
   4 H :    0.031157
   5 H :    0.038236
   6 H :    0.050535
   7 H :    0.050250
Sum of atomic charges:    0.0000000

LOEWDIN ATOMIC CHARGES
----------------------
   0 C :   -0.083673
   1 C :    0.103934
   2 F :   -0.138808
   3 H :    0.013043
   4 H :    0.014209
   5 H :    0.033206
   6 H :    0.029203
   7 H :    0.028886

  Mayer bond orders larger than 0.100000
B(  0-C ,  1-C ) :   1.0878 B(  0-C ,  5-H ) :   0.9615 B(  0-C ,  6-H ) :   0.9717
B(  0-C ,  7-H ) :   0.9719 B(  1-C ,  2-F ) :   0.9833 B(  1-C ,  3-H ) :   0.9580
B(  1-C ,  4-H ) :   0.9578

Dispersion correction           -0.002810993
FINAL SINGLE POINT ENERGY      -178.727132672607

DIPOLE MOMENT
-------------
                                X             Y             Z
Electronic contribution:      4.44427      -1.66728       2.01589
Nuclear contribution   :     -4.89513       2.05627      -2.36166
                        -----------------------------------------
Total Dipole Moment    :     -0.45086       0.38899      -0.34578
                        -----------------------------------------
Magnitude (a.u.)       :      0.68859
Magnitude (Debye)      :      1.75026

Rotational constants in cm-1:     1.247826     0.304622     0.269019
Rotational constants in MHz : 37408.889506  9132.346906  8064.979146

                             ****ORCA TERMINATED NORMALLY****
TOTAL RUN TIME: 0 days 0 hours 0 minutes 7 seconds 141 msec
