                         Program Version 5.0.0 -  RELEASE  -
|  1> !PBE0 D3BJ RIJCOSX def2-SVP def2/J TightSCF
|  2> *xyz 0 1
|  3> C          3.95643        0.50147       -0.37910
|  4> H          3.16840        0.02920        0.20738
|  5> C          3.80389        1.96157       -0.15675
|  6> C          3.84232        0.14849       -1.85406
|  7> H          4.92323        0.17798        0.00937
|  8> H          4.20643        2.24441        0.74536
|  9> H          2.80827        2.21132       -0.09610
| 10> H          4.28076        2.50155       -0.89104
| 11> H          4.62951        0.62800       -2.39748
| 12> H          2.89665        0.48102       -2.22825
| 13> H          3.92053       -0.91187       -1.97413
| 14> *
| 15>
| 16> %MaxCore 64000
| 17> %pal nprocs 4
| 18> end
| 19>
| 20> %scf
| 21>   MaxIter 150
| 22> end
| 23>
| 24>
| 25>                          ****END OF INPUT****

CARTESIAN COORDINATES (ANGSTROEM)
---------------------------------
  C      3.956430    0.501470   -0.379100
  H      3.168400    0.029200    0.207380
  C      3.803890    1.961570   -0.156750
  C      3.842320    0.148490   -1.854060
  H      4.923230    0.177980    0.009370
  H      4.206430    2.244410    0.745360
  H      2.808270    2.211320   -0.096100
  H      4.280760    2.501550   -0.891040
  H      4.629510    0.628000   -2.397480
  H      2.896650    0.481020   -2.228250
  H      3.920530   -0.911870   -1.974130

 Total Charge           Charge          ....    0
 Multiplicity           Mult            ....    1
 Number of Electrons    NEL             ....   26
 Basis Dimension        Dim             ....   82

ORBITAL ENERGIES
----------------

  NO   OCC          E(Eh)            E(eV)
   0   2.0000     -10.216814      -278.0136
   1   2.0000     -10.209446      -277.8132
   2   2.0000     -10.192332      -277.3475
   3   2.0000      -0.807563       -21.9749
   4   2.0000      -0.702996       -19.1295
   5   2.0000      -0.595989       -16.2177
   6   2.0000      -0.481092       -13.0912
   7   2.0000      -0.457644       -12.4531
   8   2.0000      -0.413601       -11.2547
   9   2.0000      -0.401132       -10.9154
  10   2.0000      -0.347960        -9.4685
  11   2.0000      -0.344815        -9.3829
  12   2.0000      -0.334610        -9.1052
  13   0.0000       0.075144         2.0448
  14   0.0000       0.121647         3.3102
  15   0.0000       0.124309         3.3826
  16   0.0000       0.129195         3.5156
  17   0.0000       0.157330         4.2812

MULLIKEN ATOMIC CHARGES
-----------------------
   0 C :   -0.150254
   1 H :    0.032021
   2 C :    0.013623
   3 C :   -0.053967
   4 H :    0.033068
   5 H :    0.007762
   6 H :    0.013533
   7 H :    0.009201
   8 H :    0.032439
   9 H :    0.030214
  10 H :    0.032360
Sum of atomic charges:    0.0000000

LOEWDIN ATOMIC CHARGES
----------------------
   0 C :   -0.050660
   1 H :    0.023717
   2 C :   -0.053893
   3 C :   -0.062170
   4 H :    0.021978
   5 H :    0.018799
   6 H :    0.018161
   7 H :    0.015094
   8 H :    0.022775
   9 H :    0.022719
  10 H :    0.023481

  Mayer bond orders larger than 0.100000
B(  0-C ,  1-H ) :   0.9584 B(  0-C ,  2-C ) :   1.0952 B(  0-C ,  3-C ) :   1.0947
B(  0-C ,  4-H ) :   0.9599 B(  2-C ,  5-H ) :   0.9647 B(  2-C ,  6-H ) :   0.9716
B(  2-C ,  7-H ) :   0.9734 B(  3-C ,  8-H ) :   0.9731 B(  3-C ,  9-H ) :   0.9760
B(  3-C , 10-H ) :   0.9719

Dispersion correction           -0.005038215
FINAL SINGLE POINT ENERGY      -118.888571740696

DIPOLE MOMENT
-------------
                                X             Y             Z
Electronic contribution:      0.07869      -0.28915       0.22546
Nuclear contribution   :     -0.08172       0.30475      -0.19303
                        -----------------------------------------
Total Dipole Moment    :     -0.00302       0.01560       0.03243
                        -----------------------------------------
Magnitude (a.u.)       :      0.03611
Magnitude (Debye)      :      0.09179

Rotational constants in cm-1:     1.020248     0.295755     0.261591
Rotational constants in MHz : 30586.266829  8866.511639  7842.297953

                             ****ORCA TERMINATED NORMALLY****
TOTAL RUN TIME: 0 days 0 hours 0 minutes 8 seconds 813 msec
