                         Program Version 5.0.0 -  RELEASE  -
|  1> !DLPNO-CCSD(T) aug-cc-pVTZ aug-cc-pVTZ/C TightSCF TightPNO RIJCOSX def2/J
|  2> *xyz -1 1
|  3> C         -0.05915        1.50352        3.41058
|  4> C          1.08303        0.74964        4.08571
|  5> O          2.22817        1.26348        4.01983
|  6> O          0.81003       -0.34541        4.63627
|  7> H          0.31461        2.41205        2.98658
|  8> H         -0.81316        1.73160        4.13470
|  9> H         -0.47977        0.89552        2.63708
| 10> *
| 11>
| 12> %MaxCore 64000
| 13>
| 14> %pal nprocs 2
| 15> end
| 16>
| 17> %scf
| 18>   MaxIter 150
| 19> end
| 20>
| 21>
| 22>                          ****END OF INPUT****

CARTESIAN COORDINATES (ANGSTROEM)
---------------------------------
  C     -0.059150    1.503520    3.410580
  C      1.083030    0.749640    4.085710
  O      2.228170    1.263480    4.019830
  O      0.810030   -0.345410    4.636270
  H      0.314610    2.412050    2.986580
  H     -0.813160    1.731600    4.134700
  H     -0.479770    0.895520    2.637080

 Total Charge           Charge          ....   -1
 Multiplicity           Mult            ....    1
 Number of Electrons    NEL             ....   32
 Basis Dimension        Dim             ....  253

ORBITAL ENERGIES
----------------

  NO   OCC          E(Eh)            E(eV)
   0   2.0000     -20.280555      -551.8620
   1   2.0000     -20.279149      -551.8237
   2   2.0000     -11.123824      -302.6946
   3   2.0000     -11.037853      -300.3553
   4   2.0000      -1.159056       -31.5395
   5   2.0000      -1.051919       -28.6242
   6   2.0000      -0.804673       -21.8963
   7   2.0000      -0.510551       -13.8928
   8   2.0000      -0.421852       -11.4792
   9   2.0000      -0.419561       -11.4168
  10   2.0000      -0.412669       -11.2293
  11   2.0000      -0.356406        -9.6983
  12   2.0000      -0.316151        -8.6029
  13   2.0000      -0.195696        -5.3252
  14   2.0000      -0.193547        -5.2667
  15   2.0000      -0.181782        -4.9465
  16   0.0000       0.132623         3.6088
  17   0.0000       0.143235         3.8976
  18   0.0000       0.145467         3.9584
  19   0.0000       0.184392         5.0176
  20   0.0000       0.221179         6.0186

MULLIKEN ATOMIC CHARGES
-----------------------
   0 C :   -0.633412
   1 C :    0.428359
   2 O :   -0.777533
   3 O :   -0.803184
   4 H :    0.301975
   5 H :    0.232675
   6 H :    0.251120
Sum of atomic charges:   -1.0000000

LOEWDIN ATOMIC CHARGES
----------------------
   0 C :    0.480891
   1 C :   -1.233515
   2 O :    0.225059
   3 O :    0.221065
   4 H :   -0.242165
   5 H :   -0.226311
   6 H :   -0.225024

  Mayer bond orders larger than 0.100000
B(  0-C ,  1-C ) :   0.7259 B(  0-C ,  4-H ) :   0.9078 B(  0-C ,  5-H ) :   0.9663
B(  0-C ,  6-H ) :   0.9515 B(  1-C ,  2-O ) :   1.4516 B(  1-C ,  3-O ) :   1.4695

E(0)                                       ...   -227.327892107
E(0)                                       ...   -227.327892107
E(CORR)(strong-pairs)                      ...     -0.836506098
E(CORR)(weak-pairs)                        ...     -0.000622559
E(CORR)(corrected)                         ...     -0.837128657
E(TOT)                                     ...   -228.165020763
E(CCSD(T))                                 ...   -228.201048148
FINAL SINGLE POINT ENERGY      -228.201048148238

DIPOLE MOMENT
-------------
                                X             Y             Z
Electronic contribution:      2.57365      -1.69161       1.51335
Nuclear contribution   :     -3.75920       2.48542      -2.19871
                        -----------------------------------------
Total Dipole Moment    :     -1.18555       0.79381      -0.68536
                        -----------------------------------------
Magnitude (a.u.)       :      1.58284
Magnitude (Debye)      :      4.02327

Rotational constants in cm-1:     0.392838     0.334689     0.186890
Rotational constants in MHz : 11776.984954 10033.729666  5602.815156

                             ****ORCA TERMINATED NORMALLY****
TOTAL RUN TIME: 0 days 0 hours 33 minutes 4 seconds 478 msec
