                         Program Version 5.0.0 -  RELEASE  -
|  1> !DLPNO-CCSD(T) aug-cc-pVTZ aug-cc-pVTZ/C TightSCF TightPNO RIJCOSX def2/J
|  2> *xyz 1 1
|  3> C          4.60295       -2.44010        2.63478
|  4> C          3.86085       -1.59157        3.62289
|  5> N          2.75650       -2.04616        4.16633
|  6> N          4.25433       -0.36291        3.86046
|  7> H          3.56526        0.31099        4.16898
|  8> H          5.05429       -0.01606        3.33784
|  9> H          2.43970       -2.97389        3.89740
| 10> H          2.06687       -1.41253        4.54981
| 11> H          5.47239       -1.91604        2.29664
| 12> H          3.96816       -2.65362        1.80030
| 13> H          4.89801       -3.35632        3.10209
| 14> *
| 15>
| 16> %MaxCore 64000
| 17>
| 18> %pal nprocs 2
| 19> end
| 20>
| 21> %scf
| 22>   MaxIter 150
| 23> end
| 24>
| 25>
| 26>                          ****END OF INPUT****

CARTESIAN COORDINATES (ANGSTROEM)
---------------------------------
  C      4.602950   -2.440100    2.634780
  C      3.860850   -1.591570    3.622890
  N      2.756500   -2.046160    4.166330
  N      4.254330   -0.362910    3.860460
  H      3.565260    0.310990    4.168980
  H      5.054290   -0.016060    3.337840
  H      2.439700   -2.973890    3.897400
  H      2.066870   -1.412530    4.549810
  H      5.472390   -1.916040    2.296640
  H      3.968160   -2.653620    1.800300
  H      4.898010   -3.356320    3.102090

 Total Charge           Charge          ....    1
 Multiplicity           Mult            ....    1
 Number of Electrons    NEL             ....   32
 Basis Dimension        Dim             ....  345

ORBITAL ENERGIES
----------------

  NO   OCC          E(Eh)            E(eV)
   0   2.0000     -15.812664      -430.2845
   1   2.0000     -15.811378      -430.2495
   2   2.0000     -11.580244      -315.1145
   3   2.0000     -11.428687      -310.9904
   4   2.0000      -1.534224       -41.7483
   5   2.0000      -1.412765       -38.4433
   6   2.0000      -1.218740       -33.1636
   7   2.0000      -1.054744       -28.7010
   8   2.0000      -0.962104       -26.1802
   9   2.0000      -0.959352       -26.1053
  10   2.0000      -0.871433       -23.7129
  11   2.0000      -0.829977       -22.5848
  12   2.0000      -0.779196       -21.2030
  13   2.0000      -0.766450       -20.8562
  14   2.0000      -0.729080       -19.8393
  15   2.0000      -0.638593       -17.3770
  16   0.0000      -0.104241        -2.8365
  17   0.0000      -0.077001        -2.0953
  18   0.0000      -0.075591        -2.0569
  19   0.0000      -0.072772        -1.9802
  20   0.0000      -0.051527        -1.4021

MULLIKEN ATOMIC CHARGES
-----------------------
   0 C :   -0.644468
   1 C :    0.608389
   2 N :   -0.324341
   3 N :   -0.319436
   4 H :    0.184729
   5 H :    0.132980
   6 H :    0.131887
   7 H :    0.195297
   8 H :    0.337223
   9 H :    0.346492
  10 H :    0.351249
Sum of atomic charges:    1.0000000

LOEWDIN ATOMIC CHARGES
----------------------
   0 C :    0.706852
   1 C :   -0.220519
   2 N :    0.940950
   3 N :    0.946548
   4 H :   -0.229312
   5 H :   -0.233421
   6 H :   -0.225372
   7 H :   -0.226200
   8 H :   -0.163935
   9 H :   -0.145375
  10 H :   -0.150216

  Mayer bond orders larger than 0.100000
B(  0-C ,  1-C ) :   0.5772 B(  0-C ,  8-H ) :   0.9288 B(  0-C ,  9-H ) :   0.8776
B(  0-C , 10-H ) :   0.9116 B(  1-C ,  2-N ) :   1.0468 B(  1-C ,  3-N ) :   1.0030
B(  2-N ,  6-H ) :   1.0845 B(  2-N ,  7-H ) :   1.0205 B(  3-N ,  4-H ) :   1.0365
B(  3-N ,  5-H ) :   1.0726

E(0)                                       ...   -188.590264282
E(0)                                       ...   -188.590264282
E(CORR)(strong-pairs)                      ...     -0.782235629
E(CORR)(weak-pairs)                        ...     -0.000665890
E(CORR)(corrected)                         ...     -0.782901519
E(TOT)                                     ...   -189.373165802
E(CCSD(T))                                 ...   -189.403956103
FINAL SINGLE POINT ENERGY      -189.403956102923

DIPOLE MOMENT
-------------
                                X             Y             Z
Electronic contribution:     -0.91688       1.10470       1.53963
Nuclear contribution   :      0.47466      -0.79212      -1.71537
                        -----------------------------------------
Total Dipole Moment    :     -0.44222       0.31258      -0.17574
                        -----------------------------------------
Magnitude (a.u.)       :      0.56934
Magnitude (Debye)      :      1.44716

Rotational constants in cm-1:     0.335502     0.299428     0.163704
Rotational constants in MHz : 10058.111638  8976.630214  4907.722182

                             ****ORCA TERMINATED NORMALLY****
TOTAL RUN TIME: 0 days 0 hours 50 minutes 12 seconds 296 msec
