                         Program Version 5.0.0 -  RELEASE  -
|  1> !DLPNO-CCSD(T) aug-cc-pVTZ aug-cc-pVTZ/C TightSCF TightPNO RIJCOSX def2/J
|  2> *xyz 0 1
|  3> C         -0.05915        1.50352        3.41058
|  4> C          1.08303        0.74964        4.08571
|  5> F          2.22817        1.26348        4.01983
|  6> O          0.81003       -0.34541        4.63627
|  7> H          0.31461        2.41205        2.98658
|  8> H         -0.81316        1.73160        4.13470
|  9> H         -0.47977        0.89552        2.63708
| 10> *
| 11>
| 12> %MaxCore 64000
| 13>
| 14> %pal nprocs 2
| 15> end
| 16>
| 17> %scf
| 18>   MaxIter 150
| 19> end
| 20>
| 21>
| 22>                          ****END OF INPUT****

CARTESIAN COORDINATES (ANGSTROEM)
---------------------------------
  C     -0.059150    1.503520    3.410580
  C      1.083030    0.749640    4.085710
  F      2.228170    1.263480    4.019830
  O      0.810030   -0.345410    4.636270
  H      0.314610    2.412050    2.986580
  H     -0.813160    1.731600    4.134700
  H     -0.479770    0.895520    2.637080

 Total Charge           Charge          ....    0
 Multiplicity           Mult            ....    1
 Number of Electrons    NEL             ....   32
 Basis Dimension        Dim             ....  253

ORBITAL ENERGIES
----------------

  NO   OCC          E(Eh)            E(eV)
   0   2.0000     -26.378758      -717.8025
   1   2.0000     -20.564774      -559.5959
   2   2.0000     -11.435965      -311.1884
   3   2.0000     -11.256510      -306.3052
   4   2.0000      -1.732072       -47.1321
   5   2.0000      -1.376118       -37.4461
   6   2.0000      -1.043302       -28.3897
   7   2.0000      -0.901853       -24.5407
   8   2.0000      -0.779779       -21.2189
   9   2.0000      -0.771563       -20.9953
  10   2.0000      -0.711279       -19.3549
  11   2.0000      -0.615185       -16.7400
  12   2.0000      -0.600961       -16.3530
  13   2.0000      -0.587684       -15.9917
  14   2.0000      -0.496435       -13.5087
  15   2.0000      -0.470527       -12.8037
  16   0.0000       0.025527         0.6946
  17   0.0000       0.044575         1.2129
  18   0.0000       0.044636         1.2146
  19   0.0000       0.062759         1.7078
  20   0.0000       0.097571         2.6550

MULLIKEN ATOMIC CHARGES
-----------------------
   0 C :   -0.684897
   1 C :    0.563820
   2 F :   -0.227294
   3 O :   -0.593466
   4 H :    0.327956
   5 H :    0.299339
   6 H :    0.314542
Sum of atomic charges:   -0.0000000

LOEWDIN ATOMIC CHARGES
----------------------
   0 C :    0.583954
   1 C :   -0.930363
   2 F :    0.572364
   3 O :    0.367606
   4 H :   -0.210437
   5 H :   -0.191949
   6 H :   -0.191175

  Mayer bond orders larger than 0.100000
B(  0-C ,  1-C ) :   0.8018 B(  0-C ,  4-H ) :   0.8979 B(  0-C ,  5-H ) :   0.9172
B(  0-C ,  6-H ) :   0.9005 B(  1-C ,  2-F ) :   0.9362 B(  1-C ,  3-O ) :   1.7233

E(0)                                       ...   -251.880358957
E(0)                                       ...   -251.880358957
E(CORR)(strong-pairs)                      ...     -0.838035881
E(CORR)(weak-pairs)                        ...     -0.000616492
E(CORR)(corrected)                         ...     -0.838652373
E(TOT)                                     ...   -252.719011330
E(CCSD(T))                                 ...   -252.751665346
FINAL SINGLE POINT ENERGY      -252.751665346268

DIPOLE MOMENT
-------------
                                X             Y             Z
Electronic contribution:      4.63835      -0.91351       1.49837
Nuclear contribution   :     -5.01294       1.99942      -2.18092
                        -----------------------------------------
Total Dipole Moment    :     -0.37459       1.08592      -0.68255
                        -----------------------------------------
Magnitude (a.u.)       :      1.33619
Magnitude (Debye)      :      3.39633

Rotational constants in cm-1:     0.368501     0.321908     0.177384
Rotational constants in MHz : 11047.396090  9650.552559  5317.833075

                             ****ORCA TERMINATED NORMALLY****
TOTAL RUN TIME: 0 days 0 hours 27 minutes 12 seconds 477 msec
