                         Program Version 5.0.0 -  RELEASE  -
|  1> !DLPNO-CCSD(T) aug-cc-pVTZ aug-cc-pVTZ/C TightSCF TightPNO RIJCOSX def2/J
|  2> *xyz 0 1
|  3> C          4.60295       -2.44010        2.63478
|  4> C          3.86085       -1.59157        3.62289
|  5> C          2.75650       -2.04616        4.16633
|  6> N          4.25433       -0.36291        3.86046
|  7> H          3.56526        0.31099        4.16898
|  8> H          5.05429       -0.01606        3.33784
|  9> H          2.43970       -2.97389        3.89740
| 10> H          2.06687       -1.41253        4.54981
| 11> H          5.47239       -1.91604        2.29664
| 12> H          3.96816       -2.65362        1.80030
| 13> H          4.89801       -3.35632        3.10209
| 14> *
| 15>
| 16> %MaxCore 64000
| 17>
| 18> %pal nprocs 2
| 19> end
| 20>
| 21> %scf
| 22>   MaxIter 150
| 23> end
| 24>
| 25>
| 26>                          ****END OF INPUT****

CARTESIAN COORDINATES (ANGSTROEM)
---------------------------------
  C      4.602950   -2.440100    2.634780
  C      3.860850   -1.591570    3.622890
  C      2.756500   -2.046160    4.166330
  N      4.254330   -0.362910    3.860460
  H      3.565260    0.310990    4.168980
  H      5.054290   -0.016060    3.337840
  H      2.439700   -2.973890    3.897400
  H      2.066870   -1.412530    4.549810
  H      5.472390   -1.916040    2.296640
  H      3.968160   -2.653620    1.800300
  H      4.898010   -3.356320    3.102090

 Total Charge           Charge          ....    0
 Multiplicity           Mult            ....    1
 Number of Electrons    NEL             ....   32
 Basis Dimension        Dim             ....  345

ORBITAL ENERGIES
----------------

  NO   OCC          E(Eh)            E(eV)
   0   2.0000     -15.561582      -423.4522
   1   2.0000     -11.255496      -306.2776
   2   2.0000     -11.217677      -305.2485
   3   2.0000     -11.147167      -303.3298
   4   2.0000      -1.244009       -33.8512
   5   2.0000      -1.028448       -27.9855
   6   2.0000      -0.943278       -25.6679
   7   2.0000      -0.770986       -20.9796
   8   2.0000      -0.705059       -19.1856
   9   2.0000      -0.649531       -17.6746
  10   2.0000      -0.595208       -16.1964
  11   2.0000      -0.556663       -15.1476
  12   2.0000      -0.549806       -14.9610
  13   2.0000      -0.515220       -14.0198
  14   2.0000      -0.480088       -13.0639
  15   2.0000      -0.292109        -7.9487
  16   0.0000       0.026543         0.7223
  17   0.0000       0.037737         1.0269
  18   0.0000       0.041588         1.1317
  19   0.0000       0.050079         1.3627
  20   0.0000       0.057975         1.5776

MULLIKEN ATOMIC CHARGES
-----------------------
   0 C :   -0.737157
   1 C :    0.703514
   2 C :   -1.304804
   3 N :   -0.494208
   4 H :    0.064093
   5 H :    0.090452
   6 H :    0.298328
   7 H :    0.493795
   8 H :    0.284592
   9 H :    0.311786
  10 H :    0.289609
Sum of atomic charges:    0.0000000

LOEWDIN ATOMIC CHARGES
----------------------
   0 C :    0.616820
   1 C :   -0.324423
   2 C :    0.545644
   3 N :    0.833198
   4 H :   -0.269424
   5 H :   -0.281747
   6 H :   -0.293243
   7 H :   -0.290291
   8 H :   -0.192873
   9 H :   -0.170180
  10 H :   -0.173480

  Mayer bond orders larger than 0.100000
B(  0-C ,  1-C ) :   0.7300 B(  0-C ,  8-H ) :   0.9820 B(  0-C ,  9-H ) :   0.8925
B(  0-C , 10-H ) :   0.9992 B(  1-C ,  2-C ) :   1.2345 B(  1-C ,  3-N ) :   0.7540
B(  2-C ,  3-N ) :  -0.1662 B(  2-C ,  6-H ) :   1.1016 B(  2-C ,  7-H ) :   0.7147
B(  3-N ,  4-H ) :   1.1640 B(  3-N ,  5-H ) :   1.0775

E(0)                                       ...   -172.152467616
E(0)                                       ...   -172.152467616
E(CORR)(strong-pairs)                      ...     -0.763105342
E(CORR)(weak-pairs)                        ...     -0.000651543
E(CORR)(corrected)                         ...     -0.763756885
E(TOT)                                     ...   -172.916224501
E(CCSD(T))                                 ...   -172.947167463
FINAL SINGLE POINT ENERGY      -172.947167463180

DIPOLE MOMENT
-------------
                                X             Y             Z
Electronic contribution:      0.15795       1.43859       1.00291
Nuclear contribution   :      0.22927      -0.89318      -1.58153
                        -----------------------------------------
Total Dipole Moment    :      0.38722       0.54541      -0.57861
                        -----------------------------------------
Magnitude (a.u.)       :      0.88442
Magnitude (Debye)      :      2.24801

Rotational constants in cm-1:     0.356805     0.302813     0.169682
Rotational constants in MHz : 10696.748191  9078.116910  5086.926242

                             ****ORCA TERMINATED NORMALLY****
TOTAL RUN TIME: 0 days 0 hours 57 minutes 57 seconds 539 msec
