                         Program Version 5.0.0 -  RELEASE  -
|  1> !DLPNO-CCSD(T) aug-cc-pVTZ aug-cc-pVTZ/C TightSCF TightPNO RIJCOSX def2/J
|  2> *xyz 0 1
|  3> C         -0.05915        1.50352        3.41058
|  4> C          1.08303        0.74964        4.08571
|  5> O          2.22817        1.26348        4.01983
|  6> F          0.81003       -0.34541        4.63627
|  7> H          0.31461        2.41205        2.98658
|  8> H         -0.81316        1.73160        4.13470
|  9> H         -0.47977        0.89552        2.63708
| 10> *
| 11>
| 12> %MaxCore 64000
| 13>
| 14> %pal nprocs 8
| 15> end
| 16>
| 17> %scf
| 18>   MaxIter 150
| 19> end
| 20>
| 21>
| 22>                          ****END OF INPUT****

CARTESIAN COORDINATES (ANGSTROEM)
---------------------------------
  C     -0.059150    1.503520    3.410580
  C      1.083030    0.749640    4.085710
  O      2.228170    1.263480    4.019830
  F      0.810030   -0.345410    4.636270
  H      0.314610    2.412050    2.986580
  H     -0.813160    1.731600    4.134700
  H     -0.479770    0.895520    2.637080

 Total Charge           Charge          ....    0
 Multiplicity           Mult            ....    1
 Number of Electrons    NEL             ....   32
 Basis Dimension        Dim             ....  253

ORBITAL ENERGIES
----------------

  NO   OCC          E(Eh)            E(eV)
   0   2.0000     -26.379347      -717.8185
   1   2.0000     -20.565443      -559.6141
   2   2.0000     -11.435395      -311.1729
   3   2.0000     -11.256312      -306.2998
   4   2.0000      -1.732859       -47.1535
   5   2.0000      -1.375839       -37.4385
   6   2.0000      -1.042967       -28.3806
   7   2.0000      -0.902338       -24.5539
   8   2.0000      -0.779621       -21.2146
   9   2.0000      -0.773050       -21.0358
  10   2.0000      -0.711396       -19.3581
  11   2.0000      -0.613897       -16.7050
  12   2.0000      -0.601828       -16.3766
  13   2.0000      -0.586893       -15.9702
  14   2.0000      -0.498364       -13.5612
  15   2.0000      -0.469497       -12.7757
  16   0.0000       0.025246         0.6870
  17   0.0000       0.041497         1.1292
  18   0.0000       0.048188         1.3113
  19   0.0000       0.063425         1.7259
  20   0.0000       0.097780         2.6607

MULLIKEN ATOMIC CHARGES
-----------------------
   0 C :   -0.726170
   1 C :    0.590282
   2 O :   -0.569303
   3 F :   -0.242220
   4 H :    0.339375
   5 H :    0.294821
   6 H :    0.313215
Sum of atomic charges:   -0.0000000

LOEWDIN ATOMIC CHARGES
----------------------
   0 C :    0.582580
   1 C :   -0.928873
   2 O :    0.370589
   3 F :    0.571140
   4 H :   -0.200167
   5 H :   -0.198258
   6 H :   -0.197012

  Mayer bond orders larger than 0.100000
B(  0-C ,  1-C ) :   0.8546 B(  0-C ,  4-H ) :   0.8922 B(  0-C ,  5-H ) :   0.9241
B(  0-C ,  6-H ) :   0.9054 B(  1-C ,  2-O ) :   1.7096 B(  1-C ,  3-F ) :   0.9253

E(0)                                       ...   -251.880623236
E(0)                                       ...   -251.880623236
E(CORR)(strong-pairs)                      ...     -0.837948500
E(CORR)(weak-pairs)                        ...     -0.000618043
E(CORR)(corrected)                         ...     -0.838566543
E(TOT)                                     ...   -252.719189779
E(CCSD(T))                                 ...   -252.751802942
FINAL SINGLE POINT ENERGY      -252.751802941769

DIPOLE MOMENT
-------------
                                X             Y             Z
Electronic contribution:      2.23732      -3.64253       2.54443
Nuclear contribution   :     -3.54758       3.66189      -2.81789
                        -----------------------------------------
Total Dipole Moment    :     -1.31026       0.01936      -0.27346
                        -----------------------------------------
Magnitude (a.u.)       :      1.33863
Magnitude (Debye)      :      3.40252

Rotational constants in cm-1:     0.369278     0.321254     0.177365
Rotational constants in MHz : 11070.686557  9630.951649  5317.254673

                             ****ORCA TERMINATED NORMALLY****
TOTAL RUN TIME: 0 days 0 hours 2 minutes 25 seconds 667 msec
