                         Program Version 5.0.0 -  RELEASE  -
|  1> !DLPNO-CCSD(T) aug-cc-pVTZ aug-cc-pVTZ/C TightSCF TightPNO RIJCOSX def2/J
|  2> *xyz 0 1
|  3> C          4.60295       -2.44010        2.63478
|  4> C          3.86085       -1.59157        3.62289
|  5> N          2.75650       -2.04616        4.16633
|  6> C          4.25433       -0.36291        3.86046
|  7> H          3.56526        0.31099        4.16898
|  8> H          5.05429       -0.01606        3.33784
|  9> H          2.43970       -2.97389        3.89740
| 10> H          2.06687       -1.41253        4.54981
| 11> H          5.47239       -1.91604        2.29664
| 12> H          3.96816       -2.65362        1.80030
| 13> H          4.89801       -3.35632        3.10209
| 14> *
| 15>
| 16> %MaxCore 64000
| 17>
| 18> %pal nprocs 2
| 19> end
| 20>
| 21> %scf
| 22>   MaxIter 150
| 23> end
| 24>
| 25>
| 26>                          ****END OF INPUT****

CARTESIAN COORDINATES (ANGSTROEM)
---------------------------------
  C      4.602950   -2.440100    2.634780
  C      3.860850   -1.591570    3.622890
  N      2.756500   -2.046160    4.166330
  C      4.254330   -0.362910    3.860460
  H      3.565260    0.310990    4.168980
  H      5.054290   -0.016060    3.337840
  H      2.439700   -2.973890    3.897400
  H      2.066870   -1.412530    4.549810
  H      5.472390   -1.916040    2.296640
  H      3.968160   -2.653620    1.800300
  H      4.898010   -3.356320    3.102090

 Total Charge           Charge          ....    0
 Multiplicity           Mult            ....    1
 Number of Electrons    NEL             ....   32
 Basis Dimension        Dim             ....  345

ORBITAL ENERGIES
----------------

  NO   OCC          E(Eh)            E(eV)
   0   2.0000     -15.561385      -423.4468
   1   2.0000     -11.256829      -306.3139
   2   2.0000     -11.217697      -305.2491
   3   2.0000     -11.149799      -303.4014
   4   2.0000      -1.243198       -33.8291
   5   2.0000      -1.029391       -28.0112
   6   2.0000      -0.944486       -25.7008
   7   2.0000      -0.774077       -21.0637
   8   2.0000      -0.703085       -19.1319
   9   2.0000      -0.649377       -17.6704
  10   2.0000      -0.597147       -16.2492
  11   2.0000      -0.556009       -15.1298
  12   2.0000      -0.551869       -15.0171
  13   2.0000      -0.513041       -13.9606
  14   2.0000      -0.477942       -13.0055
  15   2.0000      -0.295111        -8.0304
  16   0.0000       0.026288         0.7153
  17   0.0000       0.037826         1.0293
  18   0.0000       0.041857         1.1390
  19   0.0000       0.047296         1.2870
  20   0.0000       0.058017         1.5787

MULLIKEN ATOMIC CHARGES
-----------------------
   0 C :   -0.696710
   1 C :    0.842978
   2 N :   -0.539795
   3 C :   -1.389150
   4 H :    0.489137
   5 H :    0.226549
   6 H :    0.081743
   7 H :    0.084709
   8 H :    0.317327
   9 H :    0.290126
  10 H :    0.293087
Sum of atomic charges:    0.0000000

LOEWDIN ATOMIC CHARGES
----------------------
   0 C :    0.613999
   1 C :   -0.323836
   2 N :    0.829829
   3 C :    0.552970
   4 H :   -0.292355
   5 H :   -0.301271
   6 H :   -0.273221
   7 H :   -0.266535
   8 H :   -0.187154
   9 H :   -0.172856
  10 H :   -0.179571

  Mayer bond orders larger than 0.100000
B(  0-C ,  1-C ) :   0.5434 B(  0-C ,  8-H ) :   0.9473 B(  0-C ,  9-H ) :   0.9507
B(  0-C , 10-H ) :   1.0102 B(  1-C ,  2-N ) :   0.7941 B(  1-C ,  3-C ) :   1.1129
B(  2-N ,  3-C ) :  -0.1671 B(  2-N ,  6-H ) :   1.1051 B(  2-N ,  7-H ) :   1.1406
B(  3-C ,  4-H ) :   0.6945 B(  3-C ,  5-H ) :   1.2257

E(0)                                       ...   -172.153703076
E(0)                                       ...   -172.153703076
E(CORR)(strong-pairs)                      ...     -0.762968356
E(CORR)(weak-pairs)                        ...     -0.000654766
E(CORR)(corrected)                         ...     -0.763623122
E(TOT)                                     ...   -172.917326198
E(CCSD(T))                                 ...   -172.948287425
FINAL SINGLE POINT ENERGY      -172.948287425135

DIPOLE MOMENT
-------------
                                X             Y             Z
Electronic contribution:     -1.18218      -0.04938       1.30871
Nuclear contribution   :      0.56519      -0.51568      -1.65012
                        -----------------------------------------
Total Dipole Moment    :     -0.61700      -0.56506      -0.34142
                        -----------------------------------------
Magnitude (a.u.)       :      0.90363
Magnitude (Debye)      :      2.29684

Rotational constants in cm-1:     0.356673     0.303029     0.169717
Rotational constants in MHz : 10692.789749  9084.577259  5087.998414

                             ****ORCA TERMINATED NORMALLY****
TOTAL RUN TIME: 0 days 0 hours 58 minutes 29 seconds 484 msec
