                         Program Version 5.0.0 -  RELEASE  -
|  1> !DLPNO-CCSD(T) aug-cc-pVTZ aug-cc-pVTZ/C TightSCF TightPNO RIJCOSX def2/J
|  2>
|  3> *xyzfile 0 1 D2.xyz
|  4>
|  5> %MaxCore 64000
|  6>
|  7> %pal nprocs 18
|  8> end
|  9>
| 10> %scf
| 11>   MaxIter 150
| 12> end
| 13>
| 14>
| 15>                          ****END OF INPUT****

CARTESIAN COORDINATES (ANGSTROEM)
---------------------------------
  C      4.602954   -2.440100    2.634780
  C     -0.914947    0.615112    2.505538
  C     -0.059146    1.503524    3.410578
  H      0.365364    2.344315    2.861161
  H     -0.692261    1.920207    4.198985
  C      1.083027    0.749640    4.085705
  C      3.860851   -1.591565    3.622893
  N      2.756502   -2.046159    4.166333
  C      4.254325   -0.362905    3.860455
  H      3.565256    0.310994    4.168983
  H      5.054292   -0.016059    3.337838
  H      2.439696   -2.973894    3.897395
  H      2.066869   -1.412532    4.549813
  F      2.228167    1.263475    4.019826
  O      0.810034   -0.345411    4.636269
  C      3.744685   -2.580557    1.361882
  C      0.772139    0.636882    0.562129
  C     -0.130740   -0.193985    1.470763
  H     -0.840563   -0.760165    0.856377
  H      0.466691   -0.938942    2.006959
  H     -1.647961    1.245963    1.991076
  H     -1.478180   -0.081046    3.130424
  C      3.203721   -1.256004    0.826211
  H      2.898939   -3.239289    1.583074
  H      4.334962   -3.095523    0.600188
  C      2.107815   -1.442385   -0.216865
  H      2.786775   -0.672760    1.650711
  H      4.021008   -0.652993    0.414046
  C      1.390662   -0.145912   -0.602422
  H      1.372179   -2.152184    0.176151
  H      2.523302   -1.906787   -1.117115
  H      1.561361    1.100094    1.161831
  H      0.195516    1.468325    0.142758
  H      0.602893   -0.398214   -1.319716
  H      2.087247    0.508272   -1.137335
  H      5.561557   -1.971347    2.407084
  H      4.810498   -3.422552    3.063099

 Total Charge           Charge          ....    0
 Multiplicity           Mult            ....    1
 Number of Electrons    NEL             ....  118
 Basis Dimension        Dim             .... 1196

ORBITAL ENERGIES
----------------

  NO   OCC          E(Eh)            E(eV)
   0   2.0000     -26.389923      -718.1063
   1   2.0000     -20.582748      -560.0850
   2   2.0000     -15.520722      -422.3403
   3   2.0000     -11.452852      -311.6479
   4   2.0000     -11.269611      -306.6617
   5   2.0000     -11.245295      -306.0000
   6   2.0000     -11.231455      -305.6234
   7   2.0000     -11.228385      -305.5399
   8   2.0000     -11.225906      -305.4724
   9   2.0000     -11.220179      -305.3166
  10   2.0000     -11.215218      -305.1816
  11   2.0000     -11.213258      -305.1283
  12   2.0000     -11.211556      -305.0819
  13   2.0000     -11.206935      -304.9562
  14   2.0000     -11.119837      -302.5862
  15   2.0000      -1.750021       -47.6205
  16   2.0000      -1.404918       -38.2298
  17   2.0000      -1.216650       -33.1067
  18   2.0000      -1.117090       -30.3976
  19   2.0000      -1.085895       -29.5487
  20   2.0000      -1.053475       -28.6665
  21   2.0000      -1.011435       -27.5225
  22   2.0000      -0.975034       -26.5320
  23   2.0000      -0.955803       -26.0087
  24   2.0000      -0.913248       -24.8507
  25   2.0000      -0.884228       -24.0611
  26   2.0000      -0.838901       -22.8277
  27   2.0000      -0.803516       -21.8648
  28   2.0000      -0.791037       -21.5252
  29   2.0000      -0.788644       -21.4601
  30   2.0000      -0.767005       -20.8713
  31   2.0000      -0.753887       -20.5143
  32   2.0000      -0.723929       -19.6991
  33   2.0000      -0.677483       -18.4353
  34   2.0000      -0.659717       -17.9518
  35   2.0000      -0.650583       -17.7033
  36   2.0000      -0.636328       -17.3154
  37   2.0000      -0.625161       -17.0115
  38   2.0000      -0.617149       -16.7935
  39   2.0000      -0.596619       -16.2348
  40   2.0000      -0.581472       -15.8227
  41   2.0000      -0.574999       -15.6465
  42   2.0000      -0.566016       -15.4021
  43   2.0000      -0.548356       -14.9215
  44   2.0000      -0.535541       -14.5728
  45   2.0000      -0.526027       -14.3139
  46   2.0000      -0.522854       -14.2276
  47   2.0000      -0.517778       -14.0895
  48   2.0000      -0.500533       -13.6202
  49   2.0000      -0.495066       -13.4714
  50   2.0000      -0.487441       -13.2639
  51   2.0000      -0.478977       -13.0336
  52   2.0000      -0.463641       -12.6163
  53   2.0000      -0.461521       -12.5586
  54   2.0000      -0.457907       -12.4603
  55   2.0000      -0.450112       -12.2482
  56   2.0000      -0.438635       -11.9359
  57   2.0000      -0.433042       -11.7837
  58   2.0000      -0.269336        -7.3290
  59   0.0000       0.021702         0.5906
  60   0.0000       0.028567         0.7773
  61   0.0000       0.030855         0.8396
  62   0.0000       0.034081         0.9274
  63   0.0000       0.042750         1.1633

MULLIKEN ATOMIC CHARGES
-----------------------
   0 C :   -0.383069
   1 C :   -0.518394
   2 C :   -0.354334
   3 H :    0.207043
   4 H :    0.371273
   5 C :    1.073001
   6 C :    1.151956
   7 N :   -1.005306
   8 C :   -1.396120
   9 H :    0.871093
  10 H :    0.060849
  11 H :   -0.084135
  12 H :    0.228022
  13 F :   -0.479168
  14 O :   -0.886298
  15 C :   -0.635774
  16 C :   -0.310093
  17 C :   -0.557022
  18 H :    0.461574
  19 H :    0.247158
  20 H :    0.242559
  21 H :    0.203884
  22 C :   -0.432604
  23 H :    0.214341
  24 H :    0.347863
  25 C :   -0.374429
  26 H :    0.437183
  27 H :    0.236619
  28 C :   -0.842708
  29 H :   -0.030529
  30 H :    0.519515
  31 H :    0.138316
  32 H :    0.535371
  33 H :    0.124132
  34 H :    0.164124
  35 H :    0.106881
  36 H :    0.347225
Sum of atomic charges:    0.0000000

LOEWDIN ATOMIC CHARGES
----------------------
   0 C :    0.316103
   1 C :    0.292553
   2 C :    0.292164
   3 H :   -0.166782
   4 H :   -0.142804
   5 C :   -0.770298
   6 C :   -0.319412
   7 N :    0.860492
   8 C :    0.553228
   9 H :   -0.516379
  10 H :   -0.280778
  11 H :   -0.259944
  12 H :   -0.579878
  13 F :    0.733363
  14 O :    0.571835
  15 C :    0.305354
  16 C :    0.283488
  17 C :    0.280681
  18 H :   -0.124426
  19 H :   -0.164776
  20 H :   -0.134398
  21 H :   -0.143634
  22 C :    0.280148
  23 H :   -0.152870
  24 H :   -0.136215
  25 C :    0.287495
  26 H :   -0.207445
  27 H :   -0.115253
  28 C :    0.306638
  29 H :   -0.152808
  30 H :   -0.133057
  31 H :   -0.160007
  32 H :   -0.134215
  33 H :   -0.142584
  34 H :   -0.138360
  35 H :   -0.148517
  36 H :   -0.138702

  Mayer bond orders larger than 0.100000
B(  0-C ,  6-C ) :   0.5940 B(  0-C ,  7-N ) :  -0.1783 B(  0-C ,  8-C ) :  -0.1408
B(  0-C , 15-C ) :   1.0342 B(  0-C , 35-H ) :   1.1903 B(  0-C , 36-H ) :   0.9339
B(  1-C ,  2-C ) :   0.9138 B(  1-C ,  5-C ) :   0.1121 B(  1-C , 17-C ) :   0.8784
B(  1-C , 20-H ) :   0.9575 B(  1-C , 21-H ) :   1.0027 B(  2-C ,  3-H ) :   1.0097
B(  2-C ,  4-H ) :   0.8976 B(  2-C ,  5-C ) :   0.7529 B(  5-C , 13-F ) :   0.5985
B(  5-C , 14-O ) :   1.2493 B(  6-C ,  7-N ) :   0.4271 B(  6-C ,  8-C ) :   1.1786
B(  6-C , 10-H ) :  -0.2364 B(  6-C , 11-H ) :  -0.1823 B(  6-C , 36-H ) :  -0.1366
B(  7-N ,  8-C ) :  -0.1474 B(  7-N , 11-H ) :   1.3485 B(  7-N , 12-H ) :   0.9084
B(  8-C ,  9-H ) :   0.1246 B(  8-C , 10-H ) :   1.6725 B(  8-C , 13-F ) :  -0.1134
B(  9-H , 13-F ) :  -0.1063 B( 15-C , 22-C ) :   0.7847 B( 15-C , 23-H ) :   1.0134
B( 15-C , 24-H ) :   0.8844 B( 16-C , 17-C ) :   0.8102 B( 16-C , 28-C ) :   0.9696
B( 16-C , 31-H ) :   1.1041 B( 16-C , 32-H ) :   0.6954 B( 17-C , 18-H ) :   0.7685
B( 17-C , 19-H ) :   1.0710 B( 22-C , 25-C ) :   0.8641 B( 22-C , 26-H ) :   0.9640
B( 22-C , 27-H ) :   0.9710 B( 25-C , 28-C ) :   0.8885 B( 25-C , 29-H ) :   1.2109
B( 25-C , 30-H ) :   0.7079 B( 28-C , 31-H ) :   0.1085 B( 28-C , 33-H ) :   1.1176
B( 28-C , 34-H ) :   1.0572

E(0)                                       ...   -696.159721108
E(0)                                       ...   -696.159721108
E(CORR)(strong-pairs)                      ...     -2.897628840
E(CORR)(weak-pairs)                        ...     -0.005578589
E(CORR)(corrected)                         ...     -2.903207429
E(TOT)                                     ...   -699.062928537
E(CCSD(T))                                 ...   -699.184568206
FINAL SINGLE POINT ENERGY      -699.184568205801

DIPOLE MOMENT
-------------
                                X             Y             Z
Electronic contribution:      0.00650       6.31761      14.97922
Nuclear contribution   :     -1.39991      -5.60370     -16.00470
                        -----------------------------------------
Total Dipole Moment    :     -1.39341       0.71390      -1.02548
                        -----------------------------------------
Magnitude (a.u.)       :      1.87159
Magnitude (Debye)      :      4.75720

Rotational constants in cm-1:     0.021622     0.017313     0.011402
Rotational constants in MHz :   648.226014   519.043632   341.814105

                             ****ORCA TERMINATED NORMALLY****
TOTAL RUN TIME: 0 days 6 hours 40 minutes 2 seconds 314 msec
