                         Program Version 5.0.0 -  RELEASE  -
|  1> !M062X D3Zero RIJCOSX def2-SVPD def2/J TightSCF
|  2> *xyz -1 1
|  3> C         -0.01741        0.08059       -2.77841
|  4> C         -0.90349       -0.87394       -1.98739
|  5> H         -0.50255       -1.89210       -2.08120
|  6> H         -1.91704       -0.89543       -2.40628
|  7> C         -0.96015       -0.52236       -0.48987
|  8> H         -1.69039       -1.20813       -0.02168
|  9> H         -1.41449        0.48633       -0.40668
| 10> O          0.26170       -0.58031        0.13861
| 11> H         -0.01329       -0.20776       -3.80881
| 12> H          0.98025        0.04284       -2.39348
| 13> H         -0.39697        1.07694       -2.68836
| 14> *
| 15>
| 16> %MaxCore 64000
| 17>
| 18> %pal nprocs 4
| 19> end
| 20>
| 21> %scf
| 22>   MaxIter 150
| 23> end
| 24>
| 25>
| 26>                          ****END OF INPUT****

CARTESIAN COORDINATES (ANGSTROEM)
---------------------------------
  C     -0.017410    0.080590   -2.778410
  C     -0.903490   -0.873940   -1.987390
  H     -0.502550   -1.892100   -2.081200
  H     -1.917040   -0.895430   -2.406280
  C     -0.960150   -0.522360   -0.489870
  H     -1.690390   -1.208130   -0.021680
  H     -1.414490    0.486330   -0.406680
  O      0.261700   -0.580310    0.138610
  H     -0.013290   -0.207760   -3.808810
  H      0.980250    0.042840   -2.393480
  H     -0.396970    1.076940   -2.688360

 Total Charge           Charge          ....   -1
 Multiplicity           Mult            ....    1
 Number of Electrons    NEL             ....   34
 Basis Dimension        Dim             ....  139

ORBITAL ENERGIES
----------------

  NO   OCC          E(Eh)            E(eV)
   0   2.0000     -19.302418      -525.2455
   1   2.0000     -10.367566      -282.1158
   2   2.0000     -10.365157      -282.0503
   3   2.0000     -10.358384      -281.8660
   4   2.0000      -0.780719       -21.2445
   5   2.0000      -0.673025       -18.3139
   6   2.0000      -0.548293       -14.9198
   7   2.0000      -0.441235       -12.0066
   8   2.0000      -0.343519        -9.3476
   9   2.0000      -0.335164        -9.1203
  10   2.0000      -0.284738        -7.7481
  11   2.0000      -0.250790        -6.8244
  12   2.0000      -0.222643        -6.0584
  13   2.0000      -0.214339        -5.8325
  14   2.0000      -0.175778        -4.7832
  15   2.0000      -0.036558        -0.9948
  16   2.0000      -0.033494        -0.9114
  17   0.0000       0.184252         5.0138
  18   0.0000       0.210934         5.7398
  19   0.0000       0.227974         6.2035
  20   0.0000       0.262588         7.1454
  21   0.0000       0.277316         7.5461

MULLIKEN ATOMIC CHARGES
-----------------------
   0 C :    0.595911
   1 C :   -0.469451
   2 H :   -0.084414
   3 H :   -0.117856
   4 C :    0.465698
   5 H :   -0.174939
   6 H :   -0.108807
   7 O :   -0.911346
   8 H :   -0.097338
   9 H :   -0.027925
  10 H :   -0.069533
Sum of atomic charges:   -1.0000000

LOEWDIN ATOMIC CHARGES
----------------------
   0 C :    0.085878
   1 C :   -0.119451
   2 H :    0.004906
   3 H :   -0.010584
   4 C :   -0.211945
   5 H :   -0.031356
   6 H :   -0.025749
   7 O :   -0.580408
   8 H :   -0.048208
   9 H :   -0.029617
  10 H :   -0.033466

  Mayer bond orders larger than 0.100000
B(  0-C ,  1-C ) :   1.2750 B(  0-C ,  8-H ) :   0.8039 B(  0-C ,  9-H ) :   0.8334
B(  0-C , 10-H ) :   0.8260 B(  1-C ,  2-H ) :   0.9719 B(  1-C ,  3-H ) :   1.0067
B(  1-C ,  4-C ) :   1.0351 B(  1-C ,  5-H ) :   0.1352 B(  1-C ,  6-H ) :   0.1113
B(  1-C ,  8-H ) :   0.1938 B(  1-C ,  9-H ) :   0.2073 B(  1-C , 10-H ) :   0.1816
B(  2-H ,  4-C ) :   0.1262 B(  4-C ,  5-H ) :   0.9630 B(  4-C ,  6-H ) :   0.9486
B(  4-C ,  7-O ) :   1.1350

Dispersion correction           -0.000079601
FINAL SINGLE POINT ENERGY      -193.501975129924

DIPOLE MOMENT
-------------
                                X             Y             Z
Electronic contribution:      1.19908      -0.49313       2.65828
Nuclear contribution   :     -2.03764       0.64089      -4.61583
                        -----------------------------------------
Total Dipole Moment    :     -0.83856       0.14776      -1.95755
                        -----------------------------------------
Magnitude (a.u.)       :      2.13472
Magnitude (Debye)      :      5.42602

Rotational constants in cm-1:     0.508897     0.174909     0.148249
Rotational constants in MHz : 15256.351998  5243.652192  4444.387232

                             ****ORCA TERMINATED NORMALLY****
TOTAL RUN TIME: 0 days 0 hours 0 minutes 11 seconds 428 msec
