                         Program Version 5.0.0 -  RELEASE  -
|  1> !M062X D3Zero RIJCOSX def2-SVPD def2/J TightSCF
|  2> *xyz 1 1
|  3> C          4.36645       -0.13321       -1.41606
|  4> C          4.50829       -0.93187       -2.72425
|  5> H          4.75372       -1.97205       -2.48841
|  6> C          3.29416       -0.91821       -3.65657
|  7> H          5.38564       -0.53624       -3.24264
|  8> C          3.05650       -0.32080       -0.70738
|  9> N          2.38983        0.71129       -0.24391
| 10> N          2.51600       -1.50772       -0.55023
| 11> H          2.96768       -2.32291       -0.95631
| 12> H          1.54987       -1.49063       -0.24988
| 13> H          2.74307        1.64947       -0.41280
| 14> H          1.44036        0.50278        0.03703
| 15> H          4.48784        0.93300       -1.61157
| 16> H          5.16967       -0.41443       -0.72982
| 17> H          3.50670       -1.50229       -4.52754
| 18> H          3.07837        0.08892       -3.94644
| 19> H          2.44880       -1.33173       -3.14739
| 20> *
| 21>
| 22> %MaxCore 64000
| 23>
| 24> %pal nprocs 4
| 25> end
| 26>
| 27> %scf
| 28>   MaxIter 150
| 29> end
| 30>
| 31>
| 32>                          ****END OF INPUT****

CARTESIAN COORDINATES (ANGSTROEM)
---------------------------------
  C      4.366450   -0.133210   -1.416060
  C      4.508290   -0.931870   -2.724250
  H      4.753720   -1.972050   -2.488410
  C      3.294160   -0.918210   -3.656570
  H      5.385640   -0.536240   -3.242640
  C      3.056500   -0.320800   -0.707380
  N      2.389830    0.711290   -0.243910
  N      2.516000   -1.507720   -0.550230
  H      2.967680   -2.322910   -0.956310
  H      1.549870   -1.490630   -0.249880
  H      2.743070    1.649470   -0.412800
  H      1.440360    0.502780    0.037030
  H      4.487840    0.933000   -1.611570
  H      5.169670   -0.414430   -0.729820
  H      3.506700   -1.502290   -4.527540
  H      3.078370    0.088920   -3.946440
  H      2.448800   -1.331730   -3.147390

 Total Charge           Charge          ....    1
 Multiplicity           Mult            ....    1
 Number of Electrons    NEL             ....   48
 Basis Dimension        Dim             ....  208

ORBITAL ENERGIES
----------------

  NO   OCC          E(Eh)            E(eV)
   0   2.0000     -15.007882      -408.3852
   1   2.0000     -15.005999      -408.3340
   2   2.0000     -10.874626      -295.9136
   3   2.0000     -10.748036      -292.4689
   4   2.0000     -10.714897      -291.5672
   5   2.0000     -10.681089      -290.6472
   6   2.0000      -1.312211       -35.7071
   7   2.0000      -1.198126       -32.6027
   8   2.0000      -1.065185       -28.9852
   9   2.0000      -0.975141       -26.5349
  10   2.0000      -0.910953       -24.7883
  11   2.0000      -0.870787       -23.6953
  12   2.0000      -0.840920       -22.8826
  13   2.0000      -0.809264       -22.0212
  14   2.0000      -0.772537       -21.0218
  15   2.0000      -0.732403       -19.9297
  16   2.0000      -0.700909       -19.0727
  17   2.0000      -0.661278       -17.9943
  18   2.0000      -0.646947       -17.6043
  19   2.0000      -0.627587       -17.0775
  20   2.0000      -0.569723       -15.5029
  21   2.0000      -0.565209       -15.3801
  22   2.0000      -0.557263       -15.1639
  23   2.0000      -0.548134       -14.9155
  24   0.0000      -0.173265        -4.7148
  25   0.0000      -0.135973        -3.7000
  26   0.0000      -0.096482        -2.6254
  27   0.0000      -0.093842        -2.5536
  28   0.0000      -0.064084        -1.7438

MULLIKEN ATOMIC CHARGES
-----------------------
   0 C :    0.231201
   1 C :   -0.457147
   2 H :   -0.007705
   3 C :    0.721443
   4 H :   -0.157224
   5 C :    0.573364
   6 N :    0.021289
   7 N :   -0.003493
   8 H :    0.055237
   9 H :   -0.068988
  10 H :    0.024911
  11 H :   -0.063058
  12 H :    0.187912
  13 H :    0.004515
  14 H :   -0.019413
  15 H :    0.013670
  16 H :   -0.056511
Sum of atomic charges:    1.0000000

LOEWDIN ATOMIC CHARGES
----------------------
   0 C :    0.055218
   1 C :   -0.048071
   2 H :    0.025237
   3 C :    0.145588
   4 H :    0.039916
   5 C :   -0.044660
   6 N :    0.278271
   7 N :    0.282481
   8 H :    0.056160
   9 H :    0.047096
  10 H :    0.059685
  11 H :    0.045132
  12 H :    0.038721
  13 H :    0.056928
  14 H :    0.002437
  15 H :   -0.004216
  16 H :   -0.035922

  Mayer bond orders larger than 0.100000
B(  0-C ,  1-C ) :   1.2271 B(  0-C ,  2-H ) :   0.1121 B(  0-C ,  4-H ) :   0.1193
B(  0-C ,  5-C ) :   1.1746 B(  0-C , 12-H ) :   0.7735 B(  0-C , 13-H ) :   0.7902
B(  1-C ,  2-H ) :   0.9215 B(  1-C ,  3-C ) :   1.3553 B(  1-C ,  4-H ) :   1.0093
B(  1-C , 12-H ) :   0.1412 B(  1-C , 14-H ) :   0.2166 B(  1-C , 15-H ) :   0.2109
B(  1-C , 16-H ) :   0.2179 B(  3-C , 14-H ) :   0.7690 B(  3-C , 15-H ) :   0.7853
B(  3-C , 16-H ) :   0.8239 B(  5-C ,  6-N ) :   1.0523 B(  5-C ,  7-N ) :   1.1235
B(  5-C ,  9-H ) :  -0.1452 B(  5-C , 11-H ) :  -0.1036 B(  5-C , 12-H ) :   0.1433
B(  5-C , 13-H ) :   0.1837 B(  6-N ,  7-N ) :   0.2007 B(  6-N , 10-H ) :   1.1296
B(  6-N , 11-H ) :   1.1920 B(  7-N ,  8-H ) :   1.0301 B(  7-N ,  9-H ) :   1.2593
B(  8-H ,  9-H ) :  -0.1859 B( 10-H , 11-H ) :  -0.1582

Dispersion correction           -0.000353313
FINAL SINGLE POINT ENERGY      -268.017530952360

DIPOLE MOMENT
-------------
                                X             Y             Z
Electronic contribution:     -1.78636       0.89483       5.02139
Nuclear contribution   :      0.92830      -0.63755      -3.99475
                        -----------------------------------------
Total Dipole Moment    :     -0.85806       0.25728       1.02664
                        -----------------------------------------
Magnitude (a.u.)       :      1.36251
Magnitude (Debye)      :      3.46323

Rotational constants in cm-1:     0.183706     0.077449     0.071296
Rotational constants in MHz :  5507.368439  2321.870034  2137.394204

                             ****ORCA TERMINATED NORMALLY****
TOTAL RUN TIME: 0 days 0 hours 0 minutes 24 seconds 129 msec
