                         Program Version 5.0.0 -  RELEASE  -
|  1> !M062X D3Zero RIJCOSX def2-SVPD def2/J TightSCF xyzfile
|  2>
|  3> *xyzfile 0 1 B.xyz
|  4>
|  5> %MaxCore 64000
|  6>
|  7> %pal nprocs 4
|  8> end
|  9>
| 10> %scf
| 11>   MaxIter 150
| 12> end
| 13>
| 14>
| 15>                          ****END OF INPUT****

CARTESIAN COORDINATES (ANGSTROEM)
---------------------------------
  C      4.366454   -0.133215   -1.416062
  C      4.508292   -0.931872   -2.724249
  H      4.753716   -1.972051   -2.488408
  C      3.294164   -0.918214   -3.656570
  H      5.385637   -0.536236   -3.242640
  H      2.483463   -1.477378   -3.185764
  H      3.553092   -1.478495   -4.560331
  C      2.772335    0.460100   -4.051448
  H      2.608762    1.065107   -3.155194
  C      1.465354    0.410537   -4.853644
  H      3.532940    0.988848   -4.635671
  C      0.326171   -0.375613   -4.192580
  H      1.666704   -0.022269   -5.839323
  H      1.138198    1.439246   -5.035449
  C     -0.017405    0.080588   -2.778406
  H      0.585573   -1.439385   -4.168057
  H     -0.560005   -0.311425   -4.831461
  H      0.902090    0.201296   -2.206729
  C     -0.903495   -0.873945   -1.987388
  H     -0.479549    1.074657   -2.811915
  H     -0.502554   -1.892096   -2.081204
  H     -1.917039   -0.895427   -2.406277
  C     -0.960148   -0.522365   -0.489867
  H     -1.690392   -1.208130   -0.021677
  H     -1.414490    0.486329   -0.406677
  O      0.261703   -0.580307    0.138611
  C      3.056503   -0.320797   -0.707384
  N      2.389825    0.711285   -0.243909
  N      2.515999   -1.507721   -0.550229
  H      2.967683   -2.322915   -0.956305
  H      1.549872   -1.490634   -0.249876
  H      2.743071    1.649471   -0.412802
  H      1.440364    0.502778    0.037031
  H      4.487835    0.932997   -1.611569
  H      5.169672   -0.414432   -0.729817

 Total Charge           Charge          ....    0
 Multiplicity           Mult            ....    1
 Number of Electrons    NEL             ....  104
 Basis Dimension        Dim             ....  439

ORBITAL ENERGIES
----------------

  NO   OCC          E(Eh)            E(eV)
   0   2.0000     -19.509892      -530.8911
   1   2.0000     -14.791361      -402.4934
   2   2.0000     -14.791103      -402.4864
   3   2.0000     -10.680483      -290.6307
   4   2.0000     -10.597011      -288.3593
   5   2.0000     -10.581959      -287.9497
   6   2.0000     -10.560441      -287.3642
   7   2.0000     -10.554042      -287.1901
   8   2.0000     -10.544999      -286.9440
   9   2.0000     -10.534034      -286.6456
  10   2.0000     -10.532311      -286.5987
  11   2.0000     -10.520719      -286.2833
  12   2.0000     -10.506947      -285.9086
  13   2.0000      -1.109682       -30.1960
  14   2.0000      -0.993968       -27.0472
  15   2.0000      -0.990358       -26.9490
  16   2.0000      -0.927649       -25.2426
  17   2.0000      -0.890014       -24.2185
  18   2.0000      -0.848382       -23.0857
  19   2.0000      -0.806042       -21.9335
  20   2.0000      -0.766003       -20.8440
  21   2.0000      -0.719835       -19.5877
  22   2.0000      -0.702658       -19.1203
  23   2.0000      -0.690267       -18.7831
  24   2.0000      -0.646315       -17.5871
  25   2.0000      -0.629311       -17.1244
  26   2.0000      -0.626713       -17.0537
  27   2.0000      -0.601580       -16.3698
  28   2.0000      -0.576369       -15.6838
  29   2.0000      -0.573069       -15.5940
  30   2.0000      -0.555859       -15.1257
  31   2.0000      -0.534254       -14.5378
  32   2.0000      -0.517827       -14.0908
  33   2.0000      -0.497624       -13.5410
  34   2.0000      -0.488136       -13.2829
  35   2.0000      -0.481234       -13.0951
  36   2.0000      -0.475316       -12.9340
  37   2.0000      -0.470357       -12.7991
  38   2.0000      -0.446589       -12.1523
  39   2.0000      -0.436317       -11.8728
  40   2.0000      -0.425516       -11.5789
  41   2.0000      -0.416521       -11.3341
  42   2.0000      -0.405237       -11.0270
  43   2.0000      -0.401487       -10.9250
  44   2.0000      -0.382929       -10.4200
  45   2.0000      -0.374760       -10.1977
  46   2.0000      -0.363835        -9.9004
  47   2.0000      -0.360718        -9.8156
  48   2.0000      -0.356425        -9.6988
  49   2.0000      -0.345107        -9.3909
  50   2.0000      -0.247683        -6.7398
  51   2.0000      -0.243625        -6.6294
  52   0.0000       0.007713         0.2099
  53   0.0000       0.018146         0.4938
  54   0.0000       0.032238         0.8773
  55   0.0000       0.047194         1.2842
  56   0.0000       0.054595         1.4856

MULLIKEN ATOMIC CHARGES
-----------------------
   0 C :    0.369913
   1 C :    0.431918
   2 H :   -0.007767
   3 C :   -0.070505
   4 H :   -0.149425
   5 H :   -0.000901
   6 H :   -0.173217
   7 C :   -0.009903
   8 H :    0.087852
   9 C :    0.776982
  10 H :   -0.425760
  11 C :    0.118459
  12 H :   -0.033263
  13 H :   -0.004890
  14 C :    0.704189
  15 H :    0.163186
  16 H :   -0.494370
  17 H :   -1.057710
  18 C :    0.156841
  19 H :    0.007861
  20 H :   -0.007806
  21 H :   -0.232953
  22 C :    0.921289
  23 H :   -0.154425
  24 H :   -0.069591
  25 O :   -1.148284
  26 C :    0.213309
  27 N :    0.344470
  28 N :    0.360182
  29 H :   -0.067672
  30 H :   -0.274324
  31 H :   -0.067196
  32 H :   -0.187857
  33 H :    0.259823
  34 H :   -0.278453
Sum of atomic charges:    0.0000000

LOEWDIN ATOMIC CHARGES
----------------------
   0 C :    0.043281
   1 C :   -0.015949
   2 H :    0.019008
   3 C :   -0.027806
   4 H :    0.026901
   5 H :   -0.008450
   6 H :    0.032854
   7 C :   -0.032242
   8 H :   -0.002858
   9 C :   -0.026577
  10 H :    0.024661
  11 C :   -0.038083
  12 H :    0.021149
  13 H :    0.023114
  14 C :   -0.034690
  15 H :    0.009526
  16 H :    0.022554
  17 H :   -0.035057
  18 C :   -0.034855
  19 H :    0.034955
  20 H :    0.018566
  21 H :    0.019241
  22 C :   -0.050932
  23 H :    0.007921
  24 H :    0.012898
  25 O :   -0.455179
  26 C :   -0.064184
  27 N :    0.280819
  28 N :    0.291965
  29 H :    0.031624
  30 H :   -0.091165
  31 H :    0.035126
  32 H :   -0.097115
  33 H :    0.021910
  34 H :    0.037069

  Mayer bond orders larger than 0.100000
B(  0-C ,  1-C ) :   1.1848 B(  0-C ,  4-H ) :   0.1624 B(  0-C , 26-C ) :   1.1562
B(  0-C , 33-H ) :   0.7008 B(  0-C , 34-H ) :   0.7165 B(  1-C ,  2-H ) :   0.6906
B(  1-C ,  3-C ) :   1.2734 B(  1-C ,  4-H ) :   0.8104 B(  1-C , 33-H ) :   0.1459
B(  2-H ,  3-C ) :   0.2412 B(  2-H ,  4-H ) :  -0.1817 B(  3-C ,  4-H ) :   0.1774
B(  3-C ,  5-H ) :   0.8591 B(  3-C ,  6-H ) :   0.8651 B(  3-C ,  7-C ) :   1.2600
B(  3-C ,  8-H ) :   0.1255 B(  3-C , 10-H ) :   0.1635 B(  5-H ,  7-C ) :   0.1452
B(  5-H , 15-H ) :   0.2146 B(  5-H , 16-H ) :  -0.1134 B(  6-H ,  7-C ) :   0.1375
B(  7-C ,  8-H ) :   0.8218 B(  7-C ,  9-C ) :   1.1301 B(  7-C , 10-H ) :   1.0377
B(  7-C , 11-C ) :   0.1749 B(  7-C , 12-H ) :   0.1043 B(  7-C , 13-H ) :   0.2633
B(  7-C , 15-H ) :  -0.1031 B(  8-H , 17-H ) :   0.2540 B(  9-C , 11-C ) :   1.1211
B(  9-C , 12-H ) :   0.7215 B(  9-C , 13-H ) :   0.6685 B( 11-C , 12-H ) :   0.1921
B( 11-C , 13-H ) :   0.1277 B( 11-C , 14-C ) :   1.1051 B( 11-C , 15-H ) :   0.8009
B( 11-C , 16-H ) :   1.0577 B( 11-C , 17-H ) :   0.1822 B( 11-C , 19-H ) :   0.1081
B( 12-H , 13-H ) :  -0.1565 B( 14-C , 15-H ) :   0.1304 B( 14-C , 16-H ) :   0.2358
B( 14-C , 18-C ) :   1.1583 B( 14-C , 19-H ) :   0.6584 B( 14-C , 20-H ) :   0.1346
B( 14-C , 21-H ) :   0.2626 B( 14-C , 22-C ) :   0.1038 B( 15-H , 16-H ) :  -0.1259
B( 17-H , 18-C ) :   0.1879 B( 17-H , 19-H ) :   0.1974 B( 17-H , 26-C ) :   0.1727
B( 18-C , 20-H ) :   0.8758 B( 18-C , 21-H ) :   0.8847 B( 18-C , 22-C ) :   1.0196
B( 18-C , 23-H ) :   0.2161 B( 18-C , 25-O ) :   0.1052 B( 22-C , 23-H ) :   0.7573
B( 22-C , 24-H ) :   0.8086 B( 22-C , 25-O ) :   1.0155 B( 24-H , 25-O ) :   0.1701
B( 25-O , 26-C ) :   0.1117 B( 25-O , 27-N ) :  -0.1169 B( 25-O , 30-H ) :   0.3326
B( 25-O , 32-H ) :   0.2835 B( 26-C , 27-N ) :   1.0867 B( 26-C , 28-N ) :   1.0854
B( 26-C , 31-H ) :  -0.1141 B( 26-C , 33-H ) :   0.1977 B( 26-C , 34-H ) :   0.3202
B( 27-N , 28-N ) :   0.2004 B( 27-N , 31-H ) :   1.1373 B( 27-N , 32-H ) :   1.0652
B( 28-N , 29-H ) :   1.1144 B( 28-N , 30-H ) :   1.1368 B( 29-H , 30-H ) :  -0.2535
B( 31-H , 32-H ) :  -0.1868 B( 33-H , 34-H ) :  -0.1166

Dispersion correction           -0.002169401
FINAL SINGLE POINT ENERGY      -578.357492082177

DIPOLE MOMENT
-------------
                                X             Y             Z
Electronic contribution:      2.80756      -0.26743       7.51702
Nuclear contribution   :     -0.17996       0.53390      -8.68067
                        -----------------------------------------
Total Dipole Moment    :      2.62760       0.26648      -1.16365
                        -----------------------------------------
Magnitude (a.u.)       :      2.88607
Magnitude (Debye)      :      7.33580

Rotational constants in cm-1:     0.028240     0.022734     0.014600
Rotational constants in MHz :   846.611263   681.554306   437.693928

                             ****ORCA TERMINATED NORMALLY****
TOTAL RUN TIME: 0 days 0 hours 3 minutes 14 seconds 805 msec
