                         Program Version 5.0.0 -  RELEASE  -
|  1> !M062X D3Zero RIJCOSX def2-SVPD def2/J TightSCF
|  2> *xyz 0 1
|  3> C         -0.01741        0.08059       -2.77841
|  4> C         -0.90349       -0.87394       -1.98739
|  5> H         -0.50255       -1.89210       -2.08120
|  6> H         -1.91704       -0.89543       -2.40628
|  7> C         -0.96015       -0.52236       -0.48987
|  8> H         -1.69039       -1.20813       -0.02168
|  9> H         -1.41449        0.48633       -0.40668
| 10> F          0.26170       -0.58031        0.13861
| 11> H         -0.01329       -0.20776       -3.80881
| 12> H          0.98025        0.04284       -2.39348
| 13> H         -0.39697        1.07694       -2.68836
| 14> *
| 15>
| 16> %MaxCore 64000
| 17>
| 18> %pal nprocs 4
| 19> end
| 20>
| 21> %scf
| 22>   MaxIter 150
| 23> end
| 24>
| 25>
| 26>                          ****END OF INPUT****

CARTESIAN COORDINATES (ANGSTROEM)
---------------------------------
  C     -0.017410    0.080590   -2.778410
  C     -0.903490   -0.873940   -1.987390
  H     -0.502550   -1.892100   -2.081200
  H     -1.917040   -0.895430   -2.406280
  C     -0.960150   -0.522360   -0.489870
  H     -1.690390   -1.208130   -0.021680
  H     -1.414490    0.486330   -0.406680
  F      0.261700   -0.580310    0.138610
  H     -0.013290   -0.207760   -3.808810
  H      0.980250    0.042840   -2.393480
  H     -0.396970    1.076940   -2.688360

 Total Charge           Charge          ....    0
 Multiplicity           Mult            ....    1
 Number of Electrons    NEL             ....   34
 Basis Dimension        Dim             ....  139

ORBITAL ENERGIES
----------------

  NO   OCC          E(Eh)            E(eV)
   0   2.0000     -25.244944      -686.9498
   1   2.0000     -10.629883      -289.2538
   2   2.0000     -10.557606      -287.2871
   3   2.0000     -10.537438      -286.7383
   4   2.0000      -1.318102       -35.8674
   5   2.0000      -0.881698       -23.9922
   6   2.0000      -0.776512       -21.1300
   7   2.0000      -0.678577       -18.4650
   8   2.0000      -0.590865       -16.0783
   9   2.0000      -0.578378       -15.7385
  10   2.0000      -0.551375       -15.0037
  11   2.0000      -0.509458       -13.8630
  12   2.0000      -0.478271       -13.0144
  13   2.0000      -0.446558       -12.1515
  14   2.0000      -0.416823       -11.3423
  15   2.0000      -0.393171       -10.6987
  16   2.0000      -0.391477       -10.6526
  17   0.0000       0.039643         1.0787
  18   0.0000       0.064244         1.7482
  19   0.0000       0.072823         1.9816
  20   0.0000       0.092850         2.5266
  21   0.0000       0.117402         3.1947

MULLIKEN ATOMIC CHARGES
-----------------------
   0 C :    0.565604
   1 C :   -0.536158
   2 H :   -0.047352
   3 H :   -0.059394
   4 C :    0.721057
   5 H :   -0.063676
   6 H :   -0.012066
   7 F :   -0.472887
   8 H :   -0.050227
   9 H :   -0.005903
  10 H :   -0.038999
Sum of atomic charges:    0.0000000

LOEWDIN ATOMIC CHARGES
----------------------
   0 C :    0.119401
   1 C :   -0.070827
   2 H :    0.025937
   3 H :    0.027257
   4 C :    0.110898
   5 H :    0.029451
   6 H :    0.034332
   7 F :   -0.227984
   8 H :   -0.018210
   9 H :   -0.013695
  10 H :   -0.016561

  Mayer bond orders larger than 0.100000
B(  0-C ,  1-C ) :   1.3083 B(  0-C ,  8-H ) :   0.8346 B(  0-C ,  9-H ) :   0.8320
B(  0-C , 10-H ) :   0.8327 B(  1-C ,  2-H ) :   0.9786 B(  1-C ,  3-H ) :   0.9911
B(  1-C ,  4-C ) :   1.1715 B(  1-C ,  5-H ) :   0.1042 B(  1-C ,  8-H ) :   0.1798
B(  1-C ,  9-H ) :   0.1823 B(  1-C , 10-H ) :   0.1672 B(  4-C ,  5-H ) :   0.9368
B(  4-C ,  6-H ) :   0.9255 B(  4-C ,  7-F ) :   0.6582

Dispersion correction           -0.000086189
FINAL SINGLE POINT ENERGY      -218.113780006792

DIPOLE MOMENT
-------------
                                X             Y             Z
Electronic contribution:      2.23323      -0.77432       5.87849
Nuclear contribution   :     -2.83598       0.77614      -6.32113
                        -----------------------------------------
Total Dipole Moment    :     -0.60275       0.00182      -0.44264
                        -----------------------------------------
Magnitude (a.u.)       :      0.74783
Magnitude (Debye)      :      1.90083

Rotational constants in cm-1:     0.494803     0.164634     0.139827
Rotational constants in MHz : 14833.819345  4935.593559  4191.919783

                             ****ORCA TERMINATED NORMALLY****
TOTAL RUN TIME: 0 days 0 hours 0 minutes 10 seconds 13 msec
