                         Program Version 5.0.0 -  RELEASE  -
|  1> !M062X D3Zero RIJCOSX def2-SVPD def2/J TightSCF
|  2> *xyz 0 1
|  3> C          4.36645       -0.13321       -1.41606
|  4> C          4.50829       -0.93187       -2.72425
|  5> H          4.75372       -1.97205       -2.48841
|  6> C          3.29416       -0.91821       -3.65657
|  7> H          5.38564       -0.53624       -3.24264
|  8> C          3.05650       -0.32080       -0.70738
|  9> C          2.38983        0.71129       -0.24391
| 10> N          2.51600       -1.50772       -0.55023
| 11> H          2.96768       -2.32291       -0.95631
| 12> H          1.54987       -1.49063       -0.24988
| 13> H          2.74307        1.64947       -0.41280
| 14> H          1.44036        0.50278        0.03703
| 15> H          4.48784        0.93300       -1.61157
| 16> H          5.16967       -0.41443       -0.72982
| 17> H          3.50670       -1.50229       -4.52754
| 18> H          3.07837        0.08892       -3.94644
| 19> H          2.44880       -1.33173       -3.14739
| 20> *
| 21>
| 22> %MaxCore 64000
| 23>
| 24> %pal nprocs 4
| 25> end
| 26>
| 27> %scf
| 28>   MaxIter 150
| 29> end
| 30>
| 31>
| 32>                          ****END OF INPUT****

CARTESIAN COORDINATES (ANGSTROEM)
---------------------------------
  C      4.366450   -0.133210   -1.416060
  C      4.508290   -0.931870   -2.724250
  H      4.753720   -1.972050   -2.488410
  C      3.294160   -0.918210   -3.656570
  H      5.385640   -0.536240   -3.242640
  C      3.056500   -0.320800   -0.707380
  C      2.389830    0.711290   -0.243910
  N      2.516000   -1.507720   -0.550230
  H      2.967680   -2.322910   -0.956310
  H      1.549870   -1.490630   -0.249880
  H      2.743070    1.649470   -0.412800
  H      1.440360    0.502780    0.037030
  H      4.487840    0.933000   -1.611570
  H      5.169670   -0.414430   -0.729820
  H      3.506700   -1.502290   -4.527540
  H      3.078370    0.088920   -3.946440
  H      2.448800   -1.331730   -3.147390

 Total Charge           Charge          ....    0
 Multiplicity           Mult            ....    1
 Number of Electrons    NEL             ....   48
 Basis Dimension        Dim             ....  208

ORBITAL ENERGIES
----------------

  NO   OCC          E(Eh)            E(eV)
   0   2.0000     -14.760753      -401.6605
   1   2.0000     -10.568892      -287.5942
   2   2.0000     -10.552501      -287.1482
   3   2.0000     -10.550241      -287.0867
   4   2.0000     -10.533124      -286.6209
   5   2.0000     -10.483237      -285.2634
   6   2.0000      -1.031862       -28.0784
   7   2.0000      -0.882778       -24.0216
   8   2.0000      -0.824518       -22.4363
   9   2.0000      -0.769660       -20.9435
  10   2.0000      -0.681207       -18.5366
  11   2.0000      -0.635019       -17.2798
  12   2.0000      -0.607005       -16.5175
  13   2.0000      -0.531289       -14.4571
  14   2.0000      -0.525517       -14.3000
  15   2.0000      -0.521996       -14.2042
  16   2.0000      -0.462047       -12.5729
  17   2.0000      -0.459455       -12.5024
  18   2.0000      -0.445074       -12.1111
  19   2.0000      -0.428062       -11.6482
  20   2.0000      -0.395089       -10.7509
  21   2.0000      -0.394061       -10.7229
  22   2.0000      -0.381895       -10.3919
  23   2.0000      -0.243277        -6.6199
  24   0.0000       0.033807         0.9199
  25   0.0000       0.057553         1.5661
  26   0.0000       0.065805         1.7906
  27   0.0000       0.070501         1.9184
  28   0.0000       0.085468         2.3257

MULLIKEN ATOMIC CHARGES
-----------------------
   0 C :    0.402988
   1 C :   -0.441727
   2 H :   -0.044346
   3 C :    0.752708
   4 H :   -0.181232
   5 C :   -0.340893
   6 C :    0.352418
   7 N :    0.161676
   8 H :   -0.052713
   9 H :   -0.096883
  10 H :   -0.164179
  11 H :   -0.347803
  12 H :    0.232250
  13 H :   -0.094349
  14 H :   -0.025654
  15 H :   -0.025021
  16 H :   -0.087242
Sum of atomic charges:    0.0000000

LOEWDIN ATOMIC CHARGES
----------------------
   0 C :    0.014043
   1 C :   -0.073743
   2 H :    0.009981
   3 C :    0.127371
   4 H :    0.016901
   5 C :   -0.269858
   6 C :    0.177538
   7 N :    0.162439
   8 H :    0.006180
   9 H :    0.009178
  10 H :   -0.078213
  11 H :   -0.084006
  12 H :    0.023535
  13 H :    0.027046
  14 H :   -0.018810
  15 H :   -0.013266
  16 H :   -0.036315

  Mayer bond orders larger than 0.100000
B(  0-C ,  1-C ) :   1.2024 B(  0-C ,  2-H ) :   0.1493 B(  0-C ,  4-H ) :   0.1521
B(  0-C ,  5-C ) :   1.2057 B(  0-C , 10-H ) :  -0.1095 B(  0-C , 12-H ) :   0.7634
B(  0-C , 13-H ) :   0.7303 B(  1-C ,  2-H ) :   0.8908 B(  1-C ,  3-C ) :   1.3303
B(  1-C ,  4-H ) :   0.9728 B(  1-C , 12-H ) :   0.1550 B(  1-C , 14-H ) :   0.2244
B(  1-C , 15-H ) :   0.2224 B(  1-C , 16-H ) :   0.2266 B(  3-C , 14-H ) :   0.7351
B(  3-C , 15-H ) :   0.7759 B(  3-C , 16-H ) :   0.8302 B(  5-C ,  6-C ) :   1.8885
B(  5-C ,  7-N ) :   1.1759 B(  5-C , 11-H ) :   0.3485 B(  5-C , 13-H ) :   0.2558
B(  6-C ,  7-N ) :   0.3088 B(  6-C , 10-H ) :   1.0118 B(  6-C , 11-H ) :   0.6135
B(  7-N ,  8-H ) :   1.0289 B(  7-N ,  9-H ) :   1.1268 B(  8-H ,  9-H ) :  -0.1645

Dispersion correction           -0.000348953
FINAL SINGLE POINT ENERGY      -251.563068363208

DIPOLE MOMENT
-------------
                                X             Y             Z
Electronic contribution:     -0.64336      -0.28233       3.29503
Nuclear contribution   :      0.70803      -0.34641      -3.68680
                        -----------------------------------------
Total Dipole Moment    :      0.06467      -0.62874      -0.39177
                        -----------------------------------------
Magnitude (a.u.)       :      0.74362
Magnitude (Debye)      :      1.89014

Rotational constants in cm-1:     0.186653     0.080341     0.073591
Rotational constants in MHz :  5595.710092  2408.571280  2206.200061

                             ****ORCA TERMINATED NORMALLY****
TOTAL RUN TIME: 0 days 0 hours 0 minutes 27 seconds 319 msec
