                         Program Version 5.0.0 -  RELEASE  -
|  1> !M062X D3Zero RIJCOSX def2-SVPD def2/J TightSCF
|  2> *xyz 0 1
|  3> C          4.36645       -0.13321       -1.41606
|  4> C          4.50829       -0.93187       -2.72425
|  5> H          4.75372       -1.97205       -2.48841
|  6> C          3.29416       -0.91821       -3.65657
|  7> H          5.38564       -0.53624       -3.24264
|  8> C          3.05650       -0.32080       -0.70738
|  9> N          2.38983        0.71129       -0.24391
| 10> C          2.51600       -1.50772       -0.55023
| 11> H          2.96768       -2.32291       -0.95631
| 12> H          1.54987       -1.49063       -0.24988
| 13> H          2.74307        1.64947       -0.41280
| 14> H          1.44036        0.50278        0.03703
| 15> H          4.48784        0.93300       -1.61157
| 16> H          5.16967       -0.41443       -0.72982
| 17> H          3.50670       -1.50229       -4.52754
| 18> H          3.07837        0.08892       -3.94644
| 19> H          2.44880       -1.33173       -3.14739
| 20> *
| 21>
| 22> %MaxCore 64000
| 23>
| 24> %pal nprocs 4
| 25> end
| 26>
| 27> %scf
| 28>   MaxIter 150
| 29> end
| 30>
| 31>
| 32>                          ****END OF INPUT****

CARTESIAN COORDINATES (ANGSTROEM)
---------------------------------
  C      4.366450   -0.133210   -1.416060
  C      4.508290   -0.931870   -2.724250
  H      4.753720   -1.972050   -2.488410
  C      3.294160   -0.918210   -3.656570
  H      5.385640   -0.536240   -3.242640
  C      3.056500   -0.320800   -0.707380
  N      2.389830    0.711290   -0.243910
  C      2.516000   -1.507720   -0.550230
  H      2.967680   -2.322910   -0.956310
  H      1.549870   -1.490630   -0.249880
  H      2.743070    1.649470   -0.412800
  H      1.440360    0.502780    0.037030
  H      4.487840    0.933000   -1.611570
  H      5.169670   -0.414430   -0.729820
  H      3.506700   -1.502290   -4.527540
  H      3.078370    0.088920   -3.946440
  H      2.448800   -1.331730   -3.147390

 Total Charge           Charge          ....    0
 Multiplicity           Mult            ....    1
 Number of Electrons    NEL             ....   48
 Basis Dimension        Dim             ....  208

ORBITAL ENERGIES
----------------

  NO   OCC          E(Eh)            E(eV)
   0   2.0000     -14.761333      -401.6763
   1   2.0000     -10.568959      -287.5960
   2   2.0000     -10.551962      -287.1335
   3   2.0000     -10.547482      -287.0116
   4   2.0000     -10.525885      -286.4239
   5   2.0000     -10.480927      -285.2005
   6   2.0000      -1.031876       -28.0788
   7   2.0000      -0.883800       -24.0494
   8   2.0000      -0.812006       -22.0958
   9   2.0000      -0.774014       -21.0620
  10   2.0000      -0.685332       -18.6488
  11   2.0000      -0.624697       -16.9989
  12   2.0000      -0.601068       -16.3559
  13   2.0000      -0.553686       -15.0666
  14   2.0000      -0.523227       -14.2377
  15   2.0000      -0.498470       -13.5641
  16   2.0000      -0.469256       -12.7691
  17   2.0000      -0.457287       -12.4434
  18   2.0000      -0.433489       -11.7958
  19   2.0000      -0.426323       -11.6008
  20   2.0000      -0.397167       -10.8075
  21   2.0000      -0.385444       -10.4885
  22   2.0000      -0.384449       -10.4614
  23   2.0000      -0.240695        -6.5496
  24   0.0000       0.038941         1.0596
  25   0.0000       0.056457         1.5363
  26   0.0000       0.062924         1.7123
  27   0.0000       0.070852         1.9280
  28   0.0000       0.088290         2.4025

MULLIKEN ATOMIC CHARGES
-----------------------
   0 C :    0.587610
   1 C :   -0.468381
   2 H :    0.004321
   3 C :    0.740085
   4 H :   -0.202539
   5 C :   -0.259163
   6 N :    0.108688
   7 C :    0.491867
   8 H :   -0.118630
   9 H :   -0.534028
  10 H :   -0.118766
  11 H :   -0.058376
  12 H :    0.051258
  13 H :   -0.107992
  14 H :   -0.055152
  15 H :   -0.021957
  16 H :   -0.038845
Sum of atomic charges:   -0.0000000

LOEWDIN ATOMIC CHARGES
----------------------
   0 C :    0.014726
   1 C :   -0.068136
   2 H :    0.016498
   3 C :    0.128342
   4 H :    0.015716
   5 C :   -0.260133
   6 N :    0.157882
   7 C :    0.171120
   8 H :   -0.074525
   9 H :   -0.083129
  10 H :    0.004722
  11 H :    0.006847
  12 H :    0.012477
  13 H :    0.029293
  14 H :   -0.019028
  15 H :   -0.016716
  16 H :   -0.035955

  Mayer bond orders larger than 0.100000
B(  0-C ,  1-C ) :   1.2057 B(  0-C ,  2-H ) :   0.1116 B(  0-C ,  4-H ) :   0.1649
B(  0-C ,  5-C ) :   1.0437 B(  0-C , 12-H ) :   0.6276 B(  0-C , 13-H ) :   0.8062
B(  1-C ,  2-H ) :   0.8923 B(  1-C ,  3-C ) :   1.3470 B(  1-C ,  4-H ) :   0.9698
B(  1-C , 12-H ) :   0.1418 B(  1-C , 13-H ) :   0.1182 B(  1-C , 14-H ) :   0.2349
B(  1-C , 15-H ) :   0.2238 B(  1-C , 16-H ) :   0.2380 B(  3-C , 14-H ) :   0.7372
B(  3-C , 15-H ) :   0.7822 B(  3-C , 16-H ) :   0.8274 B(  5-C ,  6-N ) :   1.0915
B(  5-C ,  7-C ) :   1.9795 B(  5-C ,  8-H ) :   0.1784 B(  5-C ,  9-H ) :   0.2735
B(  5-C , 12-H ) :   0.2265 B(  5-C , 13-H ) :   0.1626 B(  6-N ,  7-C ) :   0.2599
B(  6-N , 10-H ) :   1.1590 B(  6-N , 11-H ) :   1.0983 B(  7-C ,  8-H ) :   0.7260
B(  7-C ,  9-H ) :   0.7269 B(  8-H ,  9-H ) :  -0.2060 B( 10-H , 11-H ) :  -0.1352

Dispersion correction           -0.000348219
FINAL SINGLE POINT ENERGY      -251.560857356411

DIPOLE MOMENT
-------------
                                X             Y             Z
Electronic contribution:     -0.75199       1.56554       3.57407
Nuclear contribution   :      0.73787      -0.87128      -3.75926
                        -----------------------------------------
Total Dipole Moment    :     -0.01412       0.69426      -0.18518
                        -----------------------------------------
Magnitude (a.u.)       :      0.71867
Magnitude (Debye)      :      1.82673

Rotational constants in cm-1:     0.191039     0.078358     0.072723
Rotational constants in MHz :  5727.202281  2349.118247  2180.181745

                             ****ORCA TERMINATED NORMALLY****
TOTAL RUN TIME: 0 days 0 hours 0 minutes 26 seconds 380 msec
