                         Program Version 5.0.0 -  RELEASE  -
|  1> !TPSS D3BJ RIJCOSX def2-SVPD def2/J TightSCF
|  2> *xyz -1 1
|  3> C          4.90646       -3.10282       -5.95484
|  4> C          3.51177       -2.80621       -6.49228
|  5> H          2.73604       -3.37345       -5.97374
|  6> H          3.44490       -3.04083       -7.55528
|  7> S          3.00462       -1.09621       -6.38926
|  8> O          4.12886       -0.32965       -6.95372
|  9> O          1.78128       -1.00078       -7.13640
| 10> C          5.02498       -3.02568       -4.43762
| 11> H          5.20153       -4.10021       -6.29691
| 12> H          5.60592       -2.39782       -6.41337
| 13> O          2.85155       -0.78368       -4.95679
| 14> H          4.73604       -2.05011       -4.10644
| 15> H          6.03776       -3.21492       -4.14890
| 16> H          4.38436       -3.75784       -3.99214
| 17> *
| 18>
| 19> %MaxCore 64000
| 20>
| 21> %pal nprocs 8
| 22> end
| 23>
| 24> %scf
| 25>   MaxIter 150
| 26> end
| 27>
| 28>
| 29>                          ****END OF INPUT****

CARTESIAN COORDINATES (ANGSTROEM)
---------------------------------
  C      4.906460   -3.102820   -5.954840
  C      3.511770   -2.806210   -6.492280
  H      2.736040   -3.373450   -5.973740
  H      3.444900   -3.040830   -7.555280
  S      3.004620   -1.096210   -6.389260
  O      4.128860   -0.329650   -6.953720
  O      1.781280   -1.000780   -7.136400
  C      5.024980   -3.025680   -4.437620
  H      5.201530   -4.100210   -6.296910
  H      5.605920   -2.397820   -6.413370
  O      2.851550   -0.783680   -4.956790
  H      4.736040   -2.050110   -4.106440
  H      6.037760   -3.214920   -4.148900
  H      4.384360   -3.757840   -3.992140

 Total Charge           Charge          ....   -1
 Multiplicity           Mult            ....    1
 Number of Electrons    NEL             ....   66
 Basis Dimension        Dim             ....  212

ORBITAL ENERGIES
----------------

  NO   OCC          E(Eh)            E(eV)
   0   2.0000     -88.367389     -2404.5989
   1   2.0000     -18.684001      -508.4175
   2   2.0000     -18.673465      -508.1308
   3   2.0000     -18.672994      -508.1180
   4   2.0000      -9.869592      -268.5652
   5   2.0000      -9.864002      -268.4131
   6   2.0000      -9.855189      -268.1733
   7   2.0000      -7.727280      -210.2700
   8   2.0000      -5.713345      -155.4680
   9   2.0000      -5.713218      -155.4646
  10   2.0000      -5.712248      -155.4382
  11   2.0000      -0.853783       -23.2326
  12   2.0000      -0.719898       -19.5894
  13   2.0000      -0.700348       -19.0574
  14   2.0000      -0.595040       -16.1919
  15   2.0000      -0.510413       -13.8891
  16   2.0000      -0.419252       -11.4084
  17   2.0000      -0.333474        -9.0743
  18   2.0000      -0.286230        -7.7887
  19   2.0000      -0.280145        -7.6231
  20   2.0000      -0.249673        -6.7940
  21   2.0000      -0.239162        -6.5079
  22   2.0000      -0.216618        -5.8945
  23   2.0000      -0.208867        -5.6836
  24   2.0000      -0.186514        -5.0753
  25   2.0000      -0.177306        -4.8247
  26   2.0000      -0.169269        -4.6060
  27   2.0000      -0.106568        -2.8999
  28   2.0000      -0.106031        -2.8853
  29   2.0000      -0.074509        -2.0275
  30   2.0000      -0.067270        -1.8305
  31   2.0000      -0.060163        -1.6371
  32   2.0000      -0.023023        -0.6265
  33   0.0000       0.126941         3.4543
  34   0.0000       0.152274         4.1436
  35   0.0000       0.157018         4.2727
  36   0.0000       0.168226         4.5777
  37   0.0000       0.185221         5.0401

MULLIKEN ATOMIC CHARGES
-----------------------
   0 C :   -0.256442
   1 C :   -0.050030
   2 H :    0.019500
   3 H :    0.003363
   4 S :    1.269668
   5 O :   -0.806828
   6 O :   -0.788538
   7 C :    0.723981
   8 H :   -0.120234
   9 H :    0.008840
  10 O :   -0.815365
  11 H :   -0.135468
  12 H :   -0.050909
  13 H :   -0.001539
Sum of atomic charges:   -1.0000000

LOEWDIN ATOMIC CHARGES
----------------------
   0 C :   -0.085089
   1 C :   -0.096705
   2 H :    0.003342
   3 H :   -0.001464
   4 S :    0.845425
   5 O :   -0.573575
   6 O :   -0.559605
   7 C :    0.127616
   8 H :    0.001528
   9 H :    0.010369
  10 O :   -0.571845
  11 H :   -0.038146
  12 H :   -0.035796
  13 H :   -0.026055

  Mayer bond orders larger than 0.100000
B(  0-C ,  1-C ) :   1.2095 B(  0-C ,  2-H ) :   0.1042 B(  0-C ,  3-H ) :   0.1161
B(  0-C ,  7-C ) :   1.2464 B(  0-C ,  8-H ) :   0.9186 B(  0-C ,  9-H ) :   0.9075
B(  0-C , 11-H ) :   0.2437 B(  0-C , 12-H ) :   0.2055 B(  0-C , 13-H ) :   0.2011
B(  1-C ,  2-H ) :   0.9372 B(  1-C ,  3-H ) :   0.9510 B(  1-C ,  4-S ) :   0.9147
B(  1-C ,  8-H ) :   0.1192 B(  1-C ,  9-H ) :   0.1468 B(  4-S ,  5-O ) :   1.2875
B(  4-S ,  6-O ) :   1.3535 B(  4-S , 10-O ) :   1.2804 B(  7-C , 11-H ) :   0.8318
B(  7-C , 12-H ) :   0.7580 B(  7-C , 13-H ) :   0.7641 B( 11-H , 13-H ) :   0.1063

Dispersion correction           -0.016707324
FINAL SINGLE POINT ENERGY      -742.150403683641

DIPOLE MOMENT
-------------
                                X             Y             Z
Electronic contribution:     -6.20969       7.96518      -3.68236
Nuclear contribution   :      7.19636      -9.97366       3.94889
                        -----------------------------------------
Total Dipole Moment    :      0.98667      -2.00848       0.26653
                        -----------------------------------------
Magnitude (a.u.)       :      2.25356
Magnitude (Debye)      :      5.72810

Rotational constants in cm-1:     0.137066     0.054570     0.051980
Rotational constants in MHz :  4109.139955  1635.961703  1558.315282

                             ****ORCA TERMINATED NORMALLY****
TOTAL RUN TIME: 0 days 0 hours 0 minutes 8 seconds 210 msec
