                         Program Version 5.0.0 -  RELEASE  -
|  1> !TPSS D3BJ RIJCOSX def2-SVPD def2/J TightSCF
|  2> *xyz 1 1
|  3> C          4.49059        1.15590       -2.46929
|  4> N          4.30539        1.22276       -3.90832
|  5> C          4.63192        2.24637       -4.67096
|  6> N          4.54169        2.14399       -5.98714
|  7> N          5.08409        3.39358       -4.11855
|  8> H          4.92067        3.57050       -3.13587
|  9> H          5.25465        4.19739       -4.70696
| 10> H          3.82453        0.44911       -4.35093
| 11> H          4.34337        1.24932       -6.41665
| 12> H          4.67671        2.95662       -6.57411
| 13> C          5.94213        0.93950       -2.03689
| 14> H          3.86431        0.32853       -2.13661
| 15> H          4.07623        2.04999       -1.98901
| 16> C          6.55996       -0.35629       -2.55909
| 17> H          5.96798        0.95257       -0.94244
| 18> H          6.54718        1.78833       -2.36885
| 19> H          6.53022       -0.35990       -3.62867
| 20> H          6.00654       -1.19175       -2.18407
| 21> H          7.57588       -0.42487       -2.23029
| 22> *
| 23>
| 24> %MaxCore 64000
| 25>
| 26> %pal nprocs 8
| 27> end
| 28>
| 29> %scf
| 30>   MaxIter 150
| 31> end
| 32>
| 33>
| 34>                          ****END OF INPUT****

CARTESIAN COORDINATES (ANGSTROEM)
---------------------------------
  C      4.490590    1.155900   -2.469290
  N      4.305390    1.222760   -3.908320
  C      4.631920    2.246370   -4.670960
  N      4.541690    2.143990   -5.987140
  N      5.084090    3.393580   -4.118550
  H      4.920670    3.570500   -3.135870
  H      5.254650    4.197390   -4.706960
  H      3.824530    0.449110   -4.350930
  H      4.343370    1.249320   -6.416650
  H      4.676710    2.956620   -6.574110
  C      5.942130    0.939500   -2.036890
  H      3.864310    0.328530   -2.136610
  H      4.076230    2.049990   -1.989010
  C      6.559960   -0.356290   -2.559090
  H      5.967980    0.952570   -0.942440
  H      6.547180    1.788330   -2.368850
  H      6.530220   -0.359900   -3.628670
  H      6.006540   -1.191750   -2.184070
  H      7.575880   -0.424870   -2.230290

 Total Charge           Charge          ....    1
 Multiplicity           Mult            ....    1
 Number of Electrons    NEL             ....   56
 Basis Dimension        Dim             ....  236

ORBITAL ENERGIES
----------------

  NO   OCC          E(Eh)            E(eV)
   0   2.0000     -14.339762      -390.2048
   1   2.0000     -14.337628      -390.1467
   2   2.0000     -14.336841      -390.1253
   3   2.0000     -10.321798      -280.8704
   4   2.0000     -10.203730      -277.6576
   5   2.0000     -10.142278      -275.9854
   6   2.0000     -10.114153      -275.2201
   7   2.0000      -1.137278       -30.9469
   8   2.0000      -1.034015       -28.1370
   9   2.0000      -1.019849       -27.7515
  10   2.0000      -0.875618       -23.8268
  11   2.0000      -0.806399       -21.9432
  12   2.0000      -0.769034       -20.9265
  13   2.0000      -0.738371       -20.0921
  14   2.0000      -0.715185       -19.4612
  15   2.0000      -0.675934       -18.3931
  16   2.0000      -0.647212       -17.6115
  17   2.0000      -0.643804       -17.5188
  18   2.0000      -0.614568       -16.7232
  19   2.0000      -0.582517       -15.8511
  20   2.0000      -0.556343       -15.1389
  21   2.0000      -0.536399       -14.5962
  22   2.0000      -0.509851       -13.8737
  23   2.0000      -0.465699       -12.6723
  24   2.0000      -0.450296       -12.2532
  25   2.0000      -0.447393       -12.1742
  26   2.0000      -0.432603       -11.7717
  27   2.0000      -0.409706       -11.1487
  28   0.0000      -0.193351        -5.2614
  29   0.0000      -0.166284        -4.5248
  30   0.0000      -0.134670        -3.6646
  31   0.0000      -0.126069        -3.4305
  32   0.0000      -0.106997        -2.9115

MULLIKEN ATOMIC CHARGES
-----------------------
   0 C :    0.714126
   1 N :   -0.580714
   2 C :    1.558209
   3 N :   -0.125854
   4 N :   -0.034027
   5 H :   -0.003295
   6 H :   -0.159498
   7 H :   -0.164917
   8 H :   -0.042876
   9 H :   -0.040479
  10 C :   -0.394722
  11 H :   -0.259216
  12 H :   -0.003189
  13 C :    0.644666
  14 H :   -0.091012
  15 H :    0.039156
  16 H :   -0.077744
  17 H :    0.062994
  18 H :   -0.041607
Sum of atomic charges:    1.0000000

LOEWDIN ATOMIC CHARGES
----------------------
   0 C :    0.078342
   1 N :    0.046097
   2 C :   -0.035059
   3 N :    0.264270
   4 N :    0.286297
   5 H :    0.016514
   6 H :    0.034444
   7 H :    0.061663
   8 H :    0.040874
   9 H :    0.039982
  10 C :   -0.045723
  11 H :    0.039633
  12 H :    0.024842
  13 C :    0.147859
  14 H :    0.034092
  15 H :    0.010464
  16 H :   -0.027584
  17 H :   -0.010742
  18 H :   -0.006265

  Mayer bond orders larger than 0.100000
B(  0-C ,  1-N ) :   0.8701 B(  0-C ,  2-C ) :  -0.1053 B(  0-C ,  7-H ) :  -0.1638
B(  0-C , 10-C ) :   1.1307 B(  0-C , 11-H ) :   0.7935 B(  0-C , 12-H ) :   0.8895
B(  0-C , 15-H ) :   0.1037 B(  1-N ,  2-C ) :   0.8891 B(  1-N ,  3-N ) :   0.3484
B(  1-N ,  4-N ) :   0.2635 B(  1-N ,  7-H ) :   1.3264 B(  1-N , 11-H ) :   0.2117
B(  2-C ,  3-N ) :   0.7201 B(  2-C ,  4-N ) :   0.8772 B(  2-C ,  5-H ) :  -0.1163
B(  2-C ,  6-H ) :  -0.1627 B(  2-C ,  7-H ) :  -0.2503 B(  2-C ,  8-H ) :  -0.1993
B(  2-C ,  9-H ) :  -0.1415 B(  3-N ,  4-N ) :   0.1762 B(  3-N ,  8-H ) :   1.2065
B(  3-N ,  9-H ) :   1.2373 B(  4-N ,  5-H ) :   1.0676 B(  4-N ,  6-H ) :   1.2924
B(  5-H ,  6-H ) :  -0.1994 B(  8-H ,  9-H ) :  -0.1749 B( 10-C , 11-H ) :   0.1252
B( 10-C , 13-C ) :   1.3353 B( 10-C , 14-H ) :   1.0296 B( 10-C , 15-H ) :   0.8978
B( 10-C , 16-H ) :   0.1966 B( 10-C , 17-H ) :   0.1829 B( 10-C , 18-H ) :   0.2097
B( 13-C , 16-H ) :   0.8428 B( 13-C , 17-H ) :   0.7969 B( 13-C , 18-H ) :   0.8086

Dispersion correction           -0.019539607
FINAL SINGLE POINT ENERGY      -323.568324430376

DIPOLE MOMENT
-------------
                                X             Y             Z
Electronic contribution:     -3.24374       3.77852      -4.82199
Nuclear contribution   :      2.46011      -2.82418       3.51638
                        -----------------------------------------
Total Dipole Moment    :     -0.78363       0.95434      -1.30561
                        -----------------------------------------
Magnitude (a.u.)       :      1.79707
Magnitude (Debye)      :      4.56778

Rotational constants in cm-1:     0.152406     0.050160     0.046480
Rotational constants in MHz :  4569.006375  1503.763011  1393.441650

                             ****ORCA TERMINATED NORMALLY****
TOTAL RUN TIME: 0 days 0 hours 0 minutes 9 seconds 330 msec
