                         Program Version 5.0.0 -  RELEASE  -
|  1> !TPSS D3BJ RIJCOSX def2-SVPD def2/J TightSCF xyzfile
|  2>
|  3> *xyzfile 0 1 B.xyz
|  4>
|  5> %MaxCore 64000
|  6>
|  7> %pal nprocs 4
|  8> end
|  9>
| 10> %scf
| 11>   MaxIter 150
| 12> end
| 13>
| 14>
| 15>                          ****END OF INPUT****

CARTESIAN COORDINATES (ANGSTROEM)
---------------------------------
  C      4.490588    1.155899   -2.469290
  N      4.305394    1.222762   -3.908317
  C      4.906458   -3.102816   -5.954844
  C      3.511771   -2.806215   -6.492283
  H      2.736044   -3.373445   -5.973736
  H      3.444904   -3.040831   -7.555281
  S      3.004618   -1.096206   -6.389259
  C      4.631918    2.246365   -4.670958
  N      4.541686    2.143990   -5.987139
  N      5.084086    3.393584   -4.118545
  H      4.920675    3.570501   -3.135870
  H      5.254652    4.197390   -4.706956
  H      3.824530    0.449113   -4.350926
  H      4.343373    1.249318   -6.416646
  H      4.676712    2.956624   -6.574113
  O      4.128856   -0.329647   -6.953717
  O      1.781285   -1.000779   -7.136399
  C      5.942129    0.939500   -2.036893
  H      3.864305    0.328532   -2.136611
  H      4.076233    2.049994   -1.989010
  C      6.462677   -3.117775   -3.944671
  C      5.024977   -3.025679   -4.437625
  H      4.423321   -3.818693   -3.977648
  H      4.579350   -2.087131   -4.108727
  H      5.201533   -4.100207   -6.296905
  H      5.605922   -2.397822   -6.413368
  C      6.559957   -0.356290   -2.559086
  H      5.967976    0.952567   -0.942444
  H      6.547184    1.788331   -2.368849
  C      6.006283   -1.615917   -1.899301
  H      7.642360   -0.318000   -2.402059
  H      6.414855   -0.403433   -3.642587
  C      6.608718   -2.917014   -2.435655
  H      6.190324   -1.561115   -0.820948
  H      4.919250   -1.651245   -2.016586
  H      7.066975   -2.374258   -4.475514
  H      6.887808   -4.089747   -4.215332
  H      6.135197   -3.755573   -1.915159
  H      7.671142   -2.955503   -2.172291
  O      2.851546   -0.783683   -4.956789

 Total Charge           Charge          ....    0
 Multiplicity           Mult            ....    1
 Number of Electrons    NEL             ....  144
 Basis Dimension        Dim             ....  540

ORBITAL ENERGIES
----------------

  NO   OCC          E(Eh)            E(eV)
   0   2.0000     -88.522752     -2408.8265
   1   2.0000     -18.839762      -512.6560
   2   2.0000     -18.839591      -512.6513
   3   2.0000     -18.826158      -512.2858
   4   2.0000     -14.193076      -386.2132
   5   2.0000     -14.159493      -385.2994
   6   2.0000     -14.159034      -385.2869
   7   2.0000     -10.159231      -276.4467
   8   2.0000     -10.066734      -273.9298
   9   2.0000     -10.021572      -272.7008
  10   2.0000     -10.005564      -272.2653
  11   2.0000      -9.998788      -272.0809
  12   2.0000      -9.993378      -271.9336
  13   2.0000      -9.992286      -271.9039
  14   2.0000      -9.986725      -271.7526
  15   2.0000      -9.984977      -271.7050
  16   2.0000      -9.977609      -271.5045
  17   2.0000      -7.882039      -214.4812
  18   2.0000      -5.868915      -159.7013
  19   2.0000      -5.868030      -159.6772
  20   2.0000      -5.866202      -159.6275
  21   2.0000      -1.011864       -27.5342
  22   2.0000      -0.975393       -26.5418
  23   2.0000      -0.876945       -23.8629
  24   2.0000      -0.873905       -23.7802
  25   2.0000      -0.867699       -23.6113
  26   2.0000      -0.857955       -23.3461
  27   2.0000      -0.759241       -20.6600
  28   2.0000      -0.734613       -19.9898
  29   2.0000      -0.709632       -19.3101
  30   2.0000      -0.675512       -18.3816
  31   2.0000      -0.642250       -17.4765
  32   2.0000      -0.621058       -16.8999
  33   2.0000      -0.593882       -16.1604
  34   2.0000      -0.577778       -15.7221
  35   2.0000      -0.565333       -15.3835
  36   2.0000      -0.543367       -14.7858
  37   2.0000      -0.528325       -14.3765
  38   2.0000      -0.502550       -13.6751
  39   2.0000      -0.497077       -13.5262
  40   2.0000      -0.493730       -13.4351
  41   2.0000      -0.469245       -12.7688
  42   2.0000      -0.458823       -12.4852
  43   2.0000      -0.443317       -12.0633
  44   2.0000      -0.436334       -11.8732
  45   2.0000      -0.421235       -11.4624
  46   2.0000      -0.415576       -11.3084
  47   2.0000      -0.408504       -11.1159
  48   2.0000      -0.394605       -10.7378
  49   2.0000      -0.389774       -10.6063
  50   2.0000      -0.381893       -10.3918
  51   2.0000      -0.377080       -10.2609
  52   2.0000      -0.364120        -9.9082
  53   2.0000      -0.359824        -9.7913
  54   2.0000      -0.350386        -9.5345
  55   2.0000      -0.342819        -9.3286
  56   2.0000      -0.329814        -8.9747
  57   2.0000      -0.321882        -8.7589
  58   2.0000      -0.311882        -8.4867
  59   2.0000      -0.300517        -8.1775
  60   2.0000      -0.290563        -7.9066
  61   2.0000      -0.284016        -7.7285
  62   2.0000      -0.279118        -7.5952
  63   2.0000      -0.275955        -7.5091
  64   2.0000      -0.274440        -7.4679
  65   2.0000      -0.267373        -7.2756
  66   2.0000      -0.260116        -7.0781
  67   2.0000      -0.250834        -6.8255
  68   2.0000      -0.228599        -6.2205
  69   2.0000      -0.221521        -6.0279
  70   2.0000      -0.215149        -5.8545
  71   2.0000      -0.185799        -5.0558
  72   0.0000      -0.035948        -0.9782
  73   0.0000      -0.034155        -0.9294
  74   0.0000      -0.004945        -0.1346
  75   0.0000       0.014198         0.3864
  76   0.0000       0.018687         0.5085

MULLIKEN ATOMIC CHARGES
-----------------------
   0 C :    0.940908
   1 N :    0.061076
   2 C :    0.154409
   3 C :    0.230314
   4 H :    0.044103
   5 H :    0.028308
   6 S :    1.308133
   7 C :    1.327517
   8 N :    0.286477
   9 N :    0.083920
  10 H :   -0.034718
  11 H :   -0.205064
  12 H :   -0.782611
  13 H :   -0.245561
  14 H :   -0.158761
  15 O :   -0.831268
  16 O :   -0.796408
  17 C :    0.252793
  18 H :   -0.215223
  19 H :   -0.168887
  20 C :   -0.025382
  21 C :    0.175586
  22 H :    0.052100
  23 H :   -0.434328
  24 H :   -0.080563
  25 H :    0.081233
  26 C :    0.063433
  27 H :   -0.082226
  28 H :   -0.019983
  29 C :   -0.223089
  30 H :   -0.124311
  31 H :   -0.078502
  32 C :    0.582701
  33 H :   -0.325854
  34 H :    0.208854
  35 H :    0.128276
  36 H :   -0.312644
  37 H :   -0.009253
  38 H :    0.025150
  39 O :   -0.880654
Sum of atomic charges:    0.0000000

LOEWDIN ATOMIC CHARGES
----------------------
   0 C :    0.088926
   1 N :    0.081129
   2 C :   -0.031059
   3 C :   -0.059764
   4 H :    0.020083
   5 H :    0.015073
   6 S :    0.942914
   7 C :   -0.030082
   8 N :    0.288899
   9 N :    0.254002
  10 H :   -0.002808
  11 H :    0.013653
  12 H :   -0.080423
  13 H :   -0.100912
  14 H :    0.025800
  15 O :   -0.518380
  16 O :   -0.499672
  17 C :   -0.010363
  18 H :    0.028607
  19 H :    0.013102
  20 C :   -0.030722
  21 C :   -0.022498
  22 H :    0.035150
  23 H :   -0.022705
  24 H :    0.023056
  25 H :    0.017494
  26 C :   -0.020286
  27 H :    0.023008
  28 H :    0.004913
  29 C :   -0.028657
  30 H :    0.024983
  31 H :    0.008838
  32 C :   -0.022394
  33 H :    0.018759
  34 H :    0.005788
  35 H :    0.012227
  36 H :    0.019063
  37 H :    0.019025
  38 H :    0.016539
  39 O :   -0.520306

  Mayer bond orders larger than 0.100000
B(  0-C ,  1-N ) :   0.9198 B(  0-C , 12-H ) :  -0.3787 B(  0-C , 17-C ) :   1.1055
B(  0-C , 18-H ) :   0.7085 B(  0-C , 19-H ) :   0.8592 B(  0-C , 26-C ) :   0.1095
B(  0-C , 27-H ) :   0.1084 B(  1-N ,  7-C ) :   1.1938 B(  1-N ,  8-N ) :   0.1507
B(  1-N ,  9-N ) :   0.2402 B(  1-N , 12-H ) :   1.1323 B(  1-N , 13-H ) :   0.1624
B(  1-N , 14-H ) :  -0.1037 B(  1-N , 18-H ) :   0.2488 B(  2-C ,  3-C ) :   1.2448
B(  2-C ,  5-H ) :   0.2373 B(  2-C , 20-C ) :   0.1199 B(  2-C , 21-C ) :   1.1635
B(  2-C , 24-H ) :   0.8249 B(  2-C , 25-H ) :   0.8524 B(  3-C ,  4-H ) :   0.9077
B(  3-C ,  5-H ) :   0.7408 B(  3-C ,  6-S ) :   0.9517 B(  3-C , 16-O ) :   0.1254
B(  3-C , 21-C ) :   0.1163 B(  3-C , 25-H ) :   0.1122 B(  6-S , 15-O ) :   1.1219
B(  6-S , 16-O ) :   1.2877 B(  6-S , 39-O ) :   1.1610 B(  7-C ,  8-N ) :   0.8767
B(  7-C ,  9-N ) :   0.8575 B(  7-C , 10-H ) :  -0.1172 B(  7-C , 12-H ) :  -0.6212
B(  7-C , 13-H ) :  -0.2815 B(  7-C , 14-H ) :  -0.1537 B(  8-N ,  9-N ) :   0.1389
B(  8-N , 13-H ) :   1.1139 B(  8-N , 14-H ) :   1.3138 B(  9-N , 10-H ) :   1.0875
B(  9-N , 11-H ) :   1.2588 B( 10-H , 11-H ) :  -0.1955 B( 12-H , 39-O ) :   0.1520
B( 13-H , 14-H ) :  -0.2679 B( 13-H , 15-O ) :   0.1810 B( 16-O , 39-O ) :   0.1236
B( 17-C , 19-H ) :   0.1064 B( 17-C , 26-C ) :   1.2292 B( 17-C , 27-H ) :   0.9298
B( 17-C , 28-H ) :   0.7280 B( 18-H , 19-H ) :  -0.1564 B( 20-C , 21-C ) :   1.2142
B( 20-C , 22-H ) :   0.1048 B( 20-C , 23-H ) :   0.1142 B( 20-C , 29-C ) :   0.1321
B( 20-C , 32-C ) :   1.1393 B( 20-C , 35-H ) :   0.8589 B( 20-C , 36-H ) :   0.9712
B( 20-C , 37-H ) :   0.1184 B( 20-C , 38-H ) :   0.2015 B( 21-C , 22-H ) :   0.7237
B( 21-C , 23-H ) :   0.8724 B( 21-C , 24-H ) :   0.1790 B( 21-C , 36-H ) :   0.1922
B( 22-H , 23-H ) :   0.2019 B( 23-H , 34-H ) :   0.1049 B( 26-C , 27-H ) :   0.1041
B( 26-C , 28-H ) :   0.1893 B( 26-C , 29-C ) :   1.2395 B( 26-C , 30-H ) :   0.8910
B( 26-C , 31-H ) :   0.9067 B( 26-C , 33-H ) :   0.1331 B( 29-C , 30-H ) :   0.1479
B( 29-C , 31-H ) :   0.1173 B( 29-C , 32-C ) :   1.1511 B( 29-C , 33-H ) :   1.0609
B( 29-C , 34-H ) :   0.8127 B( 29-C , 37-H ) :   0.2623 B( 29-C , 38-H ) :   0.1310
B( 32-C , 37-H ) :   0.6838 B( 32-C , 38-H ) :   0.7109

Dispersion correction           -0.060896835
FINAL SINGLE POINT ENERGY     -1182.593019547595

DIPOLE MOMENT
-------------
                                X             Y             Z
Electronic contribution:    -14.53834       8.28791     -15.34148
Nuclear contribution   :     16.79156      -5.47215      17.54258
                        -----------------------------------------
Total Dipole Moment    :      2.25322       2.81576       2.20110
                        -----------------------------------------
Magnitude (a.u.)       :      4.22497
Magnitude (Debye)      :     10.73901

Rotational constants in cm-1:     0.014207     0.012373     0.007472
Rotational constants in MHz :   425.900436   370.942493   224.006604

                             ****ORCA TERMINATED NORMALLY****
TOTAL RUN TIME: 0 days 0 hours 1 minutes 45 seconds 70 msec
