                         Program Version 5.0.0 -  RELEASE  -
|  1> !TPSS D3BJ RIJCOSX def2-SVPD def2/J TightSCF
|  2> *xyz 0 1
|  3> C          4.90646       -3.10282       -5.95484
|  4> C          3.51177       -2.80621       -6.49228
|  5> H          2.73604       -3.37345       -5.97374
|  6> H          3.44490       -3.04083       -7.55528
|  7> S          3.00462       -1.09621       -6.38926
|  8> F          4.12886       -0.32965       -6.95372
|  9> O          1.78128       -1.00078       -7.13640
| 10> C          5.02498       -3.02568       -4.43762
| 11> H          5.20153       -4.10021       -6.29691
| 12> H          5.60592       -2.39782       -6.41337
| 13> O          2.85155       -0.78368       -4.95679
| 14> H          4.73604       -2.05011       -4.10644
| 15> H          6.03776       -3.21492       -4.14890
| 16> H          4.38436       -3.75784       -3.99214
| 17> *
| 18>
| 19> %MaxCore 64000
| 20>
| 21> %pal nprocs 8
| 22> end
| 23>
| 24> %scf
| 25>   MaxIter 150
| 26> end
| 27>
| 28>
| 29>                          ****END OF INPUT****

CARTESIAN COORDINATES (ANGSTROEM)
---------------------------------
  C      4.906460   -3.102820   -5.954840
  C      3.511770   -2.806210   -6.492280
  H      2.736040   -3.373450   -5.973740
  H      3.444900   -3.040830   -7.555280
  S      3.004620   -1.096210   -6.389260
  F      4.128860   -0.329650   -6.953720
  O      1.781280   -1.000780   -7.136400
  C      5.024980   -3.025680   -4.437620
  H      5.201530   -4.100210   -6.296910
  H      5.605920   -2.397820   -6.413370
  O      2.851550   -0.783680   -4.956790
  H      4.736040   -2.050110   -4.106440
  H      6.037760   -3.214920   -4.148900
  H      4.384360   -3.757840   -3.992140

 Total Charge           Charge          ....    0
 Multiplicity           Mult            ....    1
 Number of Electrons    NEL             ....   66
 Basis Dimension        Dim             ....  212

ORBITAL ENERGIES
----------------

  NO   OCC          E(Eh)            E(eV)
   0   2.0000     -88.619161     -2411.4500
   1   2.0000     -24.527016      -667.4140
   2   2.0000     -18.913983      -514.6757
   3   2.0000     -18.902745      -514.3698
   4   2.0000     -10.062193      -273.8062
   5   2.0000     -10.033652      -273.0296
   6   2.0000      -9.999642      -272.1041
   7   2.0000      -7.980216      -217.1527
   8   2.0000      -5.970457      -162.4644
   9   2.0000      -5.964128      -162.2922
  10   2.0000      -5.962161      -162.2386
  11   2.0000      -1.267418       -34.4882
  12   2.0000      -1.037353       -28.2278
  13   2.0000      -0.940370       -25.5888
  14   2.0000      -0.774855       -21.0849
  15   2.0000      -0.694315       -18.8933
  16   2.0000      -0.643228       -17.5031
  17   2.0000      -0.583295       -15.8723
  18   2.0000      -0.531502       -14.4629
  19   2.0000      -0.511378       -13.9153
  20   2.0000      -0.493504       -13.4289
  21   2.0000      -0.449554       -12.2330
  22   2.0000      -0.442438       -12.0393
  23   2.0000      -0.416704       -11.3391
  24   2.0000      -0.399926       -10.8825
  25   2.0000      -0.397855       -10.8262
  26   2.0000      -0.348574        -9.4852
  27   2.0000      -0.345861        -9.4114
  28   2.0000      -0.340406        -9.2629
  29   2.0000      -0.330744        -9.0000
  30   2.0000      -0.295405        -8.0384
  31   2.0000      -0.283223        -7.7069
  32   2.0000      -0.267994        -7.2925
  33   0.0000      -0.023117        -0.6290
  34   0.0000       0.008171         0.2223
  35   0.0000       0.020272         0.5516
  36   0.0000       0.023223         0.6319
  37   0.0000       0.027909         0.7594

MULLIKEN ATOMIC CHARGES
-----------------------
   0 C :   -0.231307
   1 C :   -0.050927
   2 H :    0.067757
   3 H :    0.045597
   4 S :    1.436258
   5 F :   -0.401465
   6 O :   -0.657690
   7 C :    0.750094
   8 H :   -0.099908
   9 H :   -0.003624
  10 O :   -0.691432
  11 H :   -0.151620
  12 H :   -0.027547
  13 H :    0.015814
Sum of atomic charges:    0.0000000

LOEWDIN ATOMIC CHARGES
----------------------
   0 C :   -0.069924
   1 C :   -0.049857
   2 H :    0.035581
   3 H :    0.018128
   4 S :    1.103847
   5 F :   -0.261866
   6 O :   -0.446241
   7 C :    0.148133
   8 H :    0.026418
   9 H :    0.018318
  10 O :   -0.460897
  11 H :   -0.036168
  12 H :   -0.015061
  13 H :   -0.010409

  Mayer bond orders larger than 0.100000
B(  0-C ,  1-C ) :   1.2094 B(  0-C ,  3-H ) :   0.1126 B(  0-C ,  7-C ) :   1.2800
B(  0-C ,  8-H ) :   0.9233 B(  0-C ,  9-H ) :   0.8999 B(  0-C , 11-H ) :   0.2347
B(  0-C , 12-H ) :   0.1941 B(  0-C , 13-H ) :   0.2000 B(  1-C ,  2-H ) :   0.9282
B(  1-C ,  3-H ) :   0.9432 B(  1-C ,  4-S ) :   0.9852 B(  1-C ,  9-H ) :   0.1271
B(  4-S ,  5-F ) :   0.6329 B(  4-S ,  6-O ) :   1.5623 B(  4-S , 10-O ) :   1.4912
B(  7-C , 11-H ) :   0.8359 B(  7-C , 12-H ) :   0.7597 B(  7-C , 13-H ) :   0.7608
B( 11-H , 13-H ) :   0.1052

Dispersion correction           -0.016060950
FINAL SINGLE POINT ENERGY      -766.651609801904

DIPOLE MOMENT
-------------
                                X             Y             Z
Electronic contribution:     -5.33211      10.21684      -5.28723
Nuclear contribution   :      6.51452     -11.35172       4.86721
                        -----------------------------------------
Total Dipole Moment    :      1.18241      -1.13488      -0.42002
                        -----------------------------------------
Magnitude (a.u.)       :      1.69188
Magnitude (Debye)      :      4.30042

Rotational constants in cm-1:     0.130386     0.053203     0.051661
Rotational constants in MHz :  3908.886819  1594.983443  1548.763987

                             ****ORCA TERMINATED NORMALLY****
TOTAL RUN TIME: 0 days 0 hours 0 minutes 8 seconds 64 msec
