                         Program Version 5.0.0 -  RELEASE  -
|  1> !TPSS D3BJ RIJCOSX def2-SVPD def2/J TightSCF
|  2> *xyz 0 1
|  3> C          4.49059        1.15590       -2.46929
|  4> C          4.30539        1.22276       -3.90832
|  5> C          4.63192        2.24637       -4.67096
|  6> N          4.54169        2.14399       -5.98714
|  7> N          5.08409        3.39358       -4.11855
|  8> H          4.92067        3.57050       -3.13587
|  9> H          5.25465        4.19739       -4.70696
| 10> H          3.82453        0.44911       -4.35093
| 11> H          4.34337        1.24932       -6.41665
| 12> H          4.67671        2.95662       -6.57411
| 13> C          5.94213        0.93950       -2.03689
| 14> H          3.86431        0.32853       -2.13661
| 15> H          4.07623        2.04999       -1.98901
| 16> C          6.55996       -0.35629       -2.55909
| 17> H          5.96798        0.95257       -0.94244
| 18> H          6.54718        1.78833       -2.36885
| 19> H          6.53022       -0.35990       -3.62867
| 20> H          6.00654       -1.19175       -2.18407
| 21> H          7.57588       -0.42487       -2.23029
| 22> *
| 23>
| 24> %MaxCore 64000
| 25>
| 26> %pal nprocs 8
| 27> end
| 28>
| 29> %scf
| 30>   MaxIter 150
| 31> end
| 32>
| 33>
| 34>                          ****END OF INPUT****

CARTESIAN COORDINATES (ANGSTROEM)
---------------------------------
  C      4.490590    1.155900   -2.469290
  C      4.305390    1.222760   -3.908320
  C      4.631920    2.246370   -4.670960
  N      4.541690    2.143990   -5.987140
  N      5.084090    3.393580   -4.118550
  H      4.920670    3.570500   -3.135870
  H      5.254650    4.197390   -4.706960
  H      3.824530    0.449110   -4.350930
  H      4.343370    1.249320   -6.416650
  H      4.676710    2.956620   -6.574110
  C      5.942130    0.939500   -2.036890
  H      3.864310    0.328530   -2.136610
  H      4.076230    2.049990   -1.989010
  C      6.559960   -0.356290   -2.559090
  H      5.967980    0.952570   -0.942440
  H      6.547180    1.788330   -2.368850
  H      6.530220   -0.359900   -3.628670
  H      6.006540   -1.191750   -2.184070
  H      7.575880   -0.424870   -2.230290

 Total Charge           Charge          ....    0
 Multiplicity           Mult            ....    1
 Number of Electrons    NEL             ....   56
 Basis Dimension        Dim             ....  236

ORBITAL ENERGIES
----------------

  NO   OCC          E(Eh)            E(eV)
   0   2.0000     -14.120417      -384.2361
   1   2.0000     -14.118797      -384.1920
   2   2.0000     -10.036260      -273.1005
   3   2.0000      -9.974834      -271.4290
   4   2.0000      -9.973767      -271.4000
   5   2.0000      -9.966470      -271.2014
   6   2.0000      -9.920465      -269.9496
   7   2.0000      -0.886321       -24.1180
   8   2.0000      -0.802293       -21.8315
   9   2.0000      -0.717646       -19.5281
  10   2.0000      -0.658230       -17.9113
  11   2.0000      -0.599976       -16.3262
  12   2.0000      -0.543875       -14.7996
  13   2.0000      -0.518594       -14.1117
  14   2.0000      -0.495924       -13.4948
  15   2.0000      -0.458553       -12.4779
  16   2.0000      -0.433651       -11.8002
  17   2.0000      -0.398990       -10.8571
  18   2.0000      -0.390662       -10.6304
  19   2.0000      -0.372005       -10.1228
  20   2.0000      -0.343475        -9.3464
  21   2.0000      -0.328135        -8.9290
  22   2.0000      -0.320018        -8.7081
  23   2.0000      -0.291109        -7.9215
  24   2.0000      -0.276046        -7.5116
  25   2.0000      -0.273179        -7.4336
  26   2.0000      -0.224717        -6.1148
  27   2.0000      -0.131012        -3.5650
  28   0.0000       0.000785         0.0214
  29   0.0000       0.026325         0.7163
  30   0.0000       0.032758         0.8914
  31   0.0000       0.044901         1.2218
  32   0.0000       0.053714         1.4616

MULLIKEN ATOMIC CHARGES
-----------------------
   0 C :    0.221086
   1 C :   -0.355096
   2 C :    1.103282
   3 N :   -0.078962
   4 N :   -0.063215
   5 H :   -0.021727
   6 H :   -0.254388
   7 H :   -0.353399
   8 H :   -0.036178
   9 H :   -0.166130
  10 C :   -0.390774
  11 H :   -0.002070
  12 H :   -0.087129
  13 C :    0.661356
  14 H :   -0.069834
  15 H :   -0.040190
  16 H :   -0.064419
  17 H :    0.037483
  18 H :   -0.039695
Sum of atomic charges:   -0.0000000

LOEWDIN ATOMIC CHARGES
----------------------
   0 C :   -0.060410
   1 C :   -0.034920
   2 C :   -0.213009
   3 N :    0.179188
   4 N :    0.208899
   5 H :   -0.012950
   6 H :   -0.014352
   7 H :   -0.049867
   8 H :    0.008482
   9 H :   -0.010564
  10 C :   -0.072819
  11 H :    0.012976
  12 H :   -0.000504
  13 C :    0.127583
  14 H :    0.007956
  15 H :    0.003578
  16 H :   -0.028898
  17 H :   -0.023268
  18 H :   -0.027102

  Mayer bond orders larger than 0.100000
B(  0-C ,  1-C ) :   1.1462 B(  0-C ,  7-H ) :   0.3037 B(  0-C , 10-C ) :   1.1433
B(  0-C , 11-H ) :   0.7284 B(  0-C , 12-H ) :   0.9065 B(  0-C , 14-H ) :   0.1241
B(  0-C , 15-H ) :   0.1482 B(  1-C ,  2-C ) :   1.5409 B(  1-C ,  3-N ) :   0.4207
B(  1-C ,  4-N ) :   0.2478 B(  1-C ,  7-H ) :   0.9307 B(  1-C , 11-H ) :   0.2828
B(  1-C , 12-H ) :   0.1531 B(  2-C ,  3-N ) :   0.7434 B(  2-C ,  4-N ) :   0.8642
B(  2-C ,  6-H ) :  -0.1862 B(  2-C ,  8-H ) :  -0.1089 B(  2-C ,  9-H ) :  -0.1010
B(  3-N ,  4-N ) :   0.1329 B(  3-N ,  8-H ) :   1.1814 B(  3-N ,  9-H ) :   1.2663
B(  4-N ,  5-H ) :   1.0505 B(  4-N ,  6-H ) :   1.3581 B(  5-H ,  6-H ) :  -0.1822
B(  8-H ,  9-H ) :  -0.1638 B( 10-C , 11-H ) :   0.1229 B( 10-C , 13-C ) :   1.3350
B( 10-C , 14-H ) :   0.9616 B( 10-C , 15-H ) :   0.9254 B( 10-C , 16-H ) :   0.2317
B( 10-C , 17-H ) :   0.2160 B( 10-C , 18-H ) :   0.2293 B( 13-C , 16-H ) :   0.8354
B( 13-C , 17-H ) :   0.7885 B( 13-C , 18-H ) :   0.7591

Dispersion correction           -0.020246810
FINAL SINGLE POINT ENERGY      -307.090958200056

DIPOLE MOMENT
-------------
                                X             Y             Z
Electronic contribution:     -2.32842       3.66416      -4.19608
Nuclear contribution   :      2.29046      -2.89565       3.47129
                        -----------------------------------------
Total Dipole Moment    :     -0.03796       0.76851      -0.72479
                        -----------------------------------------
Magnitude (a.u.)       :      1.05706
Magnitude (Debye)      :      2.68683

Rotational constants in cm-1:     0.154384     0.050352     0.046525
Rotational constants in MHz :  4628.320816  1509.522910  1394.780903

                             ****ORCA TERMINATED NORMALLY****
TOTAL RUN TIME: 0 days 0 hours 0 minutes 9 seconds 710 msec
