                         Program Version 5.0.0 -  RELEASE  -
|  1> !TPSS D3BJ RIJCOSX def2-SVPD def2/J TightSCF
|  2> *xyz 0 1
|  3> C          4.90646       -3.10282       -5.95484
|  4> C          3.51177       -2.80621       -6.49228
|  5> H          2.73604       -3.37345       -5.97374
|  6> H          3.44490       -3.04083       -7.55528
|  7> S          3.00462       -1.09621       -6.38926
|  8> O          4.12886       -0.32965       -6.95372
|  9> F          1.78128       -1.00078       -7.13640
| 10> C          5.02498       -3.02568       -4.43762
| 11> H          5.20153       -4.10021       -6.29691
| 12> H          5.60592       -2.39782       -6.41337
| 13> O          2.85155       -0.78368       -4.95679
| 14> H          4.73604       -2.05011       -4.10644
| 15> H          6.03776       -3.21492       -4.14890
| 16> H          4.38436       -3.75784       -3.99214
| 17> *
| 18>
| 19> %MaxCore 64000
| 20>
| 21> %pal nprocs 8
| 22> end
| 23>
| 24> %scf
| 25>   MaxIter 150
| 26> end
| 27>
| 28>
| 29>                          ****END OF INPUT****

CARTESIAN COORDINATES (ANGSTROEM)
---------------------------------
  C      4.906460   -3.102820   -5.954840
  C      3.511770   -2.806210   -6.492280
  H      2.736040   -3.373450   -5.973740
  H      3.444900   -3.040830   -7.555280
  S      3.004620   -1.096210   -6.389260
  O      4.128860   -0.329650   -6.953720
  F      1.781280   -1.000780   -7.136400
  C      5.024980   -3.025680   -4.437620
  H      5.201530   -4.100210   -6.296910
  H      5.605920   -2.397820   -6.413370
  O      2.851550   -0.783680   -4.956790
  H      4.736040   -2.050110   -4.106440
  H      6.037760   -3.214920   -4.148900
  H      4.384360   -3.757840   -3.992140

 Total Charge           Charge          ....    0
 Multiplicity           Mult            ....    1
 Number of Electrons    NEL             ....   66
 Basis Dimension        Dim             ....  212

ORBITAL ENERGIES
----------------

  NO   OCC          E(Eh)            E(eV)
   0   2.0000     -88.620961     -2411.4990
   1   2.0000     -24.544169      -667.8808
   2   2.0000     -18.903031      -514.3776
   3   2.0000     -18.902977      -514.3761
   4   2.0000     -10.063014      -273.8285
   5   2.0000     -10.029593      -272.9191
   6   2.0000      -9.994976      -271.9771
   7   2.0000      -7.982028      -217.2020
   8   2.0000      -5.972412      -162.5176
   9   2.0000      -5.965730      -162.3358
  10   2.0000      -5.963865      -162.2850
  11   2.0000      -1.297303       -35.3014
  12   2.0000      -1.024637       -27.8818
  13   2.0000      -0.927059       -25.2266
  14   2.0000      -0.771237       -20.9864
  15   2.0000      -0.699964       -19.0470
  16   2.0000      -0.651309       -17.7230
  17   2.0000      -0.583390       -15.8748
  18   2.0000      -0.532334       -14.4855
  19   2.0000      -0.528761       -14.3883
  20   2.0000      -0.506454       -13.7813
  21   2.0000      -0.449596       -12.2341
  22   2.0000      -0.443100       -12.0574
  23   2.0000      -0.412247       -11.2178
  24   2.0000      -0.399560       -10.8726
  25   2.0000      -0.387511       -10.5447
  26   2.0000      -0.343709        -9.3528
  27   2.0000      -0.338397        -9.2082
  28   2.0000      -0.332660        -9.0521
  29   2.0000      -0.325887        -8.8678
  30   2.0000      -0.286144        -7.7864
  31   2.0000      -0.279965        -7.6182
  32   2.0000      -0.258527        -7.0349
  33   0.0000      -0.018143        -0.4937
  34   0.0000      -0.001756        -0.0478
  35   0.0000       0.021971         0.5979
  36   0.0000       0.026506         0.7213
  37   0.0000       0.030850         0.8395

MULLIKEN ATOMIC CHARGES
-----------------------
   0 C :   -0.264998
   1 C :   -0.075018
   2 H :    0.074387
   3 H :    0.062067
   4 S :    1.469552
   5 O :   -0.673186
   6 F :   -0.411032
   7 C :    0.739754
   8 H :   -0.090520
   9 H :    0.024408
  10 O :   -0.690772
  11 H :   -0.149089
  12 H :   -0.027202
  13 H :    0.011649
Sum of atomic charges:    0.0000000

LOEWDIN ATOMIC CHARGES
----------------------
   0 C :   -0.054248
   1 C :   -0.061955
   2 H :    0.021447
   3 H :    0.015732
   4 S :    1.108544
   5 O :   -0.463342
   6 F :   -0.248133
   7 C :    0.150995
   8 H :    0.029517
   9 H :    0.024415
  10 O :   -0.464180
  11 H :   -0.031838
  12 H :   -0.014164
  13 H :   -0.012790

  Mayer bond orders larger than 0.100000
B(  0-C ,  1-C ) :   1.2647 B(  0-C ,  2-H ) :   0.1031 B(  0-C ,  3-H ) :   0.1276
B(  0-C ,  7-C ) :   1.2724 B(  0-C ,  8-H ) :   0.9180 B(  0-C ,  9-H ) :   0.9028
B(  0-C , 11-H ) :   0.2272 B(  0-C , 12-H ) :   0.1960 B(  0-C , 13-H ) :   0.1953
B(  1-C ,  2-H ) :   0.9209 B(  1-C ,  3-H ) :   0.8989 B(  1-C ,  4-S ) :   0.9528
B(  1-C ,  8-H ) :   0.1038 B(  1-C ,  9-H ) :   0.1367 B(  4-S ,  5-O ) :   1.4868
B(  4-S ,  6-F ) :   0.6779 B(  4-S , 10-O ) :   1.4649 B(  7-C , 11-H ) :   0.8413
B(  7-C , 12-H ) :   0.7567 B(  7-C , 13-H ) :   0.7588 B( 11-H , 13-H ) :   0.1052

Dispersion correction           -0.016162593
FINAL SINGLE POINT ENERGY      -766.637058028904

DIPOLE MOMENT
-------------
                                X             Y             Z
Electronic contribution:     -9.29960       9.10385      -5.60681
Nuclear contribution   :      9.03920     -10.62996       5.06367
                        -----------------------------------------
Total Dipole Moment    :     -0.26040      -1.52611      -0.54314
                        -----------------------------------------
Magnitude (a.u.)       :      1.64068
Magnitude (Debye)      :      4.17027

Rotational constants in cm-1:     0.135071     0.052485     0.050188
Rotational constants in MHz :  4049.321380  1573.451279  1504.609887

                             ****ORCA TERMINATED NORMALLY****
TOTAL RUN TIME: 0 days 0 hours 0 minutes 7 seconds 404 msec
