                         Program Version 5.0.0 -  RELEASE  -
|  1> !TPSS D3BJ RIJCOSX def2-SVPD def2/J TightSCF
|  2> *xyz 0 1
|  3> C          4.49059        1.15590       -2.46929
|  4> N          4.30539        1.22276       -3.90832
|  5> C          4.63192        2.24637       -4.67096
|  6> C          4.54169        2.14399       -5.98714
|  7> N          5.08409        3.39358       -4.11855
|  8> H          4.92067        3.57050       -3.13587
|  9> H          5.25465        4.19739       -4.70696
| 10> H          3.82453        0.44911       -4.35093
| 11> H          4.34337        1.24932       -6.41665
| 12> H          4.67671        2.95662       -6.57411
| 13> C          5.94213        0.93950       -2.03689
| 14> H          3.86431        0.32853       -2.13661
| 15> H          4.07623        2.04999       -1.98901
| 16> C          6.55996       -0.35629       -2.55909
| 17> H          5.96798        0.95257       -0.94244
| 18> H          6.54718        1.78833       -2.36885
| 19> H          6.53022       -0.35990       -3.62867
| 20> H          6.00654       -1.19175       -2.18407
| 21> H          7.57588       -0.42487       -2.23029
| 22> *
| 23>
| 24> %MaxCore 64000
| 25>
| 26> %pal nprocs 8
| 27> end
| 28>
| 29> %scf
| 30>   MaxIter 150
| 31> end
| 32>
| 33>
| 34>                          ****END OF INPUT****

CARTESIAN COORDINATES (ANGSTROEM)
---------------------------------
  C      4.490590    1.155900   -2.469290
  N      4.305390    1.222760   -3.908320
  C      4.631920    2.246370   -4.670960
  C      4.541690    2.143990   -5.987140
  N      5.084090    3.393580   -4.118550
  H      4.920670    3.570500   -3.135870
  H      5.254650    4.197390   -4.706960
  H      3.824530    0.449110   -4.350930
  H      4.343370    1.249320   -6.416650
  H      4.676710    2.956620   -6.574110
  C      5.942130    0.939500   -2.036890
  H      3.864310    0.328530   -2.136610
  H      4.076230    2.049990   -1.989010
  C      6.559960   -0.356290   -2.559090
  H      5.967980    0.952570   -0.942440
  H      6.547180    1.788330   -2.368850
  H      6.530220   -0.359900   -3.628670
  H      6.006540   -1.191750   -2.184070
  H      7.575880   -0.424870   -2.230290

 Total Charge           Charge          ....    0
 Multiplicity           Mult            ....    1
 Number of Electrons    NEL             ....   56
 Basis Dimension        Dim             ....  236

ORBITAL ENERGIES
----------------

  NO   OCC          E(Eh)            E(eV)
   0   2.0000     -14.117021      -384.1437
   1   2.0000     -14.116829      -384.1384
   2   2.0000     -10.039172      -273.1798
   3   2.0000     -10.036187      -273.0985
   4   2.0000      -9.998773      -272.0805
   5   2.0000      -9.986237      -271.7393
   6   2.0000      -9.911410      -269.7032
   7   2.0000      -0.892978       -24.2992
   8   2.0000      -0.811996       -22.0955
   9   2.0000      -0.723126       -19.6773
  10   2.0000      -0.662584       -18.0298
  11   2.0000      -0.610974       -16.6255
  12   2.0000      -0.560282       -15.2460
  13   2.0000      -0.534406       -14.5419
  14   2.0000      -0.486059       -13.2263
  15   2.0000      -0.454328       -12.3629
  16   2.0000      -0.437632       -11.9086
  17   2.0000      -0.417168       -11.3517
  18   2.0000      -0.398545       -10.8450
  19   2.0000      -0.366353        -9.9690
  20   2.0000      -0.351853        -9.5744
  21   2.0000      -0.349674        -9.5151
  22   2.0000      -0.330844        -9.0027
  23   2.0000      -0.311946        -8.4885
  24   2.0000      -0.309691        -8.4271
  25   2.0000      -0.303243        -8.2517
  26   2.0000      -0.214787        -5.8447
  27   2.0000      -0.131202        -3.5702
  28   0.0000       0.000850         0.0231
  29   0.0000       0.020818         0.5665
  30   0.0000       0.029755         0.8097
  31   0.0000       0.037239         1.0133
  32   0.0000       0.056878         1.5477

MULLIKEN ATOMIC CHARGES
-----------------------
   0 C :    0.704458
   1 N :   -0.473669
   2 C :    0.839382
   3 C :    0.217894
   4 N :    0.104646
   5 H :   -0.103761
   6 H :   -0.196929
   7 H :   -0.206760
   8 H :   -0.223148
   9 H :   -0.344189
  10 C :   -0.414360
  11 H :   -0.316209
  12 H :   -0.047597
  13 C :    0.643544
  14 H :   -0.133312
  15 H :    0.033477
  16 H :   -0.071960
  17 H :    0.051897
  18 H :   -0.063406
Sum of atomic charges:   -0.0000000

LOEWDIN ATOMIC CHARGES
----------------------
   0 C :    0.048001
   1 N :   -0.013787
   2 C :   -0.234314
   3 C :    0.144118
   4 N :    0.204765
   5 H :   -0.027430
   6 H :    0.003033
   7 H :    0.037465
   8 H :   -0.100502
   9 H :   -0.102813
  10 C :   -0.062292
  11 H :    0.018602
  12 H :    0.004541
  13 C :    0.131820
  14 H :    0.013383
  15 H :    0.005803
  16 H :   -0.024410
  17 H :   -0.023206
  18 H :   -0.022776

  Mayer bond orders larger than 0.100000
B(  0-C ,  1-N ) :   0.8992 B(  0-C ,  2-C ) :  -0.1014 B(  0-C ,  7-H ) :  -0.1724
B(  0-C , 10-C ) :   1.1177 B(  0-C , 11-H ) :   0.7961 B(  0-C , 12-H ) :   0.8971
B(  0-C , 15-H ) :   0.1148 B(  1-N ,  2-C ) :   0.9646 B(  1-N ,  3-C ) :   0.2480
B(  1-N ,  4-N ) :   0.2151 B(  1-N ,  7-H ) :   1.2977 B(  1-N , 11-H ) :   0.2303
B(  2-C ,  3-C ) :   1.2643 B(  2-C ,  4-N ) :   0.9085 B(  2-C ,  6-H ) :  -0.1055
B(  2-C ,  7-H ) :  -0.2009 B(  2-C ,  9-H ) :   0.1266 B(  3-C ,  4-N ) :   0.2202
B(  3-C ,  8-H ) :   0.9032 B(  3-C ,  9-H ) :   0.8109 B(  4-N ,  5-H ) :   1.0552
B(  4-N ,  6-H ) :   1.2421 B(  5-H ,  6-H ) :  -0.1837 B( 10-C , 11-H ) :   0.1338
B( 10-C , 13-C ) :   1.3023 B( 10-C , 14-H ) :   1.0477 B( 10-C , 15-H ) :   0.9060
B( 10-C , 16-H ) :   0.2117 B( 10-C , 17-H ) :   0.1862 B( 10-C , 18-H ) :   0.2161
B( 13-C , 16-H ) :   0.8444 B( 13-C , 17-H ) :   0.8006 B( 13-C , 18-H ) :   0.8016

Dispersion correction           -0.020039696
FINAL SINGLE POINT ENERGY      -307.085316715207

DIPOLE MOMENT
-------------
                                X             Y             Z
Electronic contribution:     -2.44536       2.73777      -2.01740
Nuclear contribution   :      2.34222      -2.69386       3.01591
                        -----------------------------------------
Total Dipole Moment    :     -0.10314       0.04392       0.99851
                        -----------------------------------------
Magnitude (a.u.)       :      1.00478
Magnitude (Debye)      :      2.55395

Rotational constants in cm-1:     0.155143     0.051710     0.048050
Rotational constants in MHz :  4651.080391  1550.217078  1440.507386

                             ****ORCA TERMINATED NORMALLY****
TOTAL RUN TIME: 0 days 0 hours 0 minutes 10 seconds 452 msec
