                         Program Version 5.0.0 -  RELEASE  -
|  1> !TPSS D3BJ RIJCOSX def2-SVPD def2/J TightSCF
|  2> *xyz 0 1
|  3> C          4.90646       -3.10282       -5.95484
|  4> C          3.51177       -2.80621       -6.49228
|  5> H          2.73604       -3.37345       -5.97374
|  6> H          3.44490       -3.04083       -7.55528
|  7> S          3.00462       -1.09621       -6.38926
|  8> O          4.12886       -0.32965       -6.95372
|  9> O          1.78128       -1.00078       -7.13640
| 10> C          5.02498       -3.02568       -4.43762
| 11> H          5.20153       -4.10021       -6.29691
| 12> H          5.60592       -2.39782       -6.41337
| 13> F          2.85155       -0.78368       -4.95679
| 14> H          4.73604       -2.05011       -4.10644
| 15> H          6.03776       -3.21492       -4.14890
| 16> H          4.38436       -3.75784       -3.99214
| 17> *
| 18>
| 19> %MaxCore 64000
| 20>
| 21> %pal nprocs 8
| 22> end
| 23>
| 24> %scf
| 25>   MaxIter 150
| 26> end
| 27>
| 28>
| 29>                          ****END OF INPUT****

CARTESIAN COORDINATES (ANGSTROEM)
---------------------------------
  C      4.906460   -3.102820   -5.954840
  C      3.511770   -2.806210   -6.492280
  H      2.736040   -3.373450   -5.973740
  H      3.444900   -3.040830   -7.555280
  S      3.004620   -1.096210   -6.389260
  O      4.128860   -0.329650   -6.953720
  O      1.781280   -1.000780   -7.136400
  C      5.024980   -3.025680   -4.437620
  H      5.201530   -4.100210   -6.296910
  H      5.605920   -2.397820   -6.413370
  F      2.851550   -0.783680   -4.956790
  H      4.736040   -2.050110   -4.106440
  H      6.037760   -3.214920   -4.148900
  H      4.384360   -3.757840   -3.992140

 Total Charge           Charge          ....    0
 Multiplicity           Mult            ....    1
 Number of Electrons    NEL             ....   66
 Basis Dimension        Dim             ....  212

ORBITAL ENERGIES
----------------

  NO   OCC          E(Eh)            E(eV)
   0   2.0000     -88.618650     -2411.4361
   1   2.0000     -24.525882      -667.3832
   2   2.0000     -18.913903      -514.6735
   3   2.0000     -18.902925      -514.3747
   4   2.0000     -10.062054      -273.8024
   5   2.0000     -10.030648      -272.9478
   6   2.0000     -10.009139      -272.3625
   7   2.0000      -7.979722      -217.1393
   8   2.0000      -5.969940      -162.4503
   9   2.0000      -5.963605      -162.2779
  10   2.0000      -5.961712      -162.2264
  11   2.0000      -1.266167       -34.4542
  12   2.0000      -1.036977       -28.2176
  13   2.0000      -0.941225       -25.6120
  14   2.0000      -0.774164       -21.0661
  15   2.0000      -0.696285       -18.9469
  16   2.0000      -0.644688       -17.5429
  17   2.0000      -0.586657       -15.9638
  18   2.0000      -0.524860       -14.2822
  19   2.0000      -0.509759       -13.8713
  20   2.0000      -0.498545       -13.5661
  21   2.0000      -0.449197       -12.2233
  22   2.0000      -0.441768       -12.0211
  23   2.0000      -0.420108       -11.4317
  24   2.0000      -0.408910       -11.1270
  25   2.0000      -0.393981       -10.7208
  26   2.0000      -0.355018        -9.6605
  27   2.0000      -0.348082        -9.4718
  28   2.0000      -0.333101        -9.0642
  29   2.0000      -0.330868        -9.0034
  30   2.0000      -0.295003        -8.0274
  31   2.0000      -0.286813        -7.8046
  32   2.0000      -0.270143        -7.3510
  33   0.0000      -0.019776        -0.5381
  34   0.0000       0.006267         0.1705
  35   0.0000       0.017584         0.4785
  36   0.0000       0.023094         0.6284
  37   0.0000       0.030308         0.8247

MULLIKEN ATOMIC CHARGES
-----------------------
   0 C :   -0.216278
   1 C :   -0.069638
   2 H :    0.075672
   3 H :    0.057511
   4 S :    1.425618
   5 O :   -0.682441
   6 O :   -0.654262
   7 C :    0.729426
   8 H :   -0.087590
   9 H :    0.020973
  10 F :   -0.407386
  11 H :   -0.175905
  12 H :   -0.031903
  13 H :    0.016203
Sum of atomic charges:    0.0000000

LOEWDIN ATOMIC CHARGES
----------------------
   0 C :   -0.066725
   1 C :   -0.051105
   2 H :    0.021633
   3 H :    0.030854
   4 S :    1.100083
   5 O :   -0.461076
   6 O :   -0.446643
   7 C :    0.145826
   8 H :    0.027992
   9 H :    0.022482
  10 F :   -0.264949
  11 H :   -0.032983
  12 H :   -0.012338
  13 H :   -0.013052

  Mayer bond orders larger than 0.100000
B(  0-C ,  1-C ) :   1.2390 B(  0-C ,  2-H ) :   0.1055 B(  0-C ,  3-H ) :   0.1104
B(  0-C ,  7-C ) :   1.2695 B(  0-C ,  8-H ) :   0.9058 B(  0-C ,  9-H ) :   0.9112
B(  0-C , 11-H ) :   0.2216 B(  0-C , 12-H ) :   0.1962 B(  0-C , 13-H ) :   0.1942
B(  1-C ,  2-H ) :   0.9243 B(  1-C ,  3-H ) :   0.9238 B(  1-C ,  4-S ) :   0.9914
B(  1-C ,  8-H ) :   0.1105 B(  1-C ,  9-H ) :   0.1403 B(  4-S ,  5-O ) :   1.5057
B(  4-S ,  6-O ) :   1.5552 B(  4-S , 10-F ) :   0.6249 B(  7-C , 11-H ) :   0.8385
B(  7-C , 12-H ) :   0.7665 B(  7-C , 13-H ) :   0.7686

Dispersion correction           -0.016027171
FINAL SINGLE POINT ENERGY      -766.652370868164

DIPOLE MOMENT
-------------
                                X             Y             Z
Electronic contribution:     -7.45859       9.42320      -1.91397
Nuclear contribution   :      7.88819     -10.86344       2.71963
                        -----------------------------------------
Total Dipole Moment    :      0.42960      -1.44024       0.80566
                        -----------------------------------------
Magnitude (a.u.)       :      1.70526
Magnitude (Debye)      :      4.33443

Rotational constants in cm-1:     0.130261     0.054435     0.050898
Rotational constants in MHz :  3905.114465  1631.935083  1525.880669

                             ****ORCA TERMINATED NORMALLY****
TOTAL RUN TIME: 0 days 0 hours 0 minutes 8 seconds 460 msec
