                         Program Version 5.0.0 -  RELEASE  -
|  1> !TPSS D3BJ RIJCOSX def2-SVPD def2/J TightSCF
|  2> *xyz 0 1
|  3> C          4.49059        1.15590       -2.46929
|  4> N          4.30539        1.22276       -3.90832
|  5> C          4.63192        2.24637       -4.67096
|  6> N          4.54169        2.14399       -5.98714
|  7> C          5.08409        3.39358       -4.11855
|  8> H          4.92067        3.57050       -3.13587
|  9> H          5.25465        4.19739       -4.70696
| 10> H          3.82453        0.44911       -4.35093
| 11> H          4.34337        1.24932       -6.41665
| 12> H          4.67671        2.95662       -6.57411
| 13> C          5.94213        0.93950       -2.03689
| 14> H          3.86431        0.32853       -2.13661
| 15> H          4.07623        2.04999       -1.98901
| 16> C          6.55996       -0.35629       -2.55909
| 17> H          5.96798        0.95257       -0.94244
| 18> H          6.54718        1.78833       -2.36885
| 19> H          6.53022       -0.35990       -3.62867
| 20> H          6.00654       -1.19175       -2.18407
| 21> H          7.57588       -0.42487       -2.23029
| 22> *
| 23>
| 24> %MaxCore 64000
| 25>
| 26> %pal nprocs 8
| 27> end
| 28>
| 29> %scf
| 30>   MaxIter 150
| 31> end
| 32>
| 33>
| 34>                          ****END OF INPUT****

CARTESIAN COORDINATES (ANGSTROEM)
---------------------------------
  C      4.490590    1.155900   -2.469290
  N      4.305390    1.222760   -3.908320
  C      4.631920    2.246370   -4.670960
  N      4.541690    2.143990   -5.987140
  C      5.084090    3.393580   -4.118550
  H      4.920670    3.570500   -3.135870
  H      5.254650    4.197390   -4.706960
  H      3.824530    0.449110   -4.350930
  H      4.343370    1.249320   -6.416650
  H      4.676710    2.956620   -6.574110
  C      5.942130    0.939500   -2.036890
  H      3.864310    0.328530   -2.136610
  H      4.076230    2.049990   -1.989010
  C      6.559960   -0.356290   -2.559090
  H      5.967980    0.952570   -0.942440
  H      6.547180    1.788330   -2.368850
  H      6.530220   -0.359900   -3.628670
  H      6.006540   -1.191750   -2.184070
  H      7.575880   -0.424870   -2.230290

 Total Charge           Charge          ....    0
 Multiplicity           Mult            ....    1
 Number of Electrons    NEL             ....   56
 Basis Dimension        Dim             ....  236

ORBITAL ENERGIES
----------------

  NO   OCC          E(Eh)            E(eV)
   0   2.0000     -14.120885      -384.2488
   1   2.0000     -14.120005      -384.2249
   2   2.0000     -10.039190      -273.1803
   3   2.0000     -10.031780      -272.9786
   4   2.0000      -9.989503      -271.8282
   5   2.0000      -9.981551      -271.6118
   6   2.0000      -9.913172      -269.7511
   7   2.0000      -0.897027       -24.4093
   8   2.0000      -0.818952       -22.2848
   9   2.0000      -0.711477       -19.3603
  10   2.0000      -0.649140       -17.6640
  11   2.0000      -0.629157       -17.1202
  12   2.0000      -0.553524       -15.0621
  13   2.0000      -0.507035       -13.7971
  14   2.0000      -0.503222       -13.6934
  15   2.0000      -0.476735       -12.9726
  16   2.0000      -0.430497       -11.7144
  17   2.0000      -0.408027       -11.1030
  18   2.0000      -0.388660       -10.5760
  19   2.0000      -0.362620        -9.8674
  20   2.0000      -0.348512        -9.4835
  21   2.0000      -0.345780        -9.4092
  22   2.0000      -0.329292        -8.9605
  23   2.0000      -0.308449        -8.3933
  24   2.0000      -0.304005        -8.2724
  25   2.0000      -0.295371        -8.0375
  26   2.0000      -0.211843        -5.7645
  27   2.0000      -0.133136        -3.6228
  28   0.0000      -0.000635        -0.0173
  29   0.0000       0.023786         0.6473
  30   0.0000       0.030757         0.8369
  31   0.0000       0.040465         1.1011
  32   0.0000       0.052349         1.4245

MULLIKEN ATOMIC CHARGES
-----------------------
   0 C :    0.686674
   1 N :   -0.568262
   2 C :    0.830528
   3 N :    0.004991
   4 C :    0.294975
   5 H :    0.001339
   6 H :   -0.537799
   7 H :   -0.283947
   8 H :   -0.151107
   9 H :   -0.078691
  10 C :   -0.403114
  11 H :   -0.321809
  12 H :    0.071549
  13 C :    0.629803
  14 H :   -0.111640
  15 H :    0.037945
  16 H :   -0.075378
  17 H :    0.038125
  18 H :   -0.064181
Sum of atomic charges:   -0.0000000

LOEWDIN ATOMIC CHARGES
----------------------
   0 C :    0.055864
   1 N :   -0.018939
   2 C :   -0.233552
   3 N :    0.183890
   4 C :    0.165555
   5 H :   -0.115612
   6 H :   -0.107818
   7 H :    0.022213
   8 H :   -0.009033
   9 H :    0.008724
  10 C :   -0.054110
  11 H :    0.017580
  12 H :    0.013120
  13 C :    0.127935
  14 H :    0.015868
  15 H :    0.007139
  16 H :   -0.029661
  17 H :   -0.025614
  18 H :   -0.023548

  Mayer bond orders larger than 0.100000
B(  0-C ,  1-N ) :   0.8857 B(  0-C ,  5-H ) :   0.1142 B(  0-C ,  7-H ) :  -0.1768
B(  0-C , 10-C ) :   1.1018 B(  0-C , 11-H ) :   0.8631 B(  0-C , 12-H ) :   0.8624
B(  0-C , 15-H ) :   0.1229 B(  1-N ,  2-C ) :   0.8106 B(  1-N ,  3-N ) :   0.2516
B(  1-N ,  4-C ) :   0.3673 B(  1-N ,  7-H ) :   1.4701 B(  1-N , 11-H ) :   0.1704
B(  2-C ,  3-N ) :   0.8435 B(  2-C ,  4-C ) :   1.5932 B(  2-C ,  5-H ) :   0.2605
B(  2-C ,  6-H ) :   0.1889 B(  2-C ,  7-H ) :  -0.3300 B(  2-C ,  8-H ) :  -0.1088
B(  3-N ,  4-C ) :   0.2532 B(  3-N ,  8-H ) :   1.2091 B(  3-N ,  9-H ) :   1.2189
B(  4-C ,  5-H ) :   0.6589 B(  4-C ,  6-H ) :   0.8905 B(  5-H , 12-H ) :   0.1007
B(  8-H ,  9-H ) :  -0.1618 B( 10-C , 11-H ) :   0.1366 B( 10-C , 13-C ) :   1.2974
B( 10-C , 14-H ) :   1.0298 B( 10-C , 15-H ) :   0.9204 B( 10-C , 16-H ) :   0.2021
B( 10-C , 17-H ) :   0.1849 B( 10-C , 18-H ) :   0.2148 B( 11-H , 12-H ) :  -0.1241
B( 13-C , 16-H ) :   0.8558 B( 13-C , 17-H ) :   0.8035 B( 13-C , 18-H ) :   0.8046

Dispersion correction           -0.020147207
FINAL SINGLE POINT ENERGY      -307.084869201346

DIPOLE MOMENT
-------------
                                X             Y             Z
Electronic contribution:     -2.92510       1.57696      -3.87325
Nuclear contribution   :      2.46104      -2.42013       3.42523
                        -----------------------------------------
Total Dipole Moment    :     -0.46407      -0.84317      -0.44802
                        -----------------------------------------
Magnitude (a.u.)       :      1.06161
Magnitude (Debye)      :      2.69839

Rotational constants in cm-1:     0.157414     0.050835     0.047338
Rotational constants in MHz :  4719.163414  1524.007825  1419.164399

                             ****ORCA TERMINATED NORMALLY****
TOTAL RUN TIME: 0 days 0 hours 0 minutes 9 seconds 635 msec
