                         Program Version 5.0.0 -  RELEASE  -
|  1> !TPSS D3BJ RIJCOSX def2-SVPD def2/J TightSCF xyzfile
|  2>
|  3> *xyzfile 0 1 D1.xyz
|  4>
|  5> %MaxCore 64000
|  6>
|  7> %pal nprocs 4
|  8> end
|  9>
| 10> %scf
| 11>   MaxIter 150
| 12> end
| 13>
| 14>
| 15>                          ****END OF INPUT****

CARTESIAN COORDINATES (ANGSTROEM)
---------------------------------
  C      4.490588    1.155899   -2.469290
  C      4.305394    1.222762   -3.908317
  C      4.906458   -3.102816   -5.954844
  C      3.511771   -2.806215   -6.492283
  H      2.736044   -3.373445   -5.973736
  H      3.444904   -3.040831   -7.555281
  S      3.004618   -1.096206   -6.389259
  C      4.631918    2.246365   -4.670958
  N      4.541686    2.143990   -5.987139
  N      5.084086    3.393584   -4.118545
  H      4.920675    3.570501   -3.135870
  H      5.254652    4.197390   -4.706956
  H      3.824530    0.449113   -4.350926
  H      4.343373    1.249318   -6.416646
  H      4.676712    2.956624   -6.574113
  F      4.128856   -0.329647   -6.953717
  O      1.781285   -1.000779   -7.136399
  C      5.942129    0.939500   -2.036893
  H      3.864305    0.328532   -2.136611
  H      4.076233    2.049994   -1.989010
  C      6.462677   -3.117775   -3.944671
  C      5.024977   -3.025679   -4.437625
  H      4.423321   -3.818693   -3.977648
  H      4.579350   -2.087131   -4.108727
  H      5.201533   -4.100207   -6.296905
  H      5.605922   -2.397822   -6.413368
  C      6.559957   -0.356290   -2.559086
  H      5.967976    0.952567   -0.942444
  H      6.547184    1.788331   -2.368849
  C      6.006283   -1.615917   -1.899301
  H      7.642360   -0.318000   -2.402059
  H      6.414855   -0.403433   -3.642587
  C      6.608718   -2.917014   -2.435655
  H      6.190324   -1.561115   -0.820948
  H      4.919250   -1.651245   -2.016586
  H      7.066975   -2.374258   -4.475514
  H      6.887808   -4.089747   -4.215332
  H      6.135197   -3.755573   -1.915159
  H      7.671142   -2.955503   -2.172291
  O      2.851546   -0.783683   -4.956789

 Total Charge           Charge          ....    0
 Multiplicity           Mult            ....    1
 Number of Electrons    NEL             ....  144
 Basis Dimension        Dim             ....  540

ORBITAL ENERGIES
----------------

  NO   OCC          E(Eh)            E(eV)
   0   2.0000     -88.629197     -2411.7231
   1   2.0000     -24.546501      -667.9443
   2   2.0000     -18.922299      -514.9019
   3   2.0000     -18.910191      -514.5725
   4   2.0000     -14.108667      -383.9163
   5   2.0000     -14.104239      -383.7959
   6   2.0000     -10.065896      -273.9070
   7   2.0000     -10.031250      -272.9642
   8   2.0000     -10.020804      -272.6799
   9   2.0000     -10.001252      -272.1479
  10   2.0000      -9.996663      -272.0230
  11   2.0000      -9.990015      -271.8421
  12   2.0000      -9.981302      -271.6050
  13   2.0000      -9.974425      -271.4179
  14   2.0000      -9.969025      -271.2710
  15   2.0000      -9.963031      -271.1079
  16   2.0000      -9.895038      -269.2577
  17   2.0000      -7.989332      -217.4008
  18   2.0000      -5.979785      -162.7182
  19   2.0000      -5.973274      -162.5410
  20   2.0000      -5.971130      -162.4827
  21   2.0000      -1.287816       -35.0432
  22   2.0000      -1.046662       -28.4811
  23   2.0000      -0.950522       -25.8650
  24   2.0000      -0.874023       -23.7834
  25   2.0000      -0.791785       -21.5456
  26   2.0000      -0.780343       -21.2342
  27   2.0000      -0.741815       -20.1858
  28   2.0000      -0.714583       -19.4448
  29   2.0000      -0.691428       -18.8147
  30   2.0000      -0.667500       -18.1636
  31   2.0000      -0.643661       -17.5149
  32   2.0000      -0.614758       -16.7284
  33   2.0000      -0.585947       -15.9444
  34   2.0000      -0.563350       -15.3295
  35   2.0000      -0.553632       -15.0651
  36   2.0000      -0.536089       -14.5877
  37   2.0000      -0.530834       -14.4447
  38   2.0000      -0.512060       -13.9338
  39   2.0000      -0.510474       -13.8907
  40   2.0000      -0.493704       -13.4344
  41   2.0000      -0.482542       -13.1306
  42   2.0000      -0.455762       -12.4019
  43   2.0000      -0.448545       -12.2055
  44   2.0000      -0.443892       -12.0789
  45   2.0000      -0.430624       -11.7179
  46   2.0000      -0.419615       -11.4183
  47   2.0000      -0.411873       -11.2076
  48   2.0000      -0.409593       -11.1456
  49   2.0000      -0.406744       -11.0681
  50   2.0000      -0.387488       -10.5441
  51   2.0000      -0.379882       -10.3371
  52   2.0000      -0.376701       -10.2505
  53   2.0000      -0.363223        -9.8838
  54   2.0000      -0.351760        -9.5719
  55   2.0000      -0.342684        -9.3249
  56   2.0000      -0.340530        -9.2663
  57   2.0000      -0.333348        -9.0709
  58   2.0000      -0.324938        -8.8420
  59   2.0000      -0.316412        -8.6100
  60   2.0000      -0.310977        -8.4621
  61   2.0000      -0.303961        -8.2712
  62   2.0000      -0.300513        -8.1774
  63   2.0000      -0.288969        -7.8632
  64   2.0000      -0.285867        -7.7788
  65   2.0000      -0.275137        -7.4869
  66   2.0000      -0.273164        -7.4332
  67   2.0000      -0.265913        -7.2359
  68   2.0000      -0.259212        -7.0535
  69   2.0000      -0.241955        -6.5839
  70   2.0000      -0.213741        -5.8162
  71   2.0000      -0.116938        -3.1820
  72   0.0000      -0.029731        -0.8090
  73   0.0000       0.004213         0.1147
  74   0.0000       0.008964         0.2439
  75   0.0000       0.014217         0.3869
  76   0.0000       0.015928         0.4334

MULLIKEN ATOMIC CHARGES
-----------------------
   0 C :    0.064019
   1 C :    0.042995
   2 C :    0.199419
   3 C :    0.228190
   4 H :    0.089365
   5 H :    0.013904
   6 S :    1.410331
   7 C :    1.106983
   8 N :    0.212051
   9 N :   -0.033042
  10 H :   -0.039774
  11 H :   -0.271490
  12 H :   -0.493010
  13 H :   -0.237951
  14 H :   -0.209260
  15 F :   -0.429841
  16 O :   -0.700498
  17 C :    0.340065
  18 H :    0.128587
  19 H :   -0.197989
  20 C :   -0.038716
  21 C :    0.251780
  22 H :    0.060780
  23 H :   -0.485855
  24 H :   -0.083018
  25 H :    0.049179
  26 C :    0.020781
  27 H :   -0.046019
  28 H :   -0.097817
  29 C :   -0.147195
  30 H :   -0.092588
  31 H :   -0.032690
  32 C :    0.577975
  33 H :   -0.312333
  34 H :    0.148115
  35 H :    0.151154
  36 H :   -0.313835
  37 H :   -0.015389
  38 H :    0.025294
  39 O :   -0.842654
Sum of atomic charges:    0.0000000

LOEWDIN ATOMIC CHARGES
----------------------
   0 C :   -0.033938
   1 C :   -0.011598
   2 C :   -0.027864
   3 C :   -0.034456
   4 H :    0.039453
   5 H :    0.019527
   6 S :    1.141981
   7 C :   -0.190803
   8 N :    0.202632
   9 N :    0.205750
  10 H :   -0.015092
  11 H :   -0.017867
  12 H :   -0.144287
  13 H :   -0.078698
  14 H :   -0.007058
  15 F :   -0.254686
  16 O :   -0.428927
  17 C :   -0.022869
  18 H :    0.007865
  19 H :    0.001045
  20 C :   -0.028821
  21 C :   -0.017916
  22 H :    0.038178
  23 H :   -0.015225
  24 H :    0.032269
  25 H :    0.022315
  26 C :   -0.024563
  27 H :    0.010651
  28 H :    0.005772
  29 C :   -0.027554
  30 H :    0.019119
  31 H :    0.002218
  32 C :   -0.023246
  33 H :    0.019288
  34 H :    0.004932
  35 H :    0.013607
  36 H :    0.017813
  37 H :    0.016491
  38 H :    0.017765
  39 O :   -0.433202

  Mayer bond orders larger than 0.100000
B(  0-C ,  1-C ) :   1.2354 B(  0-C , 12-H ) :   0.7886 B(  0-C , 17-C ) :   1.1176
B(  0-C , 18-H ) :   0.7093 B(  0-C , 19-H ) :   0.9194 B(  0-C , 27-H ) :   0.1820
B(  0-C , 28-H ) :   0.1549 B(  1-C ,  7-C ) :   1.6109 B(  1-C ,  8-N ) :   0.3684
B(  1-C ,  9-N ) :   0.3296 B(  1-C , 10-H ) :  -0.1111 B(  1-C , 12-H ) :  -0.1731
B(  1-C , 17-C ) :   0.1028 B(  1-C , 18-H ) :   0.3237 B(  1-C , 19-H ) :   0.1934
B(  2-C ,  3-C ) :   1.2130 B(  2-C ,  5-H ) :   0.2261 B(  2-C , 20-C ) :   0.1134
B(  2-C , 21-C ) :   1.1296 B(  2-C , 24-H ) :   0.8451 B(  2-C , 25-H ) :   0.8498
B(  3-C ,  4-H ) :   0.8955 B(  3-C ,  5-H ) :   0.7636 B(  3-C ,  6-S ) :   0.9889
B(  6-S , 15-F ) :   0.5859 B(  6-S , 16-O ) :   1.4289 B(  6-S , 39-O ) :   1.5348
B(  7-C ,  8-N ) :   0.7620 B(  7-C ,  9-N ) :   0.7518 B(  7-C , 11-H ) :  -0.1972
B(  7-C , 12-H ) :  -0.2030 B(  7-C , 13-H ) :  -0.2394 B(  7-C , 14-H ) :  -0.1919
B(  8-N ,  9-N ) :   0.1088 B(  8-N , 13-H ) :   1.1587 B(  8-N , 14-H ) :   1.3768
B(  9-N , 10-H ) :   1.0640 B(  9-N , 11-H ) :   1.3631 B( 10-H , 11-H ) :  -0.1860
B( 11-H , 12-H ) :  -0.1170 B( 12-H , 18-H ) :  -0.1808 B( 13-H , 14-H ) :  -0.2355
B( 13-H , 15-F ) :   0.1365 B( 16-O , 39-O ) :   0.1806 B( 17-C , 18-H ) :   0.1138
B( 17-C , 26-C ) :   1.2947 B( 17-C , 27-H ) :   0.8095 B( 17-C , 28-H ) :   0.7292
B( 17-C , 30-H ) :   0.1093 B( 17-C , 31-H ) :   0.1575 B( 18-H , 19-H ) :  -0.1069
B( 20-C , 21-C ) :   1.2164 B( 20-C , 22-H ) :   0.1068 B( 20-C , 23-H ) :   0.1322
B( 20-C , 29-C ) :   0.1273 B( 20-C , 32-C ) :   1.1465 B( 20-C , 35-H ) :   0.8450
B( 20-C , 36-H ) :   0.9830 B( 20-C , 37-H ) :   0.1142 B( 20-C , 38-H ) :   0.2013
B( 21-C , 22-H ) :   0.7217 B( 21-C , 23-H ) :   0.8236 B( 21-C , 24-H ) :   0.1756
B( 21-C , 25-H ) :   0.1011 B( 21-C , 36-H ) :   0.1867 B( 22-H , 23-H ) :   0.2092
B( 23-H , 34-H ) :   0.1105 B( 26-C , 27-H ) :   0.1268 B( 26-C , 28-H ) :   0.2075
B( 26-C , 29-C ) :   1.2240 B( 26-C , 30-H ) :   0.8390 B( 26-C , 31-H ) :   0.8978
B( 26-C , 33-H ) :   0.1337 B( 27-H , 28-H ) :  -0.1012 B( 29-C , 30-H ) :   0.1316
B( 29-C , 31-H ) :   0.1006 B( 29-C , 32-C ) :   1.1326 B( 29-C , 33-H ) :   1.0418
B( 29-C , 34-H ) :   0.8387 B( 29-C , 37-H ) :   0.2641 B( 29-C , 38-H ) :   0.1331
B( 32-C , 37-H ) :   0.6904 B( 32-C , 38-H ) :   0.7094

Dispersion correction           -0.060934295
FINAL SINGLE POINT ENERGY     -1190.422147120472

DIPOLE MOMENT
-------------
                                X             Y             Z
Electronic contribution:    -16.35418       4.86019     -21.40220
Nuclear contribution   :     17.24138      -5.45913      20.34076
                        -----------------------------------------
Total Dipole Moment    :      0.88720      -0.59894      -1.06144
                        -----------------------------------------
Magnitude (a.u.)       :      1.50748
Magnitude (Debye)      :      3.83172

Rotational constants in cm-1:     0.014201     0.012275     0.007453
Rotational constants in MHz :   425.728191   368.008875   223.435232

                             ****ORCA TERMINATED NORMALLY****
TOTAL RUN TIME: 0 days 0 hours 1 minutes 51 seconds 576 msec
