                         Program Version 5.0.0 -  RELEASE  -
|  1> !TPSS D3BJ RIJCOSX def2-SVPD def2/J TightSCF xyzfile
|  2>
|  3> *xyzfile 0 1 D2.xyz
|  4>
|  5> %MaxCore 64000
|  6>
|  7> %pal nprocs 4
|  8> end
|  9>
| 10> %scf
| 11>   MaxIter 150
| 12> end
| 13>
| 14>
| 15>                          ****END OF INPUT****

CARTESIAN COORDINATES (ANGSTROEM)
---------------------------------
  C      4.490588    1.155899   -2.469290
  N      4.305394    1.222762   -3.908317
  C      4.906458   -3.102816   -5.954844
  C      3.511771   -2.806215   -6.492283
  H      2.736044   -3.373445   -5.973736
  H      3.444904   -3.040831   -7.555281
  S      3.004618   -1.096206   -6.389259
  C      4.631918    2.246365   -4.670958
  C      4.541686    2.143990   -5.987139
  N      5.084086    3.393584   -4.118545
  H      4.920675    3.570501   -3.135870
  H      5.254652    4.197390   -4.706956
  H      3.824530    0.449113   -4.350926
  H      4.343373    1.249318   -6.416646
  H      4.676712    2.956624   -6.574113
  F      4.128856   -0.329647   -6.953717
  O      1.781285   -1.000779   -7.136399
  C      5.942129    0.939500   -2.036893
  H      3.864305    0.328532   -2.136611
  H      4.076233    2.049994   -1.989010
  C      6.462677   -3.117775   -3.944671
  C      5.024977   -3.025679   -4.437625
  H      4.423321   -3.818693   -3.977648
  H      4.579350   -2.087131   -4.108727
  H      5.201533   -4.100207   -6.296905
  H      5.605922   -2.397822   -6.413368
  C      6.559957   -0.356290   -2.559086
  H      5.967976    0.952567   -0.942444
  H      6.547184    1.788331   -2.368849
  C      6.006283   -1.615917   -1.899301
  H      7.642360   -0.318000   -2.402059
  H      6.414855   -0.403433   -3.642587
  C      6.608718   -2.917014   -2.435655
  H      6.190324   -1.561115   -0.820948
  H      4.919250   -1.651245   -2.016586
  H      7.066975   -2.374258   -4.475514
  H      6.887808   -4.089747   -4.215332
  H      6.135197   -3.755573   -1.915159
  H      7.671142   -2.955503   -2.172291
  O      2.851546   -0.783683   -4.956789

 Total Charge           Charge          ....    0
 Multiplicity           Mult            ....    1
 Number of Electrons    NEL             ....  144
 Basis Dimension        Dim             ....  540

ORBITAL ENERGIES
----------------

  NO   OCC          E(Eh)            E(eV)
   0   2.0000     -88.632457     -2411.8118
   1   2.0000     -24.533000      -667.5769
   2   2.0000     -18.922547      -514.9087
   3   2.0000     -18.920571      -514.8549
   4   2.0000     -14.105777      -383.8377
   5   2.0000     -14.087935      -383.3522
   6   2.0000     -10.067440      -273.9490
   7   2.0000     -10.034326      -273.0479
   8   2.0000     -10.024584      -272.7828
   9   2.0000     -10.022609      -272.7291
  10   2.0000     -10.008333      -272.3406
  11   2.0000     -10.003775      -272.2166
  12   2.0000      -9.999392      -272.0973
  13   2.0000      -9.994829      -271.9731
  14   2.0000      -9.990909      -271.8664
  15   2.0000      -9.990054      -271.8432
  16   2.0000      -9.896221      -269.2899
  17   2.0000      -7.992129      -217.4769
  18   2.0000      -5.982397      -162.7893
  19   2.0000      -5.976353      -162.6248
  20   2.0000      -5.974058      -162.5624
  21   2.0000      -1.275968       -34.7208
  22   2.0000      -1.048964       -28.5438
  23   2.0000      -0.956692       -26.0329
  24   2.0000      -0.876066       -23.8390
  25   2.0000      -0.797363       -21.6973
  26   2.0000      -0.783809       -21.3285
  27   2.0000      -0.749620       -20.3982
  28   2.0000      -0.721701       -19.6385
  29   2.0000      -0.689048       -18.7499
  30   2.0000      -0.667615       -18.1667
  31   2.0000      -0.642588       -17.4857
  32   2.0000      -0.621760       -16.9190
  33   2.0000      -0.592724       -16.1288
  34   2.0000      -0.571981       -15.5644
  35   2.0000      -0.549105       -14.9419
  36   2.0000      -0.538875       -14.6635
  37   2.0000      -0.529775       -14.4159
  38   2.0000      -0.525673       -14.3043
  39   2.0000      -0.507817       -13.8184
  40   2.0000      -0.504775       -13.7356
  41   2.0000      -0.471879       -12.8405
  42   2.0000      -0.456538       -12.4230
  43   2.0000      -0.449347       -12.2274
  44   2.0000      -0.439347       -11.9552
  45   2.0000      -0.436688       -11.8829
  46   2.0000      -0.426436       -11.6039
  47   2.0000      -0.421821       -11.4783
  48   2.0000      -0.417060       -11.3488
  49   2.0000      -0.400990       -10.9115
  50   2.0000      -0.396770       -10.7967
  51   2.0000      -0.392983       -10.6936
  52   2.0000      -0.380513       -10.3543
  53   2.0000      -0.358091        -9.7441
  54   2.0000      -0.356051        -9.6886
  55   2.0000      -0.353652        -9.6234
  56   2.0000      -0.344468        -9.3734
  57   2.0000      -0.332710        -9.0535
  58   2.0000      -0.331906        -9.0316
  59   2.0000      -0.325767        -8.8646
  60   2.0000      -0.319475        -8.6934
  61   2.0000      -0.311981        -8.4894
  62   2.0000      -0.309332        -8.4174
  63   2.0000      -0.302116        -8.2210
  64   2.0000      -0.297388        -8.0923
  65   2.0000      -0.289897        -7.8885
  66   2.0000      -0.286655        -7.8003
  67   2.0000      -0.280310        -7.6276
  68   2.0000      -0.277996        -7.5647
  69   2.0000      -0.274764        -7.4767
  70   2.0000      -0.199560        -5.4303
  71   2.0000      -0.119123        -3.2415
  72   0.0000      -0.024855        -0.6763
  73   0.0000       0.004160         0.1132
  74   0.0000       0.010376         0.2823
  75   0.0000       0.012769         0.3474
  76   0.0000       0.013785         0.3751

MULLIKEN ATOMIC CHARGES
-----------------------
   0 C :    0.921226
   1 N :    0.243857
   2 C :    0.186090
   3 C :    0.226969
   4 H :    0.078520
   5 H :    0.021786
   6 S :    1.406001
   7 C :    1.108823
   8 C :    0.429272
   9 N :    0.194084
  10 H :   -0.058928
  11 H :   -0.225955
  12 H :   -0.950748
  13 H :   -0.351453
  14 H :   -0.618963
  15 F :   -0.486506
  16 O :   -0.712830
  17 C :    0.239409
  18 H :   -0.276739
  19 H :   -0.169871
  20 C :   -0.042710
  21 C :    0.200913
  22 H :    0.063910
  23 H :   -0.439407
  24 H :   -0.081401
  25 H :    0.056779
  26 C :    0.094504
  27 H :   -0.134171
  28 H :   -0.012160
  29 C :   -0.205754
  30 H :   -0.131996
  31 H :   -0.096090
  32 C :    0.579198
  33 H :   -0.319092
  34 H :    0.187440
  35 H :    0.149403
  36 H :   -0.308608
  37 H :   -0.013054
  38 H :    0.029406
  39 O :   -0.781152
Sum of atomic charges:    0.0000000

LOEWDIN ATOMIC CHARGES
----------------------
   0 C :    0.069089
   1 N :    0.013852
   2 C :   -0.026401
   3 C :   -0.034413
   4 H :    0.038330
   5 H :    0.021819
   6 S :    1.146519
   7 C :   -0.207517
   8 C :    0.169908
   9 N :    0.204339
  10 H :   -0.028214
  11 H :    0.000431
  12 H :   -0.089879
  13 H :   -0.166117
  14 H :   -0.098635
  15 F :   -0.261184
  16 O :   -0.423212
  17 C :   -0.013855
  18 H :    0.013938
  19 H :    0.005264
  20 C :   -0.027463
  21 C :   -0.019944
  22 H :    0.038376
  23 H :   -0.019148
  24 H :    0.033029
  25 H :    0.024429
  26 C :   -0.023065
  27 H :    0.015451
  28 H :    0.006840
  29 C :   -0.029812
  30 H :    0.022219
  31 H :    0.005219
  32 C :   -0.021336
  33 H :    0.020075
  34 H :    0.003048
  35 H :    0.014808
  36 H :    0.019593
  37 H :    0.017911
  38 H :    0.019201
  39 O :   -0.433494

  Mayer bond orders larger than 0.100000
B(  0-C ,  1-N ) :   0.9878 B(  0-C , 12-H ) :  -0.4466 B(  0-C , 17-C ) :   1.0919
B(  0-C , 18-H ) :   0.6860 B(  0-C , 19-H ) :   0.8645 B(  0-C , 26-C ) :   0.1222
B(  0-C , 27-H ) :   0.1214 B(  0-C , 28-H ) :   0.1022 B(  1-N ,  7-C ) :   1.1146
B(  1-N ,  8-C ) :   0.1407 B(  1-N ,  9-N ) :   0.3105 B(  1-N , 12-H ) :   0.8871
B(  1-N , 18-H ) :   0.2447 B(  2-C ,  3-C ) :   1.2142 B(  2-C ,  5-H ) :   0.2208
B(  2-C , 20-C ) :   0.1163 B(  2-C , 21-C ) :   1.1386 B(  2-C , 24-H ) :   0.8463
B(  2-C , 25-H ) :   0.8554 B(  3-C ,  4-H ) :   0.9037 B(  3-C ,  5-H ) :   0.7682
B(  3-C ,  6-S ) :   0.9753 B(  3-C , 16-O ) :   0.1011 B(  6-S , 15-F ) :   0.6402
B(  6-S , 16-O ) :   1.4155 B(  6-S , 39-O ) :   1.4092 B(  7-C ,  8-C ) :   1.1918
B(  7-C ,  9-N ) :   0.7789 B(  7-C , 11-H ) :  -0.1005 B(  7-C , 12-H ) :  -0.7262
B(  7-C , 14-H ) :   0.1630 B(  8-C ,  9-N ) :   0.3274 B(  8-C , 13-H ) :   0.3715
B(  8-C , 14-H ) :   0.8757 B(  9-N , 10-H ) :   0.9797 B(  9-N , 11-H ) :   1.2474
B( 10-H , 11-H ) :  -0.1801 B( 13-H , 14-H ) :  -0.2056 B( 13-H , 15-F ) :   0.1952
B( 16-O , 39-O ) :   0.1748 B( 17-C , 18-H ) :   0.1127 B( 17-C , 19-H ) :   0.1029
B( 17-C , 26-C ) :   1.2226 B( 17-C , 27-H ) :   0.9449 B( 17-C , 28-H ) :   0.7381
B( 17-C , 31-H ) :   0.1255 B( 18-H , 19-H ) :  -0.1661 B( 20-C , 21-C ) :   1.2243
B( 20-C , 22-H ) :   0.1076 B( 20-C , 23-H ) :   0.1269 B( 20-C , 29-C ) :   0.1312
B( 20-C , 32-C ) :   1.1500 B( 20-C , 35-H ) :   0.8475 B( 20-C , 36-H ) :   0.9774
B( 20-C , 37-H ) :   0.1164 B( 20-C , 38-H ) :   0.1993 B( 21-C , 22-H ) :   0.7260
B( 21-C , 23-H ) :   0.8645 B( 21-C , 24-H ) :   0.1792 B( 21-C , 36-H ) :   0.1858
B( 22-H , 23-H ) :   0.1984 B( 23-H , 34-H ) :   0.1139 B( 26-C , 28-H ) :   0.1886
B( 26-C , 29-C ) :   1.2284 B( 26-C , 30-H ) :   0.8758 B( 26-C , 31-H ) :   0.9168
B( 26-C , 33-H ) :   0.1372 B( 29-C , 30-H ) :   0.1498 B( 29-C , 31-H ) :   0.1107
B( 29-C , 32-C ) :   1.1441 B( 29-C , 33-H ) :   1.0566 B( 29-C , 34-H ) :   0.8247
B( 29-C , 37-H ) :   0.2623 B( 29-C , 38-H ) :   0.1316 B( 32-C , 37-H ) :   0.6865
B( 32-C , 38-H ) :   0.7114

Dispersion correction           -0.060628595
FINAL SINGLE POINT ENERGY     -1190.428455574717

DIPOLE MOMENT
-------------
                                X             Y             Z
Electronic contribution:    -16.40673       3.96487     -19.60812
Nuclear contribution   :     17.27667      -5.32157      20.03034
                        -----------------------------------------
Total Dipole Moment    :      0.86994      -1.35670       0.42222
                        -----------------------------------------
Magnitude (a.u.)       :      1.66604
Magnitude (Debye)      :      4.23474

Rotational constants in cm-1:     0.014355     0.012269     0.007481
Rotational constants in MHz :   430.360270   367.823451   224.273399

                             ****ORCA TERMINATED NORMALLY****
TOTAL RUN TIME: 0 days 0 hours 1 minutes 54 seconds 719 msec
