                         Program Version 5.0.0 -  RELEASE  -
|  1> !TPSS D3BJ RIJCOSX def2-SVPD def2/J TightSCF xyzfile
|  2>
|  3> *xyzfile 0 1 D4.xyz
|  4>
|  5> %MaxCore 64000
|  6>
|  7> %pal nprocs 4
|  8> end
|  9>
| 10> %scf
| 11>   MaxIter 150
| 12> end
| 13>
| 14>
| 15>                          ****END OF INPUT****

CARTESIAN COORDINATES (ANGSTROEM)
---------------------------------
  C      4.490588    1.155899   -2.469290
  C      4.305394    1.222762   -3.908317
  C      4.906458   -3.102816   -5.954844
  C      3.511771   -2.806215   -6.492283
  H      2.736044   -3.373445   -5.973736
  H      3.444904   -3.040831   -7.555281
  S      3.004618   -1.096206   -6.389259
  C      4.631918    2.246365   -4.670958
  N      4.541686    2.143990   -5.987139
  N      5.084086    3.393584   -4.118545
  H      4.920675    3.570501   -3.135870
  H      5.254652    4.197390   -4.706956
  H      3.824530    0.449113   -4.350926
  H      4.343373    1.249318   -6.416646
  H      4.676712    2.956624   -6.574113
  O      4.128856   -0.329647   -6.953717
  F      1.781285   -1.000779   -7.136399
  C      5.942129    0.939500   -2.036893
  H      3.864305    0.328532   -2.136611
  H      4.076233    2.049994   -1.989010
  C      6.462677   -3.117775   -3.944671
  C      5.024977   -3.025679   -4.437625
  H      4.423321   -3.818693   -3.977648
  H      4.579350   -2.087131   -4.108727
  H      5.201533   -4.100207   -6.296905
  H      5.605922   -2.397822   -6.413368
  C      6.559957   -0.356290   -2.559086
  H      5.967976    0.952567   -0.942444
  H      6.547184    1.788331   -2.368849
  C      6.006283   -1.615917   -1.899301
  H      7.642360   -0.318000   -2.402059
  H      6.414855   -0.403433   -3.642587
  C      6.608718   -2.917014   -2.435655
  H      6.190324   -1.561115   -0.820948
  H      4.919250   -1.651245   -2.016586
  H      7.066975   -2.374258   -4.475514
  H      6.887808   -4.089747   -4.215332
  H      6.135197   -3.755573   -1.915159
  H      7.671142   -2.955503   -2.172291
  O      2.851546   -0.783683   -4.956789

 Total Charge           Charge          ....    0
 Multiplicity           Mult            ....    1
 Number of Electrons    NEL             ....  144
 Basis Dimension        Dim             ....  540

ORBITAL ENERGIES
----------------

  NO   OCC          E(Eh)            E(eV)
   0   2.0000     -88.637312     -2411.9439
   1   2.0000     -24.555736      -668.1956
   2   2.0000     -18.923568      -514.9365
   3   2.0000     -18.915206      -514.7089
   4   2.0000     -14.097059      -383.6005
   5   2.0000     -14.077847      -383.0777
   6   2.0000     -10.069634      -274.0087
   7   2.0000     -10.029692      -272.9218
   8   2.0000     -10.006920      -272.3021
   9   2.0000      -9.998269      -272.0667
  10   2.0000      -9.992592      -271.9122
  11   2.0000      -9.985971      -271.7321
  12   2.0000      -9.976355      -271.4704
  13   2.0000      -9.967413      -271.2271
  14   2.0000      -9.961490      -271.0659
  15   2.0000      -9.954920      -270.8871
  16   2.0000      -9.883178      -268.9349
  17   2.0000      -7.997123      -217.6128
  18   2.0000      -5.987556      -162.9297
  19   2.0000      -5.981097      -162.7539
  20   2.0000      -5.978924      -162.6948
  21   2.0000      -1.308076       -35.5946
  22   2.0000      -1.043341       -28.3908
  23   2.0000      -0.946479       -25.7550
  24   2.0000      -0.857123       -23.3235
  25   2.0000      -0.780462       -21.2374
  26   2.0000      -0.772542       -21.0219
  27   2.0000      -0.738965       -20.1083
  28   2.0000      -0.711126       -19.3507
  29   2.0000      -0.691892       -18.8273
  30   2.0000      -0.664183       -18.0733
  31   2.0000      -0.639034       -17.3890
  32   2.0000      -0.607828       -16.5398
  33   2.0000      -0.580910       -15.8074
  34   2.0000      -0.559435       -15.2230
  35   2.0000      -0.545907       -14.8549
  36   2.0000      -0.536625       -14.6023
  37   2.0000      -0.533180       -14.5086
  38   2.0000      -0.518563       -14.1108
  39   2.0000      -0.501564       -13.6483
  40   2.0000      -0.486671       -13.2430
  41   2.0000      -0.472252       -12.8506
  42   2.0000      -0.457705       -12.4548
  43   2.0000      -0.452406       -12.3106
  44   2.0000      -0.436176       -11.8690
  45   2.0000      -0.424935       -11.5631
  46   2.0000      -0.422467       -11.4959
  47   2.0000      -0.410854       -11.1799
  48   2.0000      -0.404042       -10.9945
  49   2.0000      -0.390367       -10.6224
  50   2.0000      -0.384390       -10.4598
  51   2.0000      -0.372968       -10.1490
  52   2.0000      -0.371220       -10.1014
  53   2.0000      -0.361836        -9.8460
  54   2.0000      -0.343982        -9.3602
  55   2.0000      -0.338103        -9.2003
  56   2.0000      -0.335789        -9.1373
  57   2.0000      -0.328353        -8.9349
  58   2.0000      -0.313045        -8.5184
  59   2.0000      -0.309563        -8.4236
  60   2.0000      -0.306244        -8.3333
  61   2.0000      -0.298334        -8.1181
  62   2.0000      -0.291632        -7.9357
  63   2.0000      -0.284355        -7.7377
  64   2.0000      -0.280268        -7.6265
  65   2.0000      -0.279179        -7.5968
  66   2.0000      -0.267589        -7.2815
  67   2.0000      -0.260276        -7.0825
  68   2.0000      -0.252348        -6.8667
  69   2.0000      -0.236670        -6.4401
  70   2.0000      -0.197117        -5.3638
  71   2.0000      -0.103537        -2.8174
  72   0.0000      -0.026448        -0.7197
  73   0.0000      -0.006615        -0.1800
  74   0.0000       0.012806         0.3485
  75   0.0000       0.018041         0.4909
  76   0.0000       0.019554         0.5321

MULLIKEN ATOMIC CHARGES
-----------------------
   0 C :    0.058025
   1 C :    0.062215
   2 C :    0.125603
   3 C :    0.192009
   4 H :    0.085790
   5 H :    0.045590
   6 S :    1.580101
   7 C :    1.064048
   8 N :    0.181511
   9 N :   -0.034117
  10 H :   -0.043060
  11 H :   -0.273105
  12 H :   -0.454490
  13 H :   -0.208066
  14 H :   -0.222576
  15 O :   -0.701040
  16 F :   -0.501124
  17 C :    0.334790
  18 H :    0.121681
  19 H :   -0.201127
  20 C :   -0.043321
  21 C :    0.218795
  22 H :    0.057807
  23 H :   -0.480722
  24 H :   -0.062765
  25 H :    0.090075
  26 C :    0.027973
  27 H :   -0.047724
  28 H :   -0.095370
  29 C :   -0.145890
  30 H :   -0.093662
  31 H :   -0.036451
  32 C :    0.578871
  33 H :   -0.316178
  34 H :    0.148420
  35 H :    0.156191
  36 H :   -0.316060
  37 H :   -0.017147
  38 H :    0.028250
  39 O :   -0.863753
Sum of atomic charges:    0.0000000

LOEWDIN ATOMIC CHARGES
----------------------
   0 C :   -0.038278
   1 C :   -0.011275
   2 C :   -0.011931
   3 C :   -0.045163
   4 H :    0.026311
   5 H :    0.017449
   6 S :    1.177227
   7 C :   -0.190481
   8 N :    0.206579
   9 N :    0.202869
  10 H :   -0.018306
  11 H :   -0.019837
  12 H :   -0.139913
  13 H :   -0.114745
  14 H :   -0.012428
  15 O :   -0.431807
  16 F :   -0.234851
  17 C :   -0.024035
  18 H :    0.005475
  19 H :   -0.001594
  20 C :   -0.027352
  21 C :   -0.015509
  22 H :    0.036228
  23 H :   -0.012205
  24 H :    0.035725
  25 H :    0.028453
  26 C :   -0.023752
  27 H :    0.008964
  28 H :    0.005802
  29 C :   -0.028489
  30 H :    0.018562
  31 H :    0.004875
  32 C :   -0.023900
  33 H :    0.018506
  34 H :    0.004119
  35 H :    0.015896
  36 H :    0.017328
  37 H :    0.015466
  38 H :    0.017597
  39 O :   -0.437580

  Mayer bond orders larger than 0.100000
B(  0-C ,  1-C ) :   1.2304 B(  0-C , 12-H ) :   0.7803 B(  0-C , 17-C ) :   1.1096
B(  0-C , 18-H ) :   0.7051 B(  0-C , 19-H ) :   0.9317 B(  0-C , 27-H ) :   0.1834
B(  0-C , 28-H ) :   0.1561 B(  1-C ,  7-C ) :   1.6017 B(  1-C ,  8-N ) :   0.3747
B(  1-C ,  9-N ) :   0.3407 B(  1-C , 10-H ) :  -0.1090 B(  1-C , 12-H ) :  -0.1862
B(  1-C , 17-C ) :   0.1060 B(  1-C , 18-H ) :   0.3207 B(  1-C , 19-H ) :   0.1896
B(  2-C ,  3-C ) :   1.2804 B(  2-C ,  5-H ) :   0.2605 B(  2-C , 20-C ) :   0.1195
B(  2-C , 21-C ) :   1.1437 B(  2-C , 24-H ) :   0.8237 B(  2-C , 25-H ) :   0.8574
B(  3-C ,  4-H ) :   0.8987 B(  3-C ,  5-H ) :   0.6893 B(  3-C ,  6-S ) :   0.9634
B(  3-C , 16-F ) :   0.1100 B(  3-C , 21-C ) :   0.1239 B(  3-C , 25-H ) :   0.1065
B(  6-S , 15-O ) :   1.3587 B(  6-S , 16-F ) :   0.4549 B(  6-S , 39-O ) :   1.4688
B(  7-C ,  8-N ) :   0.7734 B(  7-C ,  9-N ) :   0.7487 B(  7-C , 11-H ) :  -0.1907
B(  7-C , 12-H ) :  -0.1605 B(  7-C , 13-H ) :  -0.2468 B(  7-C , 14-H ) :  -0.1881
B(  8-N ,  9-N ) :   0.1126 B(  8-N , 13-H ) :   1.1578 B(  8-N , 14-H ) :   1.3828
B(  9-N , 10-H ) :   1.0660 B(  9-N , 11-H ) :   1.3631 B( 10-H , 11-H ) :  -0.1856
B( 11-H , 12-H ) :  -0.1197 B( 12-H , 18-H ) :  -0.1652 B( 13-H , 14-H ) :  -0.2578
B( 13-H , 15-O ) :   0.1057 B( 16-F , 39-O ) :   0.1219 B( 17-C , 18-H ) :   0.1149
B( 17-C , 26-C ) :   1.2941 B( 17-C , 27-H ) :   0.8136 B( 17-C , 28-H ) :   0.7282
B( 17-C , 30-H ) :   0.1099 B( 17-C , 31-H ) :   0.1580 B( 18-H , 19-H ) :  -0.1098
B( 20-C , 21-C ) :   1.2240 B( 20-C , 22-H ) :   0.1076 B( 20-C , 23-H ) :   0.1347
B( 20-C , 29-C ) :   0.1281 B( 20-C , 32-C ) :   1.1457 B( 20-C , 35-H ) :   0.8427
B( 20-C , 36-H ) :   0.9803 B( 20-C , 37-H ) :   0.1137 B( 20-C , 38-H ) :   0.2007
B( 21-C , 22-H ) :   0.7196 B( 21-C , 23-H ) :   0.8352 B( 21-C , 24-H ) :   0.1798
B( 21-C , 36-H ) :   0.1878 B( 22-H , 23-H ) :   0.2154 B( 23-H , 34-H ) :   0.1119
B( 26-C , 27-H ) :   0.1282 B( 26-C , 28-H ) :   0.2078 B( 26-C , 29-C ) :   1.2211
B( 26-C , 30-H ) :   0.8406 B( 26-C , 31-H ) :   0.8935 B( 26-C , 33-H ) :   0.1320
B( 27-H , 28-H ) :  -0.1007 B( 29-C , 30-H ) :   0.1325 B( 29-C , 32-C ) :   1.1310
B( 29-C , 33-H ) :   1.0445 B( 29-C , 34-H ) :   0.8389 B( 29-C , 37-H ) :   0.2649
B( 29-C , 38-H ) :   0.1335 B( 32-C , 37-H ) :   0.6899 B( 32-C , 38-H ) :   0.7094

Dispersion correction           -0.061321178
FINAL SINGLE POINT ENERGY     -1190.418435954240

DIPOLE MOMENT
-------------
                                X             Y             Z
Electronic contribution:    -20.54532       3.53863     -21.95690
Nuclear contribution   :     19.99734      -4.67125      20.55522
                        -----------------------------------------
Total Dipole Moment    :     -0.54798      -1.13261      -1.40168
                        -----------------------------------------
Magnitude (a.u.)       :      1.88356
Magnitude (Debye)      :      4.78762

Rotational constants in cm-1:     0.014213     0.012058     0.007367
Rotational constants in MHz :   426.102180   361.491761   220.844824

                             ****ORCA TERMINATED NORMALLY****
TOTAL RUN TIME: 0 days 0 hours 1 minutes 59 seconds 619 msec
