                         Program Version 5.0.0 -  RELEASE  -
|  1> !TPSS D3BJ RIJCOSX def2-SVPD def2/J TightSCF xyzfile
|  2>
|  3> *xyzfile 0 1 D8.xyz
|  4>
|  5> %MaxCore 64000
|  6>
|  7> %pal nprocs 4
|  8> end
|  9>
| 10> %scf
| 11>   MaxIter 150
| 12> end
| 13>
| 14>
| 15>                          ****END OF INPUT****

CARTESIAN COORDINATES (ANGSTROEM)
---------------------------------
  C      4.490588    1.155899   -2.469290
  N      4.305394    1.222762   -3.908317
  C      4.906458   -3.102816   -5.954844
  C      3.511771   -2.806215   -6.492283
  H      2.736044   -3.373445   -5.973736
  H      3.444904   -3.040831   -7.555281
  S      3.004618   -1.096206   -6.389259
  C      4.631918    2.246365   -4.670958
  C      4.541686    2.143990   -5.987139
  N      5.084086    3.393584   -4.118545
  H      4.920675    3.570501   -3.135870
  H      5.254652    4.197390   -4.706956
  H      3.824530    0.449113   -4.350926
  H      4.343373    1.249318   -6.416646
  H      4.676712    2.956624   -6.574113
  O      4.128856   -0.329647   -6.953717
  O      1.781285   -1.000779   -7.136399
  C      5.942129    0.939500   -2.036893
  H      3.864305    0.328532   -2.136611
  H      4.076233    2.049994   -1.989010
  C      6.462677   -3.117775   -3.944671
  C      5.024977   -3.025679   -4.437625
  H      4.423321   -3.818693   -3.977648
  H      4.579350   -2.087131   -4.108727
  H      5.201533   -4.100207   -6.296905
  H      5.605922   -2.397822   -6.413368
  C      6.559957   -0.356290   -2.559086
  H      5.967976    0.952567   -0.942444
  H      6.547184    1.788331   -2.368849
  C      6.006283   -1.615917   -1.899301
  H      7.642360   -0.318000   -2.402059
  H      6.414855   -0.403433   -3.642587
  C      6.608718   -2.917014   -2.435655
  H      6.190324   -1.561115   -0.820948
  H      4.919250   -1.651245   -2.016586
  H      7.066975   -2.374258   -4.475514
  H      6.887808   -4.089747   -4.215332
  H      6.135197   -3.755573   -1.915159
  H      7.671142   -2.955503   -2.172291
  F      2.851546   -0.783683   -4.956789

 Total Charge           Charge          ....    0
 Multiplicity           Mult            ....    1
 Number of Electrons    NEL             ....  144
 Basis Dimension        Dim             ....  540

ORBITAL ENERGIES
----------------

  NO   OCC          E(Eh)            E(eV)
   0   2.0000     -88.626966     -2411.6624
   1   2.0000     -24.544101      -667.8789
   2   2.0000     -18.919896      -514.8366
   3   2.0000     -18.907628      -514.5027
   4   2.0000     -14.103586      -383.7781
   5   2.0000     -14.101146      -383.7117
   6   2.0000     -10.065469      -273.8953
   7   2.0000     -10.032937      -273.0101
   8   2.0000     -10.030322      -272.9389
   9   2.0000     -10.018373      -272.6138
  10   2.0000     -10.016866      -272.5728
  11   2.0000     -10.007424      -272.3159
  12   2.0000     -10.003417      -272.2068
  13   2.0000     -10.000298      -272.1219
  14   2.0000      -9.994685      -271.9692
  15   2.0000      -9.994521      -271.9647
  16   2.0000      -9.883644      -268.9476
  17   2.0000      -7.987061      -217.3390
  18   2.0000      -5.977514      -162.6564
  19   2.0000      -5.970947      -162.4777
  20   2.0000      -5.968926      -162.4227
  21   2.0000      -1.284870       -34.9631
  22   2.0000      -1.044146       -28.4126
  23   2.0000      -0.949002       -25.8237
  24   2.0000      -0.880324       -23.9548
  25   2.0000      -0.800462       -21.7817
  26   2.0000      -0.782858       -21.3026
  27   2.0000      -0.752660       -20.4809
  28   2.0000      -0.725540       -19.7429
  29   2.0000      -0.692575       -18.8459
  30   2.0000      -0.671174       -18.2636
  31   2.0000      -0.649815       -17.6824
  32   2.0000      -0.618848       -16.8397
  33   2.0000      -0.596849       -16.2411
  34   2.0000      -0.577349       -15.7105
  35   2.0000      -0.554905       -15.0997
  36   2.0000      -0.543596       -14.7920
  37   2.0000      -0.534552       -14.5459
  38   2.0000      -0.520656       -14.1678
  39   2.0000      -0.510783       -13.8991
  40   2.0000      -0.506711       -13.7883
  41   2.0000      -0.471739       -12.8367
  42   2.0000      -0.458094       -12.4654
  43   2.0000      -0.447792       -12.1850
  44   2.0000      -0.439628       -11.9629
  45   2.0000      -0.439096       -11.9484
  46   2.0000      -0.430340       -11.7101
  47   2.0000      -0.423969       -11.5368
  48   2.0000      -0.419437       -11.4135
  49   2.0000      -0.403581       -10.9820
  50   2.0000      -0.401177       -10.9166
  51   2.0000      -0.393616       -10.7108
  52   2.0000      -0.377890       -10.2829
  53   2.0000      -0.362240        -9.8570
  54   2.0000      -0.354881        -9.6568
  55   2.0000      -0.352167        -9.5829
  56   2.0000      -0.345389        -9.3985
  57   2.0000      -0.338324        -9.2063
  58   2.0000      -0.332383        -9.0446
  59   2.0000      -0.326963        -8.8971
  60   2.0000      -0.325277        -8.8512
  61   2.0000      -0.312631        -8.5071
  62   2.0000      -0.308221        -8.3871
  63   2.0000      -0.305796        -8.3211
  64   2.0000      -0.298658        -8.1269
  65   2.0000      -0.287564        -7.8250
  66   2.0000      -0.286665        -7.8006
  67   2.0000      -0.280475        -7.6321
  68   2.0000      -0.277712        -7.5569
  69   2.0000      -0.256717        -6.9856
  70   2.0000      -0.203244        -5.5306
  71   2.0000      -0.114448        -3.1143
  72   0.0000      -0.025994        -0.7073
  73   0.0000       0.000710         0.0193
  74   0.0000       0.003833         0.1043
  75   0.0000       0.010888         0.2963
  76   0.0000       0.017748         0.4829

MULLIKEN ATOMIC CHARGES
-----------------------
   0 C :    0.937035
   1 N :    0.308181
   2 C :    0.168562
   3 C :    0.219883
   4 H :    0.054605
   5 H :    0.066626
   6 S :    1.426034
   7 C :    1.105888
   8 C :    0.288195
   9 N :    0.185576
  10 H :   -0.060310
  11 H :   -0.224569
  12 H :   -1.020262
  13 H :   -0.194510
  14 H :   -0.619181
  15 O :   -0.736430
  16 O :   -0.707770
  17 C :    0.229618
  18 H :   -0.301478
  19 H :   -0.168534
  20 C :   -0.058163
  21 C :    0.170027
  22 H :    0.061859
  23 H :   -0.488148
  24 H :   -0.056962
  25 H :    0.105477
  26 C :    0.110786
  27 H :   -0.133853
  28 H :   -0.007316
  29 C :   -0.193580
  30 H :   -0.129644
  31 H :   -0.097851
  32 C :    0.574764
  33 H :   -0.320989
  34 H :    0.173959
  35 H :    0.155808
  36 H :   -0.307962
  37 H :   -0.013360
  38 H :    0.035430
  39 F :   -0.537441
Sum of atomic charges:    0.0000000

LOEWDIN ATOMIC CHARGES
----------------------
   0 C :    0.064564
   1 N :    0.006763
   2 C :   -0.024931
   3 C :   -0.037130
   4 H :    0.023716
   5 H :    0.033558
   6 S :    1.139771
   7 C :   -0.212245
   8 C :    0.179516
   9 N :    0.200438
  10 H :   -0.031296
  11 H :    0.000896
  12 H :   -0.054577
  13 H :   -0.188975
  14 H :   -0.094357
  15 O :   -0.431891
  16 O :   -0.426446
  17 C :   -0.012726
  18 H :    0.009472
  19 H :    0.005845
  20 C :   -0.023961
  21 C :   -0.024055
  22 H :    0.036283
  23 H :   -0.017633
  24 H :    0.034284
  25 H :    0.027797
  26 C :   -0.021921
  27 H :    0.015920
  28 H :    0.008578
  29 C :   -0.032077
  30 H :    0.023651
  31 H :    0.007072
  32 C :   -0.021149
  33 H :    0.020401
  34 H :   -0.001086
  35 H :    0.017968
  36 H :    0.021997
  37 H :    0.017796
  38 H :    0.020276
  39 F :   -0.260107

  Mayer bond orders larger than 0.100000
B(  0-C ,  1-N ) :   0.9926 B(  0-C , 12-H ) :  -0.4442 B(  0-C , 17-C ) :   1.0923
B(  0-C , 18-H ) :   0.6670 B(  0-C , 19-H ) :   0.8712 B(  0-C , 26-C ) :   0.1248
B(  0-C , 27-H ) :   0.1201 B(  0-C , 28-H ) :   0.1078 B(  1-N ,  7-C ) :   1.1117
B(  1-N ,  8-C ) :   0.1609 B(  1-N ,  9-N ) :   0.3220 B(  1-N , 12-H ) :   0.6993
B(  1-N , 18-H ) :   0.2391 B(  1-N , 39-F ) :  -0.1273 B(  2-C ,  3-C ) :   1.2475
B(  2-C ,  5-H ) :   0.2339 B(  2-C , 20-C ) :   0.1211 B(  2-C , 21-C ) :   1.1687
B(  2-C , 24-H ) :   0.8200 B(  2-C , 25-H ) :   0.8736 B(  3-C ,  4-H ) :   0.9170
B(  3-C ,  5-H ) :   0.7215 B(  3-C ,  6-S ) :   0.9401 B(  3-C , 16-O ) :   0.1155
B(  3-C , 21-C ) :   0.1184 B(  3-C , 25-H ) :   0.1083 B(  6-S , 15-O ) :   1.4660
B(  6-S , 16-O ) :   1.4233 B(  6-S , 39-F ) :   0.5876 B(  7-C ,  8-C ) :   1.1446
B(  7-C ,  9-N ) :   0.7575 B(  7-C , 11-H ) :  -0.1019 B(  7-C , 12-H ) :  -0.6997
B(  7-C , 14-H ) :   0.1185 B(  8-C ,  9-N ) :   0.3401 B(  8-C , 13-H ) :   0.5677
B(  8-C , 14-H ) :   0.8991 B(  9-N , 10-H ) :   0.9800 B(  9-N , 11-H ) :   1.2477
B( 10-H , 11-H ) :  -0.1807 B( 12-H , 18-H ) :   0.1093 B( 12-H , 39-F ) :   0.1814
B( 13-H , 14-H ) :  -0.1892 B( 16-O , 39-F ) :   0.1057 B( 17-C , 18-H ) :   0.1202
B( 17-C , 19-H ) :   0.1003 B( 17-C , 26-C ) :   1.2232 B( 17-C , 27-H ) :   0.9512
B( 17-C , 28-H ) :   0.7390 B( 17-C , 31-H ) :   0.1276 B( 18-H , 19-H ) :  -0.1641
B( 20-C , 21-C ) :   1.2449 B( 20-C , 22-H ) :   0.1074 B( 20-C , 23-H ) :   0.1391
B( 20-C , 29-C ) :   0.1363 B( 20-C , 32-C ) :   1.1491 B( 20-C , 35-H ) :   0.8459
B( 20-C , 36-H ) :   0.9762 B( 20-C , 37-H ) :   0.1154 B( 20-C , 38-H ) :   0.2000
B( 21-C , 22-H ) :   0.7279 B( 21-C , 23-H ) :   0.8360 B( 21-C , 24-H ) :   0.1823
B( 21-C , 36-H ) :   0.1848 B( 22-H , 23-H ) :   0.2129 B( 23-H , 34-H ) :   0.1162
B( 26-C , 28-H ) :   0.1865 B( 26-C , 29-C ) :   1.2209 B( 26-C , 30-H ) :   0.8757
B( 26-C , 31-H ) :   0.9134 B( 26-C , 33-H ) :   0.1342 B( 29-C , 30-H ) :   0.1495
B( 29-C , 31-H ) :   0.1068 B( 29-C , 32-C ) :   1.1449 B( 29-C , 33-H ) :   1.0566
B( 29-C , 34-H ) :   0.8267 B( 29-C , 37-H ) :   0.2632 B( 29-C , 38-H ) :   0.1311
B( 32-C , 37-H ) :   0.6864 B( 32-C , 38-H ) :   0.7121

Dispersion correction           -0.060503308
FINAL SINGLE POINT ENERGY     -1190.415140669540

DIPOLE MOMENT
-------------
                                X             Y             Z
Electronic contribution:    -18.43944       3.20666     -16.24387
Nuclear contribution   :     18.77618      -4.78855      17.68602
                        -----------------------------------------
Total Dipole Moment    :      0.33674      -1.58189       1.44215
                        -----------------------------------------
Magnitude (a.u.)       :      2.16692
Magnitude (Debye)      :      5.50788

Rotational constants in cm-1:     0.014368     0.012319     0.007509
Rotational constants in MHz :   430.738566   369.302170   225.105103

                             ****ORCA TERMINATED NORMALLY****
TOTAL RUN TIME: 0 days 0 hours 1 minutes 56 seconds 116 msec
