                         Program Version 5.0.0 -  RELEASE  -
|  1> !TPSS D3BJ RIJCOSX def2-SVPD def2/J TightSCF xyzfile
|  2>
|  3> *xyzfile 0 1 D9.xyz
|  4>
|  5> %MaxCore 64000
|  6>
|  7> %pal nprocs 4
|  8> end
|  9>
| 10> %scf
| 11>   MaxIter 150
| 12> end
| 13>
| 14>
| 15>                          ****END OF INPUT****

CARTESIAN COORDINATES (ANGSTROEM)
---------------------------------
  C      4.490588    1.155899   -2.469290
  N      4.305394    1.222762   -3.908317
  C      4.906458   -3.102816   -5.954844
  C      3.511771   -2.806215   -6.492283
  H      2.736044   -3.373445   -5.973736
  H      3.444904   -3.040831   -7.555281
  S      3.004618   -1.096206   -6.389259
  C      4.631918    2.246365   -4.670958
  N      4.541686    2.143990   -5.987139
  C      5.084086    3.393584   -4.118545
  H      4.920675    3.570501   -3.135870
  H      5.254652    4.197390   -4.706956
  H      3.824530    0.449113   -4.350926
  H      4.343373    1.249318   -6.416646
  H      4.676712    2.956624   -6.574113
  O      4.128856   -0.329647   -6.953717
  O      1.781285   -1.000779   -7.136399
  C      5.942129    0.939500   -2.036893
  H      3.864305    0.328532   -2.136611
  H      4.076233    2.049994   -1.989010
  C      6.462677   -3.117775   -3.944671
  C      5.024977   -3.025679   -4.437625
  H      4.423321   -3.818693   -3.977648
  H      4.579350   -2.087131   -4.108727
  H      5.201533   -4.100207   -6.296905
  H      5.605922   -2.397822   -6.413368
  C      6.559957   -0.356290   -2.559086
  H      5.967976    0.952567   -0.942444
  H      6.547184    1.788331   -2.368849
  C      6.006283   -1.615917   -1.899301
  H      7.642360   -0.318000   -2.402059
  H      6.414855   -0.403433   -3.642587
  C      6.608718   -2.917014   -2.435655
  H      6.190324   -1.561115   -0.820948
  H      4.919250   -1.651245   -2.016586
  H      7.066975   -2.374258   -4.475514
  H      6.887808   -4.089747   -4.215332
  H      6.135197   -3.755573   -1.915159
  H      7.671142   -2.955503   -2.172291
  F      2.851546   -0.783683   -4.956789

 Total Charge           Charge          ....    0
 Multiplicity           Mult            ....    1
 Number of Electrons    NEL             ....  144
 Basis Dimension        Dim             ....  540

ORBITAL ENERGIES
----------------

  NO   OCC          E(Eh)            E(eV)
   0   2.0000     -88.646337     -2412.1895
   1   2.0000     -24.558447      -668.2693
   2   2.0000     -18.937172      -515.3066
   3   2.0000     -18.933741      -515.2133
   4   2.0000     -14.103984      -383.7889
   5   2.0000     -14.085001      -383.2724
   6   2.0000     -10.078803      -274.2582
   7   2.0000     -10.039657      -273.1929
   8   2.0000     -10.025324      -272.8029
   9   2.0000     -10.022647      -272.7301
  10   2.0000     -10.020841      -272.6809
  11   2.0000     -10.010702      -272.4050
  12   2.0000     -10.004016      -272.2231
  13   2.0000      -9.998534      -272.0739
  14   2.0000      -9.990801      -271.8635
  15   2.0000      -9.985393      -271.7164
  16   2.0000      -9.896901      -269.3084
  17   2.0000      -8.006508      -217.8681
  18   2.0000      -5.996939      -163.1850
  19   2.0000      -5.990573      -163.0118
  20   2.0000      -5.988227      -162.9479
  21   2.0000      -1.299742       -35.3678
  22   2.0000      -1.064028       -28.9537
  23   2.0000      -0.971393       -26.4329
  24   2.0000      -0.879666       -23.9369
  25   2.0000      -0.799036       -21.7429
  26   2.0000      -0.793131       -21.5822
  27   2.0000      -0.755444       -20.5567
  28   2.0000      -0.724469       -19.7138
  29   2.0000      -0.695132       -18.9155
  30   2.0000      -0.675134       -18.3713
  31   2.0000      -0.642628       -17.4868
  32   2.0000      -0.628138       -17.0925
  33   2.0000      -0.607876       -16.5411
  34   2.0000      -0.585319       -15.9273
  35   2.0000      -0.555932       -15.1277
  36   2.0000      -0.549870       -14.9627
  37   2.0000      -0.544962       -14.8292
  38   2.0000      -0.528935       -14.3930
  39   2.0000      -0.515542       -14.0286
  40   2.0000      -0.489169       -13.3110
  41   2.0000      -0.479713       -13.0536
  42   2.0000      -0.469698       -12.7811
  43   2.0000      -0.463443       -12.6109
  44   2.0000      -0.452946       -12.3253
  45   2.0000      -0.446990       -12.1632
  46   2.0000      -0.431110       -11.7311
  47   2.0000      -0.430564       -11.7162
  48   2.0000      -0.412802       -11.2329
  49   2.0000      -0.409984       -11.1562
  50   2.0000      -0.398373       -10.8403
  51   2.0000      -0.397732       -10.8228
  52   2.0000      -0.377484       -10.2719
  53   2.0000      -0.369848       -10.0641
  54   2.0000      -0.359388        -9.7795
  55   2.0000      -0.355260        -9.6671
  56   2.0000      -0.346572        -9.4307
  57   2.0000      -0.339346        -9.2341
  58   2.0000      -0.332057        -9.0357
  59   2.0000      -0.326805        -8.8928
  60   2.0000      -0.320590        -8.7237
  61   2.0000      -0.318131        -8.6568
  62   2.0000      -0.314871        -8.5681
  63   2.0000      -0.308963        -8.4073
  64   2.0000      -0.305707        -8.3187
  65   2.0000      -0.297332        -8.0908
  66   2.0000      -0.296339        -8.0638
  67   2.0000      -0.285471        -7.7681
  68   2.0000      -0.284415        -7.7393
  69   2.0000      -0.275847        -7.5062
  70   2.0000      -0.193606        -5.2683
  71   2.0000      -0.117264        -3.1909
  72   0.0000      -0.039256        -1.0682
  73   0.0000      -0.007471        -0.2033
  74   0.0000      -0.000625        -0.0170
  75   0.0000       0.008904         0.2423
  76   0.0000       0.009800         0.2667

MULLIKEN ATOMIC CHARGES
-----------------------
   0 C :    0.902991
   1 N :    0.445360
   2 C :    0.171797
   3 C :    0.213578
   4 H :    0.065735
   5 H :    0.072928
   6 S :    1.412866
   7 C :    0.659260
   8 N :    0.510452
   9 C :    0.361174
  10 H :    0.128225
  11 H :   -0.630736
  12 H :   -1.206791
  13 H :   -0.366935
  14 H :   -0.196147
  15 O :   -0.743712
  16 O :   -0.689274
  17 C :    0.247935
  18 H :   -0.318967
  19 H :   -0.081318
  20 C :   -0.067543
  21 C :    0.181064
  22 H :    0.060261
  23 H :   -0.488531
  24 H :   -0.056326
  25 H :    0.108134
  26 C :    0.071424
  27 H :   -0.100012
  28 H :   -0.003647
  29 C :   -0.201500
  30 H :   -0.131478
  31 H :   -0.098906
  32 C :    0.580957
  33 H :   -0.316428
  34 H :    0.167421
  35 H :    0.161858
  36 H :   -0.312039
  37 H :   -0.014052
  38 H :    0.037025
  39 F :   -0.536104
Sum of atomic charges:    0.0000000

LOEWDIN ATOMIC CHARGES
----------------------
   0 C :    0.071968
   1 N :    0.006032
   2 C :   -0.024199
   3 C :   -0.033014
   4 H :    0.027309
   5 H :    0.034828
   6 S :    1.144993
   7 C :   -0.216686
   8 N :    0.216587
   9 C :    0.159667
  10 H :   -0.120263
  11 H :   -0.110226
  12 H :   -0.064467
  13 H :   -0.124645
  14 H :    0.011431
  15 O :   -0.429313
  16 O :   -0.420097
  17 C :   -0.004642
  18 H :    0.008141
  19 H :    0.014338
  20 C :   -0.023888
  21 C :   -0.023640
  22 H :    0.037033
  23 H :   -0.017595
  24 H :    0.035916
  25 H :    0.027419
  26 C :   -0.023688
  27 H :    0.018389
  28 H :    0.009961
  29 C :   -0.032571
  30 H :    0.023490
  31 H :    0.003640
  32 C :   -0.021147
  33 H :    0.021058
  34 H :   -0.001716
  35 H :    0.017713
  36 H :    0.021966
  37 H :    0.017508
  38 H :    0.020754
  39 F :   -0.258345

  Mayer bond orders larger than 0.100000
B(  0-C ,  1-N ) :   1.0275 B(  0-C , 10-H ) :   0.1216 B(  0-C , 12-H ) :  -0.4725
B(  0-C , 17-C ) :   1.0828 B(  0-C , 18-H ) :   0.7337 B(  0-C , 19-H ) :   0.8673
B(  0-C , 26-C ) :   0.1209 B(  0-C , 27-H ) :   0.1057 B(  1-N ,  7-C ) :   1.0291
B(  1-N ,  9-C ) :   0.3012 B(  1-N , 11-H ) :   0.1281 B(  1-N , 12-H ) :   0.4973
B(  1-N , 13-H ) :   0.1721 B(  1-N , 14-H ) :  -0.1118 B(  1-N , 18-H ) :   0.2659
B(  2-C ,  3-C ) :   1.2506 B(  2-C ,  5-H ) :   0.2371 B(  2-C , 20-C ) :   0.1207
B(  2-C , 21-C ) :   1.1622 B(  2-C , 24-H ) :   0.8243 B(  2-C , 25-H ) :   0.8664
B(  3-C ,  4-H ) :   0.9133 B(  3-C ,  5-H ) :   0.7158 B(  3-C ,  6-S ) :   0.9630
B(  3-C , 16-O ) :   0.1009 B(  3-C , 21-C ) :   0.1201 B(  3-C , 25-H ) :   0.1097
B(  6-S , 15-O ) :   1.3942 B(  6-S , 16-O ) :   1.4506 B(  6-S , 39-F ) :   0.6113
B(  7-C ,  8-N ) :   0.9466 B(  7-C ,  9-C ) :   1.5728 B(  7-C , 10-H ) :   0.3441
B(  7-C , 11-H ) :   0.3464 B(  7-C , 12-H ) :  -0.6784 B(  7-C , 13-H ) :  -0.1830
B(  7-C , 14-H ) :  -0.1282 B(  7-C , 18-H ) :   0.1162 B(  8-N ,  9-C ) :   0.2324
B(  8-N , 11-H ) :   0.1037 B(  8-N , 13-H ) :   0.9074 B(  8-N , 14-H ) :   1.2941
B(  9-C , 10-H ) :   0.5423 B(  9-C , 11-H ) :   0.7278 B( 10-H , 13-H ) :   0.1657
B( 10-H , 18-H ) :  -0.1062 B( 10-H , 19-H ) :   0.1234 B( 11-H , 12-H ) :  -0.1108
B( 12-H , 39-F ) :   0.2334 B( 13-H , 14-H ) :  -0.2692 B( 13-H , 15-O ) :   0.1199
B( 16-O , 39-F ) :   0.1050 B( 17-C , 18-H ) :   0.1171 B( 17-C , 26-C ) :   1.2064
B( 17-C , 27-H ) :   0.9186 B( 17-C , 28-H ) :   0.7807 B( 17-C , 31-H ) :   0.1260
B( 18-H , 19-H ) :  -0.1946 B( 20-C , 21-C ) :   1.2475 B( 20-C , 22-H ) :   0.1064
B( 20-C , 23-H ) :   0.1428 B( 20-C , 29-C ) :   0.1364 B( 20-C , 32-C ) :   1.1483
B( 20-C , 35-H ) :   0.8441 B( 20-C , 36-H ) :   0.9828 B( 20-C , 37-H ) :   0.1167
B( 20-C , 38-H ) :   0.1992 B( 21-C , 22-H ) :   0.7303 B( 21-C , 23-H ) :   0.8290
B( 21-C , 24-H ) :   0.1795 B( 21-C , 36-H ) :   0.1848 B( 22-H , 23-H ) :   0.2108
B( 23-H , 34-H ) :   0.1157 B( 26-C , 27-H ) :   0.1018 B( 26-C , 28-H ) :   0.1869
B( 26-C , 29-C ) :   1.2190 B( 26-C , 30-H ) :   0.8858 B( 26-C , 31-H ) :   0.9218
B( 26-C , 33-H ) :   0.1366 B( 27-H , 28-H ) :  -0.1073 B( 29-C , 30-H ) :   0.1508
B( 29-C , 31-H ) :   0.1154 B( 29-C , 32-C ) :   1.1443 B( 29-C , 33-H ) :   1.0573
B( 29-C , 34-H ) :   0.8331 B( 29-C , 37-H ) :   0.2676 B( 29-C , 38-H ) :   0.1315
B( 32-C , 37-H ) :   0.6835 B( 32-C , 38-H ) :   0.7137

Dispersion correction           -0.060409056
FINAL SINGLE POINT ENERGY     -1190.431836698024

DIPOLE MOMENT
-------------
                                X             Y             Z
Electronic contribution:    -18.95341       1.90373     -17.87385
Nuclear contribution   :     18.85717      -4.60195      17.96505
                        -----------------------------------------
Total Dipole Moment    :     -0.09624      -2.69821       0.09120
                        -----------------------------------------
Magnitude (a.u.)       :      2.70147
Magnitude (Debye)      :      6.86659

Rotational constants in cm-1:     0.014436     0.012382     0.007563
Rotational constants in MHz :   432.785702   371.214592   226.743759

                             ****ORCA TERMINATED NORMALLY****
TOTAL RUN TIME: 0 days 0 hours 2 minutes 1 seconds 488 msec
