                         Program Version 5.0.0 -  RELEASE  -
|  1> !M062X D3Zero RIJCOSX def2-TZVP def2/J TightSCF
|  2> *xyz -1 1
|  3> C         -0.87096        0.24804       -2.66280
|  4> C         -0.47749        0.60819       -4.10105
|  5> H          0.20677        1.45830       -4.11875
|  6> H         -1.36844        0.92942       -4.64785
|  7> C          0.18467       -0.50664       -4.91676
|  8> O         -0.15869       -1.70109       -4.65798
|  9> O          1.05594       -0.17441       -5.74037
| 10> H         -1.54056       -0.58646       -2.67455
| 11> H         -1.35339        1.08600       -2.20455
| 12> H          0.00660       -0.00662       -2.10609
| 13> *
| 14>
| 15> %MaxCore 64000
| 16>
| 17> %pal nprocs 4
| 18> end
| 19>
| 20> %scf
| 21>   MaxIter 150
| 22> end
| 23>
| 24>
| 25>                          ****END OF INPUT****

CARTESIAN COORDINATES (ANGSTROEM)
---------------------------------
  C     -0.870960    0.248040   -2.662800
  C     -0.477490    0.608190   -4.101050
  H      0.206770    1.458300   -4.118750
  H     -1.368440    0.929420   -4.647850
  C      0.184670   -0.506640   -4.916760
  O     -0.158690   -1.701090   -4.657980
  O      1.055940   -0.174410   -5.740370
  H     -1.540560   -0.586460   -2.674550
  H     -1.353390    1.086000   -2.204550
  H      0.006600   -0.006620   -2.106090

 Total Charge           Charge          ....   -1
 Multiplicity           Mult            ....    1
 Number of Electrons    NEL             ....   40
 Basis Dimension        Dim             ....  185

ORBITAL ENERGIES
----------------

  NO   OCC          E(Eh)            E(eV)
   0   2.0000     -19.352118      -526.5979
   1   2.0000     -19.348642      -526.5033
   2   2.0000     -10.415129      -283.4101
   3   2.0000     -10.366072      -282.0752
   4   2.0000     -10.356604      -281.8175
   5   2.0000      -0.935651       -25.4604
   6   2.0000      -0.835831       -22.7441
   7   2.0000      -0.697333       -18.9754
   8   2.0000      -0.560144       -15.2423
   9   2.0000      -0.391916       -10.6646
  10   2.0000      -0.360166        -9.8006
  11   2.0000      -0.333271        -9.0688
  12   2.0000      -0.296108        -8.0575
  13   2.0000      -0.279954        -7.6179
  14   2.0000      -0.275042        -7.4843
  15   2.0000      -0.241263        -6.5651
  16   2.0000      -0.223170        -6.0728
  17   2.0000      -0.106069        -2.8863
  18   2.0000      -0.105249        -2.8640
  19   2.0000      -0.098004        -2.6668
  20   0.0000       0.215712         5.8698
  21   0.0000       0.257897         7.0177
  22   0.0000       0.274226         7.4621
  23   0.0000       0.280300         7.6273
  24   0.0000       0.298036         8.1100

MULLIKEN ATOMIC CHARGES
-----------------------
   0 C :   -0.382662
   1 C :   -0.261730
   2 H :    0.088420
   3 H :    0.082042
   4 C :    0.280066
   5 O :   -0.576486
   6 O :   -0.543657
   7 H :    0.123675
   8 H :    0.080389
   9 H :    0.109944
Sum of atomic charges:   -1.0000000

LOEWDIN ATOMIC CHARGES
----------------------
   0 C :   -0.329725
   1 C :   -0.295303
   2 H :    0.123993
   3 H :    0.125631
   4 C :   -0.689540
   5 O :   -0.144501
   6 O :   -0.105951
   7 H :    0.112828
   8 H :    0.093822
   9 H :    0.108747

  Mayer bond orders larger than 0.100000
B(  0-C ,  1-C ) :   0.9182 B(  0-C ,  7-H ) :   0.9738 B(  0-C ,  8-H ) :   0.9740
B(  0-C ,  9-H ) :   0.9802 B(  1-C ,  2-H ) :   0.9737 B(  1-C ,  3-H ) :   0.9682
B(  1-C ,  4-C ) :   0.9407 B(  4-C ,  5-O ) :   1.8033 B(  4-C ,  6-O ) :   1.8635

Dispersion correction           -0.000090013
FINAL SINGLE POINT ENERGY      -267.826880891788

DIPOLE MOMENT
-------------
                                X             Y             Z
Electronic contribution:      2.63964      -2.91410      -4.58097
Nuclear contribution   :     -3.54611       4.15440       5.90446
                        -----------------------------------------
Total Dipole Moment    :     -0.90648       1.24030       1.32350
                        -----------------------------------------
Magnitude (a.u.)       :      2.02773
Magnitude (Debye)      :      5.15408

Rotational constants in cm-1:     0.332789     0.132085     0.101080
Rotational constants in MHz :  9976.755824  3959.803182  3030.288811

                             ****ORCA TERMINATED NORMALLY****
TOTAL RUN TIME: 0 days 0 hours 0 minutes 19 seconds 922 msec
