                         Program Version 5.0.0 -  RELEASE  -
|  1> !M062X D3Zero RIJCOSX def2-TZVP def2/J TightSCF
|  2> *xyz 1 1
|  3> C          2.48645       -2.67712       -2.56345
|  4> C          3.03764       -2.36672       -3.92351
|  5> N          2.28036       -2.45441       -4.96769
|  6> N          4.32174       -2.01793       -4.01664
|  7> H          4.87994       -1.91167       -3.17382
|  8> H          4.71015       -1.67088       -4.88356
|  9> H          1.27042       -2.41265       -4.86614
| 10> H          2.58183       -2.05528       -5.84688
| 11> C          2.49799       -1.46946       -1.61030
| 12> H          1.47259       -3.05153       -2.69437
| 13> H          3.08320       -3.49064       -2.14147
| 14> H          1.91240       -0.67831       -2.02991
| 15> H          3.50450       -1.13364       -1.47227
| 16> H          2.08509       -1.75655       -0.66585
| 17> *
| 18>
| 19> %MaxCore 64000
| 20>
| 21> %pal nprocs 4
| 22> end
| 23>
| 24> %scf
| 25>   MaxIter 150
| 26> end
| 27>
| 28>
| 29>                          ****END OF INPUT****

CARTESIAN COORDINATES (ANGSTROEM)
---------------------------------
  C      2.486450   -2.677120   -2.563450
  C      3.037640   -2.366720   -3.923510
  N      2.280360   -2.454410   -4.967690
  N      4.321740   -2.017930   -4.016640
  H      4.879940   -1.911670   -3.173820
  H      4.710150   -1.670880   -4.883560
  H      1.270420   -2.412650   -4.866140
  H      2.581830   -2.055280   -5.846880
  C      2.497990   -1.469460   -1.610300
  H      1.472590   -3.051530   -2.694370
  H      3.083200   -3.490640   -2.141470
  H      1.912400   -0.678310   -2.029910
  H      3.504500   -1.133640   -1.472270
  H      2.085090   -1.756550   -0.665850

 Total Charge           Charge          ....    1
 Multiplicity           Mult            ....    1
 Number of Electrons    NEL             ....   40
 Basis Dimension        Dim             ....  209

ORBITAL ENERGIES
----------------

  NO   OCC          E(Eh)            E(eV)
   0   2.0000     -14.997898      -408.1136
   1   2.0000     -14.992365      -407.9630
   2   2.0000     -10.865657      -295.6696
   3   2.0000     -10.734936      -292.1125
   4   2.0000     -10.692536      -290.9587
   5   2.0000      -1.320785       -35.9404
   6   2.0000      -1.216889       -33.1132
   7   2.0000      -1.067494       -29.0480
   8   2.0000      -0.954839       -25.9825
   9   2.0000      -0.899234       -24.4694
  10   2.0000      -0.849781       -23.1237
  11   2.0000      -0.828598       -22.5473
  12   2.0000      -0.772003       -21.0073
  13   2.0000      -0.725907       -19.7529
  14   2.0000      -0.692213       -18.8361
  15   2.0000      -0.678273       -18.4568
  16   2.0000      -0.611762       -16.6469
  17   2.0000      -0.602000       -16.3812
  18   2.0000      -0.592312       -16.1176
  19   2.0000      -0.559838       -15.2340
  20   0.0000      -0.172785        -4.7017
  21   0.0000      -0.129838        -3.5331
  22   0.0000      -0.086653        -2.3580
  23   0.0000      -0.085402        -2.3239
  24   0.0000      -0.049216        -1.3392

MULLIKEN ATOMIC CHARGES
-----------------------
   0 C :   -0.358065
   1 C :    0.462460
   2 N :   -0.389082
   3 N :   -0.427045
   4 H :    0.314944
   5 H :    0.294487
   6 H :    0.313380
   7 H :    0.287667
   8 C :   -0.376080
   9 H :    0.172000
  10 H :    0.213738
  11 H :    0.161819
  12 H :    0.140450
  13 H :    0.189328
Sum of atomic charges:    1.0000000

LOEWDIN ATOMIC CHARGES
----------------------
   0 C :   -0.220609
   1 C :   -0.288128
   2 N :    0.120546
   3 N :    0.097012
   4 H :    0.210048
   5 H :    0.198658
   6 H :    0.215637
   7 H :    0.202819
   8 C :   -0.260484
   9 H :    0.159240
  10 H :    0.173077
  11 H :    0.130018
  12 H :    0.122136
  13 H :    0.140031

  Mayer bond orders larger than 0.100000
B(  0-C ,  1-C ) :   0.9396 B(  0-C ,  8-C ) :   0.9266 B(  0-C ,  9-H ) :   0.9809
B(  0-C , 10-H ) :   0.9411 B(  1-C ,  2-N ) :   1.4318 B(  1-C ,  3-N ) :   1.3806
B(  2-N ,  6-H ) :   0.8821 B(  2-N ,  7-H ) :   0.8958 B(  3-N ,  4-H ) :   0.8873
B(  3-N ,  5-H ) :   0.8941 B(  8-C , 11-H ) :   0.9577 B(  8-C , 12-H ) :   0.9666
B(  8-C , 13-H ) :   0.9656

Dispersion correction           -0.000199988
FINAL SINGLE POINT ENERGY      -229.001013918298

DIPOLE MOMENT
-------------
                                X             Y             Z
Electronic contribution:      1.04665      -1.06412      -3.90748
Nuclear contribution   :     -0.84604       1.34287       2.92710
                        -----------------------------------------
Total Dipole Moment    :      0.20061       0.27875      -0.98038
                        -----------------------------------------
Magnitude (a.u.)       :      1.03880
Magnitude (Debye)      :      2.64041

Rotational constants in cm-1:     0.265816     0.126189     0.097583
Rotational constants in MHz :  7968.948902  3783.040103  2925.457702

                             ****ORCA TERMINATED NORMALLY****
TOTAL RUN TIME: 0 days 0 hours 0 minutes 28 seconds 199 msec
