                         Program Version 5.0.0 -  RELEASE  -
|  1> !M062X D3Zero RIJCOSX def2-TZVP def2/J TightSCF
|  2> *xyz 0 1
|  3> C         -0.87096        0.24804       -2.66280
|  4> C         -0.47749        0.60819       -4.10105
|  5> H          0.20677        1.45830       -4.11875
|  6> H         -1.36844        0.92942       -4.64785
|  7> C          0.18467       -0.50664       -4.91676
|  8> F         -0.15869       -1.70109       -4.65798
|  9> O          1.05594       -0.17441       -5.74037
| 10> H         -1.54056       -0.58646       -2.67455
| 11> H         -1.35339        1.08600       -2.20455
| 12> H          0.00660       -0.00662       -2.10609
| 13> *
| 14>
| 15> %MaxCore 64000
| 16>
| 17> %pal nprocs 4
| 18> end
| 19>
| 20> %scf
| 21>   MaxIter 150
| 22> end
| 23>
| 24>
| 25>                          ****END OF INPUT****

CARTESIAN COORDINATES (ANGSTROEM)
---------------------------------
  C     -0.870960    0.248040   -2.662800
  C     -0.477490    0.608190   -4.101050
  H      0.206770    1.458300   -4.118750
  H     -1.368440    0.929420   -4.647850
  C      0.184670   -0.506640   -4.916760
  F     -0.158690   -1.701090   -4.657980
  O      1.055940   -0.174410   -5.740370
  H     -1.540560   -0.586460   -2.674550
  H     -1.353390    1.086000   -2.204550
  H      0.006600   -0.006620   -2.106090

 Total Charge           Charge          ....    0
 Multiplicity           Mult            ....    1
 Number of Electrons    NEL             ....   40
 Basis Dimension        Dim             ....  185

ORBITAL ENERGIES
----------------

  NO   OCC          E(Eh)            E(eV)
   0   2.0000     -25.310261      -688.7272
   1   2.0000     -19.634683      -534.2869
   2   2.0000     -10.719132      -291.6824
   3   2.0000     -10.568221      -287.5759
   4   2.0000     -10.542608      -286.8790
   5   2.0000      -1.454566       -39.5808
   6   2.0000      -1.162521       -31.6338
   7   2.0000      -0.901967       -24.5438
   8   2.0000      -0.781208       -21.2578
   9   2.0000      -0.734243       -19.9798
  10   2.0000      -0.639689       -17.4068
  11   2.0000      -0.634096       -17.2546
  12   2.0000      -0.582125       -15.8404
  13   2.0000      -0.540084       -14.6964
  14   2.0000      -0.508296       -13.8314
  15   2.0000      -0.473655       -12.8888
  16   2.0000      -0.457631       -12.4528
  17   2.0000      -0.443953       -12.0806
  18   2.0000      -0.416467       -11.3327
  19   2.0000      -0.369492       -10.0544
  20   0.0000       0.019265         0.5242
  21   0.0000       0.057210         1.5568
  22   0.0000       0.104122         2.8333
  23   0.0000       0.124045         3.3754
  24   0.0000       0.129945         3.5360

MULLIKEN ATOMIC CHARGES
-----------------------
   0 C :   -0.397634
   1 C :   -0.301489
   2 H :    0.164498
   3 H :    0.154871
   4 C :    0.406559
   5 F :   -0.125138
   6 O :   -0.333484
   7 H :    0.142057
   8 H :    0.144335
   9 H :    0.145426
Sum of atomic charges:   -0.0000000

LOEWDIN ATOMIC CHARGES
----------------------
   0 C :   -0.297547
   1 C :   -0.259109
   2 H :    0.155504
   3 H :    0.154568
   4 C :   -0.484326
   5 F :    0.296001
   6 O :    0.071961
   7 H :    0.120283
   8 H :    0.121551
   9 H :    0.121114

  Mayer bond orders larger than 0.100000
B(  0-C ,  1-C ) :   0.9348 B(  0-C ,  7-H ) :   0.9663 B(  0-C ,  8-H ) :   0.9715
B(  0-C ,  9-H ) :   0.9717 B(  1-C ,  2-H ) :   0.9672 B(  1-C ,  3-H ) :   0.9440
B(  1-C ,  4-C ) :   0.9984 B(  4-C ,  5-F ) :   1.1242 B(  4-C ,  6-O ) :   2.0671

Dispersion correction           -0.000096223
FINAL SINGLE POINT ENERGY      -292.395796874945

DIPOLE MOMENT
-------------
                                X             Y             Z
Electronic contribution:      2.60463      -5.33811      -5.28849
Nuclear contribution   :     -3.42837       5.66737       6.17046
                        -----------------------------------------
Total Dipole Moment    :     -0.82374       0.32927       0.88197
                        -----------------------------------------
Magnitude (a.u.)       :      1.25093
Magnitude (Debye)      :      3.17962

Rotational constants in cm-1:     0.304660     0.130969     0.097716
Rotational constants in MHz :  9133.464515  3926.366384  2929.457090

                             ****ORCA TERMINATED NORMALLY****
TOTAL RUN TIME: 0 days 0 hours 0 minutes 22 seconds 49 msec
