                         Program Version 5.0.0 -  RELEASE  -
|  1> !M062X D3Zero RIJCOSX def2-TZVP def2/J TightSCF
|  2> *xyz 0 1
|  3> C          2.48645       -2.67712       -2.56345
|  4> C          3.03764       -2.36672       -3.92351
|  5> C          2.28036       -2.45441       -4.96769
|  6> N          4.32174       -2.01793       -4.01664
|  7> H          4.87994       -1.91167       -3.17382
|  8> H          4.71015       -1.67088       -4.88356
|  9> H          1.27042       -2.41265       -4.86614
| 10> H          2.58183       -2.05528       -5.84688
| 11> C          2.49799       -1.46946       -1.61030
| 12> H          1.47259       -3.05153       -2.69437
| 13> H          3.08320       -3.49064       -2.14147
| 14> H          1.91240       -0.67831       -2.02991
| 15> H          3.50450       -1.13364       -1.47227
| 16> H          2.08509       -1.75655       -0.66585
| 17> *
| 18>
| 19> %MaxCore 64000
| 20>
| 21> %pal nprocs 4
| 22> end
| 23>
| 24> %scf
| 25>   MaxIter 150
| 26> end
| 27>
| 28>
| 29>                          ****END OF INPUT****

CARTESIAN COORDINATES (ANGSTROEM)
---------------------------------
  C      2.486450   -2.677120   -2.563450
  C      3.037640   -2.366720   -3.923510
  C      2.280360   -2.454410   -4.967690
  N      4.321740   -2.017930   -4.016640
  H      4.879940   -1.911670   -3.173820
  H      4.710150   -1.670880   -4.883560
  H      1.270420   -2.412650   -4.866140
  H      2.581830   -2.055280   -5.846880
  C      2.497990   -1.469460   -1.610300
  H      1.472590   -3.051530   -2.694370
  H      3.083200   -3.490640   -2.141470
  H      1.912400   -0.678310   -2.029910
  H      3.504500   -1.133640   -1.472270
  H      2.085090   -1.756550   -0.665850

 Total Charge           Charge          ....    0
 Multiplicity           Mult            ....    1
 Number of Electrons    NEL             ....   40
 Basis Dimension        Dim             ....  209

ORBITAL ENERGIES
----------------

  NO   OCC          E(Eh)            E(eV)
   0   2.0000     -14.746330      -401.2680
   1   2.0000     -10.556566      -287.2588
   2   2.0000     -10.533560      -286.6327
   3   2.0000     -10.522269      -286.3255
   4   2.0000     -10.464656      -284.7578
   5   2.0000      -1.033291       -28.1173
   6   2.0000      -0.877235       -23.8708
   7   2.0000      -0.820148       -22.3174
   8   2.0000      -0.722893       -19.6709
   9   2.0000      -0.645137       -17.5551
  10   2.0000      -0.598396       -16.2832
  11   2.0000      -0.549008       -14.9393
  12   2.0000      -0.504473       -13.7274
  13   2.0000      -0.499097       -13.5811
  14   2.0000      -0.453438       -12.3387
  15   2.0000      -0.448437       -12.2026
  16   2.0000      -0.416330       -11.3289
  17   2.0000      -0.395773       -10.7695
  18   2.0000      -0.388583       -10.5739
  19   2.0000      -0.251310        -6.8385
  20   0.0000       0.054985         1.4962
  21   0.0000       0.079078         2.1518
  22   0.0000       0.102107         2.7785
  23   0.0000       0.108915         2.9637
  24   0.0000       0.121499         3.3062

MULLIKEN ATOMIC CHARGES
-----------------------
   0 C :   -0.333672
   1 C :    0.305671
   2 C :   -0.402281
   3 N :   -0.551983
   4 H :    0.246340
   5 H :    0.246245
   6 H :    0.102127
   7 H :    0.083238
   8 C :   -0.377752
   9 H :    0.141425
  10 H :    0.146442
  11 H :    0.141564
  12 H :    0.113585
  13 H :    0.139050
Sum of atomic charges:   -0.0000000

LOEWDIN ATOMIC CHARGES
----------------------
   0 C :   -0.239597
   1 C :   -0.365822
   2 C :   -0.272347
   3 N :   -0.016498
   4 H :    0.169887
   5 H :    0.172150
   6 H :    0.109938
   7 H :    0.100694
   8 C :   -0.296005
   9 H :    0.147643
  10 H :    0.142166
  11 H :    0.120312
  12 H :    0.110586
  13 H :    0.116894

  Mayer bond orders larger than 0.100000
B(  0-C ,  1-C ) :   0.9348 B(  0-C ,  8-C ) :   0.9248 B(  0-C ,  9-H ) :   0.9935
B(  0-C , 10-H ) :   0.9758 B(  1-C ,  2-C ) :   1.8004 B(  1-C ,  3-N ) :   1.0688
B(  2-C ,  6-H ) :   0.9942 B(  2-C ,  7-H ) :   1.0005 B(  3-N ,  4-H ) :   0.9289
B(  3-N ,  5-H ) :   0.9255 B(  8-C , 11-H ) :   0.9718 B(  8-C , 12-H ) :   0.9738
B(  8-C , 13-H ) :   0.9801

Dispersion correction           -0.000196499
FINAL SINGLE POINT ENERGY      -212.533107785300

DIPOLE MOMENT
-------------
                                X             Y             Z
Electronic contribution:      1.53307      -0.87876      -2.13213
Nuclear contribution   :     -0.99743       1.27863       2.57190
                        -----------------------------------------
Total Dipole Moment    :      0.53564       0.39986       0.43977
                        -----------------------------------------
Magnitude (a.u.)       :      0.80012
Magnitude (Debye)      :      2.03374

Rotational constants in cm-1:     0.274050     0.130114     0.100964
Rotational constants in MHz :  8215.815505  3900.722919  3026.834930

                             ****ORCA TERMINATED NORMALLY****
TOTAL RUN TIME: 0 days 0 hours 0 minutes 29 seconds 109 msec
