                         Program Version 5.0.0 -  RELEASE  -
|  1> !M062X D3Zero RIJCOSX def2-TZVP def2/J TightSCF
|  2> *xyz 0 1
|  3> C         -0.87096        0.24804       -2.66280
|  4> C         -0.47749        0.60819       -4.10105
|  5> H          0.20677        1.45830       -4.11875
|  6> H         -1.36844        0.92942       -4.64785
|  7> C          0.18467       -0.50664       -4.91676
|  8> O         -0.15869       -1.70109       -4.65798
|  9> F          1.05594       -0.17441       -5.74037
| 10> H         -1.54056       -0.58646       -2.67455
| 11> H         -1.35339        1.08600       -2.20455
| 12> H          0.00660       -0.00662       -2.10609
| 13> *
| 14>
| 15> %MaxCore 64000
| 16>
| 17> %pal nprocs 4
| 18> end
| 19>
| 20> %scf
| 21>   MaxIter 150
| 22> end
| 23>
| 24>
| 25>                          ****END OF INPUT****

CARTESIAN COORDINATES (ANGSTROEM)
---------------------------------
  C     -0.870960    0.248040   -2.662800
  C     -0.477490    0.608190   -4.101050
  H      0.206770    1.458300   -4.118750
  H     -1.368440    0.929420   -4.647850
  C      0.184670   -0.506640   -4.916760
  O     -0.158690   -1.701090   -4.657980
  F      1.055940   -0.174410   -5.740370
  H     -1.540560   -0.586460   -2.674550
  H     -1.353390    1.086000   -2.204550
  H      0.006600   -0.006620   -2.106090

 Total Charge           Charge          ....    0
 Multiplicity           Mult            ....    1
 Number of Electrons    NEL             ....   40
 Basis Dimension        Dim             ....  185

ORBITAL ENERGIES
----------------

  NO   OCC          E(Eh)            E(eV)
   0   2.0000     -25.319430      -688.9767
   1   2.0000     -19.631618      -534.2035
   2   2.0000     -10.721783      -291.7546
   3   2.0000     -10.569362      -287.6070
   4   2.0000     -10.536823      -286.7215
   5   2.0000      -1.473520       -40.0965
   6   2.0000      -1.146735       -31.2042
   7   2.0000      -0.898211       -24.4416
   8   2.0000      -0.792806       -21.5734
   9   2.0000      -0.732810       -19.9408
  10   2.0000      -0.649244       -17.6668
  11   2.0000      -0.635157       -17.2835
  12   2.0000      -0.592981       -16.1358
  13   2.0000      -0.538431       -14.6515
  14   2.0000      -0.507206       -13.8018
  15   2.0000      -0.460689       -12.5360
  16   2.0000      -0.444411       -12.0930
  17   2.0000      -0.440047       -11.9743
  18   2.0000      -0.412241       -11.2176
  19   2.0000      -0.368497       -10.0273
  20   0.0000       0.016331         0.4444
  21   0.0000       0.062373         1.6972
  22   0.0000       0.103723         2.8224
  23   0.0000       0.121637         3.3099
  24   0.0000       0.130718         3.5570

MULLIKEN ATOMIC CHARGES
-----------------------
   0 C :   -0.391859
   1 C :   -0.302698
   2 H :    0.145957
   3 H :    0.156719
   4 C :    0.419751
   5 O :   -0.362423
   6 F :   -0.104870
   7 H :    0.157918
   8 H :    0.139456
   9 H :    0.142048
Sum of atomic charges:   -0.0000000

LOEWDIN ATOMIC CHARGES
----------------------
   0 C :   -0.286952
   1 C :   -0.263802
   2 H :    0.143685
   3 H :    0.155996
   4 C :   -0.488924
   5 O :    0.038367
   6 F :    0.334233
   7 H :    0.126239
   8 H :    0.119396
   9 H :    0.121761

  Mayer bond orders larger than 0.100000
B(  0-C ,  1-C ) :   0.9507 B(  0-C ,  7-H ) :   0.9648 B(  0-C ,  8-H ) :   0.9704
B(  0-C ,  9-H ) :   0.9743 B(  1-C ,  2-H ) :   0.9652 B(  1-C ,  3-H ) :   0.9367
B(  1-C ,  4-C ) :   0.9927 B(  4-C ,  5-O ) :   2.0235 B(  4-C ,  6-F ) :   1.1555

Dispersion correction           -0.000089599
FINAL SINGLE POINT ENERGY      -292.389033708359

DIPOLE MOMENT
-------------
                                X             Y             Z
Electronic contribution:      4.63664      -2.82046      -7.11005
Nuclear contribution   :     -4.75269       4.00281       7.35060
                        -----------------------------------------
Total Dipole Moment    :     -0.11605       1.18236       0.24055
                        -----------------------------------------
Magnitude (a.u.)       :      1.21215
Magnitude (Debye)      :      3.08103

Rotational constants in cm-1:     0.323805     0.124913     0.096140
Rotational constants in MHz :  9707.430323  3744.789513  2882.191141

                             ****ORCA TERMINATED NORMALLY****
TOTAL RUN TIME: 0 days 0 hours 0 minutes 23 seconds 524 msec
