                         Program Version 5.0.0 -  RELEASE  -
|  1> !M062X D3Zero RIJCOSX def2-TZVP def2/J TightSCF
|  2> *xyz 0 1
|  3> C          2.48645       -2.67712       -2.56345
|  4> C          3.03764       -2.36672       -3.92351
|  5> N          2.28036       -2.45441       -4.96769
|  6> C          4.32174       -2.01793       -4.01664
|  7> H          4.87994       -1.91167       -3.17382
|  8> H          4.71015       -1.67088       -4.88356
|  9> H          1.27042       -2.41265       -4.86614
| 10> H          2.58183       -2.05528       -5.84688
| 11> C          2.49799       -1.46946       -1.61030
| 12> H          1.47259       -3.05153       -2.69437
| 13> H          3.08320       -3.49064       -2.14147
| 14> H          1.91240       -0.67831       -2.02991
| 15> H          3.50450       -1.13364       -1.47227
| 16> H          2.08509       -1.75655       -0.66585
| 17> *
| 18>
| 19> %MaxCore 64000
| 20>
| 21> %pal nprocs 4
| 22> end
| 23>
| 24> %scf
| 25>   MaxIter 150
| 26> end
| 27>
| 28>
| 29>                          ****END OF INPUT****

CARTESIAN COORDINATES (ANGSTROEM)
---------------------------------
  C      2.486450   -2.677120   -2.563450
  C      3.037640   -2.366720   -3.923510
  N      2.280360   -2.454410   -4.967690
  C      4.321740   -2.017930   -4.016640
  H      4.879940   -1.911670   -3.173820
  H      4.710150   -1.670880   -4.883560
  H      1.270420   -2.412650   -4.866140
  H      2.581830   -2.055280   -5.846880
  C      2.497990   -1.469460   -1.610300
  H      1.472590   -3.051530   -2.694370
  H      3.083200   -3.490640   -2.141470
  H      1.912400   -0.678310   -2.029910
  H      3.504500   -1.133640   -1.472270
  H      2.085090   -1.756550   -0.665850

 Total Charge           Charge          ....    0
 Multiplicity           Mult            ....    1
 Number of Electrons    NEL             ....   40
 Basis Dimension        Dim             ....  209

ORBITAL ENERGIES
----------------

  NO   OCC          E(Eh)            E(eV)
   0   2.0000     -14.750096      -401.3705
   1   2.0000     -10.556843      -287.2663
   2   2.0000     -10.534173      -286.6494
   3   2.0000     -10.518551      -286.2243
   4   2.0000     -10.465531      -284.7816
   5   2.0000      -1.049296       -28.5528
   6   2.0000      -0.878466       -23.9043
   7   2.0000      -0.803220       -21.8567
   8   2.0000      -0.728141       -19.8137
   9   2.0000      -0.648945       -17.6587
  10   2.0000      -0.595208       -16.1964
  11   2.0000      -0.553908       -15.0726
  12   2.0000      -0.514386       -13.9972
  13   2.0000      -0.474605       -12.9147
  14   2.0000      -0.461565       -12.5598
  15   2.0000      -0.444316       -12.0905
  16   2.0000      -0.414349       -11.2750
  17   2.0000      -0.399373       -10.8675
  18   2.0000      -0.396187       -10.7808
  19   2.0000      -0.240816        -6.5529
  20   0.0000       0.056819         1.5461
  21   0.0000       0.073017         1.9869
  22   0.0000       0.101249         2.7551
  23   0.0000       0.107575         2.9273
  24   0.0000       0.123749         3.3674

MULLIKEN ATOMIC CHARGES
-----------------------
   0 C :   -0.334096
   1 C :    0.320745
   2 N :   -0.517156
   3 C :   -0.458474
   4 H :    0.102995
   5 H :    0.100690
   6 H :    0.240380
   7 H :    0.243124
   8 C :   -0.379183
   9 H :    0.119198
  10 H :    0.159809
  11 H :    0.132035
  12 H :    0.137766
  13 H :    0.132166
Sum of atomic charges:   -0.0000000

LOEWDIN ATOMIC CHARGES
----------------------
   0 C :   -0.239922
   1 C :   -0.378012
   2 N :    0.004476
   3 C :   -0.277783
   4 H :    0.104183
   5 H :    0.095450
   6 H :    0.171296
   7 H :    0.175635
   8 C :   -0.290528
   9 H :    0.133487
  10 H :    0.151417
  11 H :    0.117450
  12 H :    0.118652
  13 H :    0.114197

  Mayer bond orders larger than 0.100000
B(  0-C ,  1-C ) :   0.8847 B(  0-C ,  8-C ) :   0.9363 B(  0-C ,  9-H ) :   1.0015
B(  0-C , 10-H ) :   0.9851 B(  1-C ,  2-N ) :   1.1208 B(  1-C ,  3-C ) :   1.7260
B(  2-N ,  6-H ) :   0.9244 B(  2-N ,  7-H ) :   0.9270 B(  3-C ,  4-H ) :   1.0064
B(  3-C ,  5-H ) :   0.9929 B(  8-C , 11-H ) :   0.9736 B(  8-C , 12-H ) :   0.9741
B(  8-C , 13-H ) :   0.9785

Dispersion correction           -0.000196929
FINAL SINGLE POINT ENERGY      -212.533371158978

DIPOLE MOMENT
-------------
                                X             Y             Z
Electronic contribution:     -0.26549      -1.19134      -2.96871
Nuclear contribution   :     -0.52463       1.37972       2.79217
                        -----------------------------------------
Total Dipole Moment    :     -0.79012       0.18838      -0.17653
                        -----------------------------------------
Magnitude (a.u.)       :      0.83123
Magnitude (Debye)      :      2.11281

Rotational constants in cm-1:     0.281086     0.127387     0.100311
Rotational constants in MHz :  8426.743103  3818.969834  3007.238026

                             ****ORCA TERMINATED NORMALLY****
TOTAL RUN TIME: 0 days 0 hours 0 minutes 29 seconds 678 msec
