                         Program Version 5.0.0 -  RELEASE  -
|  1> !M062X D3Zero RIJCOSX def2-TZVP def2/J TightSCF xyzfile
|  2>
|  3> *xyzfile 0 1 D3.xyz
|  4>
|  5> %MaxCore 64000
|  6>
|  7> %pal nprocs 18
|  8> end
|  9>
| 10> %scf
| 11>   MaxIter 150
| 12> end
| 13>
| 14>
| 15>                          ****END OF INPUT****

CARTESIAN COORDINATES (ANGSTROEM)
---------------------------------
  C      2.486452   -2.677121   -2.563447
  C     -0.870963    0.248043   -2.662804
  C     -0.477492    0.608191   -4.101052
  H      0.206773    1.458299   -4.118748
  H     -1.368442    0.929419   -4.647855
  C      0.184673   -0.506640   -4.916760
  C      3.037640   -2.366715   -3.923509
  C      2.280360   -2.454408   -4.967692
  N      4.321736   -2.017932   -4.016641
  H      4.879940   -1.911668   -3.173823
  H      4.710148   -1.670882   -4.883561
  H      1.270423   -2.412650   -4.866143
  H      2.581829   -2.055282   -5.846878
  O     -0.158685   -1.701088   -4.657981
  F      1.055938   -0.174410   -5.740373
  C      2.497991   -1.469464   -1.610303
  C      1.582841   -0.321986   -2.042619
  H      2.193083   -1.833912   -0.625420
  H      3.523356   -1.103982   -1.490392
  C      0.100160   -0.673551   -1.915815
  H      1.822311   -0.040361   -3.072834
  H      1.813180    0.557019   -1.433266
  H     -0.063284   -1.679120   -2.301112
  H     -0.168820   -0.691680   -0.853831
  H     -1.001048    1.181040   -2.104071
  H     -1.844645   -0.246592   -2.663281
  H      1.472592   -3.051527   -2.694366
  H      3.083201   -3.490638   -2.141472

 Total Charge           Charge          ....    0
 Multiplicity           Mult            ....    1
 Number of Electrons    NEL             ....   94
 Basis Dimension        Dim             ....  468

ORBITAL ENERGIES
----------------

  NO   OCC          E(Eh)            E(eV)
   0   2.0000     -25.319365      -688.9749
   1   2.0000     -19.631178      -534.1915
   2   2.0000     -14.732884      -400.9021
   3   2.0000     -10.724200      -291.8203
   4   2.0000     -10.566865      -287.5390
   5   2.0000     -10.546208      -286.9769
   6   2.0000     -10.538778      -286.7747
   7   2.0000     -10.530871      -286.5596
   8   2.0000     -10.530459      -286.5483
   9   2.0000     -10.527945      -286.4800
  10   2.0000     -10.522653      -286.3359
  11   2.0000     -10.435803      -283.9726
  12   2.0000      -1.473983       -40.1091
  13   2.0000      -1.156807       -31.4783
  14   2.0000      -1.020025       -27.7563
  15   2.0000      -0.922325       -25.0977
  16   2.0000      -0.888411       -24.1749
  17   2.0000      -0.838477       -22.8161
  18   2.0000      -0.814768       -22.1710
  19   2.0000      -0.774450       -21.0739
  20   2.0000      -0.745902       -20.2970
  21   2.0000      -0.700779       -19.0692
  22   2.0000      -0.658890       -17.9293
  23   2.0000      -0.653346       -17.7785
  24   2.0000      -0.636696       -17.3254
  25   2.0000      -0.622764       -16.9463
  26   2.0000      -0.599138       -16.3034
  27   2.0000      -0.582475       -15.8499
  28   2.0000      -0.549787       -14.9605
  29   2.0000      -0.541254       -14.7283
  30   2.0000      -0.524368       -14.2688
  31   2.0000      -0.508408       -13.8345
  32   2.0000      -0.501841       -13.6558
  33   2.0000      -0.470798       -12.8111
  34   2.0000      -0.469742       -12.7823
  35   2.0000      -0.461667       -12.5626
  36   2.0000      -0.441419       -12.0116
  37   2.0000      -0.430778       -11.7221
  38   2.0000      -0.421148       -11.4600
  39   2.0000      -0.418620       -11.3912
  40   2.0000      -0.398293       -10.8381
  41   2.0000      -0.391146       -10.6436
  42   2.0000      -0.376354       -10.2411
  43   2.0000      -0.370748       -10.0886
  44   2.0000      -0.369514       -10.0550
  45   2.0000      -0.337842        -9.1931
  46   2.0000      -0.234930        -6.3928
  47   0.0000       0.012246         0.3332
  48   0.0000       0.057012         1.5514
  49   0.0000       0.066244         1.8026
  50   0.0000       0.080986         2.2037
  51   0.0000       0.093250         2.5375

MULLIKEN ATOMIC CHARGES
-----------------------
   0 C :   -0.419835
   1 C :   -0.258297
   2 C :   -0.355950
   3 H :    0.178731
   4 H :    0.175569
   5 C :    0.423640
   6 C :    0.339343
   7 C :   -0.502266
   8 N :   -0.557007
   9 H :    0.238575
  10 H :    0.241100
  11 H :    0.168778
  12 H :    0.097464
  13 O :   -0.370532
  14 F :   -0.101199
  15 C :   -0.266504
  16 C :   -0.305816
  17 H :    0.147299
  18 H :    0.140049
  19 C :   -0.295325
  20 H :    0.165844
  21 H :    0.143685
  22 H :    0.176338
  23 H :    0.145080
  24 H :    0.149320
  25 H :    0.153426
  26 H :    0.186279
  27 H :    0.162213
Sum of atomic charges:   -0.0000000

LOEWDIN ATOMIC CHARGES
----------------------
   0 C :   -0.218134
   1 C :   -0.257738
   2 C :   -0.240722
   3 H :    0.148212
   4 H :    0.159048
   5 C :   -0.484865
   6 C :   -0.382721
   7 C :   -0.265028
   8 N :   -0.024706
   9 H :    0.165745
  10 H :    0.169255
  11 H :    0.101442
  12 H :    0.095829
  13 O :    0.063982
  14 F :    0.351486
  15 C :   -0.264401
  16 C :   -0.263459
  17 H :    0.139904
  18 H :    0.131817
  19 C :   -0.270374
  20 H :    0.142037
  21 H :    0.136408
  22 H :    0.144567
  23 H :    0.138928
  24 H :    0.141719
  25 H :    0.145466
  26 H :    0.151720
  27 H :    0.144584

  Mayer bond orders larger than 0.100000
B(  0-C ,  6-C ) :   0.8861 B(  0-C , 15-C ) :   0.8731 B(  0-C , 26-H ) :   1.0110
B(  0-C , 27-H ) :   0.9903 B(  1-C ,  2-C ) :   0.9140 B(  1-C , 19-C ) :   0.9280
B(  1-C , 24-H ) :   0.9800 B(  1-C , 25-H ) :   0.9786 B(  2-C ,  3-H ) :   0.9627
B(  2-C ,  4-H ) :   0.9514 B(  2-C ,  5-C ) :   0.9812 B(  5-C , 13-O ) :   1.9393
B(  5-C , 14-F ) :   1.1473 B(  6-C ,  7-C ) :   1.7019 B(  6-C ,  8-N ) :   1.0260
B(  7-C , 11-H ) :   1.0110 B(  7-C , 12-H ) :   1.0253 B(  8-N ,  9-H ) :   0.9316
B(  8-N , 10-H ) :   0.9287 B( 15-C , 16-C ) :   0.9140 B( 15-C , 17-H ) :   0.9866
B( 15-C , 18-H ) :   0.9857 B( 16-C , 19-C ) :   0.8884 B( 16-C , 20-H ) :   0.9707
B( 16-C , 21-H ) :   0.9753 B( 19-C , 22-H ) :   0.9856 B( 19-C , 23-H ) :   0.9728

Dispersion correction           -0.001370931
FINAL SINGLE POINT ENERGY      -582.319614561654

DIPOLE MOMENT
-------------
                                X             Y             Z
Electronic contribution:     -1.75092       0.91979     -12.09421
Nuclear contribution   :      1.88979       0.56282      12.66056
                        -----------------------------------------
Total Dipole Moment    :      0.13886       1.48261       0.56635
                        -----------------------------------------
Magnitude (a.u.)       :      1.59316
Magnitude (Debye)      :      4.04950

Rotational constants in cm-1:     0.040271     0.025954     0.018866
Rotational constants in MHz :  1207.302496   778.083475   565.600538

                             ****ORCA TERMINATED NORMALLY****
TOTAL RUN TIME: 0 days 0 hours 0 minutes 43 seconds 634 msec
