                         Program Version 5.0.0 -  RELEASE  -
|  1> !M062X D3Zero RIJCOSX def2-TZVP def2/J TightSCF xyzfile
|  2>
|  3> *xyzfile 0 1 D4.xyz
|  4>
|  5> %MaxCore 64000
|  6>
|  7> %pal nprocs 18
|  8> end
|  9>
| 10> %scf
| 11>   MaxIter 150
| 12> end
| 13>
| 14>
| 15>                          ****END OF INPUT****

CARTESIAN COORDINATES (ANGSTROEM)
---------------------------------
  C      2.486452   -2.677121   -2.563447
  C     -0.870963    0.248043   -2.662804
  C     -0.477492    0.608191   -4.101052
  H      0.206773    1.458299   -4.118748
  H     -1.368442    0.929419   -4.647855
  C      0.184673   -0.506640   -4.916760
  C      3.037640   -2.366715   -3.923509
  N      2.280360   -2.454408   -4.967692
  C      4.321736   -2.017932   -4.016641
  H      4.879940   -1.911668   -3.173823
  H      4.710148   -1.670882   -4.883561
  H      1.270423   -2.412650   -4.866143
  H      2.581829   -2.055282   -5.846878
  O     -0.158685   -1.701088   -4.657981
  F      1.055938   -0.174410   -5.740373
  C      2.497991   -1.469464   -1.610303
  C      1.582841   -0.321986   -2.042619
  H      2.193083   -1.833912   -0.625420
  H      3.523356   -1.103982   -1.490392
  C      0.100160   -0.673551   -1.915815
  H      1.822311   -0.040361   -3.072834
  H      1.813180    0.557019   -1.433266
  H     -0.063284   -1.679120   -2.301112
  H     -0.168820   -0.691680   -0.853831
  H     -1.001048    1.181040   -2.104071
  H     -1.844645   -0.246592   -2.663281
  H      1.472592   -3.051527   -2.694366
  H      3.083201   -3.490638   -2.141472

 Total Charge           Charge          ....    0
 Multiplicity           Mult            ....    1
 Number of Electrons    NEL             ....   94
 Basis Dimension        Dim             ....  468

ORBITAL ENERGIES
----------------

  NO   OCC          E(Eh)            E(eV)
   0   2.0000     -25.341504      -689.5774
   1   2.0000     -19.657969      -534.9205
   2   2.0000     -14.715175      -400.4203
   3   2.0000     -10.747914      -292.4656
   4   2.0000     -10.580047      -287.8977
   5   2.0000     -10.554763      -287.2097
   6   2.0000     -10.542295      -286.8704
   7   2.0000     -10.533794      -286.6391
   8   2.0000     -10.533336      -286.6266
   9   2.0000     -10.528389      -286.4920
  10   2.0000     -10.523143      -286.3493
  11   2.0000     -10.450655      -284.3768
  12   2.0000      -1.495979       -40.7077
  13   2.0000      -1.183007       -32.1913
  14   2.0000      -1.026990       -27.9458
  15   2.0000      -0.931614       -25.3505
  16   2.0000      -0.891568       -24.2608
  17   2.0000      -0.849440       -23.1144
  18   2.0000      -0.807735       -21.9796
  19   2.0000      -0.779884       -21.2217
  20   2.0000      -0.755911       -20.5694
  21   2.0000      -0.709913       -19.3177
  22   2.0000      -0.674069       -18.3424
  23   2.0000      -0.667908       -18.1747
  24   2.0000      -0.648585       -17.6489
  25   2.0000      -0.636190       -17.3116
  26   2.0000      -0.607922       -16.5424
  27   2.0000      -0.572648       -15.5826
  28   2.0000      -0.555584       -15.1182
  29   2.0000      -0.549246       -14.9457
  30   2.0000      -0.543388       -14.7863
  31   2.0000      -0.516287       -14.0489
  32   2.0000      -0.493554       -13.4303
  33   2.0000      -0.483194       -13.1484
  34   2.0000      -0.473180       -12.8759
  35   2.0000      -0.460971       -12.5437
  36   2.0000      -0.446949       -12.1621
  37   2.0000      -0.440940       -11.9986
  38   2.0000      -0.425838       -11.5876
  39   2.0000      -0.422121       -11.4865
  40   2.0000      -0.402130       -10.9425
  41   2.0000      -0.400387       -10.8951
  42   2.0000      -0.388325       -10.5668
  43   2.0000      -0.381257       -10.3745
  44   2.0000      -0.373992       -10.1768
  45   2.0000      -0.363206        -9.8833
  46   2.0000      -0.223253        -6.0750
  47   0.0000      -0.008976        -0.2443
  48   0.0000       0.051811         1.4098
  49   0.0000       0.075085         2.0432
  50   0.0000       0.082177         2.2361
  51   0.0000       0.086752         2.3606

MULLIKEN ATOMIC CHARGES
-----------------------
   0 C :   -0.418035
   1 C :   -0.258918
   2 C :   -0.359438
   3 H :    0.187063
   4 H :    0.180381
   5 C :    0.420973
   6 C :    0.286458
   7 N :   -0.524265
   8 C :   -0.449625
   9 H :    0.093093
  10 H :    0.093932
  11 H :    0.290532
  12 H :    0.228190
  13 O :   -0.393567
  14 F :   -0.096732
  15 C :   -0.254615
  16 C :   -0.315073
  17 H :    0.139913
  18 H :    0.154649
  19 C :   -0.295792
  20 H :    0.164340
  21 H :    0.147318
  22 H :    0.175719
  23 H :    0.149444
  24 H :    0.153934
  25 H :    0.155978
  26 H :    0.173159
  27 H :    0.170984
Sum of atomic charges:    0.0000000

LOEWDIN ATOMIC CHARGES
----------------------
   0 C :   -0.215099
   1 C :   -0.257003
   2 C :   -0.237383
   3 H :    0.151924
   4 H :    0.161484
   5 C :   -0.480085
   6 C :   -0.388984
   7 N :    0.018266
   8 C :   -0.294929
   9 H :    0.101094
  10 H :    0.093463
  11 H :    0.147315
  12 H :    0.165629
  13 O :    0.053043
  14 F :    0.348977
  15 C :   -0.255408
  16 C :   -0.264014
  17 H :    0.137980
  18 H :    0.140516
  19 C :   -0.271670
  20 H :    0.140579
  21 H :    0.138191
  22 H :    0.142641
  23 H :    0.140501
  24 H :    0.143730
  25 H :    0.145805
  26 H :    0.139646
  27 H :    0.153791

  Mayer bond orders larger than 0.100000
B(  0-C ,  6-C ) :   0.8560 B(  0-C , 15-C ) :   0.8950 B(  0-C , 26-H ) :   1.0166
B(  0-C , 27-H ) :   0.9853 B(  1-C ,  2-C ) :   0.9125 B(  1-C , 19-C ) :   0.9234
B(  1-C , 24-H ) :   0.9783 B(  1-C , 25-H ) :   0.9793 B(  2-C ,  3-H ) :   0.9612
B(  2-C ,  4-H ) :   0.9445 B(  2-C ,  5-C ) :   0.9860 B(  5-C , 13-O ) :   1.8987
B(  5-C , 14-F ) :   1.1526 B(  6-C ,  7-N ) :   1.1436 B(  6-C ,  8-C ) :   1.7288
B(  7-N , 11-H ) :   0.8565 B(  7-N , 12-H ) :   0.9348 B(  8-C ,  9-H ) :   1.0020
B(  8-C , 10-H ) :   0.9951 B( 15-C , 16-C ) :   0.9348 B( 15-C , 17-H ) :   0.9847
B( 15-C , 18-H ) :   0.9780 B( 16-C , 19-C ) :   0.8758 B( 16-C , 20-H ) :   0.9647
B( 16-C , 21-H ) :   0.9729 B( 19-C , 22-H ) :   0.9876 B( 19-C , 23-H ) :   0.9732

Dispersion correction           -0.001368300
FINAL SINGLE POINT ENERGY      -582.338206834671

DIPOLE MOMENT
-------------
                                X             Y             Z
Electronic contribution:     -3.43619       0.80810     -12.71965
Nuclear contribution   :      2.21030       0.63135      12.80988
                        -----------------------------------------
Total Dipole Moment    :     -1.22589       1.43945       0.09024
                        -----------------------------------------
Magnitude (a.u.)       :      1.89288
Magnitude (Debye)      :      4.81131

Rotational constants in cm-1:     0.039980     0.026547     0.019089
Rotational constants in MHz :  1198.568620   795.867393   572.288555

                             ****ORCA TERMINATED NORMALLY****
TOTAL RUN TIME: 0 days 0 hours 0 minutes 43 seconds 647 msec
