                         Program Version 5.0.0 -  RELEASE  -
|  1> !M062X D3Zero RIJCOSX def2-TZVPD def2/J TightSCF
|  2> *xyz -1 1
|  3> C          4.08422        1.74208       -2.11472
|  4> C          4.26524        2.50052       -0.79589
|  5> H          4.86853        3.39267       -0.98113
|  6> H          3.30764        2.82457       -0.38781
|  7> C          4.98224        1.65026        0.24742
|  8> O          4.36806        1.38927        1.31371
|  9> O          6.12892        1.23351       -0.04562
| 10> H          3.57911        2.36849       -2.81997
| 11> H          3.50424        0.85965       -1.94198
| 12> H          5.04288        1.46841       -2.50327
| 13> *
| 14> %MaxCore 64000
| 15> %pal nprocs 8
| 16> end
| 17> %scf
| 18>   MaxIter 150
| 19> end
| 20>
| 21>
| 22>                          ****END OF INPUT****

CARTESIAN COORDINATES (ANGSTROEM)
---------------------------------
  C      4.084220    1.742080   -2.114720
  C      4.265240    2.500520   -0.795890
  H      4.868530    3.392670   -0.981130
  H      3.307640    2.824570   -0.387810
  C      4.982240    1.650260    0.247420
  O      4.368060    1.389270    1.313710
  O      6.128920    1.233510   -0.045620
  H      3.579110    2.368490   -2.819970
  H      3.504240    0.859650   -1.941980
  H      5.042880    1.468410   -2.503270

 Total Charge           Charge          ....   -1
 Multiplicity           Mult            ....    1
 Number of Electrons    NEL             ....   40
 Basis Dimension        Dim             ....  236

ORBITAL ENERGIES
----------------

  NO   OCC          E(Eh)            E(eV)
   0   2.0000     -19.359642      -526.8027
   1   2.0000     -19.359403      -526.7961
   2   2.0000     -10.420479      -283.5557
   3   2.0000     -10.370262      -282.1892
   4   2.0000     -10.358985      -281.8823
   5   2.0000      -0.942517       -25.6472
   6   2.0000      -0.843585       -22.9551
   7   2.0000      -0.702874       -19.1262
   8   2.0000      -0.562456       -15.3052
   9   2.0000      -0.399961       -10.8835
  10   2.0000      -0.362369        -9.8605
  11   2.0000      -0.337530        -9.1846
  12   2.0000      -0.301314        -8.1992
  13   2.0000      -0.285257        -7.7622
  14   2.0000      -0.279706        -7.6112
  15   2.0000      -0.245099        -6.6695
  16   2.0000      -0.230145        -6.2626
  17   2.0000      -0.112818        -3.0699
  18   2.0000      -0.110891        -3.0175
  19   2.0000      -0.104295        -2.8380
  20   0.0000       0.141690         3.8556
  21   0.0000       0.164261         4.4698
  22   0.0000       0.171965         4.6794
  23   0.0000       0.185135         5.0378
  24   0.0000       0.210743         5.7346

MULLIKEN ATOMIC CHARGES
-----------------------
   0 C :   -1.072142
   1 C :   -0.300642
   2 H :    0.262223
   3 H :    0.256351
   4 C :    0.604680
   5 O :   -0.796451
   6 O :   -0.800910
   7 H :    0.288612
   8 H :    0.307466
   9 H :    0.250812
Sum of atomic charges:   -1.0000000

LOEWDIN ATOMIC CHARGES
----------------------
   0 C :   -0.131362
   1 C :   -0.213015
   2 H :    0.096636
   3 H :    0.090334
   4 C :   -0.778558
   5 O :   -0.117753
   6 O :   -0.110826
   7 H :    0.043753
   8 H :    0.063588
   9 H :    0.057203

  Mayer bond orders larger than 0.100000
B(  0-C ,  1-C ) :   0.4613 B(  0-C ,  7-H ) :   0.9506 B(  0-C ,  8-H ) :   0.9641
B(  0-C ,  9-H ) :   1.0474 B(  1-C ,  2-H ) :   0.9679 B(  1-C ,  3-H ) :   1.0011
B(  1-C ,  4-C ) :   0.9233 B(  4-C ,  5-O ) :   1.3331 B(  4-C ,  6-O ) :   1.3467

Dispersion correction           -0.000085960
FINAL SINGLE POINT ENERGY      -267.831670094953

DIPOLE MOMENT
-------------
                                X             Y             Z
Electronic contribution:      2.41806      -1.45017       5.08428
Nuclear contribution   :     -3.31311       2.28398      -6.76358
                        -----------------------------------------
Total Dipole Moment    :     -0.89505       0.83382      -1.67930
                        -----------------------------------------
Magnitude (a.u.)       :      2.07760
Magnitude (Debye)      :      5.28084

Rotational constants in cm-1:     0.309287     0.135287     0.107346
Rotational constants in MHz :  9272.201029  4055.789113  3218.155789

                             ****ORCA TERMINATED NORMALLY****
TOTAL RUN TIME: 0 days 0 hours 0 minutes 18 seconds 306 msec
