                         Program Version 5.0.0 -  RELEASE  -
|  1> !M062X D3Zero RIJCOSX def2-TZVPD def2/J TightSCF
|  2> *xyz 1 1
|  3> C          3.91385       -1.65829        3.01513
|  4> N          5.03927       -0.90115        2.49282
|  5> C          6.21038       -1.41726        2.17824
|  6> N          6.53591       -2.67712        2.55608
|  7> N          7.07675       -0.70082        1.47891
|  8> H          7.95464       -1.12155        1.20755
|  9> H          6.75616        0.10664        0.96028
| 10> H          4.84217        0.01761        2.11519
| 11> H          5.99388       -3.12692        3.28278
| 12> C          3.13916       -2.37657        1.91061
| 13> H          3.26723       -0.93940        3.52069
| 14> H          4.24720       -2.35509        3.79006
| 15> H          7.49844       -2.97548        2.46878
| 16> H          2.82969       -1.66654        1.17238
| 17> H          2.27790       -2.85264        2.33072
| 18> H          3.76754       -3.11338        1.45548
| 19> *
| 20> %MaxCore 64000
| 21> %pal nprocs 8
| 22> end
| 23> %scf
| 24>   MaxIter 150
| 25> end
| 26>
| 27>
| 28>                          ****END OF INPUT****

CARTESIAN COORDINATES (ANGSTROEM)
---------------------------------
  C      3.913850   -1.658290    3.015130
  N      5.039270   -0.901150    2.492820
  C      6.210380   -1.417260    2.178240
  N      6.535910   -2.677120    2.556080
  N      7.076750   -0.700820    1.478910
  H      7.954640   -1.121550    1.207550
  H      6.756160    0.106640    0.960280
  H      4.842170    0.017610    2.115190
  H      5.993880   -3.126920    3.282780
  C      3.139160   -2.376570    1.910610
  H      3.267230   -0.939400    3.520690
  H      4.247200   -2.355090    3.790060
  H      7.498440   -2.975480    2.468780
  H      2.829690   -1.666540    1.172380
  H      2.277900   -2.852640    2.330720
  H      3.767540   -3.113380    1.455480

 Total Charge           Charge          ....    1
 Multiplicity           Mult            ....    1
 Number of Electrons    NEL             ....   48
 Basis Dimension        Dim             ....  312

ORBITAL ENERGIES
----------------

  NO   OCC          E(Eh)            E(eV)
   0   2.0000     -14.974317      -407.4719
   1   2.0000     -14.971960      -407.4077
   2   2.0000     -14.970055      -407.3559
   3   2.0000     -10.878261      -296.0125
   4   2.0000     -10.745502      -292.4000
   5   2.0000     -10.669715      -290.3377
   6   2.0000      -1.331509       -36.2322
   7   2.0000      -1.214438       -33.0465
   8   2.0000      -1.196569       -32.5603
   9   2.0000      -1.027878       -27.9700
  10   2.0000      -0.929693       -25.2982
  11   2.0000      -0.886740       -24.1294
  12   2.0000      -0.864184       -23.5156
  13   2.0000      -0.821062       -22.3422
  14   2.0000      -0.763023       -20.7629
  15   2.0000      -0.756958       -20.5979
  16   2.0000      -0.727624       -19.7997
  17   2.0000      -0.703050       -19.1310
  18   2.0000      -0.671028       -18.2596
  19   2.0000      -0.629277       -17.1235
  20   2.0000      -0.597269       -16.2525
  21   2.0000      -0.576741       -15.6939
  22   2.0000      -0.544975       -14.8295
  23   2.0000      -0.512109       -13.9352
  24   0.0000      -0.143832        -3.9139
  25   0.0000      -0.134230        -3.6526
  26   0.0000      -0.113342        -3.0842
  27   0.0000      -0.106333        -2.8935
  28   0.0000      -0.080485        -2.1901

MULLIKEN ATOMIC CHARGES
-----------------------
   0 C :   -0.582769
   1 N :   -0.358204
   2 C :    1.099722
   3 N :   -0.566425
   4 N :   -0.597142
   5 H :    0.253237
   6 H :    0.259072
   7 H :    0.285537
   8 H :    0.253048
   9 C :   -1.033473
  10 H :    0.341851
  11 H :    0.346603
  12 H :    0.281984
  13 H :    0.333352
  14 H :    0.362416
  15 H :    0.321191
Sum of atomic charges:    1.0000000

LOEWDIN ATOMIC CHARGES
----------------------
   0 C :   -0.205175
   1 N :    0.078586
   2 C :   -0.431929
   3 N :    0.207240
   4 N :    0.202364
   5 H :    0.141072
   6 H :    0.143806
   7 H :    0.173159
   8 H :    0.123645
   9 C :   -0.056920
  10 H :    0.132561
  11 H :    0.119050
  12 H :    0.137598
  13 H :    0.079136
  14 H :    0.083332
  15 H :    0.072475

  Mayer bond orders larger than 0.100000
B(  0-C ,  1-N ) :   0.7826 B(  0-C ,  2-C ) :  -0.1197 B(  0-C ,  9-C ) :   0.6133
B(  0-C , 10-H ) :   0.9327 B(  0-C , 11-H ) :   0.8924 B(  1-N ,  2-C ) :   1.1767
B(  1-N ,  7-H ) :   0.9656 B(  2-C ,  3-N ) :   1.0173 B(  2-C ,  4-N ) :   0.9676
B(  3-N ,  8-H ) :   0.9316 B(  3-N , 12-H ) :   0.9445 B(  4-N ,  5-H ) :   0.9706
B(  4-N ,  6-H ) :   0.9585 B(  9-C , 13-H ) :   0.9824 B(  9-C , 14-H ) :   0.9562
B(  9-C , 15-H ) :   0.9320

Dispersion correction           -0.000318592
FINAL SINGLE POINT ENERGY      -284.372566813006

DIPOLE MOMENT
-------------
                                X             Y             Z
Electronic contribution:      4.68021       1.89806       0.07721
Nuclear contribution   :     -3.67981      -1.62355      -0.28562
                        -----------------------------------------
Total Dipole Moment    :      1.00040       0.27451      -0.20841
                        -----------------------------------------
Magnitude (a.u.)       :      1.05810
Magnitude (Debye)      :      2.68948

Rotational constants in cm-1:     0.222027     0.074735     0.065694
Rotational constants in MHz :  6656.200457  2240.503315  1969.451902

                             ****ORCA TERMINATED NORMALLY****
TOTAL RUN TIME: 0 days 0 hours 0 minutes 38 seconds 33 msec
