                         Program Version 5.0.0 -  RELEASE  -
|  1> !M062X D3Zero RIJCOSX def2-TZVPD def2/J TightSCF xyzfile
|  2>
|  3> *xyzfile 0 1 B.xyz
|  4>
|  5> %MaxCore 64000
|  6>
|  7> %pal nprocs 4
|  8> end
|  9>
| 10> %scf
| 11>   MaxIter 150
| 12> end
| 13>
| 14>
| 15>                          ****END OF INPUT****

CARTESIAN COORDINATES (ANGSTROEM)
---------------------------------
  C      3.913853   -1.658291    3.015134
  N      5.039266   -0.901154    2.492821
  C      4.084215    1.742081   -2.114724
  C      4.265245    2.500518   -0.795890
  H      4.868534    3.392674   -0.981134
  H      3.307640    2.824571   -0.387809
  C      4.982240    1.650257    0.247422
  C      6.210384   -1.417261    2.178244
  N      6.535913   -2.677122    2.556078
  N      7.076754   -0.700820    1.478906
  H      7.954643   -1.121554    1.207554
  H      6.756161    0.106637    0.960278
  H      4.842168    0.017609    2.115191
  H      5.993876   -3.126918    3.282784
  H      7.498441   -2.975482    2.468776
  O      4.368065    1.389270    1.313706
  O      6.128919    1.233512   -0.045620
  C      3.139159   -2.376572    1.910609
  H      3.267235   -0.939401    3.520693
  H      4.247195   -2.355095    3.790065
  C      1.997274    0.430918   -1.399218
  C      3.412746    0.376886   -1.965497
  H      4.047407   -0.246590   -1.326706
  H      3.390774   -0.118719   -2.942839
  H      5.068475    1.598504   -2.565728
  H      3.503356    2.363939   -2.804565
  C      2.399946   -1.389579    1.009490
  H      2.440750   -3.087118    2.362976
  H      3.844475   -2.970462    1.318677
  C      2.070177   -1.936705   -0.372401
  H      1.481611   -1.061542    1.509912
  H      3.008628   -0.490001    0.897451
  C      1.322238   -0.935775   -1.256413
  H      1.472747   -2.850902   -0.283997
  H      3.003539   -2.234041   -0.862535
  H      1.376444    1.058920   -2.047420
  H      2.015341    0.929780   -0.426535
  H      0.316648   -0.787213   -0.848278
  H      1.185611   -1.379252   -2.248613

 Total Charge           Charge          ....    0
 Multiplicity           Mult            ....    1
 Number of Electrons    NEL             ....  126
 Basis Dimension        Dim             ....  805

ORBITAL ENERGIES
----------------

  NO   OCC          E(Eh)            E(eV)
   0   2.0000     -19.546862      -531.8972
   1   2.0000     -19.545143      -531.8504
   2   2.0000     -14.814866      -403.1330
   3   2.0000     -14.781058      -402.2130
   4   2.0000     -14.774626      -402.0380
   5   2.0000     -10.701986      -291.2158
   6   2.0000     -10.600647      -288.4583
   7   2.0000     -10.594434      -288.2892
   8   2.0000     -10.542696      -286.8813
   9   2.0000     -10.520259      -286.2708
  10   2.0000     -10.519876      -286.2604
  11   2.0000     -10.515757      -286.1483
  12   2.0000     -10.506930      -285.9081
  13   2.0000     -10.505451      -285.8678
  14   2.0000     -10.504680      -285.8469
  15   2.0000     -10.496092      -285.6132
  16   2.0000      -1.156881       -31.4803
  17   2.0000      -1.133478       -30.8435
  18   2.0000      -1.043906       -28.4061
  19   2.0000      -1.034594       -28.1527
  20   2.0000      -1.020928       -27.7809
  21   2.0000      -0.911552       -24.8046
  22   2.0000      -0.885761       -24.1028
  23   2.0000      -0.855215       -23.2716
  24   2.0000      -0.812280       -22.1033
  25   2.0000      -0.771452       -20.9923
  26   2.0000      -0.750325       -20.4174
  27   2.0000      -0.718542       -19.5525
  28   2.0000      -0.696228       -18.9453
  29   2.0000      -0.685925       -18.6650
  30   2.0000      -0.657251       -17.8847
  31   2.0000      -0.647554       -17.6208
  32   2.0000      -0.619649       -16.8615
  33   2.0000      -0.596647       -16.2356
  34   2.0000      -0.594403       -16.1745
  35   2.0000      -0.571129       -15.5412
  36   2.0000      -0.546772       -14.8784
  37   2.0000      -0.540338       -14.7033
  38   2.0000      -0.531381       -14.4596
  39   2.0000      -0.526218       -14.3191
  40   2.0000      -0.511356       -13.9147
  41   2.0000      -0.500205       -13.6113
  42   2.0000      -0.490038       -13.3346
  43   2.0000      -0.484339       -13.1795
  44   2.0000      -0.477328       -12.9887
  45   2.0000      -0.471152       -12.8207
  46   2.0000      -0.455358       -12.3909
  47   2.0000      -0.440663       -11.9911
  48   2.0000      -0.430741       -11.7211
  49   2.0000      -0.418741       -11.3945
  50   2.0000      -0.411017       -11.1844
  51   2.0000      -0.403768       -10.9871
  52   2.0000      -0.388501       -10.5716
  53   2.0000      -0.381437       -10.3794
  54   2.0000      -0.377858       -10.2820
  55   2.0000      -0.370728       -10.0880
  56   2.0000      -0.358337        -9.7508
  57   2.0000      -0.352413        -9.5896
  58   2.0000      -0.345776        -9.4090
  59   2.0000      -0.336584        -9.1589
  60   2.0000      -0.300990        -8.1904
  61   2.0000      -0.296088        -8.0570
  62   2.0000      -0.290398        -7.9021
  63   0.0000      -0.014501        -0.3946
  64   0.0000       0.010559         0.2873
  65   0.0000       0.020216         0.5501
  66   0.0000       0.027002         0.7348
  67   0.0000       0.034887         0.9493

MULLIKEN ATOMIC CHARGES
-----------------------
   0 C :   -1.246521
   1 N :   -0.253424
   2 C :   -0.935837
   3 C :   -0.697161
   4 H :    0.427303
   5 H :    0.264585
   6 C :    0.985440
   7 C :    0.926909
   8 N :   -0.619959
   9 N :   -0.592349
  10 H :    0.251448
  11 H :    0.449336
  12 H :    0.422624
  13 H :    0.235857
  14 H :    0.269613
  15 O :   -0.990421
  16 O :   -1.050467
  17 C :   -0.571317
  18 H :    0.449550
  19 H :    0.365562
  20 C :   -0.449322
  21 C :   -0.328549
  22 H :    0.116616
  23 H :    0.405457
  24 H :    0.272759
  25 H :    0.391724
  26 C :    0.489403
  27 H :    0.407622
  28 H :    0.309476
  29 C :   -0.602365
  30 H :    0.330554
  31 H :   -0.424773
  32 C :   -1.126924
  33 H :    0.403945
  34 H :    0.350617
  35 H :    0.400133
  36 H :    0.217350
  37 H :    0.371522
  38 H :    0.373984
Sum of atomic charges:   -0.0000000

LOEWDIN ATOMIC CHARGES
----------------------
   0 C :   -0.170086
   1 N :    0.097689
   2 C :   -0.206077
   3 C :   -0.124735
   4 H :    0.117673
   5 H :    0.108079
   6 C :   -0.653645
   7 C :   -0.438577
   8 N :    0.170203
   9 N :    0.203159
  10 H :    0.126690
  11 H :    0.045806
  12 H :    0.077582
  13 H :    0.105858
  14 H :    0.118974
  15 O :   -0.059595
  16 O :   -0.048354
  17 C :   -0.186776
  18 H :    0.134725
  19 H :    0.107925
  20 C :   -0.218949
  21 C :   -0.214496
  22 H :    0.107097
  23 H :    0.118584
  24 H :    0.110298
  25 H :    0.110999
  26 C :   -0.215125
  27 H :    0.116830
  28 H :    0.114265
  29 C :   -0.223797
  30 H :    0.131123
  31 H :    0.085093
  32 C :   -0.216474
  33 H :    0.113829
  34 H :    0.110961
  35 H :    0.117823
  36 H :    0.104669
  37 H :    0.110558
  38 H :    0.110196

  Mayer bond orders larger than 0.100000
B(  0-C ,  1-N ) :   0.8816 B(  0-C ,  7-C ) :  -0.1831 B(  0-C ,  8-N ) :   0.1283
B(  0-C , 12-H ) :  -0.1212 B(  0-C , 17-C ) :   0.4879 B(  0-C , 18-H ) :   0.7921
B(  0-C , 19-H ) :   0.9390 B(  0-C , 27-H ) :  -0.1513 B(  1-N ,  7-C ) :   1.2675
B(  1-N , 12-H ) :   0.5847 B(  1-N , 15-O ) :  -0.1762 B(  2-C ,  3-C ) :   0.6857
B(  2-C , 20-C ) :   0.1997 B(  2-C , 21-C ) :   0.6522 B(  2-C , 24-H ) :   1.0254
B(  2-C , 25-H ) :   0.9201 B(  3-C ,  4-H ) :   0.8354 B(  3-C ,  5-H ) :   1.0882
B(  3-C ,  6-C ) :   0.9050 B(  3-C , 20-C ) :   0.1111 B(  3-C , 21-C ) :  -0.1331
B(  6-C , 15-O ) :   1.0903 B(  6-C , 16-O ) :   0.8926 B(  7-C ,  8-N ) :   0.9241
B(  7-C ,  9-N ) :   1.0572 B(  8-N , 13-H ) :   0.9655 B(  8-N , 14-H ) :   0.9491
B(  9-N , 10-H ) :   0.9678 B(  9-N , 11-H ) :   0.7488 B(  9-N , 16-O ) :  -0.1066
B( 12-H , 16-O ) :   0.1042 B( 15-O , 16-O ) :   0.1282 B( 17-C , 19-H ) :  -0.1084
B( 17-C , 26-C ) :   0.4075 B( 17-C , 27-H ) :   0.9315 B( 17-C , 28-H ) :   0.8945
B( 17-C , 29-C ) :   0.3344 B( 17-C , 30-H ) :  -0.1080 B( 20-C , 21-C ) :   0.1679
B( 20-C , 22-H ) :  -0.1572 B( 20-C , 26-C ) :   0.1214 B( 20-C , 29-C ) :  -0.1520
B( 20-C , 32-C ) :   0.5935 B( 20-C , 35-H ) :   0.8468 B( 20-C , 36-H ) :   1.1080
B( 21-C , 22-H ) :   1.1363 B( 21-C , 23-H ) :   0.8498 B( 21-C , 29-C ) :   0.1546
B( 21-C , 32-C ) :   0.1616 B( 21-C , 36-H ) :  -0.1673 B( 26-C , 29-C ) :   0.3553
B( 26-C , 30-H ) :   0.9640 B( 26-C , 31-H ) :   0.8853 B( 26-C , 32-C ) :   0.1464
B( 26-C , 34-H ) :  -0.1003 B( 29-C , 31-H ) :  -0.1415 B( 29-C , 32-C ) :   0.6067
B( 29-C , 33-H ) :   0.8485 B( 29-C , 34-H ) :   1.0197 B( 32-C , 37-H ) :   0.9711
B( 32-C , 38-H ) :   0.9717

Dispersion correction           -0.002772141
FINAL SINGLE POINT ENERGY      -747.745377920168

DIPOLE MOMENT
-------------
                                X             Y             Z
Electronic contribution:     12.25778       3.30205       7.66480
Nuclear contribution   :    -11.44764      -6.21818      -6.18483
                        -----------------------------------------
Total Dipole Moment    :      0.81014      -2.91612       1.47997
                        -----------------------------------------
Magnitude (a.u.)       :      3.36904
Magnitude (Debye)      :      8.56341

Rotational constants in cm-1:     0.020281     0.013510     0.009451
Rotational constants in MHz :   608.005987   405.034308   283.324538

                             ****ORCA TERMINATED NORMALLY****
TOTAL RUN TIME: 0 days 0 hours 10 minutes 3 seconds 925 msec
