                         Program Version 5.0.0 -  RELEASE  -
|  1> !M062X D3Zero RIJCOSX def2-TZVPD def2/J TightSCF
|  2> *xyz 0 1
|  3> C          4.08422        1.74208       -2.11472
|  4> C          4.26524        2.50052       -0.79589
|  5> H          4.86853        3.39267       -0.98113
|  6> H          3.30764        2.82457       -0.38781
|  7> C          4.98224        1.65026        0.24742
|  8> F          4.36806        1.38927        1.31371
|  9> O          6.12892        1.23351       -0.04562
| 10> H          3.57911        2.36849       -2.81997
| 11> H          3.50424        0.85965       -1.94198
| 12> H          5.04288        1.46841       -2.50327
| 13> *
| 14> %MaxCore 64000
| 15> %pal nprocs 8
| 16> end
| 17> %scf
| 18>   MaxIter 150
| 19> end
| 20>
| 21>
| 22>                          ****END OF INPUT****

CARTESIAN COORDINATES (ANGSTROEM)
---------------------------------
  C      4.084220    1.742080   -2.114720
  C      4.265240    2.500520   -0.795890
  H      4.868530    3.392670   -0.981130
  H      3.307640    2.824570   -0.387810
  C      4.982240    1.650260    0.247420
  F      4.368060    1.389270    1.313710
  O      6.128920    1.233510   -0.045620
  H      3.579110    2.368490   -2.819970
  H      3.504240    0.859650   -1.941980
  H      5.042880    1.468410   -2.503270

 Total Charge           Charge          ....    0
 Multiplicity           Mult            ....    1
 Number of Electrons    NEL             ....   40
 Basis Dimension        Dim             ....  236

ORBITAL ENERGIES
----------------

  NO   OCC          E(Eh)            E(eV)
   0   2.0000     -25.315039      -688.8572
   1   2.0000     -19.634726      -534.2881
   2   2.0000     -10.720552      -291.7211
   3   2.0000     -10.568107      -287.5728
   4   2.0000     -10.540256      -286.8149
   5   2.0000      -1.463582       -39.8261
   6   2.0000      -1.157361       -31.4934
   7   2.0000      -0.901793       -24.5390
   8   2.0000      -0.787804       -21.4372
   9   2.0000      -0.731902       -19.9161
  10   2.0000      -0.643651       -17.5146
  11   2.0000      -0.631110       -17.1734
  12   2.0000      -0.595249       -16.1976
  13   2.0000      -0.538540       -14.6544
  14   2.0000      -0.511794       -13.9266
  15   2.0000      -0.468162       -12.7393
  16   2.0000      -0.449506       -12.2317
  17   2.0000      -0.440574       -11.9886
  18   2.0000      -0.414425       -11.2771
  19   2.0000      -0.371841       -10.1183
  20   0.0000       0.004436         0.1207
  21   0.0000       0.017536         0.4772
  22   0.0000       0.035562         0.9677
  23   0.0000       0.042380         1.1532
  24   0.0000       0.052583         1.4309

MULLIKEN ATOMIC CHARGES
-----------------------
   0 C :   -1.103226
   1 C :   -0.337564
   2 H :    0.288370
   3 H :    0.305311
   4 C :    0.722781
   5 F :   -0.242422
   6 O :   -0.580919
   7 H :    0.308486
   8 H :    0.337031
   9 H :    0.302154
Sum of atomic charges:   -0.0000000

LOEWDIN ATOMIC CHARGES
----------------------
   0 C :   -0.087124
   1 C :   -0.156441
   2 H :    0.123116
   3 H :    0.110334
   4 C :   -0.479022
   5 F :    0.194187
   6 O :    0.074593
   7 H :    0.070019
   8 H :    0.076066
   9 H :    0.074273

  Mayer bond orders larger than 0.100000
B(  0-C ,  1-C ) :   0.5307 B(  0-C ,  7-H ) :   0.9539 B(  0-C ,  8-H ) :   0.9278
B(  0-C ,  9-H ) :   1.0103 B(  1-C ,  2-H ) :   0.9693 B(  1-C ,  3-H ) :   0.9356
B(  1-C ,  4-C ) :   0.9038 B(  4-C ,  5-F ) :   0.9223 B(  4-C ,  6-O ) :   1.6418

Dispersion correction           -0.000089185
FINAL SINGLE POINT ENERGY      -292.394740178121

DIPOLE MOMENT
-------------
                                X             Y             Z
Electronic contribution:      1.90423      -2.02844       8.11185
Nuclear contribution   :     -2.87511       2.61564      -8.50037
                        -----------------------------------------
Total Dipole Moment    :     -0.97087       0.58720      -0.38852
                        -----------------------------------------
Magnitude (a.u.)       :      1.19931
Magnitude (Debye)      :      3.04841

Rotational constants in cm-1:     0.297822     0.128965     0.102219
Rotational constants in MHz :  8928.481997  3866.271686  3064.463504

                             ****ORCA TERMINATED NORMALLY****
TOTAL RUN TIME: 0 days 0 hours 0 minutes 20 seconds 588 msec
