                         Program Version 5.0.0 -  RELEASE  -
|  1> !M062X D3Zero RIJCOSX def2-TZVPD def2/J TightSCF
|  2> *xyz 0 1
|  3> C          3.91385       -1.65829        3.01513
|  4> C          5.03927       -0.90115        2.49282
|  5> C          6.21038       -1.41726        2.17824
|  6> N          6.53591       -2.67712        2.55608
|  7> N          7.07675       -0.70082        1.47891
|  8> H          7.95464       -1.12155        1.20755
|  9> H          6.75616        0.10664        0.96028
| 10> H          4.84217        0.01761        2.11519
| 11> H          5.99388       -3.12692        3.28278
| 12> C          3.13916       -2.37657        1.91061
| 13> H          3.26723       -0.93940        3.52069
| 14> H          4.24720       -2.35509        3.79006
| 15> H          7.49844       -2.97548        2.46878
| 16> H          2.82969       -1.66654        1.17238
| 17> H          2.27790       -2.85264        2.33072
| 18> H          3.76754       -3.11338        1.45548
| 19> *
| 20> %MaxCore 64000
| 21> %pal nprocs 8
| 22> end
| 23> %scf
| 24>   MaxIter 150
| 25> end
| 26>
| 27>
| 28>                          ****END OF INPUT****

CARTESIAN COORDINATES (ANGSTROEM)
---------------------------------
  C      3.913850   -1.658290    3.015130
  C      5.039270   -0.901150    2.492820
  C      6.210380   -1.417260    2.178240
  N      6.535910   -2.677120    2.556080
  N      7.076750   -0.700820    1.478910
  H      7.954640   -1.121550    1.207550
  H      6.756160    0.106640    0.960280
  H      4.842170    0.017610    2.115190
  H      5.993880   -3.126920    3.282780
  C      3.139160   -2.376570    1.910610
  H      3.267230   -0.939400    3.520690
  H      4.247200   -2.355090    3.790060
  H      7.498440   -2.975480    2.468780
  H      2.829690   -1.666540    1.172380
  H      2.277900   -2.852640    2.330720
  H      3.767540   -3.113380    1.455480

 Total Charge           Charge          ....    0
 Multiplicity           Mult            ....    1
 Number of Electrons    NEL             ....   48
 Basis Dimension        Dim             ....  312

ORBITAL ENERGIES
----------------

  NO   OCC          E(Eh)            E(eV)
   0   2.0000     -14.748535      -401.3281
   1   2.0000     -14.746350      -401.2686
   2   2.0000     -10.580794      -287.9180
   3   2.0000     -10.509434      -285.9762
   4   2.0000     -10.496881      -285.6346
   5   2.0000     -10.458522      -284.5909
   6   2.0000      -1.071852       -29.1666
   7   2.0000      -0.974601       -26.5202
   8   2.0000      -0.873773       -23.7766
   9   2.0000      -0.787328       -21.4243
  10   2.0000      -0.702698       -19.1214
  11   2.0000      -0.655820       -17.8458
  12   2.0000      -0.614611       -16.7244
  13   2.0000      -0.585027       -15.9194
  14   2.0000      -0.541510       -14.7352
  15   2.0000      -0.507011       -13.7965
  16   2.0000      -0.488655       -13.2970
  17   2.0000      -0.459833       -12.5127
  18   2.0000      -0.448452       -12.2030
  19   2.0000      -0.416879       -11.3439
  20   2.0000      -0.389564       -10.6006
  21   2.0000      -0.381043       -10.3687
  22   2.0000      -0.334270        -9.0959
  23   2.0000      -0.214405        -5.8343
  24   0.0000       0.011872         0.3231
  25   0.0000       0.036037         0.9806
  26   0.0000       0.039153         1.0654
  27   0.0000       0.051078         1.3899
  28   0.0000       0.065660         1.7867

MULLIKEN ATOMIC CHARGES
-----------------------
   0 C :   -0.652069
   1 C :   -0.417282
   2 C :    0.736152
   3 N :   -0.632210
   4 N :   -0.655849
   5 H :    0.215053
   6 H :    0.229329
   7 H :    0.209947
   8 H :    0.225655
   9 C :   -1.119340
  10 H :    0.295507
  11 H :    0.383199
  12 H :    0.242768
  13 H :    0.328220
  14 H :    0.314645
  15 H :    0.296273
Sum of atomic charges:    0.0000000

LOEWDIN ATOMIC CHARGES
----------------------
   0 C :   -0.289058
   1 C :   -0.148599
   2 C :   -0.545731
   3 N :    0.117139
   4 N :    0.099275
   5 H :    0.100986
   6 H :    0.114415
   7 H :    0.070529
   8 H :    0.097147
   9 C :   -0.105258
  10 H :    0.104596
  11 H :    0.096231
  12 H :    0.098451
  13 H :    0.067612
  14 H :    0.058328
  15 H :    0.063937

  Mayer bond orders larger than 0.100000
B(  0-C ,  1-C ) :   0.5000 B(  0-C ,  2-C ) :   0.1289 B(  0-C ,  9-C ) :   0.5073
B(  0-C , 10-H ) :   1.0780 B(  0-C , 11-H ) :   0.9133 B(  1-C ,  2-C ) :   1.3454
B(  1-C ,  7-H ) :   1.1762 B(  1-C , 10-H ) :  -0.1160 B(  1-C , 11-H ) :  -0.1158
B(  2-C ,  3-N ) :   0.8721 B(  2-C ,  4-N ) :   0.8596 B(  2-C ,  7-H ) :  -0.2518
B(  3-N ,  8-H ) :   0.9652 B(  3-N , 12-H ) :   0.9759 B(  4-N ,  5-H ) :   0.9993
B(  4-N ,  6-H ) :   0.9797 B(  9-C , 13-H ) :   1.0001 B(  9-C , 14-H ) :   0.9698
B(  9-C , 15-H ) :   0.9864

Dispersion correction           -0.000316780
FINAL SINGLE POINT ENERGY      -267.893305328281

DIPOLE MOMENT
-------------
                                X             Y             Z
Electronic contribution:      4.56894       1.23899      -0.02511
Nuclear contribution   :     -3.74303      -1.46908      -0.23637
                        -----------------------------------------
Total Dipole Moment    :      0.82591      -0.23009      -0.26148
                        -----------------------------------------
Magnitude (a.u.)       :      0.89635
Magnitude (Debye)      :      2.27835

Rotational constants in cm-1:     0.225937     0.074877     0.065953
Rotational constants in MHz :  6773.424301  2244.750632  1977.214101

                             ****ORCA TERMINATED NORMALLY****
TOTAL RUN TIME: 0 days 0 hours 0 minutes 34 seconds 877 msec
