                         Program Version 5.0.0 -  RELEASE  -
|  1> !M062X D3Zero RIJCOSX def2-TZVPD def2/J TightSCF
|  2> *xyz 0 1
|  3> C          4.08422        1.74208       -2.11472
|  4> C          4.26524        2.50052       -0.79589
|  5> H          4.86853        3.39267       -0.98113
|  6> H          3.30764        2.82457       -0.38781
|  7> C          4.98224        1.65026        0.24742
|  8> O          4.36806        1.38927        1.31371
|  9> F          6.12892        1.23351       -0.04562
| 10> H          3.57911        2.36849       -2.81997
| 11> H          3.50424        0.85965       -1.94198
| 12> H          5.04288        1.46841       -2.50327
| 13> *
| 14> %MaxCore 64000
| 15> %pal nprocs 8
| 16> end
| 17> %scf
| 18>   MaxIter 150
| 19> end
| 20>
| 21>
| 22>                          ****END OF INPUT****

CARTESIAN COORDINATES (ANGSTROEM)
---------------------------------
  C      4.084220    1.742080   -2.114720
  C      4.265240    2.500520   -0.795890
  H      4.868530    3.392670   -0.981130
  H      3.307640    2.824570   -0.387810
  C      4.982240    1.650260    0.247420
  O      4.368060    1.389270    1.313710
  F      6.128920    1.233510   -0.045620
  H      3.579110    2.368490   -2.819970
  H      3.504240    0.859650   -1.941980
  H      5.042880    1.468410   -2.503270

 Total Charge           Charge          ....    0
 Multiplicity           Mult            ....    1
 Number of Electrons    NEL             ....   40
 Basis Dimension        Dim             ....  236

ORBITAL ENERGIES
----------------

  NO   OCC          E(Eh)            E(eV)
   0   2.0000     -25.316340      -688.8926
   1   2.0000     -19.634320      -534.2770
   2   2.0000     -10.720087      -291.7084
   3   2.0000     -10.567876      -287.5665
   4   2.0000     -10.544755      -286.9374
   5   2.0000      -1.466265       -39.8991
   6   2.0000      -1.154392       -31.4126
   7   2.0000      -0.905871       -24.6500
   8   2.0000      -0.785381       -21.3713
   9   2.0000      -0.737367       -20.0648
  10   2.0000      -0.646774       -17.5996
  11   2.0000      -0.637294       -17.3416
  12   2.0000      -0.587694       -15.9920
  13   2.0000      -0.539414       -14.6782
  14   2.0000      -0.511753       -13.9255
  15   2.0000      -0.472382       -12.8542
  16   2.0000      -0.454977       -12.3805
  17   2.0000      -0.442867       -12.0510
  18   2.0000      -0.418068       -11.3762
  19   2.0000      -0.366745        -9.9796
  20   0.0000       0.005220         0.1420
  21   0.0000       0.019732         0.5369
  22   0.0000       0.034472         0.9380
  23   0.0000       0.041509         1.1295
  24   0.0000       0.052781         1.4363

MULLIKEN ATOMIC CHARGES
-----------------------
   0 C :   -1.093389
   1 C :   -0.354442
   2 H :    0.312588
   3 H :    0.271334
   4 C :    0.732928
   5 O :   -0.582778
   6 F :   -0.243106
   7 H :    0.302277
   8 H :    0.342643
   9 H :    0.311944
Sum of atomic charges:    0.0000000

LOEWDIN ATOMIC CHARGES
----------------------
   0 C :   -0.089711
   1 C :   -0.152889
   2 H :    0.119740
   3 H :    0.119153
   4 C :   -0.485226
   5 O :    0.070972
   6 F :    0.198948
   7 H :    0.070522
   8 H :    0.077605
   9 H :    0.070887

  Mayer bond orders larger than 0.100000
B(  0-C ,  1-C ) :   0.4927 B(  0-C ,  7-H ) :   0.9700 B(  0-C ,  8-H ) :   0.9495
B(  0-C ,  9-H ) :   0.9683 B(  1-C ,  2-H ) :   0.9408 B(  1-C ,  3-H ) :   0.9810
B(  1-C ,  4-C ) :   0.9288 B(  4-C ,  5-O ) :   1.6326 B(  4-C ,  6-F ) :   0.9049

Dispersion correction           -0.000092199
FINAL SINGLE POINT ENERGY      -292.394042388046

DIPOLE MOMENT
-------------
                                X             Y             Z
Electronic contribution:      4.82724      -2.27790       5.82762
Nuclear contribution   :     -4.79499       2.78546      -7.01827
                        -----------------------------------------
Total Dipole Moment    :      0.03225       0.50757      -1.19066
                        -----------------------------------------
Magnitude (a.u.)       :      1.29473
Magnitude (Debye)      :      3.29095

Rotational constants in cm-1:     0.286098     0.133492     0.103343
Rotational constants in MHz :  8577.003657  4001.981591  3098.148068

                             ****ORCA TERMINATED NORMALLY****
TOTAL RUN TIME: 0 days 0 hours 0 minutes 15 seconds 640 msec
