                         Program Version 5.0.0 -  RELEASE  -
|  1> !M062X D3Zero RIJCOSX def2-TZVPD def2/J TightSCF
|  2> *xyz 0 1
|  3> C          3.91385       -1.65829        3.01513
|  4> N          5.03927       -0.90115        2.49282
|  5> C          6.21038       -1.41726        2.17824
|  6> C          6.53591       -2.67712        2.55608
|  7> N          7.07675       -0.70082        1.47891
|  8> H          7.95464       -1.12155        1.20755
|  9> H          6.75616        0.10664        0.96028
| 10> H          4.84217        0.01761        2.11519
| 11> H          5.99388       -3.12692        3.28278
| 12> C          3.13916       -2.37657        1.91061
| 13> H          3.26723       -0.93940        3.52069
| 14> H          4.24720       -2.35509        3.79006
| 15> H          7.49844       -2.97548        2.46878
| 16> H          2.82969       -1.66654        1.17238
| 17> H          2.27790       -2.85264        2.33072
| 18> H          3.76754       -3.11338        1.45548
| 19> *
| 20> %MaxCore 64000
| 21> %pal nprocs 8
| 22> end
| 23> %scf
| 24>   MaxIter 150
| 25> end
| 26>
| 27>
| 28>                          ****END OF INPUT****

CARTESIAN COORDINATES (ANGSTROEM)
---------------------------------
  C      3.913850   -1.658290    3.015130
  N      5.039270   -0.901150    2.492820
  C      6.210380   -1.417260    2.178240
  C      6.535910   -2.677120    2.556080
  N      7.076750   -0.700820    1.478910
  H      7.954640   -1.121550    1.207550
  H      6.756160    0.106640    0.960280
  H      4.842170    0.017610    2.115190
  H      5.993880   -3.126920    3.282780
  C      3.139160   -2.376570    1.910610
  H      3.267230   -0.939400    3.520690
  H      4.247200   -2.355090    3.790060
  H      7.498440   -2.975480    2.468780
  H      2.829690   -1.666540    1.172380
  H      2.277900   -2.852640    2.330720
  H      3.767540   -3.113380    1.455480

 Total Charge           Charge          ....    0
 Multiplicity           Mult            ....    1
 Number of Electrons    NEL             ....   48
 Basis Dimension        Dim             ....  312

ORBITAL ENERGIES
----------------

  NO   OCC          E(Eh)            E(eV)
   0   2.0000     -14.752298      -401.4304
   1   2.0000     -14.749661      -401.3587
   2   2.0000     -10.587430      -288.0986
   3   2.0000     -10.569290      -287.6050
   4   2.0000     -10.514581      -286.1163
   5   2.0000     -10.448188      -284.3097
   6   2.0000      -1.086118       -29.5548
   7   2.0000      -0.995652       -27.0931
   8   2.0000      -0.850537       -23.1443
   9   2.0000      -0.800287       -21.7769
  10   2.0000      -0.728526       -19.8242
  11   2.0000      -0.644856       -17.5474
  12   2.0000      -0.625988       -17.0340
  13   2.0000      -0.595710       -16.2101
  14   2.0000      -0.536415       -14.5966
  15   2.0000      -0.508572       -13.8389
  16   2.0000      -0.489005       -13.3065
  17   2.0000      -0.464493       -12.6395
  18   2.0000      -0.445226       -12.1152
  19   2.0000      -0.432640       -11.7727
  20   2.0000      -0.428894       -11.6708
  21   2.0000      -0.407949       -11.1009
  22   2.0000      -0.316125        -8.6022
  23   2.0000      -0.217799        -5.9266
  24   0.0000       0.011597         0.3156
  25   0.0000       0.031276         0.8511
  26   0.0000       0.040949         1.1143
  27   0.0000       0.043781         1.1913
  28   0.0000       0.068716         1.8699

MULLIKEN ATOMIC CHARGES
-----------------------
   0 C :   -0.539539
   1 N :   -0.412315
   2 C :    1.028519
   3 C :   -1.131847
   4 N :   -0.644974
   5 H :    0.232001
   6 H :    0.221665
   7 H :    0.281139
   8 H :    0.178254
   9 C :   -1.056116
  10 H :    0.328636
  11 H :    0.305192
  12 H :    0.249182
  13 H :    0.302079
  14 H :    0.348467
  15 H :    0.309654
Sum of atomic charges:    0.0000000

LOEWDIN ATOMIC CHARGES
----------------------
   0 C :   -0.239699
   1 N :    0.000650
   2 C :   -0.568497
   3 C :    0.007998
   4 N :    0.105817
   5 H :    0.113669
   6 H :    0.104607
   7 H :    0.142728
   8 H :   -0.003786
   9 C :   -0.084436
  10 H :    0.112927
  11 H :    0.109106
  12 H :    0.004176
  13 H :    0.065497
  14 H :    0.064742
  15 H :    0.064500

  Mayer bond orders larger than 0.100000
B(  0-C ,  1-N ) :   0.7321 B(  0-C ,  3-C ) :   0.1493 B(  0-C ,  9-C ) :   0.5992
B(  0-C , 10-H ) :   0.9187 B(  0-C , 11-H ) :   0.9241 B(  1-N ,  2-C ) :   0.9642
B(  1-N ,  7-H ) :   0.9651 B(  2-C ,  3-C ) :   1.1596 B(  2-C ,  4-N ) :   0.7943
B(  2-C , 12-H ) :  -0.1584 B(  3-C ,  4-N ) :   0.1097 B(  3-C ,  8-H ) :   1.0818
B(  3-C , 12-H ) :   1.1063 B(  4-N ,  5-H ) :   0.9730 B(  4-N ,  6-H ) :   0.9991
B(  9-C , 13-H ) :   0.9910 B(  9-C , 14-H ) :   0.9509 B(  9-C , 15-H ) :   0.9854

Dispersion correction           -0.000314000
FINAL SINGLE POINT ENERGY      -267.884757482740

DIPOLE MOMENT
-------------
                                X             Y             Z
Electronic contribution:      3.05070       2.77625      -0.19607
Nuclear contribution   :     -3.42552      -1.84584      -0.22295
                        -----------------------------------------
Total Dipole Moment    :     -0.37482       0.93041      -0.41902
                        -----------------------------------------
Magnitude (a.u.)       :      1.08708
Magnitude (Debye)      :      2.76313

Rotational constants in cm-1:     0.233526     0.075277     0.067092
Rotational constants in MHz :  7000.931279  2256.752901  2011.361214

                             ****ORCA TERMINATED NORMALLY****
TOTAL RUN TIME: 0 days 0 hours 0 minutes 28 seconds 975 msec
