                         Program Version 5.0.0 -  RELEASE  -
|  1> !M062X D3Zero RIJCOSX def2-TZVPD def2/J TightSCF
|  2> *xyz 0 1
|  3> C          3.91385       -1.65829        3.01513
|  4> N          5.03927       -0.90115        2.49282
|  5> C          6.21038       -1.41726        2.17824
|  6> N          6.53591       -2.67712        2.55608
|  7> C          7.07675       -0.70082        1.47891
|  8> H          7.95464       -1.12155        1.20755
|  9> H          6.75616        0.10664        0.96028
| 10> H          4.84217        0.01761        2.11519
| 11> H          5.99388       -3.12692        3.28278
| 12> C          3.13916       -2.37657        1.91061
| 13> H          3.26723       -0.93940        3.52069
| 14> H          4.24720       -2.35509        3.79006
| 15> H          7.49844       -2.97548        2.46878
| 16> H          2.82969       -1.66654        1.17238
| 17> H          2.27790       -2.85264        2.33072
| 18> H          3.76754       -3.11338        1.45548
| 19> *
| 20> %MaxCore 64000
| 21> %pal nprocs 8
| 22> end
| 23> %scf
| 24>   MaxIter 150
| 25> end
| 26>
| 27>
| 28>                          ****END OF INPUT****

CARTESIAN COORDINATES (ANGSTROEM)
---------------------------------
  C      3.913850   -1.658290    3.015130
  N      5.039270   -0.901150    2.492820
  C      6.210380   -1.417260    2.178240
  N      6.535910   -2.677120    2.556080
  C      7.076750   -0.700820    1.478910
  H      7.954640   -1.121550    1.207550
  H      6.756160    0.106640    0.960280
  H      4.842170    0.017610    2.115190
  H      5.993880   -3.126920    3.282780
  C      3.139160   -2.376570    1.910610
  H      3.267230   -0.939400    3.520690
  H      4.247200   -2.355090    3.790060
  H      7.498440   -2.975480    2.468780
  H      2.829690   -1.666540    1.172380
  H      2.277900   -2.852640    2.330720
  H      3.767540   -3.113380    1.455480

 Total Charge           Charge          ....    0
 Multiplicity           Mult            ....    1
 Number of Electrons    NEL             ....   48
 Basis Dimension        Dim             ....  312

ORBITAL ENERGIES
----------------

  NO   OCC          E(Eh)            E(eV)
   0   2.0000     -14.748308      -401.3219
   1   2.0000     -14.747738      -401.3063
   2   2.0000     -10.584057      -288.0068
   3   2.0000     -10.577055      -287.8163
   4   2.0000     -10.521899      -286.3154
   5   2.0000     -10.446141      -284.2540
   6   2.0000      -1.080727       -29.4081
   7   2.0000      -0.987959       -26.8837
   8   2.0000      -0.868683       -23.6381
   9   2.0000      -0.796264       -21.6674
  10   2.0000      -0.716421       -19.4948
  11   2.0000      -0.680139       -18.5075
  12   2.0000      -0.610562       -16.6142
  13   2.0000      -0.570509       -15.5243
  14   2.0000      -0.547048       -14.8859
  15   2.0000      -0.508029       -13.8242
  16   2.0000      -0.503105       -13.6902
  17   2.0000      -0.472422       -12.8553
  18   2.0000      -0.446758       -12.1569
  19   2.0000      -0.434611       -11.8264
  20   2.0000      -0.426516       -11.6061
  21   2.0000      -0.419573       -11.4172
  22   2.0000      -0.320487        -8.7209
  23   2.0000      -0.216901        -5.9022
  24   0.0000       0.011177         0.3041
  25   0.0000       0.034401         0.9361
  26   0.0000       0.038381         1.0444
  27   0.0000       0.040186         1.0935
  28   0.0000       0.068264         1.8576

MULLIKEN ATOMIC CHARGES
-----------------------
   0 C :   -0.591712
   1 N :   -0.376662
   2 C :    0.981159
   3 N :   -0.639552
   4 C :   -1.094585
   5 H :    0.204857
   6 H :    0.192590
   7 H :    0.271504
   8 H :    0.223722
   9 C :   -1.035962
  10 H :    0.335178
  11 H :    0.327140
  12 H :    0.249967
  13 H :    0.291309
  14 H :    0.355545
  15 H :    0.305502
Sum of atomic charges:    0.0000000

LOEWDIN ATOMIC CHARGES
----------------------
   0 C :   -0.243905
   1 N :    0.004876
   2 C :   -0.566103
   3 N :    0.112860
   4 C :   -0.002334
   5 H :    0.006408
   6 H :    0.009405
   7 H :    0.150514
   8 H :    0.087691
   9 C :   -0.085566
  10 H :    0.113426
  11 H :    0.104519
  12 H :    0.110152
  13 H :    0.068515
  14 H :    0.063549
  15 H :    0.065993

  Mayer bond orders larger than 0.100000
B(  0-C ,  1-N ) :   0.7816 B(  0-C ,  2-C ) :  -0.1171 B(  0-C ,  3-N ) :   0.1047
B(  0-C ,  9-C ) :   0.6015 B(  0-C , 10-H ) :   0.9488 B(  0-C , 11-H ) :   0.9118
B(  1-N ,  2-C ) :   0.9750 B(  1-N ,  7-H ) :   0.9479 B(  2-C ,  3-N ) :   0.7857
B(  2-C ,  4-C ) :   1.1538 B(  2-C ,  5-H ) :  -0.1704 B(  3-N ,  8-H ) :   0.9822
B(  3-N , 12-H ) :   0.9528 B(  4-C ,  5-H ) :   1.1756 B(  4-C ,  6-H ) :   1.0493
B(  9-C , 13-H ) :   1.0105 B(  9-C , 14-H ) :   0.9654 B(  9-C , 15-H ) :   0.9630

Dispersion correction           -0.000312706
FINAL SINGLE POINT ENERGY      -267.884393620838

DIPOLE MOMENT
-------------
                                X             Y             Z
Electronic contribution:      2.51988       0.92753       0.95025
Nuclear contribution   :     -3.31079      -1.42658      -0.45147
                        -----------------------------------------
Total Dipole Moment    :     -0.79091      -0.49905       0.49878
                        -----------------------------------------
Magnitude (a.u.)       :      1.05989
Magnitude (Debye)      :      2.69403

Rotational constants in cm-1:     0.225507     0.077571     0.068070
Rotational constants in MHz :  6760.542142  2325.533779  2040.680522

                             ****ORCA TERMINATED NORMALLY****
TOTAL RUN TIME: 0 days 0 hours 0 minutes 34 seconds 831 msec
