                         Program Version 5.0.0 -  RELEASE  -
|  1> !M062X D3Zero RIJCOSX def2-TZVPD def2/J TightSCF xyzfile
|  2>
|  3> *xyzfile 0 1 D1.xyz
|  4>
|  5> %MaxCore 64000
|  6>
|  7> %pal nprocs 4
|  8> end
|  9>
| 10> %scf
| 11>   MaxIter 150
| 12> end
| 13>
| 14>
| 15>                          ****END OF INPUT****

CARTESIAN COORDINATES (ANGSTROEM)
---------------------------------
  C      3.913853   -1.658291    3.015134
  C      5.039266   -0.901154    2.492821
  C      4.084215    1.742081   -2.114724
  C      4.265245    2.500518   -0.795890
  H      4.868534    3.392674   -0.981134
  H      3.307640    2.824571   -0.387809
  C      4.982240    1.650257    0.247422
  C      6.210384   -1.417261    2.178244
  N      6.535913   -2.677122    2.556078
  N      7.076754   -0.700820    1.478906
  H      7.954643   -1.121554    1.207554
  H      6.756161    0.106637    0.960278
  H      4.842168    0.017609    2.115191
  H      5.993876   -3.126918    3.282784
  H      7.498441   -2.975482    2.468776
  F      4.368065    1.389270    1.313706
  O      6.128919    1.233512   -0.045620
  C      3.139159   -2.376572    1.910609
  H      3.267235   -0.939401    3.520693
  H      4.247195   -2.355095    3.790065
  C      1.997274    0.430918   -1.399218
  C      3.412746    0.376886   -1.965497
  H      4.047407   -0.246590   -1.326706
  H      3.390774   -0.118719   -2.942839
  H      5.068475    1.598504   -2.565728
  H      3.503356    2.363939   -2.804565
  C      2.399946   -1.389579    1.009490
  H      2.440750   -3.087118    2.362976
  H      3.844475   -2.970462    1.318677
  C      2.070177   -1.936705   -0.372401
  H      1.481611   -1.061542    1.509912
  H      3.008628   -0.490001    0.897451
  C      1.322238   -0.935775   -1.256413
  H      1.472747   -2.850902   -0.283997
  H      3.003539   -2.234041   -0.862535
  H      1.376444    1.058920   -2.047420
  H      2.015341    0.929780   -0.426535
  H      0.316648   -0.787213   -0.848278
  H      1.185611   -1.379252   -2.248613

 Total Charge           Charge          ....    0
 Multiplicity           Mult            ....    1
 Number of Electrons    NEL             ....  126
 Basis Dimension        Dim             ....  805

ORBITAL ENERGIES
----------------

  NO   OCC          E(Eh)            E(eV)
   0   2.0000     -25.329151      -689.2412
   1   2.0000     -19.656911      -534.8917
   2   2.0000     -14.732806      -400.9000
   3   2.0000     -14.706989      -400.1975
   4   2.0000     -10.742417      -292.3160
   5   2.0000     -10.574128      -287.7366
   6   2.0000     -10.562359      -287.4164
   7   2.0000     -10.554023      -287.1896
   8   2.0000     -10.537829      -286.7489
   9   2.0000     -10.532488      -286.6036
  10   2.0000     -10.526169      -286.4316
  11   2.0000     -10.518411      -286.2205
  12   2.0000     -10.512263      -286.0532
  13   2.0000     -10.504048      -285.8297
  14   2.0000     -10.499090      -285.6948
  15   2.0000     -10.434840      -283.9464
  16   2.0000      -1.482714       -40.3467
  17   2.0000      -1.185823       -32.2679
  18   2.0000      -1.049192       -28.5500
  19   2.0000      -0.951615       -25.8948
  20   2.0000      -0.933634       -25.4055
  21   2.0000      -0.903913       -24.5967
  22   2.0000      -0.874325       -23.7916
  23   2.0000      -0.844054       -22.9679
  24   2.0000      -0.804918       -21.9029
  25   2.0000      -0.783727       -21.3263
  26   2.0000      -0.754577       -20.5331
  27   2.0000      -0.724471       -19.7139
  28   2.0000      -0.691274       -18.8105
  29   2.0000      -0.674262       -18.3476
  30   2.0000      -0.660787       -17.9809
  31   2.0000      -0.652588       -17.7578
  32   2.0000      -0.642260       -17.4768
  33   2.0000      -0.633056       -17.2263
  34   2.0000      -0.607064       -16.5191
  35   2.0000      -0.591163       -16.0864
  36   2.0000      -0.562951       -15.3187
  37   2.0000      -0.553871       -15.0716
  38   2.0000      -0.548469       -14.9246
  39   2.0000      -0.531880       -14.4732
  40   2.0000      -0.517745       -14.0886
  41   2.0000      -0.510069       -13.8797
  42   2.0000      -0.496773       -13.5179
  43   2.0000      -0.486194       -13.2300
  44   2.0000      -0.484524       -13.1846
  45   2.0000      -0.475741       -12.9456
  46   2.0000      -0.460071       -12.5192
  47   2.0000      -0.455289       -12.3891
  48   2.0000      -0.439375       -11.9560
  49   2.0000      -0.430983       -11.7277
  50   2.0000      -0.430628       -11.7180
  51   2.0000      -0.425209       -11.5705
  52   2.0000      -0.411331       -11.1929
  53   2.0000      -0.399736       -10.8774
  54   2.0000      -0.396589       -10.7917
  55   2.0000      -0.390448       -10.6246
  56   2.0000      -0.372559       -10.1379
  57   2.0000      -0.370384       -10.0787
  58   2.0000      -0.363844        -9.9007
  59   2.0000      -0.357888        -9.7386
  60   2.0000      -0.352271        -9.5858
  61   2.0000      -0.310447        -8.4477
  62   2.0000      -0.196708        -5.3527
  63   0.0000      -0.009456        -0.2573
  64   0.0000       0.010896         0.2965
  65   0.0000       0.019195         0.5223
  66   0.0000       0.023774         0.6469
  67   0.0000       0.026577         0.7232

MULLIKEN ATOMIC CHARGES
-----------------------
   0 C :   -1.378854
   1 C :    0.247356
   2 C :   -0.922533
   3 C :   -0.697337
   4 H :    0.422568
   5 H :    0.310375
   6 C :    0.938964
   7 C :    0.300167
   8 N :   -0.656269
   9 N :   -0.661066
  10 H :    0.219134
  11 H :    0.458275
  12 H :   -0.105646
  13 H :    0.228620
  14 H :    0.240120
  15 F :   -0.290762
  16 O :   -0.797889
  17 C :   -0.549142
  18 H :    0.340272
  19 H :    0.535425
  20 C :   -0.459927
  21 C :   -0.383199
  22 H :    0.202198
  23 H :    0.409246
  24 H :    0.312571
  25 H :    0.397791
  26 C :    0.382109
  27 H :    0.363923
  28 H :    0.354070
  29 C :   -0.590592
  30 H :    0.306152
  31 H :   -0.450400
  32 C :   -1.130193
  33 H :    0.409356
  34 H :    0.325110
  35 H :    0.384259
  36 H :    0.240191
  37 H :    0.368735
  38 H :    0.376824
Sum of atomic charges:   -0.0000000

LOEWDIN ATOMIC CHARGES
----------------------
   0 C :   -0.231962
   1 C :   -0.131478
   2 C :   -0.193154
   3 C :   -0.093463
   4 H :    0.130385
   5 H :    0.116615
   6 C :   -0.425474
   7 C :   -0.523573
   8 N :    0.118287
   9 N :    0.115004
  10 H :    0.102810
  11 H :    0.035037
  12 H :    0.032922
  13 H :    0.094257
  14 H :    0.096895
  15 F :    0.175843
  16 O :    0.083745
  17 C :   -0.205441
  18 H :    0.113432
  19 H :    0.098909
  20 C :   -0.221652
  21 C :   -0.209684
  22 H :    0.111128
  23 H :    0.125234
  24 H :    0.117093
  25 H :    0.119880
  26 C :   -0.221096
  27 H :    0.109687
  28 H :    0.115508
  29 C :   -0.221614
  30 H :    0.127919
  31 H :    0.081909
  32 C :   -0.215383
  33 H :    0.116676
  34 H :    0.112164
  35 H :    0.118569
  36 H :    0.100774
  37 H :    0.112120
  38 H :    0.111168

  Mayer bond orders larger than 0.100000
B(  0-C ,  1-C ) :   0.3162 B(  0-C , 17-C ) :   0.3848 B(  0-C , 18-H ) :   1.1160
B(  0-C , 19-H ) :   0.9147 B(  0-C , 26-C ) :   0.2449 B(  0-C , 27-H ) :  -0.1366
B(  1-C ,  7-C ) :   1.7564 B(  1-C ,  8-N ) :  -0.1046 B(  1-C , 12-H ) :   1.3573
B(  1-C , 17-C ) :  -0.2012 B(  1-C , 18-H ) :  -0.1642 B(  1-C , 19-H ) :  -0.3358
B(  2-C ,  3-C ) :   0.6617 B(  2-C , 20-C ) :   0.1713 B(  2-C , 21-C ) :   0.6457
B(  2-C , 24-H ) :   1.0007 B(  2-C , 25-H ) :   0.9225 B(  3-C ,  4-H ) :   0.8390
B(  3-C ,  5-H ) :   1.0554 B(  3-C ,  6-C ) :   0.8771 B(  3-C , 20-C ) :   0.1216
B(  3-C , 21-C ) :  -0.1391 B(  6-C , 15-F ) :   0.8095 B(  6-C , 16-O ) :   1.3147
B(  7-C ,  8-N ) :   0.8892 B(  7-C ,  9-N ) :   0.8636 B(  7-C , 12-H ) :   0.1217
B(  7-C , 16-O ) :   0.1022 B(  8-N , 13-H ) :   0.9778 B(  8-N , 14-H ) :   0.9708
B(  9-N , 10-H ) :   0.9819 B(  9-N , 11-H ) :   0.7761 B( 11-H , 16-O ) :  -0.1564
B( 12-H , 15-F ) :  -0.2396 B( 12-H , 16-O ) :   0.1403 B( 17-C , 26-C ) :   0.3872
B( 17-C , 27-H ) :   0.9760 B( 17-C , 28-H ) :   0.9419 B( 17-C , 29-C ) :   0.3636
B( 17-C , 30-H ) :  -0.1257 B( 20-C , 21-C ) :   0.1161 B( 20-C , 22-H ) :  -0.1519
B( 20-C , 26-C ) :   0.1611 B( 20-C , 29-C ) :  -0.1500 B( 20-C , 32-C ) :   0.6474
B( 20-C , 35-H ) :   0.8640 B( 20-C , 36-H ) :   1.1072 B( 21-C , 22-H ) :   1.1126
B( 21-C , 23-H ) :   0.8448 B( 21-C , 29-C ) :   0.1352 B( 21-C , 32-C ) :   0.1688
B( 21-C , 36-H ) :  -0.1842 B( 26-C , 29-C ) :   0.3271 B( 26-C , 30-H ) :   0.9671
B( 26-C , 31-H ) :   0.9096 B( 26-C , 32-C ) :   0.1266 B( 26-C , 34-H ) :  -0.1199
B( 29-C , 32-C ) :   0.5702 B( 29-C , 33-H ) :   0.8543 B( 29-C , 34-H ) :   1.0358
B( 32-C , 37-H ) :   0.9802 B( 32-C , 38-H ) :   0.9668

Dispersion correction           -0.002738388
FINAL SINGLE POINT ENERGY      -755.619491878515

DIPOLE MOMENT
-------------
                                X             Y             Z
Electronic contribution:     11.25189       8.97707       5.89633
Nuclear contribution   :    -11.48003      -8.36271      -6.78621
                        -----------------------------------------
Total Dipole Moment    :     -0.22814       0.61436      -0.88989
                        -----------------------------------------
Magnitude (a.u.)       :      1.10516
Magnitude (Debye)      :      2.80910

Rotational constants in cm-1:     0.020055     0.013548     0.009477
Rotational constants in MHz :   601.234832   406.162779   284.104317

                             ****ORCA TERMINATED NORMALLY****
TOTAL RUN TIME: 0 days 0 hours 11 minutes 24 seconds 497 msec
