                         Program Version 5.0.0 -  RELEASE  -
|  1> !M062X D3Zero RIJCOSX def2-TZVPD def2/J TightSCF xyzfile
|  2>
|  3> *xyzfile 0 1 D2.xyz
|  4>
|  5> %MaxCore 64000
|  6>
|  7> %pal nprocs 4
|  8> end
|  9>
| 10> %scf
| 11>   MaxIter 150
| 12> end
| 13>
| 14>
| 15>                          ****END OF INPUT****

CARTESIAN COORDINATES (ANGSTROEM)
---------------------------------
  C      3.913853   -1.658291    3.015134
  N      5.039266   -0.901154    2.492821
  C      4.084215    1.742081   -2.114724
  C      4.265245    2.500518   -0.795890
  H      4.868534    3.392674   -0.981134
  H      3.307640    2.824571   -0.387809
  C      4.982240    1.650257    0.247422
  C      6.210384   -1.417261    2.178244
  C      6.535913   -2.677122    2.556078
  N      7.076754   -0.700820    1.478906
  H      7.954643   -1.121554    1.207554
  H      6.756161    0.106637    0.960278
  H      4.842168    0.017609    2.115191
  H      5.993876   -3.126918    3.282784
  H      7.498441   -2.975482    2.468776
  F      4.368065    1.389270    1.313706
  O      6.128919    1.233512   -0.045620
  C      3.139159   -2.376572    1.910609
  H      3.267235   -0.939401    3.520693
  H      4.247195   -2.355095    3.790065
  C      1.997274    0.430918   -1.399218
  C      3.412746    0.376886   -1.965497
  H      4.047407   -0.246590   -1.326706
  H      3.390774   -0.118719   -2.942839
  H      5.068475    1.598504   -2.565728
  H      3.503356    2.363939   -2.804565
  C      2.399946   -1.389579    1.009490
  H      2.440750   -3.087118    2.362976
  H      3.844475   -2.970462    1.318677
  C      2.070177   -1.936705   -0.372401
  H      1.481611   -1.061542    1.509912
  H      3.008628   -0.490001    0.897451
  C      1.322238   -0.935775   -1.256413
  H      1.472747   -2.850902   -0.283997
  H      3.003539   -2.234041   -0.862535
  H      1.376444    1.058920   -2.047420
  H      2.015341    0.929780   -0.426535
  H      0.316648   -0.787213   -0.848278
  H      1.185611   -1.379252   -2.248613

 Total Charge           Charge          ....    0
 Multiplicity           Mult            ....    1
 Number of Electrons    NEL             ....  126
 Basis Dimension        Dim             ....  805

ORBITAL ENERGIES
----------------

  NO   OCC          E(Eh)            E(eV)
   0   2.0000     -25.356577      -689.9875
   1   2.0000     -19.671822      -535.2975
   2   2.0000     -14.729434      -400.8083
   3   2.0000     -14.707635      -400.2151
   4   2.0000     -10.757570      -292.7284
   5   2.0000     -10.585843      -288.0554
   6   2.0000     -10.564516      -287.4751
   7   2.0000     -10.563398      -287.4447
   8   2.0000     -10.556815      -287.2655
   9   2.0000     -10.547209      -287.0041
  10   2.0000     -10.542058      -286.8640
  11   2.0000     -10.535433      -286.6837
  12   2.0000     -10.529269      -286.5160
  13   2.0000     -10.527968      -286.4806
  14   2.0000     -10.519529      -286.2509
  15   2.0000     -10.427615      -283.7498
  16   2.0000      -1.508743       -41.0550
  17   2.0000      -1.200605       -32.6701
  18   2.0000      -1.063116       -28.9289
  19   2.0000      -0.970685       -26.4137
  20   2.0000      -0.944470       -25.7003
  21   2.0000      -0.912313       -24.8253
  22   2.0000      -0.876242       -23.8437
  23   2.0000      -0.841700       -22.9038
  24   2.0000      -0.812032       -22.0965
  25   2.0000      -0.786740       -21.4083
  26   2.0000      -0.774233       -21.0679
  27   2.0000      -0.744161       -20.2497
  28   2.0000      -0.708829       -19.2882
  29   2.0000      -0.689844       -18.7716
  30   2.0000      -0.680677       -18.5222
  31   2.0000      -0.673412       -18.3245
  32   2.0000      -0.651056       -17.7161
  33   2.0000      -0.633925       -17.2500
  34   2.0000      -0.614716       -16.7273
  35   2.0000      -0.589986       -16.0543
  36   2.0000      -0.572166       -15.5694
  37   2.0000      -0.561459       -15.2781
  38   2.0000      -0.559755       -15.2317
  39   2.0000      -0.543607       -14.7923
  40   2.0000      -0.526789       -14.3347
  41   2.0000      -0.516699       -14.0601
  42   2.0000      -0.506121       -13.7722
  43   2.0000      -0.497164       -13.5285
  44   2.0000      -0.486031       -13.2256
  45   2.0000      -0.477827       -13.0023
  46   2.0000      -0.471531       -12.8310
  47   2.0000      -0.458474       -12.4757
  48   2.0000      -0.450050       -12.2465
  49   2.0000      -0.443033       -12.0555
  50   2.0000      -0.435946       -11.8627
  51   2.0000      -0.427578       -11.6350
  52   2.0000      -0.422662       -11.5012
  53   2.0000      -0.417653       -11.3649
  54   2.0000      -0.407846       -11.0981
  55   2.0000      -0.402146       -10.9429
  56   2.0000      -0.390308       -10.6208
  57   2.0000      -0.383350       -10.4315
  58   2.0000      -0.377626       -10.2757
  59   2.0000      -0.376847       -10.2545
  60   2.0000      -0.370072       -10.0702
  61   2.0000      -0.291033        -7.9194
  62   2.0000      -0.197200        -5.3661
  63   0.0000      -0.023421        -0.6373
  64   0.0000       0.001403         0.0382
  65   0.0000       0.015303         0.4164
  66   0.0000       0.017703         0.4817
  67   0.0000       0.023773         0.6469

MULLIKEN ATOMIC CHARGES
-----------------------
   0 C :   -1.199780
   1 N :   -0.422227
   2 C :   -0.920645
   3 C :   -0.706449
   4 H :    0.419099
   5 H :    0.317794
   6 C :    0.879277
   7 C :    0.925953
   8 C :   -1.225152
   9 N :   -0.695452
  10 H :    0.233467
  11 H :    0.463343
  12 H :    0.541009
  13 H :    0.184482
  14 H :    0.286039
  15 F :   -0.377961
  16 O :   -0.789530
  17 C :   -0.639930
  18 H :    0.396112
  19 H :    0.357522
  20 C :   -0.440684
  21 C :   -0.392273
  22 H :    0.197043
  23 H :    0.415062
  24 H :    0.316779
  25 H :    0.396979
  26 C :    0.544540
  27 H :    0.395284
  28 H :    0.348442
  29 C :   -0.607568
  30 H :    0.342193
  31 H :   -0.542201
  32 C :   -1.133139
  33 H :    0.425191
  34 H :    0.326830
  35 H :    0.390544
  36 H :    0.234213
  37 H :    0.378852
  38 H :    0.376941
Sum of atomic charges:    0.0000000

LOEWDIN ATOMIC CHARGES
----------------------
   0 C :   -0.187302
   1 N :    0.026484
   2 C :   -0.191018
   3 C :   -0.092764
   4 H :    0.131937
   5 H :    0.116979
   6 C :   -0.426600
   7 C :   -0.554750
   8 C :    0.002539
   9 N :    0.122452
  10 H :    0.115157
  11 H :    0.029506
  12 H :    0.091315
  13 H :   -0.009343
  14 H :    0.000871
  15 F :    0.181187
  16 O :    0.088487
  17 C :   -0.185088
  18 H :    0.121584
  19 H :    0.111454
  20 C :   -0.221647
  21 C :   -0.208885
  22 H :    0.110966
  23 H :    0.126651
  24 H :    0.118431
  25 H :    0.121238
  26 C :   -0.223218
  27 H :    0.116457
  28 H :    0.115734
  29 C :   -0.219248
  30 H :    0.127365
  31 H :    0.078735
  32 C :   -0.213607
  33 H :    0.118673
  34 H :    0.114351
  35 H :    0.119589
  36 H :    0.099756
  37 H :    0.112867
  38 H :    0.112705

  Mayer bond orders larger than 0.100000
B(  0-C ,  1-N ) :   0.9198 B(  0-C ,  8-C ) :   0.1449 B(  0-C , 12-H ) :  -0.1420
B(  0-C , 17-C ) :   0.5558 B(  0-C , 18-H ) :   0.8687 B(  0-C , 19-H ) :   0.9033
B(  0-C , 27-H ) :  -0.1047 B(  1-N ,  7-C ) :   0.9740 B(  1-N , 12-H ) :   0.4870
B(  2-C ,  3-C ) :   0.6587 B(  2-C , 20-C ) :   0.1692 B(  2-C , 21-C ) :   0.6526
B(  2-C , 24-H ) :   0.9922 B(  2-C , 25-H ) :   0.9239 B(  3-C ,  4-H ) :   0.8486
B(  3-C ,  5-H ) :   1.0421 B(  3-C ,  6-C ) :   0.8776 B(  3-C , 20-C ) :   0.1213
B(  3-C , 21-C ) :  -0.1376 B(  6-C , 15-F ) :   0.7456 B(  6-C , 16-O ) :   1.3560
B(  7-C ,  8-C ) :   1.0785 B(  7-C ,  9-N ) :   0.7940 B(  7-C , 14-H ) :  -0.1505
B(  8-C , 13-H ) :   1.1162 B(  8-C , 14-H ) :   1.0949 B(  9-N , 10-H ) :   0.9734
B(  9-N , 11-H ) :   0.7229 B( 12-H , 15-F ) :  -0.1271 B( 17-C , 26-C ) :   0.3794
B( 17-C , 27-H ) :   0.9375 B( 17-C , 28-H ) :   0.8957 B( 17-C , 29-C ) :   0.3537
B( 17-C , 30-H ) :  -0.1050 B( 20-C , 22-H ) :  -0.1698 B( 20-C , 26-C ) :   0.1394
B( 20-C , 29-C ) :  -0.1461 B( 20-C , 32-C ) :   0.6550 B( 20-C , 35-H ) :   0.8631
B( 20-C , 36-H ) :   1.1084 B( 21-C , 22-H ) :   1.1281 B( 21-C , 23-H ) :   0.8389
B( 21-C , 29-C ) :   0.1333 B( 21-C , 32-C ) :   0.1765 B( 21-C , 36-H ) :  -0.1940
B( 26-C , 29-C ) :   0.3351 B( 26-C , 30-H ) :   0.9380 B( 26-C , 31-H ) :   0.8377
B( 26-C , 32-C ) :   0.1409 B( 26-C , 34-H ) :  -0.1140 B( 29-C , 32-C ) :   0.5901
B( 29-C , 33-H ) :   0.8305 B( 29-C , 34-H ) :   1.0471 B( 32-C , 37-H ) :   0.9691
B( 32-C , 38-H ) :   0.9670

Dispersion correction           -0.002755215
FINAL SINGLE POINT ENERGY      -755.616054417087

DIPOLE MOMENT
-------------
                                X             Y             Z
Electronic contribution:      9.72395      10.52901       5.51268
Nuclear contribution   :    -11.22009      -8.67117      -6.77523
                        -----------------------------------------
Total Dipole Moment    :     -1.49614       1.85784      -1.26255
                        -----------------------------------------
Magnitude (a.u.)       :      2.69890
Magnitude (Debye)      :      6.86005

Rotational constants in cm-1:     0.020086     0.013778     0.009581
Rotational constants in MHz :   602.172053   413.051122   287.243919

                             ****ORCA TERMINATED NORMALLY****
TOTAL RUN TIME: 0 days 0 hours 10 minutes 51 seconds 41 msec
