                         Program Version 5.0.0 -  RELEASE  -
|  1> !M062X D3Zero RIJCOSX def2-TZVPD def2/J TightSCF xyzfile
|  2>
|  3> *xyzfile 0 1 D3.xyz
|  4>
|  5> %MaxCore 64000
|  6>
|  7> %pal nprocs 4
|  8> end
|  9>
| 10> %scf
| 11>   MaxIter 150
| 12> end
| 13>
| 14>
| 15>                          ****END OF INPUT****

CARTESIAN COORDINATES (ANGSTROEM)
---------------------------------
  C      3.913853   -1.658291    3.015134
  N      5.039266   -0.901154    2.492821
  C      4.084215    1.742081   -2.114724
  C      4.265245    2.500518   -0.795890
  H      4.868534    3.392674   -0.981134
  H      3.307640    2.824571   -0.387809
  C      4.982240    1.650257    0.247422
  C      6.210384   -1.417261    2.178244
  N      6.535913   -2.677122    2.556078
  C      7.076754   -0.700820    1.478906
  H      7.954643   -1.121554    1.207554
  H      6.756161    0.106637    0.960278
  H      4.842168    0.017609    2.115191
  H      5.993876   -3.126918    3.282784
  H      7.498441   -2.975482    2.468776
  F      4.368065    1.389270    1.313706
  O      6.128919    1.233512   -0.045620
  C      3.139159   -2.376572    1.910609
  H      3.267235   -0.939401    3.520693
  H      4.247195   -2.355095    3.790065
  C      1.997274    0.430918   -1.399218
  C      3.412746    0.376886   -1.965497
  H      4.047407   -0.246590   -1.326706
  H      3.390774   -0.118719   -2.942839
  H      5.068475    1.598504   -2.565728
  H      3.503356    2.363939   -2.804565
  C      2.399946   -1.389579    1.009490
  H      2.440750   -3.087118    2.362976
  H      3.844475   -2.970462    1.318677
  C      2.070177   -1.936705   -0.372401
  H      1.481611   -1.061542    1.509912
  H      3.008628   -0.490001    0.897451
  C      1.322238   -0.935775   -1.256413
  H      1.472747   -2.850902   -0.283997
  H      3.003539   -2.234041   -0.862535
  H      1.376444    1.058920   -2.047420
  H      2.015341    0.929780   -0.426535
  H      0.316648   -0.787213   -0.848278
  H      1.185611   -1.379252   -2.248613

 Total Charge           Charge          ....    0
 Multiplicity           Mult            ....    1
 Number of Electrons    NEL             ....  126
 Basis Dimension        Dim             ....  805

ORBITAL ENERGIES
----------------

  NO   OCC          E(Eh)            E(eV)
   0   2.0000     -25.338910      -689.5068
   1   2.0000     -19.642987      -534.5129
   2   2.0000     -14.729311      -400.8049
   3   2.0000     -14.725324      -400.6964
   4   2.0000     -10.733595      -292.0760
   5   2.0000     -10.571624      -287.6685
   6   2.0000     -10.564015      -287.4615
   7   2.0000     -10.560612      -287.3689
   8   2.0000     -10.552501      -287.1482
   9   2.0000     -10.539130      -286.7843
  10   2.0000     -10.536778      -286.7203
  11   2.0000     -10.533024      -286.6182
  12   2.0000     -10.529586      -286.5246
  13   2.0000     -10.528997      -286.5086
  14   2.0000     -10.525604      -286.4163
  15   2.0000     -10.410752      -283.2910
  16   2.0000      -1.491248       -40.5789
  17   2.0000      -1.173191       -31.9242
  18   2.0000      -1.062176       -28.9033
  19   2.0000      -0.971622       -26.4392
  20   2.0000      -0.934983       -25.4422
  21   2.0000      -0.908098       -24.7106
  22   2.0000      -0.877155       -23.8686
  23   2.0000      -0.838125       -22.8065
  24   2.0000      -0.811838       -22.0912
  25   2.0000      -0.786586       -21.4041
  26   2.0000      -0.759541       -20.6682
  27   2.0000      -0.733072       -19.9479
  28   2.0000      -0.698449       -19.0058
  29   2.0000      -0.686132       -18.6706
  30   2.0000      -0.669118       -18.2076
  31   2.0000      -0.664299       -18.0765
  32   2.0000      -0.646415       -17.5898
  33   2.0000      -0.636470       -17.3192
  34   2.0000      -0.612285       -16.6611
  35   2.0000      -0.584562       -15.9067
  36   2.0000      -0.562853       -15.3160
  37   2.0000      -0.555608       -15.1189
  38   2.0000      -0.545363       -14.8401
  39   2.0000      -0.534003       -14.5310
  40   2.0000      -0.527954       -14.3664
  41   2.0000      -0.512392       -13.9429
  42   2.0000      -0.502625       -13.6771
  43   2.0000      -0.497048       -13.5254
  44   2.0000      -0.486618       -13.2416
  45   2.0000      -0.469277       -12.7697
  46   2.0000      -0.465498       -12.6668
  47   2.0000      -0.455401       -12.3921
  48   2.0000      -0.446734       -12.1562
  49   2.0000      -0.436375       -11.8744
  50   2.0000      -0.432407       -11.7664
  51   2.0000      -0.429688       -11.6924
  52   2.0000      -0.419722       -11.4212
  53   2.0000      -0.412886       -11.2352
  54   2.0000      -0.404723       -11.0131
  55   2.0000      -0.397613       -10.8196
  56   2.0000      -0.389914       -10.6101
  57   2.0000      -0.376508       -10.2453
  58   2.0000      -0.375055       -10.2058
  59   2.0000      -0.370778       -10.0894
  60   2.0000      -0.343060        -9.3351
  61   2.0000      -0.303466        -8.2577
  62   2.0000      -0.193632        -5.2690
  63   0.0000      -0.004452        -0.1211
  64   0.0000       0.009053         0.2463
  65   0.0000       0.019812         0.5391
  66   0.0000       0.020776         0.5653
  67   0.0000       0.023782         0.6471

MULLIKEN ATOMIC CHARGES
-----------------------
   0 C :   -1.279294
   1 N :   -0.304061
   2 C :   -0.917705
   3 C :   -0.723362
   4 H :    0.422166
   5 H :    0.311416
   6 C :    0.834758
   7 C :    1.083689
   8 N :   -0.667794
   9 C :   -0.816191
  10 H :    0.115510
  11 H :   -0.125846
  12 H :    0.464872
  13 H :    0.213489
  14 H :    0.275123
  15 F :   -0.370082
  16 O :   -0.702830
  17 C :   -0.539179
  18 H :    0.413145
  19 H :    0.360250
  20 C :   -0.445502
  21 C :   -0.402557
  22 H :    0.214039
  23 H :    0.408475
  24 H :    0.312285
  25 H :    0.395488
  26 C :    0.529489
  27 H :    0.424760
  28 H :    0.332976
  29 C :   -0.632614
  30 H :    0.358445
  31 H :   -0.559133
  32 C :   -1.120244
  33 H :    0.417958
  34 H :    0.343939
  35 H :    0.390448
  36 H :    0.230994
  37 H :    0.377154
  38 H :    0.375528
Sum of atomic charges:    0.0000000

LOEWDIN ATOMIC CHARGES
----------------------
   0 C :   -0.192296
   1 N :    0.025961
   2 C :   -0.192271
   3 C :   -0.096532
   4 H :    0.130101
   5 H :    0.114343
   6 C :   -0.433125
   7 C :   -0.545560
   8 N :    0.108549
   9 C :    0.018380
  10 H :    0.014418
  11 H :   -0.044370
  12 H :    0.096111
  13 H :    0.083745
  14 H :    0.107446
  15 F :    0.176559
  16 O :    0.082765
  17 C :   -0.190162
  18 H :    0.122023
  19 H :    0.106975
  20 C :   -0.221814
  21 C :   -0.208968
  22 H :    0.111700
  23 H :    0.125612
  24 H :    0.118417
  25 H :    0.119563
  26 C :   -0.221025
  27 H :    0.114186
  28 H :    0.117557
  29 C :   -0.219968
  30 H :    0.128191
  31 H :    0.081352
  32 C :   -0.213973
  33 H :    0.117674
  34 H :    0.114303
  35 H :    0.119296
  36 H :    0.099922
  37 H :    0.112362
  38 H :    0.112552

  Mayer bond orders larger than 0.100000
B(  0-C ,  1-N ) :   0.9461 B(  0-C ,  7-C ) :  -0.2043 B(  0-C ,  8-N ) :   0.1402
B(  0-C , 17-C ) :   0.4268 B(  0-C , 18-H ) :   0.8734 B(  0-C , 19-H ) :   0.9298
B(  0-C , 27-H ) :  -0.1397 B(  1-N ,  7-C ) :   1.0586 B(  1-N , 12-H ) :   0.5979
B(  2-C ,  3-C ) :   0.6703 B(  2-C , 20-C ) :   0.1725 B(  2-C , 21-C ) :   0.6819
B(  2-C , 24-H ) :   0.9908 B(  2-C , 25-H ) :   0.9223 B(  3-C ,  4-H ) :   0.8453
B(  3-C ,  5-H ) :   1.0466 B(  3-C ,  6-C ) :   0.8678 B(  3-C , 20-C ) :   0.1180
B(  3-C , 21-C ) :  -0.1345 B(  6-C , 15-F ) :   0.7179 B(  6-C , 16-O ) :   1.4727
B(  7-C ,  8-N ) :   0.7510 B(  7-C ,  9-C ) :   0.9788 B(  7-C , 10-H ) :  -0.3294
B(  7-C , 11-H ) :  -0.1583 B(  8-N , 13-H ) :   1.0153 B(  8-N , 14-H ) :   0.9402
B(  9-C , 10-H ) :   1.4469 B(  9-C , 11-H ) :   1.0609 B( 11-H , 16-O ) :  -0.2576
B( 12-H , 15-F ) :  -0.1363 B( 17-C , 26-C ) :   0.4259 B( 17-C , 27-H ) :   0.9362
B( 17-C , 28-H ) :   0.8781 B( 17-C , 29-C ) :   0.3505 B( 17-C , 30-H ) :  -0.1012
B( 20-C , 22-H ) :  -0.1690 B( 20-C , 26-C ) :   0.1438 B( 20-C , 29-C ) :  -0.1436
B( 20-C , 32-C ) :   0.6444 B( 20-C , 35-H ) :   0.8635 B( 20-C , 36-H ) :   1.1134
B( 21-C , 22-H ) :   1.1169 B( 21-C , 23-H ) :   0.8430 B( 21-C , 29-C ) :   0.1442
B( 21-C , 32-C ) :   0.1641 B( 21-C , 36-H ) :  -0.1913 B( 26-C , 29-C ) :   0.3280
B( 26-C , 30-H ) :   0.9537 B( 26-C , 31-H ) :   0.8293 B( 26-C , 32-C ) :   0.1338
B( 26-C , 34-H ) :  -0.1054 B( 29-C , 32-C ) :   0.5855 B( 29-C , 33-H ) :   0.8417
B( 29-C , 34-H ) :   1.0304 B( 32-C , 37-H ) :   0.9698 B( 32-C , 38-H ) :   0.9675

Dispersion correction           -0.002743092
FINAL SINGLE POINT ENERGY      -755.595918860164

DIPOLE MOMENT
-------------
                                X             Y             Z
Electronic contribution:      9.44663       8.69155       6.66710
Nuclear contribution   :    -11.12616      -8.32792      -6.96231
                        -----------------------------------------
Total Dipole Moment    :     -1.67952       0.36363      -0.29521
                        -----------------------------------------
Magnitude (a.u.)       :      1.74361
Magnitude (Debye)      :      4.43190

Rotational constants in cm-1:     0.020226     0.013574     0.009520
Rotational constants in MHz :   606.360011   406.923773   285.390769

                             ****ORCA TERMINATED NORMALLY****
TOTAL RUN TIME: 0 days 0 hours 10 minutes 52 seconds 830 msec
