                         Program Version 5.0.0 -  RELEASE  -
|  1> !M062X D3Zero RIJCOSX def2-TZVPD def2/J TightSCF xyzfile
|  2>
|  3> *xyzfile 0 1 D4.xyz
|  4>
|  5> %MaxCore 64000
|  6>
|  7> %pal nprocs 4
|  8> end
|  9>
| 10> %scf
| 11>   MaxIter 150
| 12> end
| 13>
| 14>
| 15>                          ****END OF INPUT****

CARTESIAN COORDINATES (ANGSTROEM)
---------------------------------
  C      3.913853   -1.658291    3.015134
  C      5.039266   -0.901154    2.492821
  C      4.084215    1.742081   -2.114724
  C      4.265245    2.500518   -0.795890
  H      4.868534    3.392674   -0.981134
  H      3.307640    2.824571   -0.387809
  C      4.982240    1.650257    0.247422
  C      6.210384   -1.417261    2.178244
  N      6.535913   -2.677122    2.556078
  N      7.076754   -0.700820    1.478906
  H      7.954643   -1.121554    1.207554
  H      6.756161    0.106637    0.960278
  H      4.842168    0.017609    2.115191
  H      5.993876   -3.126918    3.282784
  H      7.498441   -2.975482    2.468776
  O      4.368065    1.389270    1.313706
  F      6.128919    1.233512   -0.045620
  C      3.139159   -2.376572    1.910609
  H      3.267235   -0.939401    3.520693
  H      4.247195   -2.355095    3.790065
  C      1.997274    0.430918   -1.399218
  C      3.412746    0.376886   -1.965497
  H      4.047407   -0.246590   -1.326706
  H      3.390774   -0.118719   -2.942839
  H      5.068475    1.598504   -2.565728
  H      3.503356    2.363939   -2.804565
  C      2.399946   -1.389579    1.009490
  H      2.440750   -3.087118    2.362976
  H      3.844475   -2.970462    1.318677
  C      2.070177   -1.936705   -0.372401
  H      1.481611   -1.061542    1.509912
  H      3.008628   -0.490001    0.897451
  C      1.322238   -0.935775   -1.256413
  H      1.472747   -2.850902   -0.283997
  H      3.003539   -2.234041   -0.862535
  H      1.376444    1.058920   -2.047420
  H      2.015341    0.929780   -0.426535
  H      0.316648   -0.787213   -0.848278
  H      1.185611   -1.379252   -2.248613

 Total Charge           Charge          ....    0
 Multiplicity           Mult            ....    1
 Number of Electrons    NEL             ....  126
 Basis Dimension        Dim             ....  805

ORBITAL ENERGIES
----------------

  NO   OCC          E(Eh)            E(eV)
   0   2.0000     -25.342820      -689.6132
   1   2.0000     -19.647673      -534.6404
   2   2.0000     -14.732042      -400.8793
   3   2.0000     -14.723031      -400.6340
   4   2.0000     -10.736645      -292.1590
   5   2.0000     -10.572501      -287.6924
   6   2.0000     -10.559846      -287.3480
   7   2.0000     -10.556267      -287.2506
   8   2.0000     -10.539205      -286.7863
   9   2.0000     -10.528625      -286.4985
  10   2.0000     -10.522480      -286.3312
  11   2.0000     -10.513735      -286.0933
  12   2.0000     -10.503111      -285.8042
  13   2.0000     -10.498779      -285.6863
  14   2.0000     -10.492495      -285.5153
  15   2.0000     -10.425292      -283.6866
  16   2.0000      -1.496473       -40.7211
  17   2.0000      -1.175104       -31.9762
  18   2.0000      -1.053446       -28.6657
  19   2.0000      -0.958067       -26.0703
  20   2.0000      -0.934622       -25.4324
  21   2.0000      -0.900084       -24.4925
  22   2.0000      -0.870450       -23.6862
  23   2.0000      -0.840058       -22.8591
  24   2.0000      -0.807077       -21.9617
  25   2.0000      -0.781701       -21.2712
  26   2.0000      -0.759231       -20.6597
  27   2.0000      -0.721872       -19.6431
  28   2.0000      -0.690986       -18.8027
  29   2.0000      -0.681072       -18.5329
  30   2.0000      -0.672140       -18.2899
  31   2.0000      -0.658937       -17.9306
  32   2.0000      -0.632702       -17.2167
  33   2.0000      -0.623868       -16.9763
  34   2.0000      -0.611054       -16.6276
  35   2.0000      -0.587985       -15.9999
  36   2.0000      -0.561279       -15.2732
  37   2.0000      -0.554141       -15.0789
  38   2.0000      -0.549162       -14.9434
  39   2.0000      -0.528801       -14.3894
  40   2.0000      -0.519993       -14.1497
  41   2.0000      -0.507121       -13.7995
  42   2.0000      -0.497599       -13.5403
  43   2.0000      -0.482758       -13.1365
  44   2.0000      -0.475622       -12.9423
  45   2.0000      -0.468509       -12.7488
  46   2.0000      -0.461843       -12.5674
  47   2.0000      -0.452778       -12.3207
  48   2.0000      -0.445577       -12.1248
  49   2.0000      -0.441099       -12.0029
  50   2.0000      -0.428982       -11.6732
  51   2.0000      -0.423869       -11.5341
  52   2.0000      -0.405087       -11.0230
  53   2.0000      -0.395613       -10.7652
  54   2.0000      -0.392813       -10.6890
  55   2.0000      -0.389266       -10.5925
  56   2.0000      -0.367754       -10.0071
  57   2.0000      -0.361987        -9.8502
  58   2.0000      -0.356972        -9.7137
  59   2.0000      -0.351088        -9.5536
  60   2.0000      -0.330704        -8.9989
  61   2.0000      -0.316822        -8.6212
  62   2.0000      -0.194113        -5.2821
  63   0.0000      -0.004384        -0.1193
  64   0.0000       0.008271         0.2251
  65   0.0000       0.019117         0.5202
  66   0.0000       0.024145         0.6570
  67   0.0000       0.026470         0.7203

MULLIKEN ATOMIC CHARGES
-----------------------
   0 C :   -1.407528
   1 C :    0.325630
   2 C :   -0.947741
   3 C :   -0.672389
   4 H :    0.435105
   5 H :    0.284553
   6 C :    0.850561
   7 C :    0.289221
   8 N :   -0.660896
   9 N :   -0.671712
  10 H :    0.221282
  11 H :    0.459343
  12 H :   -0.100116
  13 H :    0.230729
  14 H :    0.234087
  15 O :   -0.638755
  16 F :   -0.429384
  17 C :   -0.573220
  18 H :    0.323347
  19 H :    0.538045
  20 C :   -0.476547
  21 C :   -0.309365
  22 H :    0.165577
  23 H :    0.403213
  24 H :    0.326553
  25 H :    0.401835
  26 C :    0.534329
  27 H :    0.358649
  28 H :    0.344348
  29 C :   -0.579614
  30 H :    0.294926
  31 H :   -0.516882
  32 C :   -1.123201
  33 H :    0.405259
  34 H :    0.311770
  35 H :    0.391012
  36 H :    0.236298
  37 H :    0.367800
  38 H :    0.373879
Sum of atomic charges:   -0.0000000

LOEWDIN ATOMIC CHARGES
----------------------
   0 C :   -0.226761
   1 C :   -0.129445
   2 C :   -0.198871
   3 C :   -0.091898
   4 H :    0.126509
   5 H :    0.123844
   6 C :   -0.433755
   7 C :   -0.526218
   8 N :    0.115478
   9 N :    0.115077
  10 H :    0.102757
  11 H :    0.063554
  12 H :    0.011968
  13 H :    0.094530
  14 H :    0.094628
  15 O :    0.074545
  16 F :    0.189360
  17 C :   -0.205130
  18 H :    0.115666
  19 H :    0.097866
  20 C :   -0.218218
  21 C :   -0.210704
  22 H :    0.110585
  23 H :    0.124267
  24 H :    0.113375
  25 H :    0.119603
  26 C :   -0.218613
  27 H :    0.108882
  28 H :    0.114134
  29 C :   -0.223073
  30 H :    0.128699
  31 H :    0.081475
  32 C :   -0.215535
  33 H :    0.115754
  34 H :    0.110500
  35 H :    0.118471
  36 H :    0.104236
  37 H :    0.112330
  38 H :    0.110132

  Mayer bond orders larger than 0.100000
B(  0-C ,  1-C ) :   0.3741 B(  0-C ,  7-C ) :   0.1078 B(  0-C , 17-C ) :   0.4124
B(  0-C , 18-H ) :   1.1195 B(  0-C , 19-H ) :   0.9157 B(  0-C , 26-C ) :   0.1863
B(  0-C , 27-H ) :  -0.1352 B(  0-C , 31-H ) :   0.1146 B(  1-C ,  7-C ) :   1.7194
B(  1-C ,  8-N ) :  -0.1023 B(  1-C , 12-H ) :   1.4433 B(  1-C , 17-C ) :  -0.1637
B(  1-C , 18-H ) :  -0.1460 B(  1-C , 19-H ) :  -0.3411 B(  2-C ,  3-C ) :   0.6123
B(  2-C ,  6-C ) :   0.1009 B(  2-C , 20-C ) :   0.1878 B(  2-C , 21-C ) :   0.5524
B(  2-C , 24-H ) :   1.0028 B(  2-C , 25-H ) :   0.9106 B(  3-C ,  4-H ) :   0.8431
B(  3-C ,  5-H ) :   1.0826 B(  3-C ,  6-C ) :   0.8453 B(  3-C , 20-C ) :   0.1265
B(  3-C , 21-C ) :  -0.1840 B(  6-C , 15-O ) :   1.6563 B(  6-C , 16-F ) :   0.5317
B(  7-C ,  8-N ) :   0.8644 B(  7-C ,  9-N ) :   0.8996 B(  7-C , 12-H ) :   0.1506
B(  8-N , 13-H ) :   0.9763 B(  8-N , 14-H ) :   0.9786 B(  9-N , 10-H ) :   0.9888
B(  9-N , 11-H ) :   0.7574 B(  9-N , 12-H ) :   0.1026 B( 12-H , 15-O ) :  -0.3801
B( 12-H , 16-F ) :   0.1173 B( 15-O , 16-F ) :   0.1195 B( 17-C , 26-C ) :   0.4006
B( 17-C , 27-H ) :   0.9766 B( 17-C , 28-H ) :   0.9462 B( 17-C , 29-C ) :   0.3545
B( 17-C , 30-H ) :  -0.1241 B( 20-C , 21-C ) :   0.2127 B( 20-C , 22-H ) :  -0.1202
B( 20-C , 26-C ) :   0.1573 B( 20-C , 29-C ) :  -0.1540 B( 20-C , 32-C ) :   0.6393
B( 20-C , 35-H ) :   0.8515 B( 20-C , 36-H ) :   1.0980 B( 21-C , 22-H ) :   1.0936
B( 21-C , 23-H ) :   0.8669 B( 21-C , 29-C ) :   0.1390 B( 21-C , 32-C ) :   0.1664
B( 21-C , 36-H ) :  -0.1695 B( 26-C , 29-C ) :   0.3313 B( 26-C , 30-H ) :   0.9835
B( 26-C , 31-H ) :   0.7452 B( 26-C , 32-C ) :   0.1213 B( 26-C , 34-H ) :  -0.1182
B( 29-C , 31-H ) :  -0.1184 B( 29-C , 32-C ) :   0.5738 B( 29-C , 33-H ) :   0.8534
B( 29-C , 34-H ) :   1.0477 B( 32-C , 37-H ) :   0.9776 B( 32-C , 38-H ) :   0.9702

Dispersion correction           -0.002733236
FINAL SINGLE POINT ENERGY      -755.607242680364

DIPOLE MOMENT
-------------
                                X             Y             Z
Electronic contribution:     14.23074       8.78164       3.67949
Nuclear contribution   :    -13.61164      -8.17416      -5.14068
                        -----------------------------------------
Total Dipole Moment    :      0.61910       0.60748      -1.46119
                        -----------------------------------------
Magnitude (a.u.)       :      1.69923
Magnitude (Debye)      :      4.31910

Rotational constants in cm-1:     0.019858     0.013613     0.009401
Rotational constants in MHz :   595.331791   408.100423   281.843625

                             ****ORCA TERMINATED NORMALLY****
TOTAL RUN TIME: 0 days 0 hours 11 minutes 45 seconds 464 msec
