                         Program Version 5.0.0 -  RELEASE  -
|  1> !M062X D3Zero RIJCOSX def2-TZVPD def2/J TightSCF xyzfile
|  2>
|  3> *xyzfile 0 1 D5.xyz
|  4>
|  5> %MaxCore 64000
|  6>
|  7> %pal nprocs 4
|  8> end
|  9>
| 10> %scf
| 11>   MaxIter 150
| 12> end
| 13>
| 14>
| 15>                          ****END OF INPUT****

CARTESIAN COORDINATES (ANGSTROEM)
---------------------------------
  C      3.913853   -1.658291    3.015134
  N      5.039266   -0.901154    2.492821
  C      4.084215    1.742081   -2.114724
  C      4.265245    2.500518   -0.795890
  H      4.868534    3.392674   -0.981134
  H      3.307640    2.824571   -0.387809
  C      4.982240    1.650257    0.247422
  C      6.210384   -1.417261    2.178244
  C      6.535913   -2.677122    2.556078
  N      7.076754   -0.700820    1.478906
  H      7.954643   -1.121554    1.207554
  H      6.756161    0.106637    0.960278
  H      4.842168    0.017609    2.115191
  H      5.993876   -3.126918    3.282784
  H      7.498441   -2.975482    2.468776
  O      4.368065    1.389270    1.313706
  F      6.128919    1.233512   -0.045620
  C      3.139159   -2.376572    1.910609
  H      3.267235   -0.939401    3.520693
  H      4.247195   -2.355095    3.790065
  C      1.997274    0.430918   -1.399218
  C      3.412746    0.376886   -1.965497
  H      4.047407   -0.246590   -1.326706
  H      3.390774   -0.118719   -2.942839
  H      5.068475    1.598504   -2.565728
  H      3.503356    2.363939   -2.804565
  C      2.399946   -1.389579    1.009490
  H      2.440750   -3.087118    2.362976
  H      3.844475   -2.970462    1.318677
  C      2.070177   -1.936705   -0.372401
  H      1.481611   -1.061542    1.509912
  H      3.008628   -0.490001    0.897451
  C      1.322238   -0.935775   -1.256413
  H      1.472747   -2.850902   -0.283997
  H      3.003539   -2.234041   -0.862535
  H      1.376444    1.058920   -2.047420
  H      2.015341    0.929780   -0.426535
  H      0.316648   -0.787213   -0.848278
  H      1.185611   -1.379252   -2.248613

 Total Charge           Charge          ....    0
 Multiplicity           Mult            ....    1
 Number of Electrons    NEL             ....  126
 Basis Dimension        Dim             ....  805

ORBITAL ENERGIES
----------------

  NO   OCC          E(Eh)            E(eV)
   0   2.0000     -25.358587      -690.0422
   1   2.0000     -19.673656      -535.3474
   2   2.0000     -14.724904      -400.6850
   3   2.0000     -14.714843      -400.4112
   4   2.0000     -10.758551      -292.7550
   5   2.0000     -10.586262      -288.0668
   6   2.0000     -10.567185      -287.5477
   7   2.0000     -10.565234      -287.4946
   8   2.0000     -10.549189      -287.0580
   9   2.0000     -10.547754      -287.0190
  10   2.0000     -10.538388      -286.7641
  11   2.0000     -10.531508      -286.5769
  12   2.0000     -10.523861      -286.3688
  13   2.0000     -10.517336      -286.1913
  14   2.0000     -10.512428      -286.0577
  15   2.0000     -10.428247      -283.7670
  16   2.0000      -1.512253       -41.1505
  17   2.0000      -1.199790       -32.6479
  18   2.0000      -1.061458       -28.8837
  19   2.0000      -0.973477       -26.4896
  20   2.0000      -0.946830       -25.7645
  21   2.0000      -0.909250       -24.7419
  22   2.0000      -0.871429       -23.7128
  23   2.0000      -0.840863       -22.8811
  24   2.0000      -0.805483       -21.9183
  25   2.0000      -0.787771       -21.4363
  26   2.0000      -0.775442       -21.1008
  27   2.0000      -0.739553       -20.1243
  28   2.0000      -0.706696       -19.2302
  29   2.0000      -0.689607       -18.7652
  30   2.0000      -0.687098       -18.6969
  31   2.0000      -0.676798       -18.4166
  32   2.0000      -0.638547       -17.3758
  33   2.0000      -0.635087       -17.2816
  34   2.0000      -0.613376       -16.6908
  35   2.0000      -0.585964       -15.9449
  36   2.0000      -0.576134       -15.6774
  37   2.0000      -0.564256       -15.3542
  38   2.0000      -0.559310       -15.2196
  39   2.0000      -0.539231       -14.6732
  40   2.0000      -0.525784       -14.3073
  41   2.0000      -0.514111       -13.9897
  42   2.0000      -0.502934       -13.6855
  43   2.0000      -0.490575       -13.3492
  44   2.0000      -0.482780       -13.1371
  45   2.0000      -0.481421       -13.1001
  46   2.0000      -0.470218       -12.7953
  47   2.0000      -0.457809       -12.4576
  48   2.0000      -0.455648       -12.3988
  49   2.0000      -0.443262       -12.0618
  50   2.0000      -0.435010       -11.8372
  51   2.0000      -0.425301       -11.5730
  52   2.0000      -0.419949       -11.4274
  53   2.0000      -0.413219       -11.2443
  54   2.0000      -0.405328       -11.0295
  55   2.0000      -0.404563       -11.0087
  56   2.0000      -0.385154       -10.4806
  57   2.0000      -0.379363       -10.3230
  58   2.0000      -0.371879       -10.1193
  59   2.0000      -0.369278       -10.0486
  60   2.0000      -0.363580        -9.8935
  61   2.0000      -0.291071        -7.9205
  62   2.0000      -0.197459        -5.3731
  63   0.0000      -0.021308        -0.5798
  64   0.0000       0.000145         0.0039
  65   0.0000       0.014250         0.3878
  66   0.0000       0.018392         0.5005
  67   0.0000       0.024749         0.6734

MULLIKEN ATOMIC CHARGES
-----------------------
   0 C :   -1.173082
   1 N :   -0.381830
   2 C :   -0.946959
   3 C :   -0.660067
   4 H :    0.433760
   5 H :    0.283626
   6 C :    0.816756
   7 C :    0.939785
   8 C :   -1.216590
   9 N :   -0.707732
  10 H :    0.236055
  11 H :    0.484723
  12 H :    0.459630
  13 H :    0.182070
  14 H :    0.283380
  15 O :   -0.748242
  16 F :   -0.446910
  17 C :   -0.646957
  18 H :    0.402143
  19 H :    0.346948
  20 C :   -0.452570
  21 C :   -0.329968
  22 H :    0.163218
  23 H :    0.411129
  24 H :    0.329157
  25 H :    0.402803
  26 C :    0.644291
  27 H :    0.391915
  28 H :    0.333165
  29 C :   -0.586608
  30 H :    0.324019
  31 H :   -0.556664
  32 C :   -1.127992
  33 H :    0.420065
  34 H :    0.314304
  35 H :    0.395537
  36 H :    0.232814
  37 H :    0.377153
  38 H :    0.373726
Sum of atomic charges:   -0.0000000

LOEWDIN ATOMIC CHARGES
----------------------
   0 C :   -0.185897
   1 N :    0.024514
   2 C :   -0.195831
   3 C :   -0.088946
   4 H :    0.128863
   5 H :    0.124942
   6 C :   -0.428312
   7 C :   -0.555008
   8 C :    0.003259
   9 N :    0.124474
  10 H :    0.115589
  11 H :    0.057654
  12 H :    0.065140
  13 H :   -0.007824
  14 H :   -0.000752
  15 O :    0.077099
  16 F :    0.192701
  17 C :   -0.185891
  18 H :    0.123148
  19 H :    0.109720
  20 C :   -0.218183
  21 C :   -0.209719
  22 H :    0.110546
  23 H :    0.125857
  24 H :    0.114916
  25 H :    0.121373
  26 C :   -0.221368
  27 H :    0.115177
  28 H :    0.114108
  29 C :   -0.220993
  30 H :    0.127940
  31 H :    0.077865
  32 C :   -0.213808
  33 H :    0.117624
  34 H :    0.112547
  35 H :    0.119435
  36 H :    0.103353
  37 H :    0.113095
  38 H :    0.111593

  Mayer bond orders larger than 0.100000
B(  0-C ,  1-N ) :   0.8848 B(  0-C ,  8-C ) :   0.1403 B(  0-C , 12-H ) :  -0.1650
B(  0-C , 17-C ) :   0.5593 B(  0-C , 18-H ) :   0.8538 B(  0-C , 19-H ) :   0.9090
B(  0-C , 27-H ) :  -0.1049 B(  1-N ,  7-C ) :   0.9366 B(  1-N , 12-H ) :   0.5660
B(  1-N , 15-O ) :  -0.1004 B(  2-C ,  3-C ) :   0.6077 B(  2-C ,  6-C ) :   0.1096
B(  2-C , 20-C ) :   0.1850 B(  2-C , 21-C ) :   0.5623 B(  2-C , 24-H ) :   0.9991
B(  2-C , 25-H ) :   0.9122 B(  3-C ,  4-H ) :   0.8463 B(  3-C ,  5-H ) :   1.0780
B(  3-C ,  6-C ) :   0.8502 B(  3-C , 20-C ) :   0.1273 B(  3-C , 21-C ) :  -0.1839
B(  6-C , 15-O ) :   1.5605 B(  6-C , 16-F ) :   0.5691 B(  7-C ,  8-C ) :   1.0769
B(  7-C ,  9-N ) :   0.8110 B(  7-C , 12-H ) :  -0.1258 B(  7-C , 14-H ) :  -0.1590
B(  8-C , 13-H ) :   1.1206 B(  8-C , 14-H ) :   1.1045 B(  9-N , 10-H ) :   0.9745
B(  9-N , 11-H ) :   0.6889 B( 15-O , 16-F ) :   0.1226 B( 17-C , 26-C ) :   0.3713
B( 17-C , 27-H ) :   0.9381 B( 17-C , 28-H ) :   0.9037 B( 17-C , 29-C ) :   0.3418
B( 17-C , 30-H ) :  -0.1059 B( 20-C , 21-C ) :   0.1781 B( 20-C , 22-H ) :  -0.1335
B( 20-C , 26-C ) :   0.1353 B( 20-C , 29-C ) :  -0.1507 B( 20-C , 32-C ) :   0.6487
B( 20-C , 35-H ) :   0.8533 B( 20-C , 36-H ) :   1.0975 B( 21-C , 22-H ) :   1.1049
B( 21-C , 23-H ) :   0.8569 B( 21-C , 29-C ) :   0.1363 B( 21-C , 32-C ) :   0.1754
B( 21-C , 36-H ) :  -0.1775 B( 26-C , 29-C ) :   0.3430 B( 26-C , 30-H ) :   0.9513
B( 26-C , 31-H ) :   0.7436 B( 26-C , 32-C ) :   0.1375 B( 26-C , 34-H ) :  -0.1116
B( 29-C , 31-H ) :  -0.1334 B( 29-C , 32-C ) :   0.5874 B( 29-C , 33-H ) :   0.8319
B( 29-C , 34-H ) :   1.0582 B( 32-C , 37-H ) :   0.9677 B( 32-C , 38-H ) :   0.9702

Dispersion correction           -0.002750483
FINAL SINGLE POINT ENERGY      -755.616134450298

DIPOLE MOMENT
-------------
                                X             Y             Z
Electronic contribution:     12.74362      10.36119       3.23839
Nuclear contribution   :    -13.35170      -8.48261      -5.12969
                        -----------------------------------------
Total Dipole Moment    :     -0.60808       1.87857      -1.89130
                        -----------------------------------------
Magnitude (a.u.)       :      2.73419
Magnitude (Debye)      :      6.94977

Rotational constants in cm-1:     0.019886     0.013843     0.009504
Rotational constants in MHz :   596.157485   415.004628   284.931121

                             ****ORCA TERMINATED NORMALLY****
TOTAL RUN TIME: 0 days 0 hours 12 minutes 10 seconds 630 msec
