                         Program Version 5.0.0 -  RELEASE  -
|  1> !M062X D3Zero RIJCOSX def2-TZVPD def2/J TightSCF xyzfile
|  2>
|  3> *xyzfile 0 1 D6.xyz
|  4>
|  5> %MaxCore 64000
|  6>
|  7> %pal nprocs 4
|  8> end
|  9>
| 10> %scf
| 11>   MaxIter 150
| 12> end
| 13>
| 14>
| 15>                          ****END OF INPUT****

CARTESIAN COORDINATES (ANGSTROEM)
---------------------------------
  C      3.913853   -1.658291    3.015134
  N      5.039266   -0.901154    2.492821
  C      4.084215    1.742081   -2.114724
  C      4.265245    2.500518   -0.795890
  H      4.868534    3.392674   -0.981134
  H      3.307640    2.824571   -0.387809
  C      4.982240    1.650257    0.247422
  C      6.210384   -1.417261    2.178244
  N      6.535913   -2.677122    2.556078
  C      7.076754   -0.700820    1.478906
  H      7.954643   -1.121554    1.207554
  H      6.756161    0.106637    0.960278
  H      4.842168    0.017609    2.115191
  H      5.993876   -3.126918    3.282784
  H      7.498441   -2.975482    2.468776
  O      4.368065    1.389270    1.313706
  F      6.128919    1.233512   -0.045620
  C      3.139159   -2.376572    1.910609
  H      3.267235   -0.939401    3.520693
  H      4.247195   -2.355095    3.790065
  C      1.997274    0.430918   -1.399218
  C      3.412746    0.376886   -1.965497
  H      4.047407   -0.246590   -1.326706
  H      3.390774   -0.118719   -2.942839
  H      5.068475    1.598504   -2.565728
  H      3.503356    2.363939   -2.804565
  C      2.399946   -1.389579    1.009490
  H      2.440750   -3.087118    2.362976
  H      3.844475   -2.970462    1.318677
  C      2.070177   -1.936705   -0.372401
  H      1.481611   -1.061542    1.509912
  H      3.008628   -0.490001    0.897451
  C      1.322238   -0.935775   -1.256413
  H      1.472747   -2.850902   -0.283997
  H      3.003539   -2.234041   -0.862535
  H      1.376444    1.058920   -2.047420
  H      2.015341    0.929780   -0.426535
  H      0.316648   -0.787213   -0.848278
  H      1.185611   -1.379252   -2.248613

 Total Charge           Charge          ....    0
 Multiplicity           Mult            ....    1
 Number of Electrons    NEL             ....  126
 Basis Dimension        Dim             ....  805

ORBITAL ENERGIES
----------------

  NO   OCC          E(Eh)            E(eV)
   0   2.0000     -25.327854      -689.2059
   1   2.0000     -19.656960      -534.8931
   2   2.0000     -14.730662      -400.8417
   3   2.0000     -14.711828      -400.3292
   4   2.0000     -10.742037      -292.3057
   5   2.0000     -10.574245      -287.7398
   6   2.0000     -10.564212      -287.4668
   7   2.0000     -10.557954      -287.2965
   8   2.0000     -10.555459      -287.2286
   9   2.0000     -10.541997      -286.8623
  10   2.0000     -10.533816      -286.6397
  11   2.0000     -10.529608      -286.5252
  12   2.0000     -10.524079      -286.3748
  13   2.0000     -10.519308      -286.2449
  14   2.0000     -10.518831      -286.2319
  15   2.0000     -10.421891      -283.5941
  16   2.0000      -1.482980       -40.3539
  17   2.0000      -1.183464       -32.2037
  18   2.0000      -1.057391       -28.7731
  19   2.0000      -0.967888       -26.3376
  20   2.0000      -0.937708       -25.5163
  21   2.0000      -0.905574       -24.6419
  22   2.0000      -0.873541       -23.7703
  23   2.0000      -0.835290       -22.7294
  24   2.0000      -0.809947       -22.0398
  25   2.0000      -0.775321       -21.0976
  26   2.0000      -0.764962       -20.8157
  27   2.0000      -0.728629       -19.8270
  28   2.0000      -0.696179       -18.9440
  29   2.0000      -0.679735       -18.4965
  30   2.0000      -0.664693       -18.0872
  31   2.0000      -0.658968       -17.9314
  32   2.0000      -0.653400       -17.7799
  33   2.0000      -0.635141       -17.2831
  34   2.0000      -0.604633       -16.4529
  35   2.0000      -0.585793       -15.9402
  36   2.0000      -0.559637       -15.2285
  37   2.0000      -0.557049       -15.1581
  38   2.0000      -0.546656       -14.8753
  39   2.0000      -0.533757       -14.5243
  40   2.0000      -0.525753       -14.3065
  41   2.0000      -0.509415       -13.8619
  42   2.0000      -0.500364       -13.6156
  43   2.0000      -0.492165       -13.3925
  44   2.0000      -0.486154       -13.2289
  45   2.0000      -0.478662       -13.0250
  46   2.0000      -0.462288       -12.5795
  47   2.0000      -0.450954       -12.2711
  48   2.0000      -0.450028       -12.2459
  49   2.0000      -0.441744       -12.0205
  50   2.0000      -0.434172       -11.8144
  51   2.0000      -0.419217       -11.4075
  52   2.0000      -0.416729       -11.3398
  53   2.0000      -0.408815       -11.1244
  54   2.0000      -0.402895       -10.9633
  55   2.0000      -0.398987       -10.8570
  56   2.0000      -0.385589       -10.4924
  57   2.0000      -0.373153       -10.1540
  58   2.0000      -0.371506       -10.1092
  59   2.0000      -0.369196       -10.0463
  60   2.0000      -0.365086        -9.9345
  61   2.0000      -0.298360        -8.1188
  62   2.0000      -0.197179        -5.3655
  63   0.0000      -0.006699        -0.1823
  64   0.0000       0.011605         0.3158
  65   0.0000       0.020487         0.5575
  66   0.0000       0.022437         0.6105
  67   0.0000       0.023573         0.6414

MULLIKEN ATOMIC CHARGES
-----------------------
   0 C :   -1.259660
   1 N :   -0.273615
   2 C :   -0.934660
   3 C :   -0.666661
   4 H :    0.435426
   5 H :    0.278754
   6 C :    0.797516
   7 C :    1.097056
   8 N :   -0.665014
   9 C :   -0.658872
  10 H :    0.135635
  11 H :   -0.264982
  12 H :    0.396504
  13 H :    0.216328
  14 H :    0.273386
  15 O :   -0.758848
  16 F :   -0.413207
  17 C :   -0.545812
  18 H :    0.419607
  19 H :    0.351649
  20 C :   -0.454845
  21 C :   -0.341808
  22 H :    0.181959
  23 H :    0.405940
  24 H :    0.324052
  25 H :    0.404934
  26 C :    0.609998
  27 H :    0.423050
  28 H :    0.320405
  29 C :   -0.608948
  30 H :    0.342484
  31 H :   -0.565309
  32 C :   -1.121306
  33 H :    0.413589
  34 H :    0.332259
  35 H :    0.395835
  36 H :    0.229810
  37 H :    0.375280
  38 H :    0.372092
Sum of atomic charges:   -0.0000000

LOEWDIN ATOMIC CHARGES
----------------------
   0 C :   -0.190597
   1 N :    0.026011
   2 C :   -0.195850
   3 C :   -0.089989
   4 H :    0.128159
   5 H :    0.123025
   6 C :   -0.427985
   7 C :   -0.544961
   8 N :    0.112456
   9 C :    0.014151
  10 H :    0.010401
  11 H :   -0.024079
  12 H :    0.069500
  13 H :    0.085768
  14 H :    0.106965
  15 O :    0.071330
  16 F :    0.184083
  17 C :   -0.190857
  18 H :    0.123712
  19 H :    0.105209
  20 C :   -0.218407
  21 C :   -0.209435
  22 H :    0.111583
  23 H :    0.125054
  24 H :    0.115487
  25 H :    0.120082
  26 C :   -0.219135
  27 H :    0.112986
  28 H :    0.115895
  29 C :   -0.221564
  30 H :    0.128808
  31 H :    0.080195
  32 C :   -0.214040
  33 H :    0.116685
  34 H :    0.112610
  35 H :    0.119143
  36 H :    0.103440
  37 H :    0.112656
  38 H :    0.111506

  Mayer bond orders larger than 0.100000
B(  0-C ,  1-N ) :   0.9239 B(  0-C ,  7-C ) :  -0.1992 B(  0-C ,  8-N ) :   0.1355
B(  0-C , 17-C ) :   0.4328 B(  0-C , 18-H ) :   0.8638 B(  0-C , 19-H ) :   0.9374
B(  0-C , 27-H ) :  -0.1402 B(  0-C , 31-H ) :   0.1026 B(  1-N ,  7-C ) :   1.0149
B(  1-N , 12-H ) :   0.6525 B(  1-N , 15-O ) :  -0.1400 B(  2-C ,  3-C ) :   0.6163
B(  2-C ,  6-C ) :   0.1087 B(  2-C , 20-C ) :   0.1894 B(  2-C , 21-C ) :   0.5886
B(  2-C , 24-H ) :   0.9959 B(  2-C , 25-H ) :   0.9077 B(  3-C ,  4-H ) :   0.8466
B(  3-C ,  5-H ) :   1.0786 B(  3-C ,  6-C ) :   0.8505 B(  3-C , 20-C ) :   0.1231
B(  3-C , 21-C ) :  -0.1774 B(  6-C , 15-O ) :   1.5291 B(  6-C , 16-F ) :   0.6548
B(  7-C ,  8-N ) :   0.7480 B(  7-C ,  9-C ) :   1.0445 B(  7-C , 10-H ) :  -0.3011
B(  8-N , 13-H ) :   1.0125 B(  8-N , 14-H ) :   0.9413 B(  9-C , 10-H ) :   1.3871
B(  9-C , 11-H ) :   0.8919 B( 15-O , 16-F ) :   0.1346 B( 17-C , 26-C ) :   0.4226
B( 17-C , 27-H ) :   0.9375 B( 17-C , 28-H ) :   0.8832 B( 17-C , 29-C ) :   0.3410
B( 17-C , 30-H ) :  -0.1018 B( 20-C , 21-C ) :   0.1682 B( 20-C , 22-H ) :  -0.1357
B( 20-C , 26-C ) :   0.1382 B( 20-C , 29-C ) :  -0.1485 B( 20-C , 32-C ) :   0.6377
B( 20-C , 35-H ) :   0.8539 B( 20-C , 36-H ) :   1.1010 B( 21-C , 22-H ) :   1.0880
B( 21-C , 23-H ) :   0.8593 B( 21-C , 29-C ) :   0.1462 B( 21-C , 32-C ) :   0.1650
B( 21-C , 36-H ) :  -0.1752 B( 26-C , 29-C ) :   0.3340 B( 26-C , 30-H ) :   0.9684
B( 26-C , 31-H ) :   0.7680 B( 26-C , 32-C ) :   0.1308 B( 26-C , 34-H ) :  -0.1028
B( 29-C , 31-H ) :  -0.1318 B( 29-C , 32-C ) :   0.5819 B( 29-C , 33-H ) :   0.8424
B( 29-C , 34-H ) :   1.0420 B( 32-C , 37-H ) :   0.9689 B( 32-C , 38-H ) :   0.9709

Dispersion correction           -0.002738594
FINAL SINGLE POINT ENERGY      -755.609647874872

DIPOLE MOMENT
-------------
                                X             Y             Z
Electronic contribution:     12.37895       8.54054       4.37219
Nuclear contribution   :    -13.25777      -8.13937      -5.31678
                        -----------------------------------------
Total Dipole Moment    :     -0.87882       0.40117      -0.94459
                        -----------------------------------------
Magnitude (a.u.)       :      1.35111
Magnitude (Debye)      :      3.43426

Rotational constants in cm-1:     0.020021     0.013636     0.009443
Rotational constants in MHz :   600.208195   408.782966   283.102361

                             ****ORCA TERMINATED NORMALLY****
TOTAL RUN TIME: 0 days 0 hours 10 minutes 9 seconds 170 msec
