                         Program Version 5.0.0 -  RELEASE  -
|  1> !LC-BLYP RIJCOSX def2-SVPD def2/J TightSCF
|  2> *xyz -1 1
|  3> C          3.34350        3.35457       -3.59200
|  4> C          2.95263        1.86308       -3.57485
|  5> C          4.12921        0.89839       -3.41895
|  6> H          3.73369       -0.10060       -3.23763
|  7> H          4.71910        0.86256       -4.33901
|  8> C          5.01734        1.31521       -2.22130
|  9> H          2.27894        1.73525       -2.72550
| 10> H          2.37747        1.62579       -4.47587
| 11> O          4.73706        0.85411       -1.12283
| 12> O          5.92815        2.16811       -2.49136
| 13> H          4.00801        3.53975       -4.40994
| 14> H          3.83025        3.60631       -2.67298
| 15> H          2.46347        3.95263       -3.70497
| 16> *
| 17> %MaxCore 64000
| 18>
| 19> %pal nprocs 4
| 20> end
| 21>
| 22> %scf
| 23>   MaxIter 150
| 24> end
| 25>
| 26>
| 27>                          ****END OF INPUT****

CARTESIAN COORDINATES (ANGSTROEM)
---------------------------------
  C      3.343500    3.354570   -3.592000
  C      2.952630    1.863080   -3.574850
  C      4.129210    0.898390   -3.418950
  H      3.733690   -0.100600   -3.237630
  H      4.719100    0.862560   -4.339010
  C      5.017340    1.315210   -2.221300
  H      2.278940    1.735250   -2.725500
  H      2.377470    1.625790   -4.475870
  O      4.737060    0.854110   -1.122830
  O      5.928150    2.168110   -2.491360
  H      4.008010    3.539750   -4.409940
  H      3.830250    3.606310   -2.672980
  H      2.463470    3.952630   -3.704970

 Total Charge           Charge          ....   -1
 Multiplicity           Mult            ....    1
 Number of Electrons    NEL             ....   48
 Basis Dimension        Dim             ....  182

ORBITAL ENERGIES
----------------

  NO   OCC          E(Eh)            E(eV)
   0   2.0000     -18.707130      -509.0469
   1   2.0000     -18.695256      -508.7238
   2   2.0000      -9.978763      -271.5360
   3   2.0000      -9.939726      -270.4737
   4   2.0000      -9.923919      -270.0436
   5   2.0000      -9.912017      -269.7197
   6   2.0000      -0.917374       -24.9630
   7   2.0000      -0.818820       -22.2812
   8   2.0000      -0.739488       -20.1225
   9   2.0000      -0.642333       -17.4788
  10   2.0000      -0.545762       -14.8509
  11   2.0000      -0.437631       -11.9085
  12   2.0000      -0.405382       -11.0310
  13   2.0000      -0.393081       -10.6963
  14   2.0000      -0.354683        -9.6514
  15   2.0000      -0.339691        -9.2435
  16   2.0000      -0.317866        -8.6496
  17   2.0000      -0.305518        -8.3136
  18   2.0000      -0.300946        -8.1892
  19   2.0000      -0.274842        -7.4788
  20   2.0000      -0.273070        -7.4306
  21   2.0000      -0.155760        -4.2384
  22   2.0000      -0.145362        -3.9555
  23   2.0000      -0.134609        -3.6629
  24   0.0000       0.198361         5.3977
  25   0.0000       0.222100         6.0436
  26   0.0000       0.235731         6.4146
  27   0.0000       0.248684         6.7670
  28   0.0000       0.278595         7.5810

MULLIKEN ATOMIC CHARGES
-----------------------
   0 C :    0.933167
   1 C :   -0.285480
   2 C :    0.365065
   3 H :   -0.094861
   4 H :   -0.093690
   5 C :    0.038974
   6 H :   -0.099495
   7 H :   -0.278355
   8 O :   -0.471981
   9 O :   -0.569044
  10 H :   -0.118548
  11 H :   -0.086747
  12 H :   -0.239004
Sum of atomic charges:   -1.0000000

LOEWDIN ATOMIC CHARGES
----------------------
   0 C :    0.099980
   1 C :   -0.093851
   2 C :   -0.014260
   3 H :    0.004360
   4 H :    0.010814
   5 C :   -0.346673
   6 H :    0.016408
   7 H :    0.003093
   8 O :   -0.280028
   9 O :   -0.321781
  10 H :   -0.018058
  11 H :   -0.022607
  12 H :   -0.037398

  Mayer bond orders larger than 0.100000
B(  0-C ,  1-C ) :   1.2889 B(  0-C ,  6-H ) :   0.1084 B(  0-C ,  7-H ) :   0.1050
B(  0-C , 10-H ) :   0.7270 B(  0-C , 11-H ) :   0.7378 B(  0-C , 12-H ) :   0.7049
B(  1-C ,  2-C ) :   1.2212 B(  1-C ,  3-H ) :   0.1702 B(  1-C ,  4-H ) :   0.1626
B(  1-C ,  6-H ) :   0.8784 B(  1-C ,  7-H ) :   0.9359 B(  1-C , 10-H ) :   0.2264
B(  1-C , 11-H ) :   0.2611 B(  1-C , 12-H ) :   0.2507 B(  2-C ,  3-H ) :   0.8090
B(  2-C ,  4-H ) :   0.8597 B(  2-C ,  5-C ) :   0.9817 B(  2-C ,  6-H ) :   0.1299
B(  3-H ,  5-C ) :   0.1551 B(  4-H ,  5-C ) :   0.1083 B(  5-C ,  8-O ) :   1.6840
B(  5-C ,  9-O ) :   1.6264 B(  5-C , 11-H ) :   0.1019 B( 10-H , 11-H ) :   0.1015

FINAL SINGLE POINT ENERGY      -306.228481352810

DIPOLE MOMENT
-------------
                                X             Y             Z
Electronic contribution:      4.89117      -2.56229       4.42176
Nuclear contribution   :     -6.63819       2.74067      -6.05656
                        -----------------------------------------
Total Dipole Moment    :     -1.74702       0.17838      -1.63480
                        -----------------------------------------
Magnitude (a.u.)       :      2.39927
Magnitude (Debye)      :      6.09845

Rotational constants in cm-1:     0.190880     0.089683     0.076466
Rotational constants in MHz :  5722.446013  2688.617255  2292.390699

                             ****ORCA TERMINATED NORMALLY****
TOTAL RUN TIME: 0 days 0 hours 0 minutes 19 seconds 91 msec
