                         Program Version 5.0.0 -  RELEASE  -
|  1> !LC-BLYP RIJCOSX def2-SVPD def2/J TightSCF
|  2> *xyz 1 1
|  3> C          3.34350        3.35457       -3.59200
|  4> C          2.95263        1.86308       -3.57485
|  5> C          4.12921        0.89839       -3.41895
|  6> C          4.25587        3.70385       -4.72605
|  7> N          3.73403        4.29378       -5.80077
|  8> N          5.51504        3.40725       -4.63718
|  9> H          6.14919        3.60120       -5.39905
| 10> H          5.81358        2.89950       -3.80879
| 11> H          2.74138        4.51311       -5.82470
| 12> H          4.28755        4.52126       -6.61434
| 13> H          2.27894        1.73525       -2.72550
| 14> H          2.37747        1.62579       -4.47587
| 15> H          3.86125        3.59725       -2.66298
| 16> H          2.44649        3.97346       -3.65656
| 17> H          4.79753        1.01430       -4.24649
| 18> H          3.76482       -0.10731       -3.39293
| 19> H          4.64840        1.11330       -2.50837
| 20> *
| 21> %MaxCore 64000
| 22>
| 23> %pal nprocs 4
| 24> end
| 25>
| 26> %scf
| 27>   MaxIter 150
| 28> end
| 29>
| 30>
| 31>                          ****END OF INPUT****

CARTESIAN COORDINATES (ANGSTROEM)
---------------------------------
  C      3.343500    3.354570   -3.592000
  C      2.952630    1.863080   -3.574850
  C      4.129210    0.898390   -3.418950
  C      4.255870    3.703850   -4.726050
  N      3.734030    4.293780   -5.800770
  N      5.515040    3.407250   -4.637180
  H      6.149190    3.601200   -5.399050
  H      5.813580    2.899500   -3.808790
  H      2.741380    4.513110   -5.824700
  H      4.287550    4.521260   -6.614340
  H      2.278940    1.735250   -2.725500
  H      2.377470    1.625790   -4.475870
  H      3.861250    3.597250   -2.662980
  H      2.446490    3.973460   -3.656560
  H      4.797530    1.014300   -4.246490
  H      3.764820   -0.107310   -3.392930
  H      4.648400    1.113300   -2.508370

 Total Charge           Charge          ....    1
 Multiplicity           Mult            ....    1
 Number of Electrons    NEL             ....   48
 Basis Dimension        Dim             ....  208

ORBITAL ENERGIES
----------------

  NO   OCC          E(Eh)            E(eV)
   0   2.0000     -14.433821      -392.7642
   1   2.0000     -14.429513      -392.6470
   2   2.0000     -10.406573      -283.1772
   3   2.0000     -10.278473      -279.6915
   4   2.0000     -10.247144      -278.8390
   5   2.0000     -10.216946      -278.0172
   6   2.0000      -1.296477       -35.2789
   7   2.0000      -1.200149       -32.6577
   8   2.0000      -1.077854       -29.3299
   9   2.0000      -0.993667       -27.0391
  10   2.0000      -0.934032       -25.4163
  11   2.0000      -0.895095       -24.3568
  12   2.0000      -0.877165       -23.8689
  13   2.0000      -0.834559       -22.7095
  14   2.0000      -0.801375       -21.8065
  15   2.0000      -0.763336       -20.7714
  16   2.0000      -0.727684       -19.8013
  17   2.0000      -0.712071       -19.3764
  18   2.0000      -0.677631       -18.4393
  19   2.0000      -0.661489       -18.0000
  20   2.0000      -0.608976       -16.5711
  21   2.0000      -0.601134       -16.3577
  22   2.0000      -0.596485       -16.2312
  23   2.0000      -0.581683       -15.8284
  24   0.0000      -0.127799        -3.4776
  25   0.0000      -0.095287        -2.5929
  26   0.0000      -0.055795        -1.5183
  27   0.0000      -0.050687        -1.3793
  28   0.0000      -0.027767        -0.7556

MULLIKEN ATOMIC CHARGES
-----------------------
   0 C :    0.214329
   1 C :   -0.091185
   2 C :    1.025444
   3 C :    0.456551
   4 N :    0.195413
   5 N :    0.316415
   6 H :   -0.169578
   7 H :    0.052501
   8 H :    0.018875
   9 H :   -0.150768
  10 H :   -0.103088
  11 H :   -0.153571
  12 H :   -0.014804
  13 H :   -0.128411
  14 H :   -0.159808
  15 H :   -0.232968
  16 H :   -0.075347
Sum of atomic charges:    1.0000000

LOEWDIN ATOMIC CHARGES
----------------------
   0 C :    0.032799
   1 C :   -0.043989
   2 C :    0.124265
   3 C :   -0.062103
   4 N :    0.292902
   5 N :    0.300332
   6 H :    0.058025
   7 H :    0.045200
   8 H :    0.052064
   9 H :    0.044268
  10 H :    0.044752
  11 H :    0.039000
  12 H :    0.052614
  13 H :    0.044327
  14 H :   -0.030726
  15 H :    0.007056
  16 H :   -0.000787

  Mayer bond orders larger than 0.100000
B(  0-C ,  1-C ) :   1.1935 B(  0-C ,  3-C ) :   1.0849 B(  0-C ,  4-N ) :   0.1292
B(  0-C ,  5-N ) :   0.1479 B(  0-C , 10-H ) :   0.1434 B(  0-C , 11-H ) :   0.1058
B(  0-C , 12-H ) :   0.7965 B(  0-C , 13-H ) :   0.8598 B(  1-C ,  2-C ) :   1.2790
B(  1-C , 10-H ) :   0.8519 B(  1-C , 11-H ) :   0.9526 B(  1-C , 12-H ) :   0.1324
B(  1-C , 13-H ) :   0.1180 B(  1-C , 14-H ) :   0.2346 B(  1-C , 15-H ) :   0.2463
B(  1-C , 16-H ) :   0.2334 B(  2-C , 10-H ) :   0.1038 B(  2-C , 14-H ) :   0.7244
B(  2-C , 15-H ) :   0.7522 B(  2-C , 16-H ) :   0.7178 B(  3-C ,  4-N ) :   1.1389
B(  3-C ,  5-N ) :   1.2560 B(  3-C ,  6-H ) :  -0.1886 B(  3-C ,  8-H ) :  -0.1069
B(  3-C ,  9-H ) :  -0.1633 B(  3-C , 13-H ) :   0.1310 B(  4-N ,  5-N ) :   0.1551
B(  4-N ,  8-H ) :   1.1091 B(  4-N ,  9-H ) :   1.2863 B(  5-N ,  6-H ) :   1.3344
B(  5-N ,  7-H ) :   1.0234 B(  6-H ,  7-H ) :  -0.2057 B(  8-H ,  9-H ) :  -0.1911

FINAL SINGLE POINT ENERGY      -267.434728956527

DIPOLE MOMENT
-------------
                                X             Y             Z
Electronic contribution:      1.42899       4.43147      -2.94143
Nuclear contribution   :     -0.87169      -3.40560       1.97790
                        -----------------------------------------
Total Dipole Moment    :      0.55729       1.02587      -0.96353
                        -----------------------------------------
Magnitude (a.u.)       :      1.51373
Magnitude (Debye)      :      3.84760

Rotational constants in cm-1:     0.188632     0.081113     0.066356
Rotational constants in MHz :  5655.057814  2431.708101  1989.304146

                             ****ORCA TERMINATED NORMALLY****
TOTAL RUN TIME: 0 days 0 hours 0 minutes 26 seconds 898 msec
