                         Program Version 5.0.0 -  RELEASE  -
|  1> !LC-BLYP RIJCOSX def2-SVPD def2/J TightSCF xyzfile
|  2>
|  3> *xyzfile 0 1 B.xyz
|  4>
|  5> %MaxCore 64000
|  6>
|  7> %pal nprocs 4
|  8> end
|  9>
| 10> %scf
| 11>   MaxIter 150
| 12> end
| 13>
| 14>
| 15>                          ****END OF INPUT****

CARTESIAN COORDINATES (ANGSTROEM)
---------------------------------
  C      3.343500    3.354571   -3.591998
  C      2.952633    1.863077   -3.574849
  C      4.129209    0.898394   -3.418950
  H      3.733687   -0.100605   -3.237633
  H      4.719095    0.862556   -4.339005
  C      5.017344    1.315212   -2.221305
  C      4.255868    3.703851   -4.726054
  N      3.734032    4.293783   -5.800770
  N      5.515039    3.407255   -4.637185
  H      6.149187    3.601203   -5.399053
  H      5.813584    2.899504   -3.808785
  H      2.741380    4.513109   -5.824701
  H      4.287548    4.521260   -6.614341
  H      2.278938    1.735250   -2.725496
  H      2.377466    1.625787   -4.475869
  O      4.737055    0.854112   -1.122825
  O      5.928146    2.168108   -2.491365
  H      3.861246    3.597252   -2.662979
  H      2.446493    3.973461   -3.656556

 Total Charge           Charge          ....    0
 Multiplicity           Mult            ....    1
 Number of Electrons    NEL             ....   70
 Basis Dimension        Dim             ....  266

ORBITAL ENERGIES
----------------

  NO   OCC          E(Eh)            E(eV)
   0   2.0000     -18.869602      -513.4680
   1   2.0000     -18.858528      -513.1666
   2   2.0000     -14.289734      -388.8434
   3   2.0000     -14.249700      -387.7541
   4   2.0000     -10.252474      -278.9840
   5   2.0000     -10.140197      -275.9288
   6   2.0000     -10.130651      -275.6690
   7   2.0000     -10.106689      -275.0170
   8   2.0000     -10.066364      -273.9197
   9   2.0000      -1.142440       -31.0874
  10   2.0000      -1.080908       -29.4130
  11   2.0000      -1.045006       -28.4360
  12   2.0000      -0.989419       -26.9234
  13   2.0000      -0.930052       -25.3080
  14   2.0000      -0.844125       -22.9698
  15   2.0000      -0.782886       -21.3034
  16   2.0000      -0.741247       -20.1704
  17   2.0000      -0.728120       -19.8131
  18   2.0000      -0.692459       -18.8428
  19   2.0000      -0.650124       -17.6908
  20   2.0000      -0.614876       -16.7316
  21   2.0000      -0.593797       -16.1580
  22   2.0000      -0.570008       -15.5107
  23   2.0000      -0.550895       -14.9906
  24   2.0000      -0.530643       -14.4395
  25   2.0000      -0.501708       -13.6522
  26   2.0000      -0.486434       -13.2365
  27   2.0000      -0.474414       -12.9095
  28   2.0000      -0.470592       -12.8054
  29   2.0000      -0.442091       -12.0299
  30   2.0000      -0.434540       -11.8244
  31   2.0000      -0.430263       -11.7081
  32   2.0000      -0.322402        -8.7730
  33   2.0000      -0.315951        -8.5975
  34   2.0000      -0.294634        -8.0174
  35   0.0000       0.020666         0.5624
  36   0.0000       0.024705         0.6723
  37   0.0000       0.061435         1.6717
  38   0.0000       0.082568         2.2468
  39   0.0000       0.090454         2.4614

MULLIKEN ATOMIC CHARGES
-----------------------
   0 C :    0.272916
   1 C :    0.137559
   2 C :    0.463653
   3 H :   -0.244398
   4 H :    0.006183
   5 C :    0.154614
   6 C :    0.359799
   7 N :    0.226591
   8 N :    0.723875
   9 H :   -0.202530
  10 H :   -0.413958
  11 H :   -0.046801
  12 H :   -0.198086
  13 H :   -0.031257
  14 H :   -0.249829
  15 O :   -0.405546
  16 O :   -0.475171
  17 H :    0.145487
  18 H :   -0.223103
Sum of atomic charges:    0.0000000

LOEWDIN ATOMIC CHARGES
----------------------
   0 C :    0.039172
   1 C :   -0.010102
   2 C :    0.019517
   3 H :    0.028278
   4 H :    0.013276
   5 C :   -0.266125
   6 C :   -0.061055
   7 N :    0.256580
   8 N :    0.319775
   9 H :    0.042891
  10 H :   -0.142865
  11 H :    0.030526
  12 H :    0.024267
  13 H :    0.041889
  14 H :    0.024068
  15 O :   -0.197550
  16 O :   -0.239595
  17 H :    0.047505
  18 H :    0.029549

  Mayer bond orders larger than 0.100000
B(  0-C ,  1-C ) :   1.1923 B(  0-C ,  6-C ) :   1.0925 B(  0-C ,  7-N ) :   0.1034
B(  0-C , 13-H ) :   0.1453 B(  0-C , 14-H ) :   0.1441 B(  0-C , 17-H ) :   0.6769
B(  0-C , 18-H ) :   0.8364 B(  1-C ,  2-C ) :   1.2490 B(  1-C ,  3-H ) :   0.2110
B(  1-C ,  4-H ) :   0.1982 B(  1-C , 13-H ) :   0.8143 B(  1-C , 14-H ) :   0.8921
B(  1-C , 17-H ) :   0.1633 B(  1-C , 18-H ) :   0.1715 B(  2-C ,  3-H ) :   0.7402
B(  2-C ,  4-H ) :   0.7878 B(  2-C ,  5-C ) :   0.9730 B(  2-C , 13-H ) :   0.1479
B(  3-H ,  5-C ) :   0.1759 B(  5-C , 15-O ) :   1.7814 B(  5-C , 16-O ) :   1.3726
B(  6-C ,  7-N ) :   1.0805 B(  6-C ,  8-N ) :   1.2422 B(  6-C ,  9-H ) :  -0.2160
B(  6-C , 11-H ) :  -0.1351 B(  6-C , 12-H ) :  -0.1484 B(  6-C , 17-H ) :   0.1525
B(  6-C , 18-H ) :   0.1368 B(  7-N ,  8-N ) :   0.1495 B(  7-N , 11-H ) :   1.1772
B(  7-N , 12-H ) :   1.2958 B(  8-N ,  9-H ) :   1.2509 B(  8-N , 10-H ) :   1.0749
B(  9-H , 10-H ) :  -0.2394 B( 10-H , 16-O ) :   0.3373 B( 11-H , 12-H ) :  -0.1923
B( 15-O , 16-O ) :   0.1299

FINAL SINGLE POINT ENERGY      -455.159388568420

DIPOLE MOMENT
-------------
                                X             Y             Z
Electronic contribution:      3.86318       0.04175       2.51450
Nuclear contribution   :     -5.42217       2.65262      -7.07590
                        -----------------------------------------
Total Dipole Moment    :     -1.55899       2.69437      -4.56141
                        -----------------------------------------
Magnitude (a.u.)       :      5.52237
Magnitude (Debye)      :     14.03674

Rotational constants in cm-1:     0.107541     0.035862     0.030371
Rotational constants in MHz :  3223.996852  1075.120464   910.508313

                             ****ORCA TERMINATED NORMALLY****
TOTAL RUN TIME: 0 days 0 hours 1 minutes 2 seconds 710 msec
