                         Program Version 5.0.0 -  RELEASE  -
|  1> !LC-BLYP RIJCOSX def2-SVPD def2/J TightSCF
|  2> *xyz 0 1
|  3> C          3.34350        3.35457       -3.59200
|  4> C          2.95263        1.86308       -3.57485
|  5> C          4.12921        0.89839       -3.41895
|  6> H          3.73369       -0.10060       -3.23763
|  7> H          4.71910        0.86256       -4.33901
|  8> C          5.01734        1.31521       -2.22130
|  9> H          2.27894        1.73525       -2.72550
| 10> H          2.37747        1.62579       -4.47587
| 11> F          4.73706        0.85411       -1.12283
| 12> O          5.92815        2.16811       -2.49136
| 13> H          4.00801        3.53975       -4.40994
| 14> H          3.83025        3.60631       -2.67298
| 15> H          2.46347        3.95263       -3.70497
| 16> *
| 17> %MaxCore 64000
| 18>
| 19> %pal nprocs 4
| 20> end
| 21>
| 22> %scf
| 23>   MaxIter 150
| 24> end
| 25>
| 26>
| 27>                          ****END OF INPUT****

CARTESIAN COORDINATES (ANGSTROEM)
---------------------------------
  C      3.343500    3.354570   -3.592000
  C      2.952630    1.863080   -3.574850
  C      4.129210    0.898390   -3.418950
  H      3.733690   -0.100600   -3.237630
  H      4.719100    0.862560   -4.339010
  C      5.017340    1.315210   -2.221300
  H      2.278940    1.735250   -2.725500
  H      2.377470    1.625790   -4.475870
  F      4.737060    0.854110   -1.122830
  O      5.928150    2.168110   -2.491360
  H      4.008010    3.539750   -4.409940
  H      3.830250    3.606310   -2.672980
  H      2.463470    3.952630   -3.704970

 Total Charge           Charge          ....    0
 Multiplicity           Mult            ....    1
 Number of Electrons    NEL             ....   48
 Basis Dimension        Dim             ....  182

ORBITAL ENERGIES
----------------

  NO   OCC          E(Eh)            E(eV)
   0   2.0000     -24.562852      -668.3892
   1   2.0000     -18.965847      -516.0869
   2   2.0000     -10.274575      -279.5854
   3   2.0000     -10.116183      -275.2753
   4   2.0000     -10.104064      -274.9455
   5   2.0000     -10.073529      -274.1146
   6   2.0000      -1.414762       -38.4976
   7   2.0000      -1.109754       -30.1979
   8   2.0000      -0.918810       -25.0021
   9   2.0000      -0.830605       -22.6019
  10   2.0000      -0.776384       -21.1265
  11   2.0000      -0.720346       -19.6016
  12   2.0000      -0.677356       -18.4318
  13   2.0000      -0.654459       -17.8087
  14   2.0000      -0.606780       -16.5113
  15   2.0000      -0.576697       -15.6927
  16   2.0000      -0.561770       -15.2865
  17   2.0000      -0.519770       -14.1437
  18   2.0000      -0.498485       -13.5645
  19   2.0000      -0.467963       -12.7339
  20   2.0000      -0.462929       -12.5969
  21   2.0000      -0.452250       -12.3064
  22   2.0000      -0.438704       -11.9377
  23   2.0000      -0.388298       -10.5661
  24   0.0000       0.044536         1.2119
  25   0.0000       0.065446         1.7809
  26   0.0000       0.094165         2.5624
  27   0.0000       0.099915         2.7188
  28   0.0000       0.107217         2.9175

MULLIKEN ATOMIC CHARGES
-----------------------
   0 C :    0.959114
   1 C :   -0.231539
   2 C :    0.338296
   3 H :   -0.076594
   4 H :   -0.071539
   5 C :    0.465897
   6 H :   -0.108481
   7 H :   -0.241494
   8 F :   -0.236679
   9 O :   -0.368428
  10 H :   -0.111285
  11 H :   -0.102696
  12 H :   -0.214571
Sum of atomic charges:    0.0000000

LOEWDIN ATOMIC CHARGES
----------------------
   0 C :    0.119944
   1 C :   -0.071753
   2 C :    0.032691
   3 H :    0.026874
   4 H :    0.043070
   5 C :   -0.055986
   6 H :    0.025855
   7 H :    0.029934
   8 F :    0.018567
   9 O :   -0.128547
  10 H :   -0.004682
  11 H :   -0.022234
  12 H :   -0.013731

  Mayer bond orders larger than 0.100000
B(  0-C ,  1-C ) :   1.3064 B(  0-C ,  6-H ) :   0.1009 B(  0-C , 10-H ) :   0.7316
B(  0-C , 11-H ) :   0.7422 B(  0-C , 12-H ) :   0.7144 B(  1-C ,  2-C ) :   1.2135
B(  1-C ,  3-H ) :   0.1642 B(  1-C ,  4-H ) :   0.1584 B(  1-C ,  6-H ) :   0.8729
B(  1-C ,  7-H ) :   0.9347 B(  1-C , 10-H ) :   0.2177 B(  1-C , 11-H ) :   0.2434
B(  1-C , 12-H ) :   0.2407 B(  2-C ,  3-H ) :   0.8200 B(  2-C ,  4-H ) :   0.8643
B(  2-C ,  5-C ) :   1.0235 B(  2-C ,  6-H ) :   0.1161 B(  5-C ,  8-F ) :   0.8880
B(  5-C ,  9-O ) :   1.9234 B(  8-F ,  9-O ) :   0.1218

FINAL SINGLE POINT ENERGY      -330.733641191796

DIPOLE MOMENT
-------------
                                X             Y             Z
Electronic contribution:      6.05511      -4.37840       7.56371
Nuclear contribution   :     -7.06456       3.75953      -7.86734
                        -----------------------------------------
Total Dipole Moment    :     -1.00944      -0.61886      -0.30363
                        -----------------------------------------
Magnitude (a.u.)       :      1.22236
Magnitude (Debye)      :      3.10698

Rotational constants in cm-1:     0.185871     0.085512     0.073500
Rotational constants in MHz :  5572.269993  2563.593529  2203.466497

                             ****ORCA TERMINATED NORMALLY****
TOTAL RUN TIME: 0 days 0 hours 0 minutes 19 seconds 822 msec
