                         Program Version 5.0.0 -  RELEASE  -
|  1> !LC-BLYP RIJCOSX def2-SVPD def2/J TightSCF
|  2> *xyz 0 1
|  3> C          3.34350        3.35457       -3.59200
|  4> C          2.95263        1.86308       -3.57485
|  5> C          4.12921        0.89839       -3.41895
|  6> C          4.25587        3.70385       -4.72605
|  7> C          3.73403        4.29378       -5.80077
|  8> N          5.51504        3.40725       -4.63718
|  9> H          6.14919        3.60120       -5.39905
| 10> H          5.81358        2.89950       -3.80879
| 11> H          2.74138        4.51311       -5.82470
| 12> H          4.28755        4.52126       -6.61434
| 13> H          2.27894        1.73525       -2.72550
| 14> H          2.37747        1.62579       -4.47587
| 15> H          3.86125        3.59725       -2.66298
| 16> H          2.44649        3.97346       -3.65656
| 17> H          4.79753        1.01430       -4.24649
| 18> H          3.76482       -0.10731       -3.39293
| 19> H          4.64840        1.11330       -2.50837
| 20> *
| 21> %MaxCore 64000
| 22>
| 23> %pal nprocs 4
| 24> end
| 25>
| 26> %scf
| 27>   MaxIter 150
| 28> end
| 29>
| 30>
| 31>                          ****END OF INPUT****

CARTESIAN COORDINATES (ANGSTROEM)
---------------------------------
  C      3.343500    3.354570   -3.592000
  C      2.952630    1.863080   -3.574850
  C      4.129210    0.898390   -3.418950
  C      4.255870    3.703850   -4.726050
  C      3.734030    4.293780   -5.800770
  N      5.515040    3.407250   -4.637180
  H      6.149190    3.601200   -5.399050
  H      5.813580    2.899500   -3.808790
  H      2.741380    4.513110   -5.824700
  H      4.287550    4.521260   -6.614340
  H      2.278940    1.735250   -2.725500
  H      2.377470    1.625790   -4.475870
  H      3.861250    3.597250   -2.662980
  H      2.446490    3.973460   -3.656560
  H      4.797530    1.014300   -4.246490
  H      3.764820   -0.107310   -3.392930
  H      4.648400    1.113300   -2.508370

 Total Charge           Charge          ....    0
 Multiplicity           Mult            ....    1
 Number of Electrons    NEL             ....   48
 Basis Dimension        Dim             ....  208

ORBITAL ENERGIES
----------------

  NO   OCC          E(Eh)            E(eV)
   0   2.0000     -14.191047      -386.1580
   1   2.0000     -10.106544      -275.0130
   2   2.0000     -10.082819      -274.3675
   3   2.0000     -10.082572      -274.3607
   4   2.0000     -10.071006      -274.0460
   5   2.0000     -10.017035      -272.5774
   6   2.0000      -1.032277       -28.0897
   7   2.0000      -0.897085       -24.4109
   8   2.0000      -0.838166       -22.8077
   9   2.0000      -0.782806       -21.3012
  10   2.0000      -0.712594       -19.3907
  11   2.0000      -0.669182       -18.2094
  12   2.0000      -0.631669       -17.1886
  13   2.0000      -0.592224       -16.1152
  14   2.0000      -0.558296       -15.1920
  15   2.0000      -0.538047       -14.6410
  16   2.0000      -0.515109       -14.0168
  17   2.0000      -0.492255       -13.3949
  18   2.0000      -0.475168       -12.9300
  19   2.0000      -0.463079       -12.6010
  20   2.0000      -0.439216       -11.9517
  21   2.0000      -0.426751       -11.6125
  22   2.0000      -0.419855       -11.4248
  23   2.0000      -0.282296        -7.6817
  24   0.0000       0.070638         1.9222
  25   0.0000       0.096445         2.6244
  26   0.0000       0.098849         2.6898
  27   0.0000       0.105589         2.8732
  28   0.0000       0.127114         3.4589

MULLIKEN ATOMIC CHARGES
-----------------------
   0 C :    0.432141
   1 C :   -0.122602
   2 C :    1.004571
   3 C :   -0.243705
   4 C :    0.614146
   5 N :    0.469565
   6 H :   -0.221755
   7 H :   -0.103654
   8 H :   -0.250188
   9 H :   -0.613539
  10 H :   -0.131138
  11 H :   -0.196407
  12 H :   -0.117888
  13 H :   -0.035202
  14 H :   -0.142586
  15 H :   -0.258538
  16 H :   -0.083220
Sum of atomic charges:   -0.0000000

LOEWDIN ATOMIC CHARGES
----------------------
   0 C :   -0.007508
   1 C :   -0.067283
   2 C :    0.103620
   3 C :   -0.275967
   4 C :    0.173481
   5 N :    0.186994
   6 H :    0.017402
   7 H :   -0.002642
   8 H :   -0.082572
   9 H :   -0.088701
  10 H :    0.020768
  11 H :    0.029064
  12 H :    0.026617
  13 H :    0.028352
  14 H :   -0.032963
  15 H :   -0.014857
  16 H :   -0.013805

  Mayer bond orders larger than 0.100000
B(  0-C ,  1-C ) :   1.1576 B(  0-C ,  3-C ) :   1.1591 B(  0-C ,  4-C ) :   0.2004
B(  0-C ,  5-N ) :   0.1392 B(  0-C , 10-H ) :   0.1236 B(  0-C , 11-H ) :   0.1306
B(  0-C , 12-H ) :   0.6709 B(  0-C , 13-H ) :   0.8070 B(  1-C ,  2-C ) :   1.2623
B(  1-C , 10-H ) :   0.8485 B(  1-C , 11-H ) :   0.9591 B(  1-C , 12-H ) :   0.1538
B(  1-C , 13-H ) :   0.1354 B(  1-C , 14-H ) :   0.2403 B(  1-C , 15-H ) :   0.2557
B(  1-C , 16-H ) :   0.2434 B(  2-C , 10-H ) :   0.1039 B(  2-C , 14-H ) :   0.7541
B(  2-C , 15-H ) :   0.7229 B(  2-C , 16-H ) :   0.7111 B(  3-C ,  4-C ) :   1.5860
B(  3-C ,  5-N ) :   1.2573 B(  3-C ,  6-H ) :  -0.1031 B(  3-C ,  9-H ) :   0.1774
B(  3-C , 12-H ) :   0.2127 B(  3-C , 13-H ) :   0.1973 B(  4-C ,  5-N ) :   0.2880
B(  4-C ,  8-H ) :   0.9287 B(  4-C ,  9-H ) :   0.5360 B(  5-N ,  6-H ) :   1.2777
B(  5-N ,  7-H ) :   0.9928 B(  6-H ,  7-H ) :  -0.1839

FINAL SINGLE POINT ENERGY      -250.979626130470

DIPOLE MOMENT
-------------
                                X             Y             Z
Electronic contribution:      1.43151       2.65619      -1.21413
Nuclear contribution   :     -0.93682      -3.08083       1.62582
                        -----------------------------------------
Total Dipole Moment    :      0.49469      -0.42464       0.41168
                        -----------------------------------------
Magnitude (a.u.)       :      0.77105
Magnitude (Debye)      :      1.95985

Rotational constants in cm-1:     0.191400     0.084268     0.068511
Rotational constants in MHz :  5738.038424  2526.291061  2053.912421

                             ****ORCA TERMINATED NORMALLY****
TOTAL RUN TIME: 0 days 0 hours 0 minutes 27 seconds 216 msec
