                         Program Version 5.0.0 -  RELEASE  -
|  1> !LC-BLYP RIJCOSX def2-SVPD def2/J TightSCF
|  2> *xyz 0 1
|  3> C          3.34350        3.35457       -3.59200
|  4> C          2.95263        1.86308       -3.57485
|  5> C          4.12921        0.89839       -3.41895
|  6> H          3.73369       -0.10060       -3.23763
|  7> H          4.71910        0.86256       -4.33901
|  8> C          5.01734        1.31521       -2.22130
|  9> H          2.27894        1.73525       -2.72550
| 10> H          2.37747        1.62579       -4.47587
| 11> O          4.73706        0.85411       -1.12283
| 12> F          5.92815        2.16811       -2.49136
| 13> H          4.00801        3.53975       -4.40994
| 14> H          3.83025        3.60631       -2.67298
| 15> H          2.46347        3.95263       -3.70497
| 16> *
| 17> %MaxCore 64000
| 18>
| 19> %pal nprocs 4
| 20> end
| 21>
| 22> %scf
| 23>   MaxIter 150
| 24> end
| 25>
| 26>
| 27>                          ****END OF INPUT****

CARTESIAN COORDINATES (ANGSTROEM)
---------------------------------
  C      3.343500    3.354570   -3.592000
  C      2.952630    1.863080   -3.574850
  C      4.129210    0.898390   -3.418950
  H      3.733690   -0.100600   -3.237630
  H      4.719100    0.862560   -4.339010
  C      5.017340    1.315210   -2.221300
  H      2.278940    1.735250   -2.725500
  H      2.377470    1.625790   -4.475870
  O      4.737060    0.854110   -1.122830
  F      5.928150    2.168110   -2.491360
  H      4.008010    3.539750   -4.409940
  H      3.830250    3.606310   -2.672980
  H      2.463470    3.952630   -3.704970

 Total Charge           Charge          ....    0
 Multiplicity           Mult            ....    1
 Number of Electrons    NEL             ....   48
 Basis Dimension        Dim             ....  182

ORBITAL ENERGIES
----------------

  NO   OCC          E(Eh)            E(eV)
   0   2.0000     -24.541307      -667.8029
   1   2.0000     -18.975904      -516.3606
   2   2.0000     -10.270321      -279.4696
   3   2.0000     -10.115514      -275.2571
   4   2.0000     -10.104402      -274.9548
   5   2.0000     -10.082448      -274.3574
   6   2.0000      -1.374221       -37.3945
   7   2.0000      -1.141441       -31.0602
   8   2.0000      -0.920968       -25.0608
   9   2.0000      -0.830510       -22.5993
  10   2.0000      -0.761165       -20.7123
  11   2.0000      -0.718086       -19.5401
  12   2.0000      -0.657412       -17.8891
  13   2.0000      -0.634714       -17.2714
  14   2.0000      -0.613512       -16.6945
  15   2.0000      -0.571011       -15.5380
  16   2.0000      -0.560442       -15.2504
  17   2.0000      -0.523471       -14.2444
  18   2.0000      -0.513661       -13.9774
  19   2.0000      -0.491165       -13.3653
  20   2.0000      -0.460287       -12.5251
  21   2.0000      -0.454721       -12.3736
  22   2.0000      -0.446973       -12.1627
  23   2.0000      -0.399759       -10.8780
  24   0.0000       0.050182         1.3655
  25   0.0000       0.067984         1.8499
  26   0.0000       0.093118         2.5339
  27   0.0000       0.097965         2.6658
  28   0.0000       0.112275         3.0552

MULLIKEN ATOMIC CHARGES
-----------------------
   0 C :    0.945070
   1 C :   -0.201184
   2 C :    0.327989
   3 H :   -0.065451
   4 H :   -0.075201
   5 C :    0.452978
   6 H :   -0.090626
   7 H :   -0.244892
   8 O :   -0.291707
   9 F :   -0.299602
  10 H :   -0.124617
  11 H :   -0.126582
  12 H :   -0.206173
Sum of atomic charges:    0.0000000

LOEWDIN ATOMIC CHARGES
----------------------
   0 C :    0.118618
   1 C :   -0.069528
   2 C :    0.033549
   3 H :    0.036749
   4 H :    0.033909
   5 C :   -0.059492
   6 H :    0.031815
   7 H :    0.029625
   8 O :   -0.088816
   9 F :   -0.026717
  10 H :   -0.008662
  11 H :   -0.019532
  12 H :   -0.011517

  Mayer bond orders larger than 0.100000
B(  0-C ,  1-C ) :   1.3124 B(  0-C ,  6-H ) :   0.1040 B(  0-C ,  7-H ) :   0.1009
B(  0-C , 10-H ) :   0.7240 B(  0-C , 11-H ) :   0.7396 B(  0-C , 12-H ) :   0.7219
B(  1-C ,  2-C ) :   1.2260 B(  1-C ,  3-H ) :   0.1562 B(  1-C ,  4-H ) :   0.1574
B(  1-C ,  6-H ) :   0.8796 B(  1-C ,  7-H ) :   0.9343 B(  1-C , 10-H ) :   0.2123
B(  1-C , 11-H ) :   0.2411 B(  1-C , 12-H ) :   0.2376 B(  2-C ,  3-H ) :   0.8211
B(  2-C ,  4-H ) :   0.8654 B(  2-C ,  5-C ) :   1.0061 B(  2-C ,  6-H ) :   0.1201
B(  3-H ,  5-C ) :   0.1316 B(  5-C ,  8-O ) :   1.9892 B(  5-C ,  9-F ) :   0.8116
B(  8-O ,  9-F ) :   0.1268 B( 10-H , 11-H ) :   0.1026

FINAL SINGLE POINT ENERGY      -330.750396685624

DIPOLE MOMENT
-------------
                                X             Y             Z
Electronic contribution:      8.04613      -2.13382       5.21605
Nuclear contribution   :     -8.40998       2.27527      -6.32148
                        -----------------------------------------
Total Dipole Moment    :     -0.36385       0.14145      -1.10543
                        -----------------------------------------
Magnitude (a.u.)       :      1.17234
Magnitude (Debye)      :      2.97984

Rotational constants in cm-1:     0.181105     0.088112     0.073966
Rotational constants in MHz :  5429.384816  2641.525058  2217.445966

                             ****ORCA TERMINATED NORMALLY****
TOTAL RUN TIME: 0 days 0 hours 0 minutes 21 seconds 640 msec
