                         Program Version 5.0.0 -  RELEASE  -
|  1> !LC-BLYP RIJCOSX def2-SVPD def2/J TightSCF
|  2> *xyz 0 1
|  3> C          3.34350        3.35457       -3.59200
|  4> C          2.95263        1.86308       -3.57485
|  5> C          4.12921        0.89839       -3.41895
|  6> C          4.25587        3.70385       -4.72605
|  7> N          3.73403        4.29378       -5.80077
|  8> C          5.51504        3.40725       -4.63718
|  9> H          6.14919        3.60120       -5.39905
| 10> H          5.81358        2.89950       -3.80879
| 11> H          2.74138        4.51311       -5.82470
| 12> H          4.28755        4.52126       -6.61434
| 13> H          2.27894        1.73525       -2.72550
| 14> H          2.37747        1.62579       -4.47587
| 15> H          3.86125        3.59725       -2.66298
| 16> H          2.44649        3.97346       -3.65656
| 17> H          4.79753        1.01430       -4.24649
| 18> H          3.76482       -0.10731       -3.39293
| 19> H          4.64840        1.11330       -2.50837
| 20> *
| 21> %MaxCore 64000
| 22>
| 23> %pal nprocs 4
| 24> end
| 25>
| 26> %scf
| 27>   MaxIter 150
| 28> end
| 29>
| 30>
| 31>                          ****END OF INPUT****

CARTESIAN COORDINATES (ANGSTROEM)
---------------------------------
  C      3.343500    3.354570   -3.592000
  C      2.952630    1.863080   -3.574850
  C      4.129210    0.898390   -3.418950
  C      4.255870    3.703850   -4.726050
  N      3.734030    4.293780   -5.800770
  C      5.515040    3.407250   -4.637180
  H      6.149190    3.601200   -5.399050
  H      5.813580    2.899500   -3.808790
  H      2.741380    4.513110   -5.824700
  H      4.287550    4.521260   -6.614340
  H      2.278940    1.735250   -2.725500
  H      2.377470    1.625790   -4.475870
  H      3.861250    3.597250   -2.662980
  H      2.446490    3.973460   -3.656560
  H      4.797530    1.014300   -4.246490
  H      3.764820   -0.107310   -3.392930
  H      4.648400    1.113300   -2.508370

 Total Charge           Charge          ....    0
 Multiplicity           Mult            ....    1
 Number of Electrons    NEL             ....   48
 Basis Dimension        Dim             ....  208

ORBITAL ENERGIES
----------------

  NO   OCC          E(Eh)            E(eV)
   0   2.0000     -14.187664      -386.0660
   1   2.0000     -10.103679      -274.9351
   2   2.0000     -10.082012      -274.3455
   3   2.0000     -10.080770      -274.3117
   4   2.0000     -10.059208      -273.7250
   5   2.0000     -10.016504      -272.5629
   6   2.0000      -1.017781       -27.6952
   7   2.0000      -0.897924       -24.4338
   8   2.0000      -0.832777       -22.6610
   9   2.0000      -0.790384       -21.5074
  10   2.0000      -0.701069       -19.0771
  11   2.0000      -0.667659       -18.1679
  12   2.0000      -0.623434       -16.9645
  13   2.0000      -0.585679       -15.9371
  14   2.0000      -0.558416       -15.1953
  15   2.0000      -0.540837       -14.7169
  16   2.0000      -0.496361       -13.5067
  17   2.0000      -0.494306       -13.4507
  18   2.0000      -0.476101       -12.9554
  19   2.0000      -0.461853       -12.5677
  20   2.0000      -0.432847       -11.7784
  21   2.0000      -0.422710       -11.5025
  22   2.0000      -0.415973       -11.3192
  23   2.0000      -0.288149        -7.8409
  24   0.0000       0.071550         1.9470
  25   0.0000       0.096626         2.6293
  26   0.0000       0.099102         2.6967
  27   0.0000       0.107660         2.9296
  28   0.0000       0.125707         3.4207

MULLIKEN ATOMIC CHARGES
-----------------------
   0 C :    0.411104
   1 C :   -0.107483
   2 C :    0.959912
   3 C :   -0.053336
   4 N :    0.285823
   5 C :    0.604893
   6 H :   -0.747341
   7 H :   -0.044769
   8 H :   -0.120504
   9 H :   -0.195459
  10 H :   -0.137517
  11 H :   -0.185968
  12 H :    0.024768
  13 H :   -0.216666
  14 H :   -0.105029
  15 H :   -0.303994
  16 H :   -0.068433
Sum of atomic charges:    0.0000000

LOEWDIN ATOMIC CHARGES
----------------------
   0 C :   -0.007104
   1 C :   -0.068586
   2 C :    0.106204
   3 C :   -0.262014
   4 N :    0.183330
   5 C :    0.161287
   6 H :   -0.073992
   7 H :   -0.074119
   8 H :   -0.004104
   9 H :    0.001959
  10 H :    0.020346
  11 H :    0.025448
  12 H :    0.032887
  13 H :    0.018222
  14 H :   -0.033059
  15 H :   -0.017089
  16 H :   -0.009617

  Mayer bond orders larger than 0.100000
B(  0-C ,  1-C ) :   1.1685 B(  0-C ,  3-C ) :   1.0294 B(  0-C ,  4-N ) :   0.1450
B(  0-C ,  5-C ) :   0.2653 B(  0-C , 10-H ) :   0.1481 B(  0-C , 11-H ) :   0.1133
B(  0-C , 12-H ) :   0.7478 B(  0-C , 13-H ) :   0.7776 B(  1-C ,  2-C ) :   1.2807
B(  1-C , 10-H ) :   0.8097 B(  1-C , 11-H ) :   0.9376 B(  1-C , 12-H ) :   0.1568
B(  1-C , 13-H ) :   0.1445 B(  1-C , 14-H ) :   0.2375 B(  1-C , 15-H ) :   0.2627
B(  1-C , 16-H ) :   0.2376 B(  2-C , 10-H ) :   0.1108 B(  2-C , 14-H ) :   0.7498
B(  2-C , 15-H ) :   0.7492 B(  2-C , 16-H ) :   0.7176 B(  3-C ,  4-N ) :   1.1997
B(  3-C ,  5-C ) :   1.7969 B(  3-C ,  6-H ) :   0.2363 B(  3-C ,  7-H ) :   0.2244
B(  3-C , 12-H ) :   0.1263 B(  3-C , 13-H ) :   0.1671 B(  4-N ,  5-C ) :   0.2609
B(  4-N ,  8-H ) :   1.1194 B(  4-N ,  9-H ) :   1.2599 B(  5-C ,  6-H ) :   0.6155
B(  5-C ,  7-H ) :   0.6323 B(  6-H ,  7-H ) :  -0.2061 B(  8-H ,  9-H ) :  -0.1764
B( 14-H , 16-H ) :   0.1026

FINAL SINGLE POINT ENERGY      -250.979373345803

DIPOLE MOMENT
-------------
                                X             Y             Z
Electronic contribution:     -0.07339       3.47075      -2.22693
Nuclear contribution   :     -0.51555      -3.29052       1.90104
                        -----------------------------------------
Total Dipole Moment    :     -0.58894       0.18023      -0.32589
                        -----------------------------------------
Magnitude (a.u.)       :      0.69681
Magnitude (Debye)      :      1.77115

Rotational constants in cm-1:     0.197086     0.081749     0.067746
Rotational constants in MHz :  5908.486274  2450.769911  2030.963952

                             ****ORCA TERMINATED NORMALLY****
TOTAL RUN TIME: 0 days 0 hours 0 minutes 26 seconds 950 msec
