                         Program Version 5.0.0 -  RELEASE  -
|  1> !LC-BLYP RIJCOSX def2-SVPD def2/J TightSCF xyzfile
|  2>
|  3> *xyzfile 0 1 D2.xyz
|  4>
|  5> %MaxCore 64000
|  6>
|  7> %pal nprocs 4
|  8> end
|  9>
| 10> %scf
| 11>   MaxIter 150
| 12> end
| 13>
| 14>
| 15>                          ****END OF INPUT****

CARTESIAN COORDINATES (ANGSTROEM)
---------------------------------
  C      3.343500    3.354571   -3.591998
  C      2.952633    1.863077   -3.574849
  C      4.129209    0.898394   -3.418950
  H      3.733687   -0.100605   -3.237633
  H      4.719095    0.862556   -4.339005
  C      5.017344    1.315212   -2.221305
  C      4.255868    3.703851   -4.726054
  N      3.734032    4.293783   -5.800770
  C      5.515039    3.407255   -4.637185
  H      6.149187    3.601203   -5.399053
  H      5.813584    2.899504   -3.808785
  H      2.741380    4.513109   -5.824701
  H      4.287548    4.521260   -6.614341
  H      2.278938    1.735250   -2.725496
  H      2.377466    1.625787   -4.475869
  F      4.737055    0.854112   -1.122825
  O      5.928146    2.168108   -2.491365
  H      3.861246    3.597252   -2.662979
  H      2.446493    3.973461   -3.656556

 Total Charge           Charge          ....    0
 Multiplicity           Mult            ....    1
 Number of Electrons    NEL             ....   70
 Basis Dimension        Dim             ....  266

ORBITAL ENERGIES
----------------

  NO   OCC          E(Eh)            E(eV)
   0   2.0000     -24.567281      -668.5097
   1   2.0000     -18.967510      -516.1322
   2   2.0000     -14.178600      -385.8193
   3   2.0000     -10.281037      -279.7612
   4   2.0000     -10.114873      -275.2397
   5   2.0000     -10.105726      -274.9908
   6   2.0000     -10.091447      -274.6022
   7   2.0000     -10.086684      -274.4726
   8   2.0000      -9.985524      -271.7199
   9   2.0000      -1.418744       -38.6060
  10   2.0000      -1.122615       -30.5479
  11   2.0000      -1.009345       -27.4657
  12   2.0000      -0.923145       -25.1201
  13   2.0000      -0.852112       -23.1872
  14   2.0000      -0.804333       -21.8870
  15   2.0000      -0.782926       -21.3045
  16   2.0000      -0.728047       -19.8112
  17   2.0000      -0.685168       -18.6444
  18   2.0000      -0.671359       -18.2686
  19   2.0000      -0.650649       -17.7051
  20   2.0000      -0.635562       -17.2945
  21   2.0000      -0.601988       -16.3809
  22   2.0000      -0.584841       -15.9143
  23   2.0000      -0.572074       -15.5669
  24   2.0000      -0.553944       -15.0736
  25   2.0000      -0.520478       -14.1629
  26   2.0000      -0.496092       -13.4994
  27   2.0000      -0.492930       -13.4133
  28   2.0000      -0.467000       -12.7077
  29   2.0000      -0.456801       -12.4302
  30   2.0000      -0.450374       -12.2553
  31   2.0000      -0.428101       -11.6492
  32   2.0000      -0.419911       -11.4264
  33   2.0000      -0.367183        -9.9915
  34   2.0000      -0.275118        -7.4863
  35   0.0000       0.039236         1.0677
  36   0.0000       0.063690         1.7331
  37   0.0000       0.083325         2.2674
  38   0.0000       0.094409         2.5690
  39   0.0000       0.099376         2.7042

MULLIKEN ATOMIC CHARGES
-----------------------
   0 C :    0.500316
   1 C :    0.166529
   2 C :    0.336585
   3 H :   -0.281310
   4 H :    0.115921
   5 C :    0.572314
   6 C :   -0.043041
   7 N :    0.277590
   8 C :    1.197934
   9 H :   -0.754365
  10 H :   -0.656481
  11 H :   -0.145070
  12 H :   -0.211553
  13 H :   -0.063167
  14 H :   -0.239103
  15 F :   -0.253691
  16 O :   -0.340300
  17 H :    0.138361
  18 H :   -0.317469
Sum of atomic charges:    0.0000000

LOEWDIN ATOMIC CHARGES
----------------------
   0 C :    0.009782
   1 C :   -0.013095
   2 C :    0.053081
   3 H :    0.028043
   4 H :    0.038171
   5 C :    0.004295
   6 C :   -0.246894
   7 N :    0.174999
   8 C :    0.195356
   9 H :   -0.067221
  10 H :   -0.195337
  11 H :   -0.010186
  12 H :   -0.000326
  13 H :    0.028095
  14 H :    0.035455
  15 F :    0.028978
  16 O :   -0.112715
  17 H :    0.027580
  18 H :    0.021939

  Mayer bond orders larger than 0.100000
B(  0-C ,  1-C ) :   1.1266 B(  0-C ,  6-C ) :   1.1121 B(  0-C ,  7-N ) :   0.1545
B(  0-C ,  8-C ) :   0.2212 B(  0-C , 13-H ) :   0.1331 B(  0-C , 14-H ) :   0.1226
B(  0-C , 17-H ) :   0.6800 B(  0-C , 18-H ) :   0.7861 B(  1-C ,  2-C ) :   1.2435
B(  1-C ,  3-H ) :   0.2153 B(  1-C ,  4-H ) :   0.1745 B(  1-C ,  5-C ) :   0.1060
B(  1-C , 13-H ) :   0.7629 B(  1-C , 14-H ) :   0.8947 B(  1-C , 17-H ) :   0.1866
B(  1-C , 18-H ) :   0.1948 B(  2-C ,  3-H ) :   0.7928 B(  2-C ,  4-H ) :   0.7985
B(  2-C ,  5-C ) :   1.0383 B(  2-C , 10-H ) :   0.1318 B(  2-C , 13-H ) :   0.1434
B(  3-H ,  5-C ) :   0.1155 B(  3-H , 10-H ) :  -0.1403 B(  4-H , 10-H ) :   0.1228
B(  5-C , 15-F ) :   0.8849 B(  5-C , 16-O ) :   1.7404 B(  6-C ,  7-N ) :   1.0994
B(  6-C ,  8-C ) :   1.9143 B(  6-C ,  9-H ) :   0.3423 B(  6-C , 10-H ) :   0.3550
B(  6-C , 12-H ) :  -0.1190 B(  6-C , 17-H ) :   0.1402 B(  6-C , 18-H ) :   0.1607
B(  7-N ,  8-C ) :   0.3209 B(  7-N , 11-H ) :   1.1508 B(  7-N , 12-H ) :   1.3007
B(  8-C ,  9-H ) :   0.4454 B(  8-C , 10-H ) :   0.3452 B(  9-H , 10-H ) :  -0.2450
B( 10-H , 16-O ) :   0.2473 B( 11-H , 12-H ) :  -0.1726 B( 15-F , 16-O ) :   0.1162

FINAL SINGLE POINT ENERGY      -463.022261266252

DIPOLE MOMENT
-------------
                                X             Y             Z
Electronic contribution:      4.28812      -5.16330       9.55588
Nuclear contribution   :     -5.64491       4.57111      -9.93176
                        -----------------------------------------
Total Dipole Moment    :     -1.35679      -0.59219      -0.37589
                        -----------------------------------------
Magnitude (a.u.)       :      1.52737
Magnitude (Debye)      :      3.88226

Rotational constants in cm-1:     0.109825     0.034347     0.029470
Rotational constants in MHz :  3292.465653  1029.684117   883.494260

                             ****ORCA TERMINATED NORMALLY****
TOTAL RUN TIME: 0 days 0 hours 1 minutes 4 seconds 246 msec
