                         Program Version 5.0.0 -  RELEASE  -
|  1> !LC-BLYP RIJCOSX def2-SVPD def2/J TightSCF xyzfile
|  2>
|  3> *xyzfile 0 1 D4.xyz
|  4>
|  5> %MaxCore 64000
|  6>
|  7> %pal nprocs 4
|  8> end
|  9>
| 10> %scf
| 11>   MaxIter 150
| 12> end
| 13>
| 14>
| 15>                          ****END OF INPUT****

CARTESIAN COORDINATES (ANGSTROEM)
---------------------------------
  C      3.343500    3.354571   -3.591998
  C      2.952633    1.863077   -3.574849
  C      4.129209    0.898394   -3.418950
  H      3.733687   -0.100605   -3.237633
  H      4.719095    0.862556   -4.339005
  C      5.017344    1.315212   -2.221305
  C      4.255868    3.703851   -4.726054
  N      3.734032    4.293783   -5.800770
  C      5.515039    3.407255   -4.637185
  H      6.149187    3.601203   -5.399053
  H      5.813584    2.899504   -3.808785
  H      2.741380    4.513109   -5.824701
  H      4.287548    4.521260   -6.614341
  H      2.278938    1.735250   -2.725496
  H      2.377466    1.625787   -4.475869
  O      4.737055    0.854112   -1.122825
  F      5.928146    2.168108   -2.491365
  H      3.861246    3.597252   -2.662979
  H      2.446493    3.973461   -3.656556

 Total Charge           Charge          ....    0
 Multiplicity           Mult            ....    1
 Number of Electrons    NEL             ....   70
 Basis Dimension        Dim             ....  266

ORBITAL ENERGIES
----------------

  NO   OCC          E(Eh)            E(eV)
   0   2.0000     -24.544642      -667.8937
   1   2.0000     -18.977855      -516.4137
   2   2.0000     -14.192078      -386.1861
   3   2.0000     -10.272203      -279.5209
   4   2.0000     -10.111930      -275.1596
   5   2.0000     -10.108427      -275.0643
   6   2.0000     -10.105949      -274.9969
   7   2.0000     -10.096319      -274.7348
   8   2.0000     -10.009382      -272.3691
   9   2.0000      -1.384759       -37.6812
  10   2.0000      -1.143533       -31.1171
  11   2.0000      -1.023092       -27.8397
  12   2.0000      -0.926497       -25.2113
  13   2.0000      -0.857691       -23.3389
  14   2.0000      -0.816003       -22.2046
  15   2.0000      -0.779489       -21.2110
  16   2.0000      -0.728078       -19.8120
  17   2.0000      -0.692299       -18.8384
  18   2.0000      -0.657016       -17.8783
  19   2.0000      -0.641635       -17.4598
  20   2.0000      -0.632442       -17.2096
  21   2.0000      -0.610359       -16.6087
  22   2.0000      -0.588530       -16.0147
  23   2.0000      -0.569990       -15.5102
  24   2.0000      -0.553188       -15.0530
  25   2.0000      -0.527045       -14.3416
  26   2.0000      -0.503052       -13.6887
  27   2.0000      -0.489450       -13.3186
  28   2.0000      -0.481142       -13.0925
  29   2.0000      -0.468953       -12.7609
  30   2.0000      -0.453726       -12.3465
  31   2.0000      -0.436157       -11.8684
  32   2.0000      -0.428537       -11.6611
  33   2.0000      -0.400512       -10.8985
  34   2.0000      -0.291853        -7.9417
  35   0.0000       0.048886         1.3303
  36   0.0000       0.066107         1.7989
  37   0.0000       0.085028         2.3137
  38   0.0000       0.090877         2.4729
  39   0.0000       0.097422         2.6510

MULLIKEN ATOMIC CHARGES
-----------------------
   0 C :    0.482665
   1 C :    0.177392
   2 C :    0.343621
   3 H :   -0.285186
   4 H :    0.146916
   5 C :    0.467602
   6 C :    0.004675
   7 N :    0.288501
   8 C :    1.198713
   9 H :   -0.769959
  10 H :   -0.580148
  11 H :   -0.138827
  12 H :   -0.209811
  13 H :   -0.050430
  14 H :   -0.236875
  15 O :   -0.267803
  16 F :   -0.375439
  17 H :    0.111014
  18 H :   -0.306622
Sum of atomic charges:    0.0000000

LOEWDIN ATOMIC CHARGES
----------------------
   0 C :    0.010563
   1 C :   -0.010433
   2 C :    0.048750
   3 H :    0.036803
   4 H :    0.029199
   5 C :   -0.027397
   6 C :   -0.244655
   7 N :    0.182407
   8 C :    0.192659
   9 H :   -0.066070
  10 H :   -0.155952
  11 H :   -0.004890
  12 H :    0.002983
  13 H :    0.034236
  14 H :    0.034686
  15 O :   -0.077871
  16 F :   -0.040661
  17 H :    0.031398
  18 H :    0.024246

  Mayer bond orders larger than 0.100000
B(  0-C ,  1-C ) :   1.1313 B(  0-C ,  6-C ) :   1.1092 B(  0-C ,  7-N ) :   0.1523
B(  0-C ,  8-C ) :   0.2125 B(  0-C , 13-H ) :   0.1280 B(  0-C , 14-H ) :   0.1210
B(  0-C , 17-H ) :   0.6797 B(  0-C , 18-H ) :   0.7944 B(  1-C ,  2-C ) :   1.2463
B(  1-C ,  3-H ) :   0.2013 B(  1-C ,  4-H ) :   0.1670 B(  1-C ,  5-C ) :   0.1218
B(  1-C , 13-H ) :   0.7775 B(  1-C , 14-H ) :   0.8866 B(  1-C , 17-H ) :   0.1888
B(  1-C , 18-H ) :   0.1859 B(  2-C ,  3-H ) :   0.7978 B(  2-C ,  4-H ) :   0.7846
B(  2-C ,  5-C ) :   1.0309 B(  2-C , 10-H ) :   0.1277 B(  2-C , 13-H ) :   0.1425
B(  2-C , 16-F ) :   0.1487 B(  3-H ,  5-C ) :   0.1522 B(  3-H , 10-H ) :  -0.1341
B(  5-C , 15-O ) :   2.0069 B(  5-C , 16-F ) :   0.7139 B(  6-C ,  7-N ) :   1.1170
B(  6-C ,  8-C ) :   1.8882 B(  6-C ,  9-H ) :   0.3385 B(  6-C , 10-H ) :   0.3511
B(  6-C , 12-H ) :  -0.1176 B(  6-C , 17-H ) :   0.1486 B(  6-C , 18-H ) :   0.1569
B(  7-N ,  8-C ) :   0.3115 B(  7-N , 11-H ) :   1.1426 B(  7-N , 12-H ) :   1.2974
B(  8-C ,  9-H ) :   0.4953 B(  8-C , 10-H ) :   0.2201 B(  9-H , 10-H ) :  -0.2979
B( 10-H , 16-F ) :   0.2139 B( 11-H , 12-H ) :  -0.1729 B( 15-O , 16-F ) :   0.1445

FINAL SINGLE POINT ENERGY      -463.040948143737

DIPOLE MOMENT
-------------
                                X             Y             Z
Electronic contribution:      6.17869      -2.82302       7.07993
Nuclear contribution   :     -6.99695       3.07955      -8.37829
                        -----------------------------------------
Total Dipole Moment    :     -0.81826       0.25653      -1.29836
                        -----------------------------------------
Magnitude (a.u.)       :      1.55599
Magnitude (Debye)      :      3.95500

Rotational constants in cm-1:     0.106302     0.035771     0.030198
Rotational constants in MHz :  3186.860872  1072.397550   905.318354

                             ****ORCA TERMINATED NORMALLY****
TOTAL RUN TIME: 0 days 0 hours 1 minutes 3 seconds 854 msec
