                         Program Version 5.0.0 -  RELEASE  -
|  1> !LC-BLYP RIJCOSX def2-TZVP def2/J TightSCF
|  2> *xyz -1 1
|  3> C          0.96805        1.63064       -3.71575
|  4> C         -0.50835        1.72268       -4.12430
|  5> S         -1.32861        0.14674       -4.43578
|  6> H         -0.59151        2.29496       -5.04722
|  7> H         -1.11411        2.23561       -3.37436
|  8> O         -2.57135        0.47573       -5.06834
|  9> O         -1.51496       -0.40051       -3.06342
| 10> O         -0.37793       -0.62756       -5.20114
| 11> H          1.51840        1.12197       -4.47946
| 12> H          1.05062        1.08971       -2.79625
| 13> H          1.36450        2.61606       -3.58668
| 14> *
| 15> %MaxCore 64000
| 16>
| 17> %pal nprocs 4
| 18> end
| 19>
| 20> %scf
| 21>   MaxIter 150
| 22> end
| 23>
| 24>
| 25>                          ****END OF INPUT****

CARTESIAN COORDINATES (ANGSTROEM)
---------------------------------
  C      0.968050    1.630640   -3.715750
  C     -0.508350    1.722680   -4.124300
  S     -1.328610    0.146740   -4.435780
  H     -0.591510    2.294960   -5.047220
  H     -1.114110    2.235610   -3.374360
  O     -2.571350    0.475730   -5.068340
  O     -1.514960   -0.400510   -3.063420
  O     -0.377930   -0.627560   -5.201140
  H      1.518400    1.121970   -4.479460
  H      1.050620    1.089710   -2.796250
  H      1.364500    2.616060   -3.586680

 Total Charge           Charge          ....   -1
 Multiplicity           Mult            ....    1
 Number of Electrons    NEL             ....   58
 Basis Dimension        Dim             ....  222

ORBITAL ENERGIES
----------------

  NO   OCC          E(Eh)            E(eV)
   0   2.0000     -88.252059     -2401.4606
   1   2.0000     -18.715486      -509.2743
   2   2.0000     -18.712020      -509.1800
   3   2.0000     -18.695156      -508.7211
   4   2.0000      -9.924311      -270.0542
   5   2.0000      -9.919711      -269.9291
   6   2.0000      -7.793960      -212.0844
   7   2.0000      -5.822249      -158.4314
   8   2.0000      -5.820923      -158.3954
   9   2.0000      -5.820618      -158.3871
  10   2.0000      -1.017810       -27.6960
  11   2.0000      -0.886307       -24.1176
  12   2.0000      -0.856059       -23.2945
  13   2.0000      -0.735972       -20.0268
  14   2.0000      -0.610269       -16.6063
  15   2.0000      -0.480328       -13.0704
  16   2.0000      -0.418868       -11.3980
  17   2.0000      -0.416819       -11.3422
  18   2.0000      -0.374918       -10.2020
  19   2.0000      -0.360674        -9.8144
  20   2.0000      -0.352616        -9.5952
  21   2.0000      -0.324939        -8.8420
  22   2.0000      -0.308194        -8.3864
  23   2.0000      -0.251028        -6.8308
  24   2.0000      -0.250370        -6.8129
  25   2.0000      -0.215279        -5.8580
  26   2.0000      -0.203467        -5.5366
  27   2.0000      -0.190690        -5.1889
  28   2.0000      -0.157487        -4.2854
  29   0.0000       0.237987         6.4760
  30   0.0000       0.281183         7.6514
  31   0.0000       0.299525         8.1505
  32   0.0000       0.303791         8.2666
  33   0.0000       0.333063         9.0631

MULLIKEN ATOMIC CHARGES
-----------------------
   0 C :   -0.375735
   1 C :   -0.275875
   2 S :    0.679583
   3 H :    0.090370
   4 H :    0.100564
   5 O :   -0.484859
   6 O :   -0.559978
   7 O :   -0.507157
   8 H :    0.128788
   9 H :    0.123261
  10 H :    0.081035
Sum of atomic charges:   -1.0000000

LOEWDIN ATOMIC CHARGES
----------------------
   0 C :   -0.356165
   1 C :   -0.440632
   2 S :    0.379341
   3 H :    0.117426
   4 H :    0.121219
   5 O :   -0.356791
   6 O :   -0.431941
   7 O :   -0.370277
   8 H :    0.117630
   9 H :    0.117559
  10 H :    0.102632

  Mayer bond orders larger than 0.100000
B(  0-C ,  1-C ) :   0.9212 B(  0-C ,  8-H ) :   0.9733 B(  0-C ,  9-H ) :   0.9749
B(  0-C , 10-H ) :   0.9712 B(  1-C ,  2-S ) :   0.8906 B(  1-C ,  3-H ) :   0.9589
B(  1-C ,  4-H ) :   0.9668 B(  2-S ,  5-O ) :   1.8961 B(  2-S ,  6-O ) :   1.7873
B(  2-S ,  7-O ) :   1.8188

FINAL SINGLE POINT ENERGY      -702.476994607301

DIPOLE MOMENT
-------------
                                X             Y             Z
Electronic contribution:     -5.61972      -5.31869      -1.94369
Nuclear contribution   :      6.64523       6.80157       2.07300
                        -----------------------------------------
Total Dipole Moment    :      1.02550       1.48288       0.12931
                        -----------------------------------------
Magnitude (a.u.)       :      1.80757
Magnitude (Debye)      :      4.59448

Rotational constants in cm-1:     0.163070     0.082807     0.081541
Rotational constants in MHz :  4888.719902  2482.497026  2444.541148

                             ****ORCA TERMINATED NORMALLY****
TOTAL RUN TIME: 0 days 0 hours 0 minutes 28 seconds 897 msec
