                         Program Version 5.0.0 -  RELEASE  -
|  1> !LC-BLYP RIJCOSX def2-TZVP def2/J TightSCF
|  2> *xyz 1 1
|  3> C          1.36401        0.46874       -2.81376
|  4> N          0.42884        0.32140       -1.65531
|  5> C          0.96805        1.63064       -3.71575
|  6> H          0.74858       -0.40054       -1.00134
|  7> H         -0.46105        0.02333       -2.07773
|  8> H          0.31026        1.20137       -1.13495
|  9> H          1.29485       -0.46874       -3.36468
| 10> H          2.37622        0.59740       -2.43149
| 11> H          1.65923        1.70213       -4.52942
| 12> H          0.98421        2.54058       -3.15304
| 13> H         -0.01744        1.46536       -4.09838
| 14> *
| 15> %MaxCore 64000
| 16>
| 17> %pal nprocs 4
| 18> end
| 19>
| 20> %scf
| 21>   MaxIter 150
| 22> end
| 23>
| 24>
| 25>                          ****END OF INPUT****

CARTESIAN COORDINATES (ANGSTROEM)
---------------------------------
  C      1.364010    0.468740   -2.813760
  N      0.428840    0.321400   -1.655310
  C      0.968050    1.630640   -3.715750
  H      0.748580   -0.400540   -1.001340
  H     -0.461050    0.023330   -2.077730
  H      0.310260    1.201370   -1.134950
  H      1.294850   -0.468740   -3.364680
  H      2.376220    0.597400   -2.431490
  H      1.659230    1.702130   -4.529420
  H      0.984210    2.540580   -3.153040
  H     -0.017440    1.465360   -4.098380

 Total Charge           Charge          ....    1
 Multiplicity           Mult            ....    1
 Number of Electrons    NEL             ....   26
 Basis Dimension        Dim             ....  141

ORBITAL ENERGIES
----------------

  NO   OCC          E(Eh)            E(eV)
   0   2.0000     -14.503350      -394.6562
   1   2.0000     -10.323109      -280.9061
   2   2.0000     -10.243069      -278.7281
   3   2.0000      -1.316856       -35.8335
   4   2.0000      -1.074748       -29.2454
   5   2.0000      -0.951699       -25.8971
   6   2.0000      -0.909483       -24.7483
   7   2.0000      -0.892171       -24.2772
   8   2.0000      -0.797063       -21.6892
   9   2.0000      -0.748292       -20.3620
  10   2.0000      -0.685021       -18.6404
  11   2.0000      -0.667867       -18.1736
  12   2.0000      -0.651132       -17.7182
  13   0.0000      -0.130126        -3.5409
  14   0.0000      -0.066950        -1.8218
  15   0.0000      -0.062867        -1.7107
  16   0.0000      -0.043267        -1.1774
  17   0.0000      -0.004797        -0.1305

MULLIKEN ATOMIC CHARGES
-----------------------
   0 C :   -0.269829
   1 N :   -0.289139
   2 C :   -0.399335
   3 H :    0.337398
   4 H :    0.332784
   5 H :    0.330631
   6 H :    0.213425
   7 H :    0.211974
   8 H :    0.199432
   9 H :    0.168154
  10 H :    0.164506
Sum of atomic charges:    1.0000000

LOEWDIN ATOMIC CHARGES
----------------------
   0 C :   -0.289017
   1 N :    0.164510
   2 C :   -0.290402
   3 H :    0.224349
   4 H :    0.229882
   5 H :    0.224262
   6 H :    0.157550
   7 H :    0.156584
   8 H :    0.153059
   9 H :    0.134861
  10 H :    0.134364

  Mayer bond orders larger than 0.100000
B(  0-C ,  1-N ) :   0.8440 B(  0-C ,  2-C ) :   0.9556 B(  0-C ,  6-H ) :   0.9525
B(  0-C ,  7-H ) :   0.9514 B(  1-N ,  3-H ) :   0.8773 B(  1-N ,  4-H ) :   0.8792
B(  1-N ,  5-H ) :   0.8735 B(  2-C ,  8-H ) :   0.9586 B(  2-C ,  9-H ) :   0.9559
B(  2-C , 10-H ) :   0.9533

FINAL SINGLE POINT ENERGY      -135.190646119661

DIPOLE MOMENT
-------------
                                X             Y             Z
Electronic contribution:     -0.34702      -0.95632       1.58271
Nuclear contribution   :     -0.20470       0.31427      -0.31587
                        -----------------------------------------
Total Dipole Moment    :     -0.55172      -0.64205       1.26685
                        -----------------------------------------
Magnitude (a.u.)       :      1.52366
Magnitude (Debye)      :      3.87283

Rotational constants in cm-1:     1.011480     0.279280     0.248378
Rotational constants in MHz : 30323.408050  8372.602834  7446.185305

                             ****ORCA TERMINATED NORMALLY****
TOTAL RUN TIME: 0 days 0 hours 0 minutes 13 seconds 758 msec
