                         Program Version 5.0.0 -  RELEASE  -
|  1> !LC-BLYP RIJCOSX def2-TZVP def2/J TightSCF xyzfile
|  2>
|  3> *xyzfile 0 1 B.xyz
|  4>
|  5> %MaxCore 64000
|  6>
|  7> %pal nprocs 18
|  8> end
|  9>
| 10> %scf
| 11>   MaxIter 150
| 12> end
| 13>
| 14>
| 15>                          ****END OF INPUT****

CARTESIAN COORDINATES (ANGSTROEM)
---------------------------------
  C      1.364014    0.468742   -2.813764
  N      0.428844    0.321402   -1.655312
  C      0.968045    1.630639   -3.715749
  C     -0.508347    1.722679   -4.124300
  S     -1.328608    0.146737   -4.435781
  H     -0.591511    2.294958   -5.047219
  H     -1.114114    2.235610   -3.374362
  H      0.748578   -0.400542   -1.001345
  H     -0.461053    0.023332   -2.077731
  H      0.310258    1.201375   -1.134948
  O     -2.571347    0.475733   -5.068341
  O     -1.514963   -0.400512   -3.063420
  H      1.294847   -0.468742   -3.364684
  H      2.376216    0.597400   -2.431495
  H      1.578688    1.520652   -4.612733
  H      1.266653    2.575988   -3.250448
  O     -0.377928   -0.627558   -5.201141

 Total Charge           Charge          ....    0
 Multiplicity           Mult            ....    1
 Number of Electrons    NEL             ....   74
 Basis Dimension        Dim             ....  308

ORBITAL ENERGIES
----------------

  NO   OCC          E(Eh)            E(eV)
   0   2.0000     -88.423254     -2406.1191
   1   2.0000     -18.891387      -514.0608
   2   2.0000     -18.875623      -513.6318
   3   2.0000     -18.872919      -513.5582
   4   2.0000     -14.302772      -389.1982
   5   2.0000     -10.160756      -276.4882
   6   2.0000     -10.111530      -275.1487
   7   2.0000     -10.090012      -274.5632
   8   2.0000      -7.965402      -216.7496
   9   2.0000      -5.994005      -163.1052
  10   2.0000      -5.992790      -163.0721
  11   2.0000      -5.991238      -163.0299
  12   2.0000      -1.190396       -32.3923
  13   2.0000      -1.132923       -30.8284
  14   2.0000      -1.047748       -28.5107
  15   2.0000      -1.046096       -28.4657
  16   2.0000      -0.935985       -25.4695
  17   2.0000      -0.848745       -23.0955
  18   2.0000      -0.762670       -20.7533
  19   2.0000      -0.732225       -19.9248
  20   2.0000      -0.718082       -19.5400
  21   2.0000      -0.650795       -17.7090
  22   2.0000      -0.628764       -17.1095
  23   2.0000      -0.593891       -16.1606
  24   2.0000      -0.576310       -15.6822
  25   2.0000      -0.563638       -15.3374
  26   2.0000      -0.531877       -14.4731
  27   2.0000      -0.521842       -14.2000
  28   2.0000      -0.501992       -13.6599
  29   2.0000      -0.492519       -13.4021
  30   2.0000      -0.474731       -12.9181
  31   2.0000      -0.424852       -11.5608
  32   2.0000      -0.416706       -11.3392
  33   2.0000      -0.384033       -10.4501
  34   2.0000      -0.373915       -10.1747
  35   2.0000      -0.364705        -9.9241
  36   2.0000      -0.332419        -9.0456
  37   0.0000       0.025459         0.6928
  38   0.0000       0.074814         2.0358
  39   0.0000       0.091299         2.4844
  40   0.0000       0.122111         3.3228
  41   0.0000       0.132713         3.6113

MULLIKEN ATOMIC CHARGES
-----------------------
   0 C :   -0.304575
   1 N :   -0.300640
   2 C :   -0.262996
   3 C :   -0.377945
   4 S :    0.727400
   5 H :    0.167572
   6 H :    0.152597
   7 H :    0.290381
   8 H :    0.311926
   9 H :    0.282147
  10 O :   -0.422159
  11 O :   -0.530868
  12 H :    0.239355
  13 H :    0.168921
  14 H :    0.167126
  15 H :    0.149251
  16 O :   -0.457492
Sum of atomic charges:   -0.0000000

LOEWDIN ATOMIC CHARGES
----------------------
   0 C :   -0.287685
   1 N :    0.137882
   2 C :   -0.301911
   3 C :   -0.403021
   4 S :    0.414942
   5 H :    0.146340
   6 H :    0.132282
   7 H :    0.201437
   8 H :    0.138679
   9 H :    0.200274
  10 O :   -0.295447
  11 O :   -0.361245
  12 H :    0.158137
  13 H :    0.138931
  14 H :    0.163551
  15 H :    0.143081
  16 O :   -0.326227

  Mayer bond orders larger than 0.100000
B(  0-C ,  1-N ) :   0.8319 B(  0-C ,  2-C ) :   0.9208 B(  0-C , 12-H ) :   0.9460
B(  0-C , 13-H ) :   0.9726 B(  1-N ,  7-H ) :   0.9024 B(  1-N ,  8-H ) :   0.7149
B(  1-N ,  9-H ) :   0.8975 B(  2-C ,  3-C ) :   0.8964 B(  2-C , 14-H ) :   0.9627
B(  2-C , 15-H ) :   0.9699 B(  3-C ,  4-S ) :   0.9121 B(  3-C ,  5-H ) :   0.9604
B(  3-C ,  6-H ) :   0.9574 B(  4-S , 10-O ) :   1.9905 B(  4-S , 11-O ) :   1.4822
B(  4-S , 16-O ) :   1.8226 B(  8-H , 11-O ) :   0.2764

FINAL SINGLE POINT ENERGY      -797.454286632514

DIPOLE MOMENT
-------------
                                X             Y             Z
Electronic contribution:     -6.90425      -4.13497      -4.28379
Nuclear contribution   :      9.95459       5.57517       7.68169
                        -----------------------------------------
Total Dipole Moment    :      3.05034       1.44020       3.39789
                        -----------------------------------------
Magnitude (a.u.)       :      4.78795
Magnitude (Debye)      :     12.17000

Rotational constants in cm-1:     0.102119     0.045768     0.041299
Rotational constants in MHz :  3061.441288  1372.093000  1238.124534

                             ****ORCA TERMINATED NORMALLY****
TOTAL RUN TIME: 0 days 0 hours 0 minutes 19 seconds 292 msec
