                         Program Version 5.0.0 -  RELEASE  -
|  1> !LC-BLYP RIJCOSX def2-TZVP def2/J TightSCF
|  2> *xyz 0 1
|  3> C          0.96805        1.63064       -3.71575
|  4> C         -0.50835        1.72268       -4.12430
|  5> S         -1.32861        0.14674       -4.43578
|  6> H         -0.59151        2.29496       -5.04722
|  7> H         -1.11411        2.23561       -3.37436
|  8> F         -2.57135        0.47573       -5.06834
|  9> O         -1.51496       -0.40051       -3.06342
| 10> O         -0.37793       -0.62756       -5.20114
| 11> H          1.51840        1.12197       -4.47946
| 12> H          1.05062        1.08971       -2.79625
| 13> H          1.36450        2.61606       -3.58668
| 14> *
| 15> %MaxCore 64000
| 16>
| 17> %pal nprocs 4
| 18> end
| 19>
| 20> %scf
| 21>   MaxIter 150
| 22> end
| 23>
| 24>
| 25>                          ****END OF INPUT****

CARTESIAN COORDINATES (ANGSTROEM)
---------------------------------
  C      0.968050    1.630640   -3.715750
  C     -0.508350    1.722680   -4.124300
  S     -1.328610    0.146740   -4.435780
  H     -0.591510    2.294960   -5.047220
  H     -1.114110    2.235610   -3.374360
  F     -2.571350    0.475730   -5.068340
  O     -1.514960   -0.400510   -3.063420
  O     -0.377930   -0.627560   -5.201140
  H      1.518400    1.121970   -4.479460
  H      1.050620    1.089710   -2.796250
  H      1.364500    2.616060   -3.586680

 Total Charge           Charge          ....    0
 Multiplicity           Mult            ....    1
 Number of Electrons    NEL             ....   58
 Basis Dimension        Dim             ....  222

ORBITAL ENERGIES
----------------

  NO   OCC          E(Eh)            E(eV)
   0   2.0000     -88.518845     -2408.7202
   1   2.0000     -24.581593      -668.8991
   2   2.0000     -18.951821      -515.7053
   3   2.0000     -18.935590      -515.2636
   4   2.0000     -10.128885      -275.6210
   5   2.0000     -10.084560      -274.4148
   6   2.0000      -8.061360      -219.3608
   7   2.0000      -6.092984      -165.7985
   8   2.0000      -6.086243      -165.6151
   9   2.0000      -6.085937      -165.6068
  10   2.0000      -1.474587       -40.1256
  11   2.0000      -1.198601       -32.6156
  12   2.0000      -1.095341       -29.8058
  13   2.0000      -0.928194       -25.2574
  14   2.0000      -0.844806       -22.9884
  15   2.0000      -0.784353       -21.3433
  16   2.0000      -0.698203       -18.9991
  17   2.0000      -0.697129       -18.9699
  18   2.0000      -0.659277       -17.9398
  19   2.0000      -0.598453       -16.2847
  20   2.0000      -0.586393       -15.9566
  21   2.0000      -0.541993       -14.7484
  22   2.0000      -0.532224       -14.4825
  23   2.0000      -0.508331       -13.8324
  24   2.0000      -0.487519       -13.2661
  25   2.0000      -0.485807       -13.2195
  26   2.0000      -0.434083       -11.8120
  27   2.0000      -0.417581       -11.3629
  28   2.0000      -0.404014       -10.9938
  29   0.0000       0.087253         2.3743
  30   0.0000       0.107579         2.9274
  31   0.0000       0.131163         3.5691
  32   0.0000       0.138502         3.7688
  33   0.0000       0.148852         4.0505

MULLIKEN ATOMIC CHARGES
-----------------------
   0 C :   -0.397603
   1 C :   -0.291824
   2 S :    0.745756
   3 H :    0.150778
   4 H :    0.167277
   5 F :   -0.059773
   6 O :   -0.416175
   7 O :   -0.366815
   8 H :    0.161123
   9 H :    0.162142
  10 H :    0.145115
Sum of atomic charges:    0.0000000

LOEWDIN ATOMIC CHARGES
----------------------
   0 C :   -0.315765
   1 C :   -0.407891
   2 S :    0.496939
   3 H :    0.136560
   4 H :    0.142353
   5 F :    0.123472
   6 O :   -0.311375
   7 O :   -0.254554
   8 H :    0.130261
   9 H :    0.131441
  10 H :    0.128560

  Mayer bond orders larger than 0.100000
B(  0-C ,  1-C ) :   0.9348 B(  0-C ,  8-H ) :   0.9652 B(  0-C ,  9-H ) :   0.9662
B(  0-C , 10-H ) :   0.9624 B(  1-C ,  2-S ) :   0.9242 B(  1-C ,  3-H ) :   0.9368
B(  1-C ,  4-H ) :   0.9392 B(  2-S ,  5-F ) :   1.1941 B(  2-S ,  6-O ) :   1.9167
B(  2-S ,  7-O ) :   1.9550

FINAL SINGLE POINT ENERGY      -726.977548406324

DIPOLE MOMENT
-------------
                                X             Y             Z
Electronic contribution:     -8.35227      -5.13544      -3.24892
Nuclear contribution   :      8.31000       6.74109       2.87442
                        -----------------------------------------
Total Dipole Moment    :     -0.04227       1.60565      -0.37450
                        -----------------------------------------
Magnitude (a.u.)       :      1.64929
Magnitude (Debye)      :      4.19215

Rotational constants in cm-1:     0.158705     0.080192     0.078179
Rotational constants in MHz :  4757.865601  2404.095079  2343.752507

                             ****ORCA TERMINATED NORMALLY****
TOTAL RUN TIME: 0 days 0 hours 0 minutes 31 seconds 565 msec
