                         Program Version 5.0.0 -  RELEASE  -
|  1> !LC-BLYP RIJCOSX def2-TZVP def2/J TightSCF
|  2> *xyz 0 1
|  3> C          1.36401        0.46874       -2.81376
|  4> C          0.42884        0.32140       -1.65531
|  5> C          0.96805        1.63064       -3.71575
|  6> H          0.74858       -0.40054       -1.00134
|  7> H         -0.46105        0.02333       -2.07773
|  8> H          0.31026        1.20137       -1.13495
|  9> H          1.29485       -0.46874       -3.36468
| 10> H          2.37622        0.59740       -2.43149
| 11> H          1.65923        1.70213       -4.52942
| 12> H          0.98421        2.54058       -3.15304
| 13> H         -0.01744        1.46536       -4.09838
| 14> *
| 15> %MaxCore 64000
| 16>
| 17> %pal nprocs 4
| 18> end
| 19>
| 20> %scf
| 21>   MaxIter 150
| 22> end
| 23>
| 24>
| 25>                          ****END OF INPUT****

CARTESIAN COORDINATES (ANGSTROEM)
---------------------------------
  C      1.364010    0.468740   -2.813760
  C      0.428840    0.321400   -1.655310
  C      0.968050    1.630640   -3.715750
  H      0.748580   -0.400540   -1.001340
  H     -0.461050    0.023330   -2.077730
  H      0.310260    1.201370   -1.134950
  H      1.294850   -0.468740   -3.364680
  H      2.376220    0.597400   -2.431490
  H      1.659230    1.702130   -4.529420
  H      0.984210    2.540580   -3.153040
  H     -0.017440    1.465360   -4.098380

 Total Charge           Charge          ....    0
 Multiplicity           Mult            ....    1
 Number of Electrons    NEL             ....   26
 Basis Dimension        Dim             ....  141

ORBITAL ENERGIES
----------------

  NO   OCC          E(Eh)            E(eV)
   0   2.0000     -10.054482      -273.5964
   1   2.0000     -10.045061      -273.3400
   2   2.0000     -10.028290      -272.8837
   3   2.0000      -0.901583       -24.5333
   4   2.0000      -0.798447       -21.7269
   5   2.0000      -0.691830       -18.8256
   6   2.0000      -0.578987       -15.7550
   7   2.0000      -0.551117       -14.9967
   8   2.0000      -0.504682       -13.7331
   9   2.0000      -0.491512       -13.3747
  10   2.0000      -0.435402       -11.8479
  11   2.0000      -0.430677       -11.7193
  12   2.0000      -0.425676       -11.5832
  13   0.0000       0.103530         2.8172
  14   0.0000       0.148264         4.0345
  15   0.0000       0.154978         4.2172
  16   0.0000       0.160028         4.3546
  17   0.0000       0.178698         4.8626

MULLIKEN ATOMIC CHARGES
-----------------------
   0 C :   -0.202479
   1 C :   -0.374527
   2 C :   -0.377282
   3 H :    0.128714
   4 H :    0.122308
   5 H :    0.120272
   6 H :    0.106113
   7 H :    0.105753
   8 H :    0.127560
   9 H :    0.122841
  10 H :    0.120728
Sum of atomic charges:   -0.0000000

LOEWDIN ATOMIC CHARGES
----------------------
   0 C :   -0.330494
   1 C :   -0.315830
   2 C :   -0.319780
   3 H :    0.111370
   4 H :    0.117112
   5 H :    0.110895
   6 H :    0.136482
   7 H :    0.132341
   8 H :    0.119352
   9 H :    0.119144
  10 H :    0.119409

  Mayer bond orders larger than 0.100000
B(  0-C ,  1-C ) :   0.9346 B(  0-C ,  2-C ) :   0.9450 B(  0-C ,  6-H ) :   0.9785
B(  0-C ,  7-H ) :   0.9794 B(  1-C ,  3-H ) :   0.9858 B(  1-C ,  4-H ) :   0.9777
B(  1-C ,  5-H ) :   0.9793 B(  2-C ,  8-H ) :   0.9833 B(  2-C ,  9-H ) :   0.9771
B(  2-C , 10-H ) :   0.9749

FINAL SINGLE POINT ENERGY      -118.784669524368

DIPOLE MOMENT
-------------
                                X             Y             Z
Electronic contribution:      0.37192      -0.18763      -0.01784
Nuclear contribution   :     -0.35842       0.15752       0.02695
                        -----------------------------------------
Total Dipole Moment    :      0.01350      -0.03011       0.00911
                        -----------------------------------------
Magnitude (a.u.)       :      0.03423
Magnitude (Debye)      :      0.08701

Rotational constants in cm-1:     1.019891     0.293671     0.260247
Rotational constants in MHz : 30575.551403  8804.039097  7802.009261

                             ****ORCA TERMINATED NORMALLY****
TOTAL RUN TIME: 0 days 0 hours 0 minutes 13 seconds 829 msec
