                         Program Version 5.0.0 -  RELEASE  -
|  1> !LC-BLYP RIJCOSX def2-TZVP def2/J TightSCF
|  2> *xyz 0 1
|  3> C          0.96805        1.63064       -3.71575
|  4> C         -0.50835        1.72268       -4.12430
|  5> S         -1.32861        0.14674       -4.43578
|  6> H         -0.59151        2.29496       -5.04722
|  7> H         -1.11411        2.23561       -3.37436
|  8> O         -2.57135        0.47573       -5.06834
|  9> F         -1.51496       -0.40051       -3.06342
| 10> O         -0.37793       -0.62756       -5.20114
| 11> H          1.51840        1.12197       -4.47946
| 12> H          1.05062        1.08971       -2.79625
| 13> H          1.36450        2.61606       -3.58668
| 14> *
| 15> %MaxCore 64000
| 16>
| 17> %pal nprocs 4
| 18> end
| 19>
| 20> %scf
| 21>   MaxIter 150
| 22> end
| 23>
| 24>
| 25>                          ****END OF INPUT****

CARTESIAN COORDINATES (ANGSTROEM)
---------------------------------
  C      0.968050    1.630640   -3.715750
  C     -0.508350    1.722680   -4.124300
  S     -1.328610    0.146740   -4.435780
  H     -0.591510    2.294960   -5.047220
  H     -1.114110    2.235610   -3.374360
  O     -2.571350    0.475730   -5.068340
  F     -1.514960   -0.400510   -3.063420
  O     -0.377930   -0.627560   -5.201140
  H      1.518400    1.121970   -4.479460
  H      1.050620    1.089710   -2.796250
  H      1.364500    2.616060   -3.586680

 Total Charge           Charge          ....    0
 Multiplicity           Mult            ....    1
 Number of Electrons    NEL             ....   58
 Basis Dimension        Dim             ....  222

ORBITAL ENERGIES
----------------

  NO   OCC          E(Eh)            E(eV)
   0   2.0000     -88.515902     -2408.6402
   1   2.0000     -24.552378      -668.1042
   2   2.0000     -18.955190      -515.7969
   3   2.0000     -18.951731      -515.7028
   4   2.0000     -10.128112      -275.5999
   5   2.0000     -10.086418      -274.4654
   6   2.0000      -8.058463      -219.2819
   7   2.0000      -6.090326      -165.7262
   8   2.0000      -6.083477      -165.5398
   9   2.0000      -6.082869      -165.5233
  10   2.0000      -1.428451       -38.8701
  11   2.0000      -1.213225       -33.0135
  12   2.0000      -1.121025       -30.5047
  13   2.0000      -0.930228       -25.3128
  14   2.0000      -0.826342       -22.4859
  15   2.0000      -0.776707       -21.1353
  16   2.0000      -0.683295       -18.5934
  17   2.0000      -0.664839       -18.0912
  18   2.0000      -0.650408       -17.6985
  19   2.0000      -0.599511       -16.3135
  20   2.0000      -0.580801       -15.8044
  21   2.0000      -0.558914       -15.2088
  22   2.0000      -0.536885       -14.6094
  23   2.0000      -0.509707       -13.8698
  24   2.0000      -0.503817       -13.7096
  25   2.0000      -0.482263       -13.1231
  26   2.0000      -0.444108       -12.0848
  27   2.0000      -0.432095       -11.7579
  28   2.0000      -0.423935       -11.5358
  29   0.0000       0.081746         2.2244
  30   0.0000       0.119091         3.2406
  31   0.0000       0.128402         3.4940
  32   0.0000       0.137643         3.7455
  33   0.0000       0.153436         4.1752

MULLIKEN ATOMIC CHARGES
-----------------------
   0 C :   -0.393847
   1 C :   -0.308112
   2 S :    0.746701
   3 H :    0.176832
   4 H :    0.163926
   5 O :   -0.355279
   6 F :   -0.108569
   7 O :   -0.376038
   8 H :    0.167343
   9 H :    0.141249
  10 H :    0.145795
Sum of atomic charges:   -0.0000000

LOEWDIN ATOMIC CHARGES
----------------------
   0 C :   -0.327430
   1 C :   -0.403630
   2 S :    0.505792
   3 H :    0.151062
   4 H :    0.140237
   5 O :   -0.244879
   6 F :    0.053844
   7 O :   -0.257566
   8 H :    0.130336
   9 H :    0.124177
  10 H :    0.128056

  Mayer bond orders larger than 0.100000
B(  0-C ,  1-C ) :   0.9211 B(  0-C ,  8-H ) :   0.9636 B(  0-C ,  9-H ) :   0.9690
B(  0-C , 10-H ) :   0.9644 B(  1-C ,  2-S ) :   0.9168 B(  1-C ,  3-H ) :   0.9420
B(  1-C ,  4-H ) :   0.9457 B(  2-S ,  5-O ) :   2.0078 B(  2-S ,  6-F ) :   1.1285
B(  2-S ,  7-O ) :   1.9524

FINAL SINGLE POINT ENERGY      -727.001796995916

DIPOLE MOMENT
-------------
                                X             Y             Z
Electronic contribution:     -6.55785      -6.62772       0.18307
Nuclear contribution   :      7.20921       7.65416       0.78523
                        -----------------------------------------
Total Dipole Moment    :      0.65137       1.02644       0.96830
                        -----------------------------------------
Magnitude (a.u.)       :      1.55418
Magnitude (Debye)      :      3.95040

Rotational constants in cm-1:     0.153780     0.081282     0.079816
Rotational constants in MHz :  4610.199589  2436.778679  2392.820729

                             ****ORCA TERMINATED NORMALLY****
TOTAL RUN TIME: 0 days 0 hours 0 minutes 29 seconds 937 msec
