                         Program Version 5.0.0 -  RELEASE  -
|  1> !LC-BLYP RIJCOSX def2-TZVP def2/J TightSCF
|  2> *xyz 0 1
|  3> C          0.96805        1.63064       -3.71575
|  4> C         -0.50835        1.72268       -4.12430
|  5> S         -1.32861        0.14674       -4.43578
|  6> H         -0.59151        2.29496       -5.04722
|  7> H         -1.11411        2.23561       -3.37436
|  8> O         -2.57135        0.47573       -5.06834
|  9> O         -1.51496       -0.40051       -3.06342
| 10> F         -0.37793       -0.62756       -5.20114
| 11> H          1.51840        1.12197       -4.47946
| 12> H          1.05062        1.08971       -2.79625
| 13> H          1.36450        2.61606       -3.58668
| 14> *
| 15> %MaxCore 64000
| 16>
| 17> %pal nprocs 4
| 18> end
| 19>
| 20> %scf
| 21>   MaxIter 150
| 22> end
| 23>
| 24>
| 25>                          ****END OF INPUT****

CARTESIAN COORDINATES (ANGSTROEM)
---------------------------------
  C      0.968050    1.630640   -3.715750
  C     -0.508350    1.722680   -4.124300
  S     -1.328610    0.146740   -4.435780
  H     -0.591510    2.294960   -5.047220
  H     -1.114110    2.235610   -3.374360
  O     -2.571350    0.475730   -5.068340
  O     -1.514960   -0.400510   -3.063420
  F     -0.377930   -0.627560   -5.201140
  H      1.518400    1.121970   -4.479460
  H      1.050620    1.089710   -2.796250
  H      1.364500    2.616060   -3.586680

 Total Charge           Charge          ....    0
 Multiplicity           Mult            ....    1
 Number of Electrons    NEL             ....   58
 Basis Dimension        Dim             ....  222

ORBITAL ENERGIES
----------------

  NO   OCC          E(Eh)            E(eV)
   0   2.0000     -88.518011     -2408.6975
   1   2.0000     -24.575292      -668.7277
   2   2.0000     -18.955581      -515.8076
   3   2.0000     -18.935704      -515.2667
   4   2.0000     -10.128720      -275.6165
   5   2.0000     -10.090111      -274.5659
   6   2.0000      -8.060553      -219.3388
   7   2.0000      -6.092377      -165.7820
   8   2.0000      -6.085363      -165.5911
   9   2.0000      -6.085059      -165.5829
  10   2.0000      -1.464174       -39.8422
  11   2.0000      -1.204195       -32.7678
  12   2.0000      -1.098178       -29.8830
  13   2.0000      -0.932316       -25.3696
  14   2.0000      -0.837514       -22.7899
  15   2.0000      -0.787157       -21.4196
  16   2.0000      -0.704123       -19.1602
  17   2.0000      -0.690061       -18.7775
  18   2.0000      -0.649500       -17.6738
  19   2.0000      -0.599940       -16.3252
  20   2.0000      -0.579951       -15.7813
  21   2.0000      -0.554573       -15.0907
  22   2.0000      -0.539398       -14.6778
  23   2.0000      -0.513234       -13.9658
  24   2.0000      -0.497415       -13.5353
  25   2.0000      -0.483611       -13.1597
  26   2.0000      -0.436469       -11.8769
  27   2.0000      -0.418247       -11.3811
  28   2.0000      -0.407109       -11.0780
  29   0.0000       0.077552         2.1103
  30   0.0000       0.116631         3.1737
  31   0.0000       0.132867         3.6155
  32   0.0000       0.135465         3.6862
  33   0.0000       0.149320         4.0632

MULLIKEN ATOMIC CHARGES
-----------------------
   0 C :   -0.405329
   1 C :   -0.298067
   2 S :    0.743106
   3 H :    0.162733
   4 H :    0.183632
   5 O :   -0.346341
   6 O :   -0.418297
   7 F :   -0.074703
   8 H :    0.139451
   9 H :    0.165115
  10 H :    0.148699
Sum of atomic charges:   -0.0000000

LOEWDIN ATOMIC CHARGES
----------------------
   0 C :   -0.329799
   1 C :   -0.401374
   2 S :    0.499226
   3 H :    0.140457
   4 H :    0.153258
   5 O :   -0.240831
   6 O :   -0.311665
   7 F :    0.109405
   8 H :    0.122029
   9 H :    0.129861
  10 H :    0.129433

  Mayer bond orders larger than 0.100000
B(  0-C ,  1-C ) :   0.9186 B(  0-C ,  8-H ) :   0.9691 B(  0-C ,  9-H ) :   0.9640
B(  0-C , 10-H ) :   0.9653 B(  1-C ,  2-S ) :   0.9180 B(  1-C ,  3-H ) :   0.9421
B(  1-C ,  4-H ) :   0.9419 B(  2-S ,  5-O ) :   2.0101 B(  2-S ,  6-O ) :   1.9132
B(  2-S ,  7-F ) :   1.1645

FINAL SINGLE POINT ENERGY      -726.982370893246

DIPOLE MOMENT
-------------
                                X             Y             Z
Electronic contribution:     -4.61945      -6.98865      -3.45848
Nuclear contribution   :      6.02439       7.89075       3.01280
                        -----------------------------------------
Total Dipole Moment    :      1.40494       0.90210      -0.44568
                        -----------------------------------------
Magnitude (a.u.)       :      1.72809
Magnitude (Debye)      :      4.39245

Rotational constants in cm-1:     0.153652     0.082400     0.079295
Rotational constants in MHz :  4606.361242  2470.285703  2377.214112

                             ****ORCA TERMINATED NORMALLY****
TOTAL RUN TIME: 0 days 0 hours 0 minutes 30 seconds 766 msec
