                         Program Version 5.0.0 -  RELEASE  -
|  1> !LC-BLYP RIJCOSX def2-TZVP def2/J TightSCF xyzfile
|  2>
|  3> *xyzfile 0 1 D1.xyz
|  4>
|  5> %MaxCore 64000
|  6>
|  7> %pal nprocs 18
|  8> end
|  9>
| 10> %scf
| 11>   MaxIter 150
| 12> end
| 13>
| 14>
| 15>                          ****END OF INPUT****

CARTESIAN COORDINATES (ANGSTROEM)
---------------------------------
  C      1.364014    0.468742   -2.813764
  C      0.428844    0.321402   -1.655312
  C      0.968045    1.630639   -3.715749
  C     -0.508347    1.722679   -4.124300
  S     -1.328608    0.146737   -4.435781
  H     -0.591511    2.294958   -5.047219
  H     -1.114114    2.235610   -3.374362
  H      0.748578   -0.400542   -1.001345
  H     -0.461053    0.023332   -2.077731
  H      0.310258    1.201375   -1.134948
  F     -2.571347    0.475733   -5.068341
  O     -1.514963   -0.400512   -3.063420
  H      1.294847   -0.468742   -3.364684
  H      2.376216    0.597400   -2.431495
  H      1.578688    1.520652   -4.612733
  H      1.266653    2.575988   -3.250448
  O     -0.377928   -0.627558   -5.201141

 Total Charge           Charge          ....    0
 Multiplicity           Mult            ....    1
 Number of Electrons    NEL             ....   74
 Basis Dimension        Dim             ....  308

ORBITAL ENERGIES
----------------

  NO   OCC          E(Eh)            E(eV)
   0   2.0000     -88.525628     -2408.9048
   1   2.0000     -24.585577      -669.0075
   2   2.0000     -18.957576      -515.8619
   3   2.0000     -18.944280      -515.5001
   4   2.0000     -10.129570      -275.6396
   5   2.0000     -10.089118      -274.5389
   6   2.0000     -10.052979      -273.5555
   7   2.0000      -9.995678      -271.9962
   8   2.0000      -8.068345      -219.5508
   9   2.0000      -6.099951      -165.9881
  10   2.0000      -6.093167      -165.8035
  11   2.0000      -6.092992      -165.7987
  12   2.0000      -1.478893       -40.2427
  13   2.0000      -1.208456       -32.8838
  14   2.0000      -1.109738       -30.1975
  15   2.0000      -0.941567       -25.6213
  16   2.0000      -0.883614       -24.0444
  17   2.0000      -0.829354       -22.5679
  18   2.0000      -0.787029       -21.4161
  19   2.0000      -0.717661       -19.5286
  20   2.0000      -0.704374       -19.1670
  21   2.0000      -0.683076       -18.5875
  22   2.0000      -0.652443       -17.7539
  23   2.0000      -0.615187       -16.7401
  24   2.0000      -0.602733       -16.4012
  25   2.0000      -0.566157       -15.4059
  26   2.0000      -0.559331       -15.2202
  27   2.0000      -0.526706       -14.3324
  28   2.0000      -0.506758       -13.7896
  29   2.0000      -0.502474       -13.6730
  30   2.0000      -0.488199       -13.2846
  31   2.0000      -0.456455       -12.4208
  32   2.0000      -0.447445       -12.1756
  33   2.0000      -0.420693       -11.4476
  34   2.0000      -0.418888       -11.3985
  35   2.0000      -0.413226       -11.2444
  36   2.0000      -0.374040       -10.1781
  37   0.0000       0.085576         2.3286
  38   0.0000       0.097849         2.6626
  39   0.0000       0.124366         3.3842
  40   0.0000       0.128800         3.5048
  41   0.0000       0.144519         3.9326

MULLIKEN ATOMIC CHARGES
-----------------------
   0 C :   -0.291954
   1 C :   -0.416107
   2 C :   -0.243425
   3 C :   -0.351143
   4 S :    0.752959
   5 H :    0.173457
   6 H :    0.185598
   7 H :    0.122897
   8 H :    0.177593
   9 H :    0.108638
  10 F :   -0.058416
  11 O :   -0.380502
  12 H :    0.163578
  13 H :    0.117544
  14 H :    0.146560
  15 H :    0.147962
  16 O :   -0.355240
Sum of atomic charges:    0.0000000

LOEWDIN ATOMIC CHARGES
----------------------
   0 C :   -0.314340
   1 C :   -0.331161
   2 C :   -0.285867
   3 C :   -0.376550
   4 S :    0.513796
   5 H :    0.142297
   6 H :    0.147218
   7 H :    0.109596
   8 H :    0.088362
   9 H :    0.104516
  10 F :    0.125344
  11 O :   -0.261591
  12 H :    0.145649
  13 H :    0.137688
  14 H :    0.149446
  15 H :    0.150696
  16 O :   -0.245099

  Mayer bond orders larger than 0.100000
B(  0-C ,  1-C ) :   0.8832 B(  0-C ,  2-C ) :   0.9207 B(  0-C , 12-H ) :   0.9807
B(  0-C , 13-H ) :   0.9829 B(  1-C ,  7-H ) :   0.9876 B(  1-C ,  8-H ) :   0.9378
B(  1-C ,  9-H ) :   0.9832 B(  2-C ,  3-C ) :   0.9109 B(  2-C , 14-H ) :   0.9792
B(  2-C , 15-H ) :   0.9639 B(  3-C ,  4-S ) :   0.9389 B(  3-C ,  5-H ) :   0.9455
B(  3-C ,  6-H ) :   0.9333 B(  4-S , 10-F ) :   1.2019 B(  4-S , 11-O ) :   1.8179
B(  4-S , 16-O ) :   1.9521

FINAL SINGLE POINT ENERGY      -805.351858184153

DIPOLE MOMENT
-------------
                                X             Y             Z
Electronic contribution:    -12.49865      -4.07037      -9.75616
Nuclear contribution   :     12.25227       5.48563       9.26621
                        -----------------------------------------
Total Dipole Moment    :     -0.24637       1.41526      -0.48995
                        -----------------------------------------
Magnitude (a.u.)       :      1.51780
Magnitude (Debye)      :      3.85794

Rotational constants in cm-1:     0.103176     0.044975     0.040960
Rotational constants in MHz :  3093.138469  1348.317425  1227.945122

                             ****ORCA TERMINATED NORMALLY****
TOTAL RUN TIME: 0 days 0 hours 0 minutes 25 seconds 340 msec
