                         Program Version 5.0.0 -  RELEASE  -
|  1> !LC-BLYP RIJCOSX def2-TZVP def2/J TightSCF xyzfile
|  2>
|  3> *xyzfile 0 1 D2.xyz
|  4>
|  5> %MaxCore 64000
|  6>
|  7> %pal nprocs 18
|  8> end
|  9>
| 10> %scf
| 11>   MaxIter 150
| 12> end
| 13>
| 14>
| 15>                          ****END OF INPUT****

CARTESIAN COORDINATES (ANGSTROEM)
---------------------------------
  C      1.364014    0.468742   -2.813764
  C      0.428844    0.321402   -1.655312
  C      0.968045    1.630639   -3.715749
  C     -0.508347    1.722679   -4.124300
  S     -1.328608    0.146737   -4.435781
  H     -0.591511    2.294958   -5.047219
  H     -1.114114    2.235610   -3.374362
  H      0.748578   -0.400542   -1.001345
  H     -0.461053    0.023332   -2.077731
  H      0.310258    1.201375   -1.134948
  O     -2.571347    0.475733   -5.068341
  F     -1.514963   -0.400512   -3.063420
  H      1.294847   -0.468742   -3.364684
  H      2.376216    0.597400   -2.431495
  H      1.578688    1.520652   -4.612733
  H      1.266653    2.575988   -3.250448
  O     -0.377928   -0.627558   -5.201141

 Total Charge           Charge          ....    0
 Multiplicity           Mult            ....    1
 Number of Electrons    NEL             ....   74
 Basis Dimension        Dim             ....  308

ORBITAL ENERGIES
----------------

  NO   OCC          E(Eh)            E(eV)
   0   2.0000     -88.519784     -2408.7458
   1   2.0000     -24.559067      -668.2862
   2   2.0000     -18.958284      -515.8811
   3   2.0000     -18.955238      -515.7982
   4   2.0000     -10.127500      -275.5833
   5   2.0000     -10.090907      -274.5875
   6   2.0000     -10.067933      -273.9624
   7   2.0000     -10.027371      -272.8586
   8   2.0000      -8.062635      -219.3955
   9   2.0000      -6.094649      -165.8438
  10   2.0000      -6.087499      -165.6493
  11   2.0000      -6.086925      -165.6336
  12   2.0000      -1.442590       -39.2549
  13   2.0000      -1.218011       -33.1438
  14   2.0000      -1.124735       -30.6056
  15   2.0000      -0.949497       -25.8371
  16   2.0000      -0.888737       -24.1838
  17   2.0000      -0.820790       -22.3348
  18   2.0000      -0.804676       -21.8964
  19   2.0000      -0.709264       -19.3000
  20   2.0000      -0.694451       -18.8970
  21   2.0000      -0.675884       -18.3917
  22   2.0000      -0.653130       -17.7726
  23   2.0000      -0.606672       -16.5084
  24   2.0000      -0.589241       -16.0341
  25   2.0000      -0.580711       -15.8020
  26   2.0000      -0.561779       -15.2868
  27   2.0000      -0.534905       -14.5555
  28   2.0000      -0.516653       -14.0588
  29   2.0000      -0.505574       -13.7574
  30   2.0000      -0.498645       -13.5688
  31   2.0000      -0.457472       -12.4484
  32   2.0000      -0.451994       -12.2994
  33   2.0000      -0.439432       -11.9576
  34   2.0000      -0.432807       -11.7773
  35   2.0000      -0.426835       -11.6148
  36   2.0000      -0.415385       -11.3032
  37   0.0000       0.082436         2.2432
  38   0.0000       0.106534         2.8989
  39   0.0000       0.118114         3.2140
  40   0.0000       0.122507         3.3336
  41   0.0000       0.139147         3.7864

MULLIKEN ATOMIC CHARGES
-----------------------
   0 C :   -0.320820
   1 C :   -0.402516
   2 C :   -0.222159
   3 C :   -0.370077
   4 S :    0.749617
   5 H :    0.194392
   6 H :    0.184874
   7 H :    0.140696
   8 H :    0.123631
   9 H :    0.130133
  10 O :   -0.353869
  11 F :   -0.082992
  12 H :    0.171870
  13 H :    0.126928
  14 H :    0.150129
  15 H :    0.144614
  16 O :   -0.364452
Sum of atomic charges:   -0.0000000

LOEWDIN ATOMIC CHARGES
----------------------
   0 C :   -0.316570
   1 C :   -0.330058
   2 C :   -0.292338
   3 C :   -0.371985
   4 S :    0.519263
   5 H :    0.155306
   6 H :    0.145049
   7 H :    0.113627
   8 H :    0.088305
   9 H :    0.110766
  10 O :   -0.241249
  11 F :    0.084263
  12 H :    0.144781
  13 H :    0.140468
  14 H :    0.150676
  15 H :    0.148383
  16 O :   -0.248688

  Mayer bond orders larger than 0.100000
B(  0-C ,  1-C ) :   0.8904 B(  0-C ,  2-C ) :   0.9059 B(  0-C , 12-H ) :   0.9797
B(  0-C , 13-H ) :   0.9839 B(  1-C ,  7-H ) :   0.9903 B(  1-C ,  8-H ) :   0.9699
B(  1-C ,  9-H ) :   0.9816 B(  2-C ,  3-C ) :   0.8922 B(  2-C , 14-H ) :   0.9779
B(  2-C , 15-H ) :   0.9635 B(  3-C ,  4-S ) :   0.9272 B(  3-C ,  5-H ) :   0.9492
B(  3-C ,  6-H ) :   0.9398 B(  4-S , 10-O ) :   2.0293 B(  4-S , 11-F ) :   1.0825
B(  4-S , 16-O ) :   1.9407

FINAL SINGLE POINT ENERGY      -805.374166949894

DIPOLE MOMENT
-------------
                                X             Y             Z
Electronic contribution:    -10.50560      -5.55674      -6.16190
Nuclear contribution   :     11.08796       6.45140       7.05645
                        -----------------------------------------
Total Dipole Moment    :      0.58236       0.89466       0.89456
                        -----------------------------------------
Magnitude (a.u.)       :      1.39277
Magnitude (Debye)      :      3.54013

Rotational constants in cm-1:     0.100113     0.046890     0.041843
Rotational constants in MHz :  3001.313402  1405.711946  1254.411771

                             ****ORCA TERMINATED NORMALLY****
TOTAL RUN TIME: 0 days 0 hours 0 minutes 25 seconds 983 msec
