                         Program Version 5.0.0 -  RELEASE  -
|  1> !M062X D3Zero RIJCOSX def2-TZVP def2/J TightSCF
|  2> *xyz -1 1
|  3> C          0.70466        1.44313       -4.50363
|  4> C          1.72854        1.42432       -5.63944
|  5> H          2.64672        1.95379       -5.38105
|  6> H          1.29992        1.93061       -6.50361
|  7> S          2.25263       -0.18811       -6.27184
|  8> O          3.56261       -0.44446       -5.63155
|  9> O          2.34494       -0.03374       -7.69650
| 10> O          1.26606       -1.15918       -5.80536
| 11> H         -0.17385        0.91270       -4.80656
| 12> H          0.44778        2.45562       -4.27173
| 13> H          1.12367        0.97423       -3.63791
| 14> *
| 15>
| 16> %MaxCore 64000
| 17>
| 18> %pal nprocs 4
| 19> end
| 20>
| 21> %scf
| 22>   MaxIter 150
| 23> end
| 24>
| 25>
| 26>                          ****END OF INPUT****

CARTESIAN COORDINATES (ANGSTROEM)
---------------------------------
  C      0.704660    1.443130   -4.503630
  C      1.728540    1.424320   -5.639440
  H      2.646720    1.953790   -5.381050
  H      1.299920    1.930610   -6.503610
  S      2.252630   -0.188110   -6.271840
  O      3.562610   -0.444460   -5.631550
  O      2.344940   -0.033740   -7.696500
  O      1.266060   -1.159180   -5.805360
  H     -0.173850    0.912700   -4.806560
  H      0.447780    2.455620   -4.271730
  H      1.123670    0.974230   -3.637910

 Total Charge           Charge          ....   -1
 Multiplicity           Mult            ....    1
 Number of Electrons    NEL             ....   58
 Basis Dimension        Dim             ....  222

ORBITAL ENERGIES
----------------

  NO   OCC          E(Eh)            E(eV)
   0   2.0000     -89.884592     -2445.8841
   1   2.0000     -19.402263      -527.9624
   2   2.0000     -19.395708      -527.7841
   3   2.0000     -19.386044      -527.5211
   4   2.0000     -10.393574      -282.8235
   5   2.0000     -10.390689      -282.7450
   6   2.0000      -8.209047      -223.3795
   7   2.0000      -6.131792      -166.8545
   8   2.0000      -6.130545      -166.8206
   9   2.0000      -6.130368      -166.8158
  10   2.0000      -1.040713       -28.3192
  11   2.0000      -0.907480       -24.6938
  12   2.0000      -0.883631       -24.0448
  13   2.0000      -0.727656       -19.8005
  14   2.0000      -0.594258       -16.1706
  15   2.0000      -0.463075       -12.6009
  16   2.0000      -0.388930       -10.5833
  17   2.0000      -0.387605       -10.5473
  18   2.0000      -0.347763        -9.4631
  19   2.0000      -0.333973        -9.0879
  20   2.0000      -0.329002        -8.9526
  21   2.0000      -0.289032        -7.8650
  22   2.0000      -0.281652        -7.6641
  23   2.0000      -0.222041        -6.0420
  24   2.0000      -0.220603        -6.0029
  25   2.0000      -0.183445        -4.9918
  26   2.0000      -0.172025        -4.6810
  27   2.0000      -0.164442        -4.4747
  28   2.0000      -0.132160        -3.5962
  29   0.0000       0.202501         5.5103
  30   0.0000       0.250103         6.8056
  31   0.0000       0.262606         7.1459
  32   0.0000       0.267714         7.2849
  33   0.0000       0.288558         7.8521

MULLIKEN ATOMIC CHARGES
-----------------------
   0 C :   -0.391618
   1 C :   -0.319399
   2 H :    0.123044
   3 H :    0.117698
   4 S :    0.911879
   5 O :   -0.621756
   6 O :   -0.578908
   7 O :   -0.599824
   8 H :    0.136447
   9 H :    0.092817
  10 H :    0.129620
Sum of atomic charges:   -1.0000000

LOEWDIN ATOMIC CHARGES
----------------------
   0 C :   -0.343687
   1 C :   -0.428551
   2 H :    0.120665
   3 H :    0.119561
   4 S :    0.432203
   5 O :   -0.442758
   6 O :   -0.380986
   7 O :   -0.407278
   8 H :    0.115503
   9 H :    0.100817
  10 H :    0.114511

  Mayer bond orders larger than 0.100000
B(  0-C ,  1-C ) :   0.9288 B(  0-C ,  8-H ) :   0.9739 B(  0-C ,  9-H ) :   0.9680
B(  0-C , 10-H ) :   0.9763 B(  1-C ,  2-H ) :   0.9654 B(  1-C ,  3-H ) :   0.9621
B(  1-C ,  4-S ) :   0.8812 B(  4-S ,  5-O ) :   1.7390 B(  4-S ,  6-O ) :   1.7905
B(  4-S ,  7-O ) :   1.7459

Dispersion correction           -0.000153212
FINAL SINGLE POINT ENERGY      -703.152458147168

DIPOLE MOMENT
-------------
                                X             Y             Z
Electronic contribution:      3.64869      -5.60972      -4.30394
Nuclear contribution   :     -4.50297       7.24642       5.01775
                        -----------------------------------------
Total Dipole Moment    :     -0.85428       1.63670       0.71381
                        -----------------------------------------
Magnitude (a.u.)       :      1.97942
Magnitude (Debye)      :      5.03129

Rotational constants in cm-1:     0.162459     0.081286     0.079601
Rotational constants in MHz :  4870.394399  2436.893583  2386.374948

                             ****ORCA TERMINATED NORMALLY****
TOTAL RUN TIME: 0 days 0 hours 0 minutes 31 seconds 628 msec
