                         Program Version 5.0.0 -  RELEASE  -
|  1> !M062X D3Zero RIJCOSX def2-TZVP def2/J TightSCF
|  2> *xyz 1 1
|  3> C          2.91632       -1.24259       -1.54313
|  4> C          3.46659       -1.59097       -2.88908
|  5> N          4.65227       -1.14316       -3.25969
|  6> N          2.75226       -2.29204       -3.72803
|  7> H          1.77836       -2.48960       -3.51274
|  8> H          2.94861       -2.20854       -4.71681
|  9> H          5.14672       -0.51251       -2.63385
| 10> H          4.78303       -1.00720       -4.25350
| 11> C          2.80408        0.29070       -1.35924
| 12> H          1.94047       -1.71653       -1.44116
| 13> H          3.55857       -1.66343       -0.76637
| 14> H          2.17393        0.69633       -2.12297
| 15> H          3.77707        0.73043       -1.42880
| 16> H          2.38369        0.50492       -0.39889
| 17> *
| 18>
| 19> %MaxCore 64000
| 20>
| 21> %pal nprocs 4
| 22> end
| 23>
| 24> %scf
| 25>   MaxIter 150
| 26> end
| 27>
| 28>
| 29>                          ****END OF INPUT****

CARTESIAN COORDINATES (ANGSTROEM)
---------------------------------
  C      2.916320   -1.242590   -1.543130
  C      3.466590   -1.590970   -2.889080
  N      4.652270   -1.143160   -3.259690
  N      2.752260   -2.292040   -3.728030
  H      1.778360   -2.489600   -3.512740
  H      2.948610   -2.208540   -4.716810
  H      5.146720   -0.512510   -2.633850
  H      4.783030   -1.007200   -4.253500
  C      2.804080    0.290700   -1.359240
  H      1.940470   -1.716530   -1.441160
  H      3.558570   -1.663430   -0.766370
  H      2.173930    0.696330   -2.122970
  H      3.777070    0.730430   -1.428800
  H      2.383690    0.504920   -0.398890

 Total Charge           Charge          ....    1
 Multiplicity           Mult            ....    1
 Number of Electrons    NEL             ....   40
 Basis Dimension        Dim             ....  209

ORBITAL ENERGIES
----------------

  NO   OCC          E(Eh)            E(eV)
   0   2.0000     -14.997629      -408.1062
   1   2.0000     -14.991870      -407.9495
   2   2.0000     -10.865561      -295.6669
   3   2.0000     -10.738230      -292.2021
   4   2.0000     -10.697427      -291.0918
   5   2.0000      -1.324278       -36.0354
   6   2.0000      -1.217585       -33.1322
   7   2.0000      -1.069716       -29.1085
   8   2.0000      -0.953704       -25.9516
   9   2.0000      -0.901076       -24.5195
  10   2.0000      -0.844449       -22.9786
  11   2.0000      -0.831752       -22.6331
  12   2.0000      -0.769082       -20.9278
  13   2.0000      -0.738999       -20.1092
  14   2.0000      -0.695518       -18.9260
  15   2.0000      -0.669540       -18.2191
  16   2.0000      -0.616441       -16.7742
  17   2.0000      -0.606698       -16.5091
  18   2.0000      -0.594614       -16.1803
  19   2.0000      -0.562671       -15.3111
  20   0.0000      -0.180287        -4.9059
  21   0.0000      -0.129996        -3.5374
  22   0.0000      -0.087093        -2.3699
  23   0.0000      -0.085397        -2.3238
  24   0.0000      -0.046616        -1.2685

MULLIKEN ATOMIC CHARGES
-----------------------
   0 C :   -0.341426
   1 C :    0.443379
   2 N :   -0.394214
   3 N :   -0.389665
   4 H :    0.310074
   5 H :    0.285925
   6 H :    0.307197
   7 H :    0.287262
   8 C :   -0.387609
   9 H :    0.166586
  10 H :    0.215929
  11 H :    0.166212
  12 H :    0.139399
  13 H :    0.190952
Sum of atomic charges:    1.0000000

LOEWDIN ATOMIC CHARGES
----------------------
   0 C :   -0.217423
   1 C :   -0.291932
   2 N :    0.101496
   3 N :    0.115457
   4 H :    0.212522
   5 H :    0.202217
   6 H :    0.209640
   7 H :    0.202794
   8 C :   -0.257305
   9 H :    0.158753
  10 H :    0.172701
  11 H :    0.129967
  12 H :    0.120821
  13 H :    0.140293

  Mayer bond orders larger than 0.100000
B(  0-C ,  1-C ) :   0.9595 B(  0-C ,  8-C ) :   0.9170 B(  0-C ,  9-H ) :   0.9744
B(  0-C , 10-H ) :   0.9411 B(  1-C ,  2-N ) :   1.3673 B(  1-C ,  3-N ) :   1.4222
B(  2-N ,  6-H ) :   0.8915 B(  2-N ,  7-H ) :   0.8937 B(  3-N ,  4-H ) :   0.8855
B(  3-N ,  5-H ) :   0.8953 B(  8-C , 11-H ) :   0.9577 B(  8-C , 12-H ) :   0.9666
B(  8-C , 13-H ) :   0.9635

Dispersion correction           -0.000192261
FINAL SINGLE POINT ENERGY      -228.997048768505

DIPOLE MOMENT
-------------
                                X             Y             Z
Electronic contribution:      1.29526      -2.83732      -2.76915
Nuclear contribution   :     -1.30215       2.77761       1.84194
                        -----------------------------------------
Total Dipole Moment    :     -0.00689      -0.05971      -0.92721
                        -----------------------------------------
Magnitude (a.u.)       :      0.92916
Magnitude (Debye)      :      2.36174

Rotational constants in cm-1:     0.267442     0.127541     0.099068
Rotational constants in MHz :  8017.703171  3823.592522  2969.992494

                             ****ORCA TERMINATED NORMALLY****
TOTAL RUN TIME: 0 days 0 hours 0 minutes 29 seconds 477 msec
