                         Program Version 5.0.0 -  RELEASE  -
|  1> !M062X D3Zero RIJCOSX def2-TZVP def2/J TightSCF
|  2> *xyz 0 1
|  3> C          0.70466        1.44313       -4.50363
|  4> C          1.72854        1.42432       -5.63944
|  5> H          2.64672        1.95379       -5.38105
|  6> H          1.29992        1.93061       -6.50361
|  7> S          2.25263       -0.18811       -6.27184
|  8> F          3.56261       -0.44446       -5.63155
|  9> O          2.34494       -0.03374       -7.69650
| 10> O          1.26606       -1.15918       -5.80536
| 11> H         -0.17385        0.91270       -4.80656
| 12> H          0.44778        2.45562       -4.27173
| 13> H          1.12367        0.97423       -3.63791
| 14> *
| 15>
| 16> %MaxCore 64000
| 17>
| 18> %pal nprocs 4
| 19> end
| 20>
| 21> %scf
| 22>   MaxIter 150
| 23> end
| 24>
| 25>
| 26>                          ****END OF INPUT****

CARTESIAN COORDINATES (ANGSTROEM)
---------------------------------
  C      0.704660    1.443130   -4.503630
  C      1.728540    1.424320   -5.639440
  H      2.646720    1.953790   -5.381050
  H      1.299920    1.930610   -6.503610
  S      2.252630   -0.188110   -6.271840
  F      3.562610   -0.444460   -5.631550
  O      2.344940   -0.033740   -7.696500
  O      1.266060   -1.159180   -5.805360
  H     -0.173850    0.912700   -4.806560
  H      0.447780    2.455620   -4.271730
  H      1.123670    0.974230   -3.637910

 Total Charge           Charge          ....    0
 Multiplicity           Mult            ....    1
 Number of Electrons    NEL             ....   58
 Basis Dimension        Dim             ....  222

ORBITAL ENERGIES
----------------

  NO   OCC          E(Eh)            E(eV)
   0   2.0000     -90.150795     -2453.1279
   1   2.0000     -25.348677      -689.7726
   2   2.0000     -19.642226      -534.4921
   3   2.0000     -19.635150      -534.2996
   4   2.0000     -10.598743      -288.4064
   5   2.0000     -10.554637      -287.2063
   6   2.0000      -8.475809      -230.6385
   7   2.0000      -6.400656      -174.1707
   8   2.0000      -6.395839      -174.0396
   9   2.0000      -6.394983      -174.0163
  10   2.0000      -1.498873       -40.7864
  11   2.0000      -1.235811       -33.6281
  12   2.0000      -1.139662       -31.0118
  13   2.0000      -0.920396       -25.0453
  14   2.0000      -0.823369       -22.4050
  15   2.0000      -0.761950       -20.7337
  16   2.0000      -0.671277       -18.2664
  17   2.0000      -0.665689       -18.1143
  18   2.0000      -0.638762       -17.3816
  19   2.0000      -0.568365       -15.4660
  20   2.0000      -0.558269       -15.1913
  21   2.0000      -0.535618       -14.5749
  22   2.0000      -0.502332       -13.6692
  23   2.0000      -0.473998       -12.8982
  24   2.0000      -0.469383       -12.7726
  25   2.0000      -0.453015       -12.3272
  26   2.0000      -0.410879       -11.1806
  27   2.0000      -0.399316       -10.8659
  28   2.0000      -0.393362       -10.7039
  29   0.0000       0.049629         1.3505
  30   0.0000       0.073749         2.0068
  31   0.0000       0.088252         2.4015
  32   0.0000       0.110796         3.0149
  33   0.0000       0.111687         3.0392

MULLIKEN ATOMIC CHARGES
-----------------------
   0 C :   -0.389261
   1 C :   -0.319097
   2 H :    0.164251
   3 H :    0.184282
   4 S :    0.939661
   5 F :   -0.136547
   6 O :   -0.441978
   7 O :   -0.465331
   8 H :    0.167703
   9 H :    0.147543
  10 H :    0.148774
Sum of atomic charges:   -0.0000000

LOEWDIN ATOMIC CHARGES
----------------------
   0 C :   -0.308527
   1 C :   -0.392100
   2 H :    0.136141
   3 H :    0.148906
   4 S :    0.564682
   5 F :    0.042218
   6 O :   -0.270196
   7 O :   -0.297149
   8 H :    0.128048
   9 H :    0.124988
  10 H :    0.122990

  Mayer bond orders larger than 0.100000
B(  0-C ,  1-C ) :   0.9410 B(  0-C ,  8-H ) :   0.9641 B(  0-C ,  9-H ) :   0.9592
B(  0-C , 10-H ) :   0.9692 B(  1-C ,  2-H ) :   0.9451 B(  1-C ,  3-H ) :   0.9430
B(  1-C ,  4-S ) :   0.9100 B(  4-S ,  5-F ) :   1.0834 B(  4-S ,  6-O ) :   1.9292
B(  4-S ,  7-O ) :   1.8897

Dispersion correction           -0.000155906
FINAL SINGLE POINT ENERGY      -727.683433272796

DIPOLE MOMENT
-------------
                                X             Y             Z
Electronic contribution:      6.31250      -6.45409      -3.68444
Nuclear contribution   :     -6.09914       7.80989       4.64238
                        -----------------------------------------
Total Dipole Moment    :      0.21336       1.35580       0.95794
                        -----------------------------------------
Magnitude (a.u.)       :      1.67373
Magnitude (Debye)      :      4.25427

Rotational constants in cm-1:     0.154372     0.078826     0.078033
Rotational constants in MHz :  4627.943144  2363.154585  2339.382767

                             ****ORCA TERMINATED NORMALLY****
TOTAL RUN TIME: 0 days 0 hours 0 minutes 26 seconds 240 msec
