                         Program Version 5.0.0 -  RELEASE  -
|  1> !M062X D3Zero RIJCOSX def2-TZVP def2/J TightSCF
|  2> *xyz 0 1
|  3> C          2.91632       -1.24259       -1.54313
|  4> C          3.46659       -1.59097       -2.88908
|  5> C          4.65227       -1.14316       -3.25969
|  6> N          2.75226       -2.29204       -3.72803
|  7> H          1.77836       -2.48960       -3.51274
|  8> H          2.94861       -2.20854       -4.71681
|  9> H          5.14672       -0.51251       -2.63385
| 10> H          4.78303       -1.00720       -4.25350
| 11> C          2.80408        0.29070       -1.35924
| 12> H          1.94047       -1.71653       -1.44116
| 13> H          3.55857       -1.66343       -0.76637
| 14> H          2.17393        0.69633       -2.12297
| 15> H          3.77707        0.73043       -1.42880
| 16> H          2.38369        0.50492       -0.39889
| 17> *
| 18>
| 19> %MaxCore 64000
| 20>
| 21> %pal nprocs 4
| 22> end
| 23>
| 24> %scf
| 25>   MaxIter 150
| 26> end
| 27>
| 28>
| 29>                          ****END OF INPUT****

CARTESIAN COORDINATES (ANGSTROEM)
---------------------------------
  C      2.916320   -1.242590   -1.543130
  C      3.466590   -1.590970   -2.889080
  C      4.652270   -1.143160   -3.259690
  N      2.752260   -2.292040   -3.728030
  H      1.778360   -2.489600   -3.512740
  H      2.948610   -2.208540   -4.716810
  H      5.146720   -0.512510   -2.633850
  H      4.783030   -1.007200   -4.253500
  C      2.804080    0.290700   -1.359240
  H      1.940470   -1.716530   -1.441160
  H      3.558570   -1.663430   -0.766370
  H      2.173930    0.696330   -2.122970
  H      3.777070    0.730430   -1.428800
  H      2.383690    0.504920   -0.398890

 Total Charge           Charge          ....    0
 Multiplicity           Mult            ....    1
 Number of Electrons    NEL             ....   40
 Basis Dimension        Dim             ....  209

ORBITAL ENERGIES
----------------

  NO   OCC          E(Eh)            E(eV)
   0   2.0000     -14.749213      -401.3465
   1   2.0000     -10.556870      -287.2670
   2   2.0000     -10.537446      -286.7385
   3   2.0000     -10.520728      -286.2836
   4   2.0000     -10.462950      -284.7113
   5   2.0000      -1.046549       -28.4780
   6   2.0000      -0.879804       -23.9407
   7   2.0000      -0.806472       -21.9452
   8   2.0000      -0.731681       -19.9100
   9   2.0000      -0.643491       -17.5103
  10   2.0000      -0.596377       -16.2283
  11   2.0000      -0.551431       -15.0052
  12   2.0000      -0.519193       -14.1280
  13   2.0000      -0.476660       -12.9706
  14   2.0000      -0.456465       -12.4210
  15   2.0000      -0.442673       -12.0458
  16   2.0000      -0.418293       -11.3823
  17   2.0000      -0.405439       -11.0325
  18   2.0000      -0.390542       -10.6272
  19   2.0000      -0.243422        -6.6239
  20   0.0000       0.057024         1.5517
  21   0.0000       0.069255         1.8845
  22   0.0000       0.100824         2.7436
  23   0.0000       0.103918         2.8278
  24   0.0000       0.121775         3.3137

MULLIKEN ATOMIC CHARGES
-----------------------
   0 C :   -0.321031
   1 C :    0.302880
   2 C :   -0.412296
   3 N :   -0.513810
   4 H :    0.237557
   5 H :    0.240643
   6 H :    0.082440
   7 H :    0.085844
   8 C :   -0.382517
   9 H :    0.115238
  10 H :    0.159625
  11 H :    0.136935
  12 H :    0.136345
  13 H :    0.132147
Sum of atomic charges:    0.0000000

LOEWDIN ATOMIC CHARGES
----------------------
   0 C :   -0.237476
   1 C :   -0.375113
   2 C :   -0.280069
   3 N :   -0.000855
   4 H :    0.169068
   5 H :    0.175273
   6 H :    0.103894
   7 H :    0.100760
   8 C :   -0.287432
   9 H :    0.133093
  10 H :    0.149656
  11 H :    0.117974
  12 H :    0.117846
  13 H :    0.113383

  Mayer bond orders larger than 0.100000
B(  0-C ,  1-C ) :   0.9046 B(  0-C ,  8-C ) :   0.9334 B(  0-C ,  9-H ) :   0.9930
B(  0-C , 10-H ) :   0.9855 B(  1-C ,  2-C ) :   1.7373 B(  1-C ,  3-N ) :   1.1171
B(  2-C ,  6-H ) :   1.0180 B(  2-C ,  7-H ) :   0.9895 B(  3-N ,  4-H ) :   0.9271
B(  3-N ,  5-H ) :   0.9231 B(  8-C , 11-H ) :   0.9737 B(  8-C , 12-H ) :   0.9748
B(  8-C , 13-H ) :   0.9770

Dispersion correction           -0.000189315
FINAL SINGLE POINT ENERGY      -212.526437684465

DIPOLE MOMENT
-------------
                                X             Y             Z
Electronic contribution:      0.08159      -2.72633      -1.81225
Nuclear contribution   :     -0.99366       2.78648       1.68526
                        -----------------------------------------
Total Dipole Moment    :     -0.91207       0.06015      -0.12698
                        -----------------------------------------
Magnitude (a.u.)       :      0.92283
Magnitude (Debye)      :      2.34565

Rotational constants in cm-1:     0.282898     0.128664     0.101801
Rotational constants in MHz :  8481.061354  3857.240210  3051.924245

                             ****ORCA TERMINATED NORMALLY****
TOTAL RUN TIME: 0 days 0 hours 0 minutes 26 seconds 985 msec
