                         Program Version 5.0.0 -  RELEASE  -
|  1> !M062X D3Zero RIJCOSX def2-TZVP def2/J TightSCF
|  2> *xyz 0 1
|  3> C          0.70466        1.44313       -4.50363
|  4> C          1.72854        1.42432       -5.63944
|  5> H          2.64672        1.95379       -5.38105
|  6> H          1.29992        1.93061       -6.50361
|  7> S          2.25263       -0.18811       -6.27184
|  8> O          3.56261       -0.44446       -5.63155
|  9> F          2.34494       -0.03374       -7.69650
| 10> O          1.26606       -1.15918       -5.80536
| 11> H         -0.17385        0.91270       -4.80656
| 12> H          0.44778        2.45562       -4.27173
| 13> H          1.12367        0.97423       -3.63791
| 14> *
| 15>
| 16> %MaxCore 64000
| 17>
| 18> %pal nprocs 4
| 19> end
| 20>
| 21> %scf
| 22>   MaxIter 150
| 23> end
| 24>
| 25>
| 26>                          ****END OF INPUT****

CARTESIAN COORDINATES (ANGSTROEM)
---------------------------------
  C      0.704660    1.443130   -4.503630
  C      1.728540    1.424320   -5.639440
  H      2.646720    1.953790   -5.381050
  H      1.299920    1.930610   -6.503610
  S      2.252630   -0.188110   -6.271840
  O      3.562610   -0.444460   -5.631550
  F      2.344940   -0.033740   -7.696500
  O      1.266060   -1.159180   -5.805360
  H     -0.173850    0.912700   -4.806560
  H      0.447780    2.455620   -4.271730
  H      1.123670    0.974230   -3.637910

 Total Charge           Charge          ....    0
 Multiplicity           Mult            ....    1
 Number of Electrons    NEL             ....   58
 Basis Dimension        Dim             ....  222

ORBITAL ENERGIES
----------------

  NO   OCC          E(Eh)            E(eV)
   0   2.0000     -90.152773     -2453.1817
   1   2.0000     -25.372095      -690.4098
   2   2.0000     -19.635377      -534.3058
   3   2.0000     -19.626643      -534.0681
   4   2.0000     -10.599686      -288.4321
   5   2.0000     -10.555264      -287.2233
   6   2.0000      -8.477850      -230.6940
   7   2.0000      -6.402609      -174.2239
   8   2.0000      -6.397713      -174.0906
   9   2.0000      -6.397076      -174.0733
  10   2.0000      -1.537457       -41.8363
  11   2.0000      -1.220385       -33.2084
  12   2.0000      -1.119134       -30.4532
  13   2.0000      -0.921507       -25.0755
  14   2.0000      -0.840514       -22.8716
  15   2.0000      -0.770227       -20.9589
  16   2.0000      -0.694478       -18.8977
  17   2.0000      -0.688512       -18.7354
  18   2.0000      -0.641117       -17.4457
  19   2.0000      -0.566538       -15.4163
  20   2.0000      -0.560795       -15.2600
  21   2.0000      -0.520731       -14.1698
  22   2.0000      -0.499134       -13.5821
  23   2.0000      -0.473634       -12.8882
  24   2.0000      -0.459283       -12.4977
  25   2.0000      -0.453904       -12.3514
  26   2.0000      -0.402734       -10.9589
  27   2.0000      -0.390009       -10.6127
  28   2.0000      -0.377628       -10.2758
  29   0.0000       0.051135         1.3915
  30   0.0000       0.069327         1.8865
  31   0.0000       0.088787         2.4160
  32   0.0000       0.107445         2.9237
  33   0.0000       0.110506         3.0070

MULLIKEN ATOMIC CHARGES
-----------------------
   0 C :   -0.389783
   1 C :   -0.314687
   2 H :    0.183457
   3 H :    0.154704
   4 S :    0.931621
   5 O :   -0.474343
   6 F :   -0.105651
   7 O :   -0.456470
   8 H :    0.159066
   9 H :    0.148021
  10 H :    0.164065
Sum of atomic charges:    0.0000000

LOEWDIN ATOMIC CHARGES
----------------------
   0 C :   -0.302350
   1 C :   -0.393981
   2 H :    0.144275
   3 H :    0.134154
   4 S :    0.557458
   5 O :   -0.324412
   6 F :    0.098017
   7 O :   -0.293360
   8 H :    0.126472
   9 H :    0.125645
  10 H :    0.128082

  Mayer bond orders larger than 0.100000
B(  0-C ,  1-C ) :   0.9451 B(  0-C ,  8-H ) :   0.9644 B(  0-C ,  9-H ) :   0.9588
B(  0-C , 10-H ) :   0.9669 B(  1-C ,  2-H ) :   0.9407 B(  1-C ,  3-H ) :   0.9426
B(  1-C ,  4-S ) :   0.9140 B(  4-S ,  5-O ) :   1.8785 B(  4-S ,  6-F ) :   1.1264
B(  4-S ,  7-O ) :   1.8914

Dispersion correction           -0.000150511
FINAL SINGLE POINT ENERGY      -727.663804170861

DIPOLE MOMENT
-------------
                                X             Y             Z
Electronic contribution:      4.19587      -5.75126      -7.22790
Nuclear contribution   :     -4.83029       7.38191       6.79413
                        -----------------------------------------
Total Dipole Moment    :     -0.63441       1.63065      -0.43377
                        -----------------------------------------
Magnitude (a.u.)       :      1.80268
Magnitude (Debye)      :      4.58204

Rotational constants in cm-1:     0.156575     0.079070     0.076729
Rotational constants in MHz :  4694.010604  2370.444114  2300.280155

                             ****ORCA TERMINATED NORMALLY****
TOTAL RUN TIME: 0 days 0 hours 0 minutes 26 seconds 717 msec
