                         Program Version 5.0.0 -  RELEASE  -
|  1> !M062X D3Zero RIJCOSX def2-TZVP def2/J TightSCF
|  2> *xyz 0 1
|  3> C          2.91632       -1.24259       -1.54313
|  4> C          3.46659       -1.59097       -2.88908
|  5> N          4.65227       -1.14316       -3.25969
|  6> C          2.75226       -2.29204       -3.72803
|  7> H          1.77836       -2.48960       -3.51274
|  8> H          2.94861       -2.20854       -4.71681
|  9> H          5.14672       -0.51251       -2.63385
| 10> H          4.78303       -1.00720       -4.25350
| 11> C          2.80408        0.29070       -1.35924
| 12> H          1.94047       -1.71653       -1.44116
| 13> H          3.55857       -1.66343       -0.76637
| 14> H          2.17393        0.69633       -2.12297
| 15> H          3.77707        0.73043       -1.42880
| 16> H          2.38369        0.50492       -0.39889
| 17> *
| 18>
| 19> %MaxCore 64000
| 20>
| 21> %pal nprocs 4
| 22> end
| 23>
| 24> %scf
| 25>   MaxIter 150
| 26> end
| 27>
| 28>
| 29>                          ****END OF INPUT****

CARTESIAN COORDINATES (ANGSTROEM)
---------------------------------
  C      2.916320   -1.242590   -1.543130
  C      3.466590   -1.590970   -2.889080
  N      4.652270   -1.143160   -3.259690
  C      2.752260   -2.292040   -3.728030
  H      1.778360   -2.489600   -3.512740
  H      2.948610   -2.208540   -4.716810
  H      5.146720   -0.512510   -2.633850
  H      4.783030   -1.007200   -4.253500
  C      2.804080    0.290700   -1.359240
  H      1.940470   -1.716530   -1.441160
  H      3.558570   -1.663430   -0.766370
  H      2.173930    0.696330   -2.122970
  H      3.777070    0.730430   -1.428800
  H      2.383690    0.504920   -0.398890

 Total Charge           Charge          ....    0
 Multiplicity           Mult            ....    1
 Number of Electrons    NEL             ....   40
 Basis Dimension        Dim             ....  209

ORBITAL ENERGIES
----------------

  NO   OCC          E(Eh)            E(eV)
   0   2.0000     -14.745563      -401.2472
   1   2.0000     -10.555436      -287.2280
   2   2.0000     -10.535921      -286.6970
   3   2.0000     -10.525485      -286.4130
   4   2.0000     -10.467056      -284.8231
   5   2.0000      -1.041305       -28.3353
   6   2.0000      -0.877244       -23.8710
   7   2.0000      -0.818460       -22.2714
   8   2.0000      -0.724159       -19.7054
   9   2.0000      -0.643384       -17.5074
  10   2.0000      -0.600887       -16.3510
  11   2.0000      -0.547868       -14.9082
  12   2.0000      -0.505397       -13.7526
  13   2.0000      -0.502551       -13.6751
  14   2.0000      -0.453560       -12.3420
  15   2.0000      -0.446531       -12.1507
  16   2.0000      -0.419627       -11.4186
  17   2.0000      -0.404429       -11.0051
  18   2.0000      -0.385104       -10.4792
  19   2.0000      -0.251238        -6.8365
  20   0.0000       0.054352         1.4790
  21   0.0000       0.073013         1.9868
  22   0.0000       0.104166         2.8345
  23   0.0000       0.108534         2.9534
  24   0.0000       0.119052         3.2396

MULLIKEN ATOMIC CHARGES
-----------------------
   0 C :   -0.317904
   1 C :    0.285803
   2 N :   -0.521240
   3 C :   -0.396414
   4 H :    0.092061
   5 H :    0.082376
   6 H :    0.238373
   7 H :    0.243815
   8 C :   -0.388771
   9 H :    0.137190
  10 H :    0.147105
  11 H :    0.144699
  12 H :    0.112496
  13 H :    0.140411
Sum of atomic charges:    0.0000000

LOEWDIN ATOMIC CHARGES
----------------------
   0 C :   -0.238131
   1 C :   -0.375054
   2 N :   -0.011221
   3 C :   -0.267892
   4 H :    0.106356
   5 H :    0.100198
   6 H :    0.169233
   7 H :    0.176958
   8 C :   -0.293959
   9 H :    0.147077
  10 H :    0.140143
  11 H :    0.120315
  12 H :    0.109026
  13 H :    0.116951

  Mayer bond orders larger than 0.100000
B(  0-C ,  1-C ) :   0.9440 B(  0-C ,  8-C ) :   0.9154 B(  0-C ,  9-H ) :   0.9891
B(  0-C , 10-H ) :   0.9783 B(  1-C ,  2-N ) :   1.0646 B(  1-C ,  3-C ) :   1.7921
B(  2-N ,  6-H ) :   0.9348 B(  2-N ,  7-H ) :   0.9242 B(  3-C ,  4-H ) :   1.0022
B(  3-C ,  5-H ) :   0.9948 B(  8-C , 11-H ) :   0.9711 B(  8-C , 12-H ) :   0.9748
B(  8-C , 13-H ) :   0.9782

Dispersion correction           -0.000188799
FINAL SINGLE POINT ENERGY      -212.530545552745

DIPOLE MOMENT
-------------
                                X             Y             Z
Electronic contribution:      1.72558      -1.73157      -1.40982
Nuclear contribution   :     -1.43372       2.52039       1.57679
                        -----------------------------------------
Total Dipole Moment    :      0.29186       0.78882       0.16697
                        -----------------------------------------
Magnitude (a.u.)       :      0.85749
Magnitude (Debye)      :      2.17958

Rotational constants in cm-1:     0.274962     0.131786     0.102554
Rotational constants in MHz :  8243.150005  3950.846092  3074.493018

                             ****ORCA TERMINATED NORMALLY****
TOTAL RUN TIME: 0 days 0 hours 0 minutes 24 seconds 556 msec
