                         Program Version 5.0.0 -  RELEASE  -
|  1> !M062X D3Zero RIJCOSX def2-TZVP def2/J TightSCF
|  2> *xyz 0 1
|  3> C          0.70466        1.44313       -4.50363
|  4> C          1.72854        1.42432       -5.63944
|  5> H          2.64672        1.95379       -5.38105
|  6> H          1.29992        1.93061       -6.50361
|  7> S          2.25263       -0.18811       -6.27184
|  8> O          3.56261       -0.44446       -5.63155
|  9> O          2.34494       -0.03374       -7.69650
| 10> F          1.26606       -1.15918       -5.80536
| 11> H         -0.17385        0.91270       -4.80656
| 12> H          0.44778        2.45562       -4.27173
| 13> H          1.12367        0.97423       -3.63791
| 14> *
| 15>
| 16> %MaxCore 64000
| 17>
| 18> %pal nprocs 4
| 19> end
| 20>
| 21> %scf
| 22>   MaxIter 150
| 23> end
| 24>
| 25>
| 26>                          ****END OF INPUT****

CARTESIAN COORDINATES (ANGSTROEM)
---------------------------------
  C      0.704660    1.443130   -4.503630
  C      1.728540    1.424320   -5.639440
  H      2.646720    1.953790   -5.381050
  H      1.299920    1.930610   -6.503610
  S      2.252630   -0.188110   -6.271840
  O      3.562610   -0.444460   -5.631550
  O      2.344940   -0.033740   -7.696500
  F      1.266060   -1.159180   -5.805360
  H     -0.173850    0.912700   -4.806560
  H      0.447780    2.455620   -4.271730
  H      1.123670    0.974230   -3.637910

 Total Charge           Charge          ....    0
 Multiplicity           Mult            ....    1
 Number of Electrons    NEL             ....   58
 Basis Dimension        Dim             ....  222

ORBITAL ENERGIES
----------------

  NO   OCC          E(Eh)            E(eV)
   0   2.0000     -90.151306     -2453.1417
   1   2.0000     -25.359716      -690.0729
   2   2.0000     -19.642228      -534.4922
   3   2.0000     -19.626122      -534.0539
   4   2.0000     -10.598747      -288.4066
   5   2.0000     -10.562516      -287.4207
   6   2.0000      -8.476383      -230.6541
   7   2.0000      -6.401313      -174.1886
   8   2.0000      -6.396141      -174.0478
   9   2.0000      -6.395642      -174.0343
  10   2.0000      -1.515833       -41.2479
  11   2.0000      -1.231126       -33.5006
  12   2.0000      -1.127327       -30.6761
  13   2.0000      -0.924660       -25.1613
  14   2.0000      -0.828387       -22.5415
  15   2.0000      -0.770390       -20.9634
  16   2.0000      -0.687863       -18.7177
  17   2.0000      -0.678827       -18.4718
  18   2.0000      -0.632003       -17.1977
  19   2.0000      -0.570725       -15.5302
  20   2.0000      -0.554675       -15.0935
  21   2.0000      -0.525571       -14.3015
  22   2.0000      -0.517765       -14.0891
  23   2.0000      -0.482077       -13.1180
  24   2.0000      -0.463261       -12.6060
  25   2.0000      -0.458712       -12.4822
  26   2.0000      -0.406442       -11.0598
  27   2.0000      -0.392410       -10.6780
  28   2.0000      -0.383708       -10.4412
  29   0.0000       0.039735         1.0812
  30   0.0000       0.081433         2.2159
  31   0.0000       0.096600         2.6286
  32   0.0000       0.105677         2.8756
  33   0.0000       0.107940         2.9372

MULLIKEN ATOMIC CHARGES
-----------------------
   0 C :   -0.411783
   1 C :   -0.306428
   2 H :    0.187343
   3 H :    0.175534
   4 S :    0.933953
   5 O :   -0.480511
   6 O :   -0.436969
   7 F :   -0.123484
   8 H :    0.149028
   9 H :    0.152335
  10 H :    0.160982
Sum of atomic charges:    0.0000000

LOEWDIN ATOMIC CHARGES
----------------------
   0 C :   -0.315845
   1 C :   -0.385549
   2 H :    0.149140
   3 H :    0.142897
   4 S :    0.561834
   5 O :   -0.327594
   6 O :   -0.268001
   7 F :    0.070711
   8 H :    0.120618
   9 H :    0.127318
  10 H :    0.124470

  Mayer bond orders larger than 0.100000
B(  0-C ,  1-C ) :   0.9400 B(  0-C ,  8-H ) :   0.9657 B(  0-C ,  9-H ) :   0.9623
B(  0-C , 10-H ) :   0.9652 B(  1-C ,  2-H ) :   0.9410 B(  1-C ,  3-H ) :   0.9442
B(  1-C ,  4-S ) :   0.9147 B(  4-S ,  5-O ) :   1.8768 B(  4-S ,  6-O ) :   1.9294
B(  4-S ,  7-F ) :   1.0993

Dispersion correction           -0.000160022
FINAL SINGLE POINT ENERGY      -727.673433208821

DIPOLE MOMENT
-------------
                                X             Y             Z
Electronic contribution:      2.34618      -7.64353      -3.98203
Nuclear contribution   :     -3.70606       8.55465       4.82350
                        -----------------------------------------
Total Dipole Moment    :     -1.35988       0.91112       0.84147
                        -----------------------------------------
Magnitude (a.u.)       :      1.84052
Magnitude (Debye)      :      4.67822

Rotational constants in cm-1:     0.153201     0.080978     0.077494
Rotational constants in MHz :  4592.852844  2427.650814  2323.207507

                             ****ORCA TERMINATED NORMALLY****
TOTAL RUN TIME: 0 days 0 hours 0 minutes 30 seconds 733 msec
