                         Program Version 5.0.0 -  RELEASE  -
|  1> !wB97X-D3 RIJCOSX def2-TZVP def2/J TightSCF xyzfile
|  2>
|  3> *xyzfile 0 1 D5.xyz
|  4>
|  5> %MaxCore 64000
|  6>
|  7> %pal nprocs 18
|  8> end
|  9>
| 10> %scf
| 11>   MaxIter 150
| 12> end
| 13>
| 14>
| 15>                          ****END OF INPUT****

CARTESIAN COORDINATES (ANGSTROEM)
---------------------------------
  C      2.916324   -1.242589   -1.543125
  C      0.704661    1.443129   -4.503630
  C      1.728539    1.424320   -5.639443
  H      2.646718    1.953794   -5.381054
  H      1.299916    1.930613   -6.503614
  S      2.252625   -0.188115   -6.271840
  C      3.466585   -1.590971   -2.889082
  C      4.652275   -1.143164   -3.259692
  N      2.752264   -2.292043   -3.728029
  H      1.778364   -2.489604   -3.512738
  H      2.948612   -2.208544   -4.716813
  H      5.146723   -0.512508   -2.633852
  H      4.783030   -1.007203   -4.253498
  O      3.562607   -0.444464   -5.631552
  O      2.344944   -0.033742   -7.696501
  C      2.804084    0.290698   -1.359243
  C      1.052550    0.695659   -3.214915
  H     -0.232483    1.032925   -4.884449
  H      0.511700    2.495794   -4.267966
  C      2.388380    1.093669   -2.597108
  H      3.763425    0.674718   -0.999889
  H      2.094788    0.461222   -0.545756
  F      1.266058   -1.159177   -5.805365
  H      3.167316    1.013242   -3.359430
  H      2.357690    2.149375   -2.310997
  H      1.039284   -0.368429   -3.449329
  H      0.250787    0.865605   -2.488283
  H      1.940472   -1.716529   -1.441161
  H      3.558569   -1.663433   -0.766371

 Total Charge           Charge          ....    0
 Multiplicity           Mult            ....    1
 Number of Electrons    NEL             ....  112
 Basis Dimension        Dim             ....  505

ORBITAL ENERGIES
----------------

  NO   OCC          E(Eh)            E(eV)
   0   2.0000     -89.204402     -2427.3752
   1   2.0000     -24.911026      -677.8635
   2   2.0000     -19.254565      -523.9434
   3   2.0000     -19.241100      -523.5769
   4   2.0000     -14.409074      -392.0908
   5   2.0000     -10.341050      -281.3943
   6   2.0000     -10.311435      -280.5884
   7   2.0000     -10.288668      -279.9689
   8   2.0000     -10.281408      -279.7713
   9   2.0000     -10.275748      -279.6173
  10   2.0000     -10.274095      -279.5723
  11   2.0000     -10.272516      -279.5294
  12   2.0000     -10.180401      -277.0228
  13   2.0000      -8.268153      -224.9879
  14   2.0000      -6.225692      -169.4097
  15   2.0000      -6.218944      -169.2261
  16   2.0000      -6.218666      -169.2185
  17   2.0000      -1.499566       -40.8053
  18   2.0000      -1.234774       -33.5999
  19   2.0000      -1.136195       -30.9174
  20   2.0000      -1.043721       -28.4011
  21   2.0000      -0.963438       -26.2165
  22   2.0000      -0.918873       -25.0038
  23   2.0000      -0.878997       -23.9187
  24   2.0000      -0.840682       -22.8761
  25   2.0000      -0.818619       -22.2758
  26   2.0000      -0.793287       -21.5864
  27   2.0000      -0.750592       -20.4246
  28   2.0000      -0.711869       -19.3709
  29   2.0000      -0.700669       -19.0662
  30   2.0000      -0.686693       -18.6859
  31   2.0000      -0.663316       -18.0498
  32   2.0000      -0.649850       -17.6833
  33   2.0000      -0.614554       -16.7229
  34   2.0000      -0.601843       -16.3770
  35   2.0000      -0.598197       -16.2778
  36   2.0000      -0.578727       -15.7480
  37   2.0000      -0.573127       -15.5956
  38   2.0000      -0.557171       -15.1614
  39   2.0000      -0.549664       -14.9571
  40   2.0000      -0.532040       -14.4775
  41   2.0000      -0.516488       -14.0544
  42   2.0000      -0.502555       -13.6752
  43   2.0000      -0.485868       -13.2211
  44   2.0000      -0.484824       -13.1927
  45   2.0000      -0.473321       -12.8797
  46   2.0000      -0.466396       -12.6913
  47   2.0000      -0.449610       -12.2345
  48   2.0000      -0.445042       -12.1102
  49   2.0000      -0.434618       -11.8265
  50   2.0000      -0.427139       -11.6230
  51   2.0000      -0.420998       -11.4559
  52   2.0000      -0.414805       -11.2874
  53   2.0000      -0.403994       -10.9932
  54   2.0000      -0.399551       -10.8723
  55   2.0000      -0.262442        -7.1414
  56   0.0000       0.080486         2.1901
  57   0.0000       0.105856         2.8805
  58   0.0000       0.110897         3.0177
  59   0.0000       0.122212         3.3256
  60   0.0000       0.127426         3.4675

MULLIKEN ATOMIC CHARGES
-----------------------
   0 C :   -0.219983
   1 C :   -0.208605
   2 C :   -0.313142
   3 H :    0.183702
   4 H :    0.179396
   5 S :    0.907587
   6 C :    0.164868
   7 C :   -0.400621
   8 N :   -0.450420
   9 H :    0.219714
  10 H :    0.223263
  11 H :    0.081799
  12 H :    0.125665
  13 O :   -0.463275
  14 O :   -0.415046
  15 C :   -0.257394
  16 C :   -0.242760
  17 H :    0.134734
  18 H :    0.126699
  19 C :   -0.131066
  20 H :    0.126152
  21 H :    0.100148
  22 F :   -0.121180
  23 H :    0.128928
  24 H :    0.105269
  25 H :    0.061583
  26 H :    0.117432
  27 H :    0.099613
  28 H :    0.136941
Sum of atomic charges:    0.0000000

LOEWDIN ATOMIC CHARGES
----------------------
   0 C :   -0.215217
   1 C :   -0.287681
   2 C :   -0.355658
   3 H :    0.151334
   4 H :    0.146388
   5 S :    0.554189
   6 C :   -0.386801
   7 C :   -0.275397
   8 N :    0.004047
   9 H :    0.156145
  10 H :    0.158326
  11 H :    0.101244
  12 H :    0.101663
  13 O :   -0.286155
  14 O :   -0.251729
  15 C :   -0.251157
  16 C :   -0.271288
  17 H :    0.140872
  18 H :    0.148408
  19 C :   -0.266572
  20 H :    0.139582
  21 H :    0.133565
  22 F :    0.081961
  23 H :    0.143647
  24 H :    0.135781
  25 H :    0.126573
  26 H :    0.140454
  27 H :    0.132411
  28 H :    0.151066

  Mayer bond orders larger than 0.100000
B(  0-C ,  6-C ) :   0.9228 B(  0-C , 15-C ) :   0.9505 B(  0-C , 27-H ) :   0.9895
B(  0-C , 28-H ) :   0.9784 B(  1-C ,  2-C ) :   0.9644 B(  1-C , 16-C ) :   0.9614
B(  1-C , 17-H ) :   0.9858 B(  1-C , 18-H ) :   0.9587 B(  2-C ,  3-H ) :   0.9431
B(  2-C ,  4-H ) :   0.9480 B(  2-C ,  5-S ) :   0.9140 B(  5-S , 13-O ) :   1.7967
B(  5-S , 14-O ) :   1.9765 B(  5-S , 22-F ) :   1.1024 B(  6-C ,  7-C ) :   1.7226
B(  6-C ,  8-N ) :   1.1647 B(  7-C , 11-H ) :   1.0107 B(  7-C , 12-H ) :   1.0025
B(  8-N ,  9-H ) :   0.9288 B(  8-N , 10-H ) :   0.9120 B( 15-C , 19-C ) :   0.9820
B( 15-C , 20-H ) :   0.9806 B( 15-C , 21-H ) :   0.9788 B( 16-C , 19-C ) :   0.8997
B( 16-C , 25-H ) :   0.9919 B( 16-C , 26-H ) :   0.9676 B( 19-C , 23-H ) :   0.9685
B( 19-C , 24-H ) :   0.9661

Dispersion correction           -0.016347162
FINAL SINGLE POINT ENERGY     -1017.738505891834

DIPOLE MOMENT
-------------
                                X             Y             Z
Electronic contribution:     -1.76434      -6.06330     -19.02657
Nuclear contribution   :     -0.26930       7.11259      19.56706
                        -----------------------------------------
Total Dipole Moment    :     -2.03365       1.04929       0.54050
                        -----------------------------------------
Magnitude (a.u.)       :      2.35136
Magnitude (Debye)      :      5.97667

Rotational constants in cm-1:     0.036519     0.018683     0.015073
Rotational constants in MHz :  1094.801738   560.111127   451.890222

                             ****ORCA TERMINATED NORMALLY****
TOTAL RUN TIME: 0 days 0 hours 1 minutes 7 seconds 783 msec
