                         Program Version 5.0.0 -  RELEASE  -
|  1> !LC-PBE RIJCOSX def2-TZVP def2/J TightSCF
|  2> *xyz -1 1
|  3> C          2.49556        1.81615       -2.13636
|  4> C          1.87218        0.42790       -2.07750
|  5> H          2.61427       -0.36583       -2.19889
|  6> H          1.38995        0.27309       -1.11236
|  7> S          0.57902        0.14047       -3.29794
|  8> O          0.22886       -1.24687       -3.12787
|  9> O         -0.43927        1.11897       -3.01455
| 10> O          1.24788        0.40347       -4.59565
| 11> H          2.96535        1.95613       -3.08747
| 12> H          3.22581        1.91242       -1.36024
| 13> H          1.73350        2.55528       -2.00274
| 14> *
| 15>
| 16> %MaxCore 64000
| 17>
| 18> %pal nprocs 4
| 19> end
| 20>
| 21> %scf
| 22>   MaxIter 150
| 23> end
| 24>
| 25>
| 26>                          ****END OF INPUT****

CARTESIAN COORDINATES (ANGSTROEM)
---------------------------------
  C      2.495560    1.816150   -2.136360
  C      1.872180    0.427900   -2.077500
  H      2.614270   -0.365830   -2.198890
  H      1.389950    0.273090   -1.112360
  S      0.579020    0.140470   -3.297940
  O      0.228860   -1.246870   -3.127870
  O     -0.439270    1.118970   -3.014550
  O      1.247880    0.403470   -4.595650
  H      2.965350    1.956130   -3.087470
  H      3.225810    1.912420   -1.360240
  H      1.733500    2.555280   -2.002740

 Total Charge           Charge          ....   -1
 Multiplicity           Mult            ....    1
 Number of Electrons    NEL             ....   58
 Basis Dimension        Dim             ....  222

ORBITAL ENERGIES
----------------

  NO   OCC          E(Eh)            E(eV)
   0   2.0000     -88.265286     -2401.8205
   1   2.0000     -18.753577      -510.3108
   2   2.0000     -18.753302      -510.3033
   3   2.0000     -18.737466      -509.8724
   4   2.0000      -9.973293      -271.3871
   5   2.0000      -9.964755      -271.1548
   6   2.0000      -7.875950      -214.3155
   7   2.0000      -5.892953      -160.3554
   8   2.0000      -5.891319      -160.3109
   9   2.0000      -5.890980      -160.3017
  10   2.0000      -1.097545       -29.8657
  11   2.0000      -0.955698       -26.0059
  12   2.0000      -0.929015       -25.2798
  13   2.0000      -0.807418       -21.9710
  14   2.0000      -0.667364       -18.1599
  15   2.0000      -0.529384       -14.4053
  16   2.0000      -0.463026       -12.5996
  17   2.0000      -0.460716       -12.5367
  18   2.0000      -0.418132       -11.3780
  19   2.0000      -0.405909       -11.0453
  20   2.0000      -0.392517       -10.6809
  21   2.0000      -0.362970        -9.8769
  22   2.0000      -0.339996        -9.2517
  23   2.0000      -0.292158        -7.9500
  24   2.0000      -0.289739        -7.8842
  25   2.0000      -0.251889        -6.8543
  26   2.0000      -0.238038        -6.4773
  27   2.0000      -0.227257        -6.1840
  28   2.0000      -0.194558        -5.2942
  29   0.0000       0.257498         7.0069
  30   0.0000       0.300885         8.1875
  31   0.0000       0.317211         8.6318
  32   0.0000       0.322073         8.7640
  33   0.0000       0.352864         9.6019

MULLIKEN ATOMIC CHARGES
-----------------------
   0 C :   -0.427182
   1 C :   -0.307546
   2 H :    0.123844
   3 H :    0.116183
   4 S :    0.726330
   5 O :   -0.523092
   6 O :   -0.526054
   7 O :   -0.580381
   8 H :    0.149835
   9 H :    0.100304
  10 H :    0.147759
Sum of atomic charges:   -1.0000000

LOEWDIN ATOMIC CHARGES
----------------------
   0 C :   -0.364802
   1 C :   -0.445190
   2 H :    0.126369
   3 H :    0.125342
   4 S :    0.380707
   5 O :   -0.373397
   6 O :   -0.372612
   7 O :   -0.429777
   8 H :    0.123289
   9 H :    0.106917
  10 H :    0.123154

  Mayer bond orders larger than 0.100000
B(  0-C ,  1-C ) :   0.9444 B(  0-C ,  8-H ) :   0.9684 B(  0-C ,  9-H ) :   0.9731
B(  0-C , 10-H ) :   0.9707 B(  1-C ,  2-H ) :   0.9632 B(  1-C ,  3-H ) :   0.9627
B(  1-C ,  4-S ) :   0.9062 B(  4-S ,  5-O ) :   1.8532 B(  4-S ,  6-O ) :   1.8115
B(  4-S ,  7-O ) :   1.7472

FINAL SINGLE POINT ENERGY      -702.103547899927

DIPOLE MOMENT
-------------
                                X             Y             Z
Electronic contribution:     -5.65507      -3.59073      -4.04487
Nuclear contribution   :      6.89220       4.11756       5.35566
                        -----------------------------------------
Total Dipole Moment    :      1.23712       0.52683       1.31079
                        -----------------------------------------
Magnitude (a.u.)       :      1.87782
Magnitude (Debye)      :      4.77304

Rotational constants in cm-1:     0.162183     0.084017     0.082390
Rotational constants in MHz :  4862.117324  2518.774315  2469.980309

                             ****ORCA TERMINATED NORMALLY****
TOTAL RUN TIME: 0 days 0 hours 0 minutes 23 seconds 456 msec
