                         Program Version 5.0.0 -  RELEASE  -
|  1> !LC-PBE RIJCOSX def2-TZVP def2/J TightSCF
|  2> *xyz 1 1
|  3> C          3.38093        2.08304       -3.35013
|  4> N          4.53592        1.18245       -3.42852
|  5> C          2.49556        1.81615       -2.13636
|  6> C          4.67196        0.12227       -4.22060
|  7> N          5.86602       -0.50785       -4.22428
|  8> N          3.69888       -0.31284       -4.98699
|  9> H          2.73141       -0.05009       -4.84900
| 10> H          3.89005       -1.05517       -5.64373
| 11> H          5.25193        1.30346       -2.72101
| 12> H          6.69516       -0.06232       -3.85160
| 13> H          5.97538       -1.39688       -4.69141
| 14> H          2.80646        1.98651       -4.26848
| 15> H          3.77871        3.09828       -3.30738
| 16> H          2.11090        0.81901       -2.18783
| 17> H          1.68276        2.51198       -2.12786
| 18> H          3.07216        1.93031       -1.24227
| 19> *
| 20>
| 21> %MaxCore 64000
| 22>
| 23> %pal nprocs 4
| 24> end
| 25>
| 26> %scf
| 27>   MaxIter 150
| 28> end
| 29>
| 30>
| 31>                          ****END OF INPUT****

CARTESIAN COORDINATES (ANGSTROEM)
---------------------------------
  C      3.380930    2.083040   -3.350130
  N      4.535920    1.182450   -3.428520
  C      2.495560    1.816150   -2.136360
  C      4.671960    0.122270   -4.220600
  N      5.866020   -0.507850   -4.224280
  N      3.698880   -0.312840   -4.986990
  H      2.731410   -0.050090   -4.849000
  H      3.890050   -1.055170   -5.643730
  H      5.251930    1.303460   -2.721010
  H      6.695160   -0.062320   -3.851600
  H      5.975380   -1.396880   -4.691410
  H      2.806460    1.986510   -4.268480
  H      3.778710    3.098280   -3.307380
  H      2.110900    0.819010   -2.187830
  H      1.682760    2.511980   -2.127860
  H      3.072160    1.930310   -1.242270

 Total Charge           Charge          ....    1
 Multiplicity           Mult            ....    1
 Number of Electrons    NEL             ....   48
 Basis Dimension        Dim             ....  246

ORBITAL ENERGIES
----------------

  NO   OCC          E(Eh)            E(eV)
   0   2.0000     -14.440728      -392.9522
   1   2.0000     -14.438242      -392.8845
   2   2.0000     -14.432572      -392.7303
   3   2.0000     -10.460198      -284.6365
   4   2.0000     -10.320850      -280.8446
   5   2.0000     -10.246267      -278.8151
   6   2.0000      -1.394320       -37.9414
   7   2.0000      -1.275986       -34.7213
   8   2.0000      -1.259621       -34.2760
   9   2.0000      -1.103387       -30.0247
  10   2.0000      -1.000160       -27.2157
  11   2.0000      -0.961901       -26.1747
  12   2.0000      -0.939015       -25.5519
  13   2.0000      -0.891534       -24.2599
  14   2.0000      -0.839129       -22.8339
  15   2.0000      -0.832888       -22.6640
  16   2.0000      -0.787587       -21.4313
  17   2.0000      -0.778193       -21.1757
  18   2.0000      -0.744714       -20.2647
  19   2.0000      -0.696321       -18.9479
  20   2.0000      -0.662391       -18.0246
  21   2.0000      -0.643200       -17.5024
  22   2.0000      -0.611577       -16.6419
  23   2.0000      -0.573856       -15.6154
  24   0.0000      -0.070806        -1.9267
  25   0.0000      -0.061743        -1.6801
  26   0.0000      -0.030265        -0.8235
  27   0.0000      -0.022254        -0.6056
  28   0.0000       0.000879         0.0239

MULLIKEN ATOMIC CHARGES
-----------------------
   0 C :   -0.292609
   1 N :   -0.249918
   2 C :   -0.390095
   3 C :    0.436801
   4 N :   -0.467271
   5 N :   -0.438079
   6 H :    0.320022
   7 H :    0.302675
   8 H :    0.282576
   9 H :    0.310957
  10 H :    0.303928
  11 H :    0.171025
  12 H :    0.202049
  13 H :    0.147153
  14 H :    0.191870
  15 H :    0.168915
Sum of atomic charges:    1.0000000

LOEWDIN ATOMIC CHARGES
----------------------
   0 C :   -0.297949
   1 N :    0.164225
   2 C :   -0.306016
   3 C :   -0.408627
   4 N :    0.038741
   5 N :    0.075677
   6 H :    0.205014
   7 H :    0.205467
   8 H :    0.216721
   9 H :    0.201027
  10 H :    0.198033
  11 H :    0.145888
  12 H :    0.157317
  13 H :    0.127695
  14 H :    0.143243
  15 H :    0.133544

  Mayer bond orders larger than 0.100000
B(  0-C ,  1-N ) :   0.8785 B(  0-C ,  2-C ) :   0.9682 B(  0-C , 11-H ) :   0.9762
B(  0-C , 12-H ) :   0.9572 B(  1-N ,  3-C ) :   1.3869 B(  1-N ,  8-H ) :   0.8994
B(  2-C , 13-H ) :   0.9526 B(  2-C , 14-H ) :   0.9668 B(  2-C , 15-H ) :   0.9656
B(  3-C ,  4-N ) :   1.2933 B(  3-C ,  5-N ) :   1.3469 B(  4-N ,  9-H ) :   0.8906
B(  4-N , 10-H ) :   0.8941 B(  5-N ,  6-H ) :   0.8853 B(  5-N ,  7-H ) :   0.8922

FINAL SINGLE POINT ENERGY      -283.601851792000

DIPOLE MOMENT
-------------
                                X             Y             Z
Electronic contribution:      3.58443      -2.67541      -2.83568
Nuclear contribution   :     -2.93277       1.85779       2.25966
                        -----------------------------------------
Total Dipole Moment    :      0.65166      -0.81762      -0.57602
                        -----------------------------------------
Magnitude (a.u.)       :      1.19372
Magnitude (Debye)      :      3.03419

Rotational constants in cm-1:     0.245511     0.068839     0.059711
Rotational constants in MHz :  7360.233487  2063.743353  1790.088408

                             ****ORCA TERMINATED NORMALLY****
TOTAL RUN TIME: 0 days 0 hours 0 minutes 32 seconds 180 msec
