                         Program Version 5.0.0 -  RELEASE  -
|  1> !LC-PBE RIJCOSX def2-TZVP def2/J TightSCF
|  2> *xyz 0 1
|  3> C          2.49556        1.81615       -2.13636
|  4> C          1.87218        0.42790       -2.07750
|  5> H          2.61427       -0.36583       -2.19889
|  6> H          1.38995        0.27309       -1.11236
|  7> S          0.57902        0.14047       -3.29794
|  8> F          0.22886       -1.24687       -3.12787
|  9> O         -0.43927        1.11897       -3.01455
| 10> O          1.24788        0.40347       -4.59565
| 11> H          2.96535        1.95613       -3.08747
| 12> H          3.22581        1.91242       -1.36024
| 13> H          1.73350        2.55528       -2.00274
| 14> *
| 15>
| 16> %MaxCore 64000
| 17>
| 18> %pal nprocs 4
| 19> end
| 20>
| 21> %scf
| 22>   MaxIter 150
| 23> end
| 24>
| 25>
| 26>                          ****END OF INPUT****

CARTESIAN COORDINATES (ANGSTROEM)
---------------------------------
  C      2.495560    1.816150   -2.136360
  C      1.872180    0.427900   -2.077500
  H      2.614270   -0.365830   -2.198890
  H      1.389950    0.273090   -1.112360
  S      0.579020    0.140470   -3.297940
  F      0.228860   -1.246870   -3.127870
  O     -0.439270    1.118970   -3.014550
  O      1.247880    0.403470   -4.595650
  H      2.965350    1.956130   -3.087470
  H      3.225810    1.912420   -1.360240
  H      1.733500    2.555280   -2.002740

 Total Charge           Charge          ....    0
 Multiplicity           Mult            ....    1
 Number of Electrons    NEL             ....   58
 Basis Dimension        Dim             ....  222

ORBITAL ENERGIES
----------------

  NO   OCC          E(Eh)            E(eV)
   0   2.0000     -88.533908     -2409.1301
   1   2.0000     -24.618470      -669.9026
   2   2.0000     -18.993619      -516.8426
   3   2.0000     -18.977861      -516.4139
   4   2.0000     -10.178771      -276.9784
   5   2.0000     -10.129777      -275.6452
   6   2.0000      -8.145184      -221.6417
   7   2.0000      -6.165470      -167.7710
   8   2.0000      -6.158568      -167.5832
   9   2.0000      -6.158041      -167.5688
  10   2.0000      -1.549947       -42.1762
  11   2.0000      -1.278926       -34.8014
  12   2.0000      -1.169302       -31.8183
  13   2.0000      -1.000315       -27.2199
  14   2.0000      -0.901737       -24.5375
  15   2.0000      -0.838211       -22.8089
  16   2.0000      -0.747748       -20.3472
  17   2.0000      -0.745663       -20.2905
  18   2.0000      -0.707548       -19.2534
  19   2.0000      -0.641738       -17.4626
  20   2.0000      -0.631299       -17.1785
  21   2.0000      -0.585821       -15.9410
  22   2.0000      -0.570119       -15.5137
  23   2.0000      -0.545835       -14.8529
  24   2.0000      -0.529156       -14.3991
  25   2.0000      -0.518840       -14.1183
  26   2.0000      -0.471976       -12.8431
  27   2.0000      -0.455038       -12.3822
  28   2.0000      -0.442675       -12.0458
  29   0.0000       0.109605         2.9825
  30   0.0000       0.128352         3.4926
  31   0.0000       0.151706         4.1281
  32   0.0000       0.156856         4.2683
  33   0.0000       0.167036         4.5453

MULLIKEN ATOMIC CHARGES
-----------------------
   0 C :   -0.450061
   1 C :   -0.310179
   2 H :    0.179125
   3 H :    0.175951
   4 S :    0.763546
   5 F :   -0.066595
   6 O :   -0.379902
   7 O :   -0.432563
   8 H :    0.181256
   9 H :    0.160857
  10 H :    0.178565
Sum of atomic charges:    0.0000000

LOEWDIN ATOMIC CHARGES
----------------------
   0 C :   -0.325489
   1 C :   -0.413552
   2 H :    0.144760
   3 H :    0.144802
   4 S :    0.502711
   5 F :    0.114436
   6 O :   -0.258050
   7 O :   -0.312914
   8 H :    0.135705
   9 H :    0.132158
  10 H :    0.135433

  Mayer bond orders larger than 0.100000
B(  0-C ,  1-C ) :   0.9611 B(  0-C ,  8-H ) :   0.9601 B(  0-C ,  9-H ) :   0.9607
B(  0-C , 10-H ) :   0.9607 B(  1-C ,  2-H ) :   0.9360 B(  1-C ,  3-H ) :   0.9363
B(  1-C ,  4-S ) :   0.9371 B(  4-S ,  5-F ) :   1.1919 B(  4-S ,  6-O ) :   1.9506
B(  4-S ,  7-O ) :   1.8902

FINAL SINGLE POINT ENERGY      -726.590694085992

DIPOLE MOMENT
-------------
                                X             Y             Z
Electronic contribution:     -6.80551      -6.45512      -4.04505
Nuclear contribution   :      7.60530       5.82028       5.38743
                        -----------------------------------------
Total Dipole Moment    :      0.79978      -0.63484       1.34239
                        -----------------------------------------
Magnitude (a.u.)       :      1.68662
Magnitude (Debye)      :      4.28704

Rotational constants in cm-1:     0.157861     0.081452     0.078859
Rotational constants in MHz :  4732.562506  2441.865430  2364.129821

                             ****ORCA TERMINATED NORMALLY****
TOTAL RUN TIME: 0 days 0 hours 0 minutes 20 seconds 713 msec
