                         Program Version 5.0.0 -  RELEASE  -
|  1> !LC-PBE RIJCOSX def2-TZVP def2/J TightSCF
|  2> *xyz 0 1
|  3> C          3.38093        2.08304       -3.35013
|  4> C          4.53592        1.18245       -3.42852
|  5> C          2.49556        1.81615       -2.13636
|  6> C          4.67196        0.12227       -4.22060
|  7> N          5.86602       -0.50785       -4.22428
|  8> N          3.69888       -0.31284       -4.98699
|  9> H          2.73141       -0.05009       -4.84900
| 10> H          3.89005       -1.05517       -5.64373
| 11> H          5.25193        1.30346       -2.72101
| 12> H          6.69516       -0.06232       -3.85160
| 13> H          5.97538       -1.39688       -4.69141
| 14> H          2.80646        1.98651       -4.26848
| 15> H          3.77871        3.09828       -3.30738
| 16> H          2.11090        0.81901       -2.18783
| 17> H          1.68276        2.51198       -2.12786
| 18> H          3.07216        1.93031       -1.24227
| 19> *
| 20>
| 21> %MaxCore 64000
| 22>
| 23> %pal nprocs 4
| 24> end
| 25>
| 26> %scf
| 27>   MaxIter 150
| 28> end
| 29>
| 30>
| 31>                          ****END OF INPUT****

CARTESIAN COORDINATES (ANGSTROEM)
---------------------------------
  C      3.380930    2.083040   -3.350130
  C      4.535920    1.182450   -3.428520
  C      2.495560    1.816150   -2.136360
  C      4.671960    0.122270   -4.220600
  N      5.866020   -0.507850   -4.224280
  N      3.698880   -0.312840   -4.986990
  H      2.731410   -0.050090   -4.849000
  H      3.890050   -1.055170   -5.643730
  H      5.251930    1.303460   -2.721010
  H      6.695160   -0.062320   -3.851600
  H      5.975380   -1.396880   -4.691410
  H      2.806460    1.986510   -4.268480
  H      3.778710    3.098280   -3.307380
  H      2.110900    0.819010   -2.187830
  H      1.682760    2.511980   -2.127860
  H      3.072160    1.930310   -1.242270

 Total Charge           Charge          ....    0
 Multiplicity           Mult            ....    1
 Number of Electrons    NEL             ....   48
 Basis Dimension        Dim             ....  246

ORBITAL ENERGIES
----------------

  NO   OCC          E(Eh)            E(eV)
   0   2.0000     -14.213981      -386.7821
   1   2.0000     -14.206381      -386.5753
   2   2.0000     -10.161499      -276.5084
   3   2.0000     -10.085462      -274.4394
   4   2.0000     -10.075069      -274.1566
   5   2.0000     -10.032485      -272.9978
   6   2.0000      -1.136803       -30.9340
   7   2.0000      -1.035679       -28.1823
   8   2.0000      -0.947501       -25.7828
   9   2.0000      -0.860750       -23.4222
  10   2.0000      -0.774557       -21.0768
  11   2.0000      -0.730341       -19.8736
  12   2.0000      -0.691366       -18.8130
  13   2.0000      -0.652008       -17.7420
  14   2.0000      -0.617655       -16.8073
  15   2.0000      -0.582637       -15.8544
  16   2.0000      -0.555834       -15.1250
  17   2.0000      -0.537641       -14.6300
  18   2.0000      -0.512250       -13.9390
  19   2.0000      -0.484021       -13.1709
  20   2.0000      -0.453325       -12.3356
  21   2.0000      -0.445145       -12.1130
  22   2.0000      -0.397745       -10.8232
  23   2.0000      -0.271858        -7.3976
  24   0.0000       0.106113         2.8875
  25   0.0000       0.132339         3.6011
  26   0.0000       0.150510         4.0956
  27   0.0000       0.164207         4.4683
  28   0.0000       0.176690         4.8080

MULLIKEN ATOMIC CHARGES
-----------------------
   0 C :   -0.306514
   1 C :   -0.443151
   2 C :   -0.375038
   3 C :    0.385681
   4 N :   -0.529501
   5 N :   -0.514800
   6 H :    0.273824
   7 H :    0.239740
   8 H :    0.135682
   9 H :    0.269005
  10 H :    0.234765
  11 H :    0.105364
  12 H :    0.131882
  13 H :    0.123458
  14 H :    0.133986
  15 H :    0.135615
Sum of atomic charges:   -0.0000000

LOEWDIN ATOMIC CHARGES
----------------------
   0 C :   -0.322376
   1 C :   -0.289995
   2 C :   -0.326985
   3 C :   -0.470083
   4 N :   -0.039242
   5 N :   -0.007860
   6 H :    0.181974
   7 H :    0.170040
   8 H :    0.126248
   9 H :    0.179931
  10 H :    0.161438
  11 H :    0.135724
  12 H :    0.144463
  13 H :    0.118549
  14 H :    0.116244
  15 H :    0.121929

  Mayer bond orders larger than 0.100000
B(  0-C ,  1-C ) :   1.0150 B(  0-C ,  2-C ) :   0.9391 B(  0-C , 11-H ) :   0.9934
B(  0-C , 12-H ) :   0.9925 B(  1-C ,  3-C ) :   1.6484 B(  1-C ,  8-H ) :   0.9931
B(  2-C , 13-H ) :   0.9723 B(  2-C , 14-H ) :   0.9847 B(  2-C , 15-H ) :   0.9798
B(  3-C ,  4-N ) :   1.1058 B(  3-C ,  5-N ) :   1.1258 B(  4-N ,  9-H ) :   0.9173
B(  4-N , 10-H ) :   0.9287 B(  5-N ,  6-H ) :   0.9175 B(  5-N ,  7-H ) :   0.9266

FINAL SINGLE POINT ENERGY      -267.135192235433

DIPOLE MOMENT
-------------
                                X             Y             Z
Electronic contribution:      2.99866      -2.84780      -2.93050
Nuclear contribution   :     -2.84307       1.95814       2.32378
                        -----------------------------------------
Total Dipole Moment    :      0.15558      -0.88966      -0.60672
                        -----------------------------------------
Magnitude (a.u.)       :      1.08803
Magnitude (Debye)      :      2.76555

Rotational constants in cm-1:     0.248902     0.068887     0.059904
Rotational constants in MHz :  7461.898926  2065.183281  1795.882140

                             ****ORCA TERMINATED NORMALLY****
TOTAL RUN TIME: 0 days 0 hours 0 minutes 33 seconds 433 msec
