                         Program Version 5.0.0 -  RELEASE  -
|  1> !LC-PBE RIJCOSX def2-TZVP def2/J TightSCF
|  2> *xyz 0 1
|  3> C          2.49556        1.81615       -2.13636
|  4> C          1.87218        0.42790       -2.07750
|  5> H          2.61427       -0.36583       -2.19889
|  6> H          1.38995        0.27309       -1.11236
|  7> S          0.57902        0.14047       -3.29794
|  8> O          0.22886       -1.24687       -3.12787
|  9> F         -0.43927        1.11897       -3.01455
| 10> O          1.24788        0.40347       -4.59565
| 11> H          2.96535        1.95613       -3.08747
| 12> H          3.22581        1.91242       -1.36024
| 13> H          1.73350        2.55528       -2.00274
| 14> *
| 15>
| 16> %MaxCore 64000
| 17>
| 18> %pal nprocs 4
| 19> end
| 20>
| 21> %scf
| 22>   MaxIter 150
| 23> end
| 24>
| 25>
| 26>                          ****END OF INPUT****

CARTESIAN COORDINATES (ANGSTROEM)
---------------------------------
  C      2.495560    1.816150   -2.136360
  C      1.872180    0.427900   -2.077500
  H      2.614270   -0.365830   -2.198890
  H      1.389950    0.273090   -1.112360
  S      0.579020    0.140470   -3.297940
  O      0.228860   -1.246870   -3.127870
  F     -0.439270    1.118970   -3.014550
  O      1.247880    0.403470   -4.595650
  H      2.965350    1.956130   -3.087470
  H      3.225810    1.912420   -1.360240
  H      1.733500    2.555280   -2.002740

 Total Charge           Charge          ....    0
 Multiplicity           Mult            ....    1
 Number of Electrons    NEL             ....   58
 Basis Dimension        Dim             ....  222

ORBITAL ENERGIES
----------------

  NO   OCC          E(Eh)            E(eV)
   0   2.0000     -88.534045     -2409.1339
   1   2.0000     -24.618233      -669.8962
   2   2.0000     -18.994162      -516.8574
   3   2.0000     -18.978544      -516.4324
   4   2.0000     -10.178678      -276.9759
   5   2.0000     -10.133368      -275.7430
   6   2.0000      -8.145278      -221.6443
   7   2.0000      -6.165704      -167.7773
   8   2.0000      -6.158661      -167.5857
   9   2.0000      -6.158030      -167.5685
  10   2.0000      -1.550121       -42.1809
  11   2.0000      -1.278503       -34.7898
  12   2.0000      -1.170415       -31.8486
  13   2.0000      -1.003606       -27.3095
  14   2.0000      -0.896945       -24.4071
  15   2.0000      -0.843454       -22.9516
  16   2.0000      -0.757161       -20.6034
  17   2.0000      -0.745967       -20.2988
  18   2.0000      -0.699628       -19.0378
  19   2.0000      -0.641517       -17.4566
  20   2.0000      -0.626568       -17.0498
  21   2.0000      -0.597496       -16.2587
  22   2.0000      -0.574270       -15.6267
  23   2.0000      -0.547430       -14.8963
  24   2.0000      -0.535622       -14.5750
  25   2.0000      -0.515108       -14.0168
  26   2.0000      -0.471603       -12.8330
  27   2.0000      -0.454791       -12.3755
  28   2.0000      -0.445062       -12.1107
  29   0.0000       0.100414         2.7324
  30   0.0000       0.136348         3.7102
  31   0.0000       0.147936         4.0256
  32   0.0000       0.155412         4.2290
  33   0.0000       0.168718         4.5910

MULLIKEN ATOMIC CHARGES
-----------------------
   0 C :   -0.448905
   1 C :   -0.317304
   2 H :    0.201722
   3 H :    0.177660
   4 S :    0.763662
   5 O :   -0.377141
   6 F :   -0.069173
   7 O :   -0.433812
   8 H :    0.187174
   9 H :    0.162320
  10 H :    0.153794
Sum of atomic charges:   -0.0000000

LOEWDIN ATOMIC CHARGES
----------------------
   0 C :   -0.338522
   1 C :   -0.407664
   2 H :    0.158391
   3 H :    0.144845
   4 S :    0.503524
   5 O :   -0.258051
   6 F :    0.115610
   7 O :   -0.312334
   8 H :    0.135303
   9 H :    0.132022
  10 H :    0.126876

  Mayer bond orders larger than 0.100000
B(  0-C ,  1-C ) :   0.9471 B(  0-C ,  8-H ) :   0.9580 B(  0-C ,  9-H ) :   0.9631
B(  0-C , 10-H ) :   0.9661 B(  1-C ,  2-H ) :   0.9361 B(  1-C ,  3-H ) :   0.9425
B(  1-C ,  4-S ) :   0.9290 B(  4-S ,  5-O ) :   1.9762 B(  4-S ,  6-F ) :   1.1807
B(  4-S ,  7-O ) :   1.8883

FINAL SINGLE POINT ENERGY      -726.590955536284

DIPOLE MOMENT
-------------
                                X             Y             Z
Electronic contribution:     -7.94292      -2.38157      -3.84219
Nuclear contribution   :      8.30151       3.35500       5.26935
                        -----------------------------------------
Total Dipole Moment    :      0.35859       0.97343       1.42716
                        -----------------------------------------
Magnitude (a.u.)       :      1.76435
Magnitude (Debye)      :      4.48463

Rotational constants in cm-1:     0.152913     0.083043     0.080351
Rotational constants in MHz :  4584.227971  2489.580280  2408.872860

                             ****ORCA TERMINATED NORMALLY****
TOTAL RUN TIME: 0 days 0 hours 0 minutes 21 seconds 10 msec
