                         Program Version 5.0.0 -  RELEASE  -
|  1> !LC-PBE RIJCOSX def2-TZVP def2/J TightSCF
|  2> *xyz 0 1
|  3> C          3.38093        2.08304       -3.35013
|  4> N          4.53592        1.18245       -3.42852
|  5> C          2.49556        1.81615       -2.13636
|  6> C          4.67196        0.12227       -4.22060
|  7> C          5.86602       -0.50785       -4.22428
|  8> N          3.69888       -0.31284       -4.98699
|  9> H          2.73141       -0.05009       -4.84900
| 10> H          3.89005       -1.05517       -5.64373
| 11> H          5.25193        1.30346       -2.72101
| 12> H          6.69516       -0.06232       -3.85160
| 13> H          5.97538       -1.39688       -4.69141
| 14> H          2.80646        1.98651       -4.26848
| 15> H          3.77871        3.09828       -3.30738
| 16> H          2.11090        0.81901       -2.18783
| 17> H          1.68276        2.51198       -2.12786
| 18> H          3.07216        1.93031       -1.24227
| 19> *
| 20>
| 21> %MaxCore 64000
| 22>
| 23> %pal nprocs 4
| 24> end
| 25>
| 26> %scf
| 27>   MaxIter 150
| 28> end
| 29>
| 30>
| 31>                          ****END OF INPUT****

CARTESIAN COORDINATES (ANGSTROEM)
---------------------------------
  C      3.380930    2.083040   -3.350130
  N      4.535920    1.182450   -3.428520
  C      2.495560    1.816150   -2.136360
  C      4.671960    0.122270   -4.220600
  C      5.866020   -0.507850   -4.224280
  N      3.698880   -0.312840   -4.986990
  H      2.731410   -0.050090   -4.849000
  H      3.890050   -1.055170   -5.643730
  H      5.251930    1.303460   -2.721010
  H      6.695160   -0.062320   -3.851600
  H      5.975380   -1.396880   -4.691410
  H      2.806460    1.986510   -4.268480
  H      3.778710    3.098280   -3.307380
  H      2.110900    0.819010   -2.187830
  H      1.682760    2.511980   -2.127860
  H      3.072160    1.930310   -1.242270

 Total Charge           Charge          ....    0
 Multiplicity           Mult            ....    1
 Number of Electrons    NEL             ....   48
 Basis Dimension        Dim             ....  246

ORBITAL ENERGIES
----------------

  NO   OCC          E(Eh)            E(eV)
   0   2.0000     -14.215077      -386.8119
   1   2.0000     -14.213856      -386.7787
   2   2.0000     -10.167607      -276.6747
   3   2.0000     -10.155293      -276.3396
   4   2.0000     -10.105384      -274.9815
   5   2.0000     -10.017707      -272.5957
   6   2.0000      -1.146098       -31.1869
   7   2.0000      -1.058075       -28.7917
   8   2.0000      -0.946397       -25.7528
   9   2.0000      -0.864973       -23.5371
  10   2.0000      -0.788638       -21.4599
  11   2.0000      -0.756944       -20.5975
  12   2.0000      -0.692808       -18.8523
  13   2.0000      -0.643571       -17.5125
  14   2.0000      -0.622848       -16.9486
  15   2.0000      -0.588862       -16.0238
  16   2.0000      -0.571170       -15.5423
  17   2.0000      -0.540815       -14.7163
  18   2.0000      -0.524880       -14.2827
  19   2.0000      -0.499097       -13.5811
  20   2.0000      -0.494239       -13.4489
  21   2.0000      -0.486429       -13.2364
  22   2.0000      -0.384036       -10.4502
  23   2.0000      -0.273527        -7.4431
  24   0.0000       0.103911         2.8276
  25   0.0000       0.135257         3.6805
  26   0.0000       0.145774         3.9667
  27   0.0000       0.164483         4.4758
  28   0.0000       0.174406         4.7458

MULLIKEN ATOMIC CHARGES
-----------------------
   0 C :   -0.265039
   1 N :   -0.310114
   2 C :   -0.375930
   3 C :    0.419024
   4 C :   -0.702729
   5 N :   -0.521348
   6 H :    0.252443
   7 H :    0.268338
   8 H :    0.250413
   9 H :    0.141266
  10 H :    0.125752
  11 H :    0.144731
  12 H :    0.151657
  13 H :    0.138316
  14 H :    0.143147
  15 H :    0.140074
Sum of atomic charges:   -0.0000000

LOEWDIN ATOMIC CHARGES
----------------------
   0 C :   -0.327539
   1 N :    0.114439
   2 C :   -0.329148
   3 C :   -0.473379
   4 C :   -0.377030
   5 N :   -0.002462
   6 H :    0.168249
   7 H :    0.186386
   8 H :    0.200666
   9 H :    0.099388
  10 H :    0.097160
  11 H :    0.136069
  12 H :    0.137383
  13 H :    0.122669
  14 H :    0.124083
  15 H :    0.123065

  Mayer bond orders larger than 0.100000
B(  0-C ,  1-N ) :   0.9323 B(  0-C ,  2-C ) :   0.9470 B(  0-C , 11-H ) :   0.9874
B(  0-C , 12-H ) :   0.9793 B(  1-N ,  3-C ) :   1.1811 B(  1-N ,  8-H ) :   0.9232
B(  2-C , 13-H ) :   0.9662 B(  2-C , 14-H ) :   0.9759 B(  2-C , 15-H ) :   0.9735
B(  3-C ,  4-C ) :   1.5360 B(  3-C ,  5-N ) :   1.1369 B(  4-C ,  9-H ) :   1.0067
B(  4-C , 10-H ) :   1.0156 B(  5-N ,  6-H ) :   0.9240 B(  5-N ,  7-H ) :   0.9183

FINAL SINGLE POINT ENERGY      -267.122931983440

DIPOLE MOMENT
-------------
                                X             Y             Z
Electronic contribution:      1.44928      -1.08589      -2.04275
Nuclear contribution   :     -2.56090       1.59955       2.15496
                        -----------------------------------------
Total Dipole Moment    :     -1.11162       0.51366       0.11221
                        -----------------------------------------
Magnitude (a.u.)       :      1.22969
Magnitude (Debye)      :      3.12562

Rotational constants in cm-1:     0.249834     0.071381     0.061833
Rotational constants in MHz :  7489.842787  2139.945635  1853.706310

                             ****ORCA TERMINATED NORMALLY****
TOTAL RUN TIME: 0 days 0 hours 0 minutes 33 seconds 585 msec
