                         Program Version 5.0.0 -  RELEASE  -
|  1> !LC-PBE RIJCOSX def2-TZVP def2/J TightSCF
|  2> *xyz 0 1
|  3> C          2.49556        1.81615       -2.13636
|  4> C          1.87218        0.42790       -2.07750
|  5> H          2.61427       -0.36583       -2.19889
|  6> H          1.38995        0.27309       -1.11236
|  7> S          0.57902        0.14047       -3.29794
|  8> O          0.22886       -1.24687       -3.12787
|  9> O         -0.43927        1.11897       -3.01455
| 10> F          1.24788        0.40347       -4.59565
| 11> H          2.96535        1.95613       -3.08747
| 12> H          3.22581        1.91242       -1.36024
| 13> H          1.73350        2.55528       -2.00274
| 14> *
| 15>
| 16> %MaxCore 64000
| 17>
| 18> %pal nprocs 4
| 19> end
| 20>
| 21> %scf
| 22>   MaxIter 150
| 23> end
| 24>
| 25>
| 26>                          ****END OF INPUT****

CARTESIAN COORDINATES (ANGSTROEM)
---------------------------------
  C      2.495560    1.816150   -2.136360
  C      1.872180    0.427900   -2.077500
  H      2.614270   -0.365830   -2.198890
  H      1.389950    0.273090   -1.112360
  S      0.579020    0.140470   -3.297940
  O      0.228860   -1.246870   -3.127870
  O     -0.439270    1.118970   -3.014550
  F      1.247880    0.403470   -4.595650
  H      2.965350    1.956130   -3.087470
  H      3.225810    1.912420   -1.360240
  H      1.733500    2.555280   -2.002740

 Total Charge           Charge          ....    0
 Multiplicity           Mult            ....    1
 Number of Electrons    NEL             ....   58
 Basis Dimension        Dim             ....  222

ORBITAL ENERGIES
----------------

  NO   OCC          E(Eh)            E(eV)
   0   2.0000     -88.531657     -2409.0689
   1   2.0000     -24.595063      -669.2657
   2   2.0000     -18.993790      -516.8473
   3   2.0000     -18.993689      -516.8446
   4   2.0000     -10.177616      -276.9470
   5   2.0000     -10.133940      -275.7585
   6   2.0000      -8.142886      -221.5792
   7   2.0000      -6.163429      -167.7154
   8   2.0000      -6.156406      -167.5243
   9   2.0000      -6.155551      -167.5011
  10   2.0000      -1.514175       -41.2028
  11   2.0000      -1.288721       -35.0679
  12   2.0000      -1.191379       -32.4191
  13   2.0000      -1.003178       -27.2979
  14   2.0000      -0.884210       -24.0606
  15   2.0000      -0.834953       -22.7202
  16   2.0000      -0.738977       -20.1086
  17   2.0000      -0.720546       -19.6071
  18   2.0000      -0.697861       -18.9898
  19   2.0000      -0.643485       -17.5101
  20   2.0000      -0.623428       -16.9643
  21   2.0000      -0.601183       -16.3590
  22   2.0000      -0.579249       -15.7622
  23   2.0000      -0.550794       -14.9879
  24   2.0000      -0.540694       -14.7130
  25   2.0000      -0.516212       -14.0468
  26   2.0000      -0.481869       -13.1123
  27   2.0000      -0.463834       -12.6216
  28   2.0000      -0.460375       -12.5274
  29   0.0000       0.101319         2.7570
  30   0.0000       0.142882         3.8880
  31   0.0000       0.150081         4.0839
  32   0.0000       0.156800         4.2668
  33   0.0000       0.168591         4.5876

MULLIKEN ATOMIC CHARGES
-----------------------
   0 C :   -0.452735
   1 C :   -0.319168
   2 H :    0.186107
   3 H :    0.195365
   4 S :    0.766453
   5 O :   -0.385147
   6 O :   -0.390062
   7 F :   -0.105375
   8 H :    0.158535
   9 H :    0.162867
  10 H :    0.183160
Sum of atomic charges:   -0.0000000

LOEWDIN ATOMIC CHARGES
----------------------
   0 C :   -0.339239
   1 C :   -0.407243
   2 H :    0.146949
   3 H :    0.157344
   4 S :    0.508928
   5 O :   -0.261786
   6 O :   -0.261497
   7 F :    0.062457
   8 H :    0.127348
   9 H :    0.132336
  10 H :    0.134403

  Mayer bond orders larger than 0.100000
B(  0-C ,  1-C ) :   0.9469 B(  0-C ,  8-H ) :   0.9659 B(  0-C ,  9-H ) :   0.9636
B(  0-C , 10-H ) :   0.9590 B(  1-C ,  2-H ) :   0.9414 B(  1-C ,  3-H ) :   0.9372
B(  1-C ,  4-S ) :   0.9297 B(  4-S ,  5-O ) :   1.9756 B(  4-S ,  6-O ) :   1.9479
B(  4-S ,  7-F ) :   1.1355

FINAL SINGLE POINT ENERGY      -726.610039565118

DIPOLE MOMENT
-------------
                                X             Y             Z
Electronic contribution:     -5.02923      -3.60451      -6.57586
Nuclear contribution   :      6.54345       4.10057       6.91691
                        -----------------------------------------
Total Dipole Moment    :      1.51422       0.49606       0.34104
                        -----------------------------------------
Magnitude (a.u.)       :      1.62949
Magnitude (Debye)      :      4.14185

Rotational constants in cm-1:     0.152835     0.082826     0.080611
Rotational constants in MHz :  4581.878371  2483.049050  2416.647141

                             ****ORCA TERMINATED NORMALLY****
TOTAL RUN TIME: 0 days 0 hours 0 minutes 20 seconds 380 msec
