                         Program Version 5.0.0 -  RELEASE  -
|  1> !LC-PBE RIJCOSX def2-TZVP def2/J TightSCF
|  2> *xyz 0 1
|  3> C          3.38093        2.08304       -3.35013
|  4> N          4.53592        1.18245       -3.42852
|  5> C          2.49556        1.81615       -2.13636
|  6> C          4.67196        0.12227       -4.22060
|  7> N          5.86602       -0.50785       -4.22428
|  8> C          3.69888       -0.31284       -4.98699
|  9> H          2.73141       -0.05009       -4.84900
| 10> H          3.89005       -1.05517       -5.64373
| 11> H          5.25193        1.30346       -2.72101
| 12> H          6.69516       -0.06232       -3.85160
| 13> H          5.97538       -1.39688       -4.69141
| 14> H          2.80646        1.98651       -4.26848
| 15> H          3.77871        3.09828       -3.30738
| 16> H          2.11090        0.81901       -2.18783
| 17> H          1.68276        2.51198       -2.12786
| 18> H          3.07216        1.93031       -1.24227
| 19> *
| 20>
| 21> %MaxCore 64000
| 22>
| 23> %pal nprocs 4
| 24> end
| 25>
| 26> %scf
| 27>   MaxIter 150
| 28> end
| 29>
| 30>
| 31>                          ****END OF INPUT****

CARTESIAN COORDINATES (ANGSTROEM)
---------------------------------
  C      3.380930    2.083040   -3.350130
  N      4.535920    1.182450   -3.428520
  C      2.495560    1.816150   -2.136360
  C      4.671960    0.122270   -4.220600
  N      5.866020   -0.507850   -4.224280
  C      3.698880   -0.312840   -4.986990
  H      2.731410   -0.050090   -4.849000
  H      3.890050   -1.055170   -5.643730
  H      5.251930    1.303460   -2.721010
  H      6.695160   -0.062320   -3.851600
  H      5.975380   -1.396880   -4.691410
  H      2.806460    1.986510   -4.268480
  H      3.778710    3.098280   -3.307380
  H      2.110900    0.819010   -2.187830
  H      1.682760    2.511980   -2.127860
  H      3.072160    1.930310   -1.242270

 Total Charge           Charge          ....    0
 Multiplicity           Mult            ....    1
 Number of Electrons    NEL             ....   48
 Basis Dimension        Dim             ....  246

ORBITAL ENERGIES
----------------

  NO   OCC          E(Eh)            E(eV)
   0   2.0000     -14.213666      -386.7735
   1   2.0000     -14.207984      -386.6189
   2   2.0000     -10.164048      -276.5778
   3   2.0000     -10.146232      -276.0930
   4   2.0000     -10.097117      -274.7565
   5   2.0000     -10.021746      -272.7056
   6   2.0000      -1.139279       -31.0014
   7   2.0000      -1.049406       -28.5558
   8   2.0000      -0.929168       -25.2840
   9   2.0000      -0.879875       -23.9426
  10   2.0000      -0.800648       -21.7867
  11   2.0000      -0.716590       -19.4994
  12   2.0000      -0.692648       -18.8479
  13   2.0000      -0.659993       -17.9593
  14   2.0000      -0.597706       -16.2644
  15   2.0000      -0.592230       -16.1154
  16   2.0000      -0.566021       -15.4022
  17   2.0000      -0.536973       -14.6118
  18   2.0000      -0.514224       -13.9927
  19   2.0000      -0.507381       -13.8066
  20   2.0000      -0.488294       -13.2872
  21   2.0000      -0.478377       -13.0173
  22   2.0000      -0.376426       -10.2431
  23   2.0000      -0.286532        -7.7969
  24   0.0000       0.110236         2.9997
  25   0.0000       0.132898         3.6163
  26   0.0000       0.152339         4.1454
  27   0.0000       0.167556         4.5594
  28   0.0000       0.176087         4.7916

MULLIKEN ATOMIC CHARGES
-----------------------
   0 C :   -0.220780
   1 N :   -0.333741
   2 C :   -0.400168
   3 C :    0.438318
   4 N :   -0.545996
   5 C :   -0.683967
   6 H :    0.149675
   7 H :    0.121024
   8 H :    0.219395
   9 H :    0.242303
  10 H :    0.266418
  11 H :    0.172579
  12 H :    0.143754
  13 H :    0.158041
  14 H :    0.142732
  15 H :    0.130412
Sum of atomic charges:    0.0000000

LOEWDIN ATOMIC CHARGES
----------------------
   0 C :   -0.311873
   1 N :    0.107277
   2 C :   -0.327663
   3 C :   -0.469841
   4 N :   -0.036203
   5 C :   -0.349852
   6 H :    0.104708
   7 H :    0.104253
   8 H :    0.183568
   9 H :    0.163924
  10 H :    0.178316
  11 H :    0.146743
  12 H :    0.135045
  13 H :    0.127656
  14 H :    0.124354
  15 H :    0.119589

  Mayer bond orders larger than 0.100000
B(  0-C ,  1-N ) :   0.9040 B(  0-C ,  2-C ) :   0.9521 B(  0-C , 11-H ) :   0.9755
B(  0-C , 12-H ) :   0.9800 B(  1-N ,  3-C ) :   1.1548 B(  1-N ,  8-H ) :   0.9338
B(  2-C , 13-H ) :   0.9685 B(  2-C , 14-H ) :   0.9773 B(  2-C , 15-H ) :   0.9744
B(  3-C ,  4-N ) :   1.0912 B(  3-C ,  5-C ) :   1.5963 B(  4-N ,  9-H ) :   0.9263
B(  4-N , 10-H ) :   0.9209 B(  5-C ,  6-H ) :   1.0010 B(  5-C ,  7-H ) :   1.0146

FINAL SINGLE POINT ENERGY      -267.128044823146

DIPOLE MOMENT
-------------
                                X             Y             Z
Electronic contribution:      3.72297      -1.31267      -1.31776
Nuclear contribution   :     -3.02065       1.64092       1.99316
                        -----------------------------------------
Total Dipole Moment    :      0.70232       0.32826       0.67540
                        -----------------------------------------
Magnitude (a.u.)       :      1.02819
Magnitude (Debye)      :      2.61346

Rotational constants in cm-1:     0.259304     0.069422     0.060943
Rotational constants in MHz :  7773.747720  2081.225169  1827.013389

                             ****ORCA TERMINATED NORMALLY****
TOTAL RUN TIME: 0 days 0 hours 0 minutes 30 seconds 972 msec
