                         Program Version 5.0.0 -  RELEASE  -
|  1> !LC-PBE RIJCOSX def2-TZVP def2/J TightSCF xyzfile
|  2>
|  3> *xyzfile 0 1 D4.xyz
|  4>
|  5> %MaxCore 64000
|  6>
|  7> %pal nprocs 18
|  8> end
|  9>
| 10> %scf
| 11>   MaxIter 150
| 12> end
| 13>
| 14>
| 15>                          ****END OF INPUT****

CARTESIAN COORDINATES (ANGSTROEM)
---------------------------------
  C      3.380928    2.083045   -3.350127
  C      4.535924    1.182447   -3.428518
  C      2.495557    1.816150   -2.136364
  C      1.872181    0.427903   -2.077497
  H      2.614270   -0.365825   -2.198894
  H      1.389953    0.273087   -1.112360
  S      0.579024    0.140472   -3.297943
  C      4.671956    0.122273   -4.220598
  N      5.866023   -0.507849   -4.224284
  N      3.698881   -0.312844   -4.986988
  H      2.731405   -0.050091   -4.849000
  H      3.890046   -1.055172   -5.643730
  H      5.251933    1.303459   -2.721014
  H      6.695165   -0.062322   -3.851596
  H      5.975383   -1.396884   -4.691414
  O      0.228860   -1.246868   -3.127871
  F     -0.439269    1.118966   -3.014550
  O      1.247881    0.403474   -4.595647
  H      1.697003    2.561969   -2.141109
  H      3.080787    1.987436   -1.225838
  H      2.806463    1.986511   -4.268484
  H      3.778714    3.098282   -3.307383

 Total Charge           Charge          ....    0
 Multiplicity           Mult            ....    1
 Number of Electrons    NEL             ....   96
 Basis Dimension        Dim             ....  413

ORBITAL ENERGIES
----------------

  NO   OCC          E(Eh)            E(eV)
   0   2.0000     -88.544305     -2409.4130
   1   2.0000     -24.624954      -670.0791
   2   2.0000     -19.002165      -517.0752
   3   2.0000     -18.996176      -516.9122
   4   2.0000     -14.203578      -386.4990
   5   2.0000     -14.186065      -386.0225
   6   2.0000     -10.169903      -276.7371
   7   2.0000     -10.159377      -276.4507
   8   2.0000     -10.127461      -275.5822
   9   2.0000     -10.091664      -274.6081
  10   2.0000     -10.031823      -272.9798
  11   2.0000      -8.155694      -221.9277
  12   2.0000      -6.176027      -168.0582
  13   2.0000      -6.169177      -167.8718
  14   2.0000      -6.168399      -167.8507
  15   2.0000      -1.556767       -42.3618
  16   2.0000      -1.291555       -35.1450
  17   2.0000      -1.189908       -32.3791
  18   2.0000      -1.126958       -30.6661
  19   2.0000      -1.025686       -27.9103
  20   2.0000      -1.008273       -27.4365
  21   2.0000      -0.934663       -25.4335
  22   2.0000      -0.890207       -24.2238
  23   2.0000      -0.848788       -23.0967
  24   2.0000      -0.787833       -21.4380
  25   2.0000      -0.761638       -20.7252
  26   2.0000      -0.750387       -20.4191
  27   2.0000      -0.734267       -19.9804
  28   2.0000      -0.699738       -19.0408
  29   2.0000      -0.681779       -18.5521
  30   2.0000      -0.662009       -18.0142
  31   2.0000      -0.633895       -17.2492
  32   2.0000      -0.625733       -17.0270
  33   2.0000      -0.620111       -16.8741
  34   2.0000      -0.597270       -16.2525
  35   2.0000      -0.581531       -15.8243
  36   2.0000      -0.547991       -14.9116
  37   2.0000      -0.544224       -14.8091
  38   2.0000      -0.539353       -14.6765
  39   2.0000      -0.519101       -14.1254
  40   2.0000      -0.494871       -13.4661
  41   2.0000      -0.480261       -13.0686
  42   2.0000      -0.476202       -12.9581
  43   2.0000      -0.465320       -12.6620
  44   2.0000      -0.458579       -12.4786
  45   2.0000      -0.434993       -11.8368
  46   2.0000      -0.385914       -10.5012
  47   2.0000      -0.272278        -7.4091
  48   0.0000       0.103909         2.8275
  49   0.0000       0.121654         3.3104
  50   0.0000       0.127519         3.4700
  51   0.0000       0.144794         3.9401
  52   0.0000       0.154419         4.2020

MULLIKEN ATOMIC CHARGES
-----------------------
   0 C :   -0.410045
   1 C :   -0.471956
   2 C :   -0.240683
   3 C :   -0.421474
   4 H :    0.252841
   5 H :    0.201335
   6 S :    0.796908
   7 C :    0.359135
   8 N :   -0.530551
   9 N :   -0.489229
  10 H :    0.287430
  11 H :    0.230305
  12 H :    0.135636
  13 H :    0.265927
  14 H :    0.237804
  15 O :   -0.367686
  16 F :   -0.060708
  17 O :   -0.452872
  18 H :    0.156875
  19 H :    0.159722
  20 H :    0.212485
  21 H :    0.148802
Sum of atomic charges:    0.0000000

LOEWDIN ATOMIC CHARGES
----------------------
   0 C :   -0.303517
   1 C :   -0.307408
   2 C :   -0.304303
   3 C :   -0.376622
   4 H :    0.168531
   5 H :    0.148908
   6 S :    0.530247
   7 C :   -0.473590
   8 N :   -0.037081
   9 N :    0.000769
  10 H :    0.139287
  11 H :    0.167438
  12 H :    0.124298
  13 H :    0.178009
  14 H :    0.162665
  15 O :   -0.250469
  16 F :    0.122958
  17 O :   -0.288162
  18 H :    0.142619
  19 H :    0.154097
  20 H :    0.152259
  21 H :    0.149067

  Mayer bond orders larger than 0.100000
B(  0-C ,  1-C ) :   0.9561 B(  0-C ,  2-C ) :   0.9010 B(  0-C , 20-H ) :   0.9905
B(  0-C , 21-H ) :   0.9924 B(  1-C ,  7-C ) :   1.6039 B(  1-C , 12-H ) :   0.9959
B(  2-C ,  3-C ) :   0.9108 B(  2-C , 18-H ) :   0.9799 B(  2-C , 19-H ) :   0.9652
B(  3-C ,  4-H ) :   0.9204 B(  3-C ,  5-H ) :   0.9495 B(  3-C ,  6-S ) :   0.9523
B(  6-S , 15-O ) :   1.9856 B(  6-S , 16-F ) :   1.1988 B(  6-S , 17-O ) :   1.7395
B(  7-C ,  8-N ) :   1.1143 B(  7-C ,  9-N ) :   1.1916 B(  8-N , 13-H ) :   0.9188
B(  8-N , 14-H ) :   0.9269 B(  9-N , 10-H ) :   0.8477 B(  9-N , 11-H ) :   0.9310
B( 10-H , 17-O ) :   0.1057

FINAL SINGLE POINT ENERGY      -953.357630629472

DIPOLE MOMENT
-------------
                                X             Y             Z
Electronic contribution:    -16.41180      -2.68984      -0.94888
Nuclear contribution   :     16.65743       2.74852       1.69529
                        -----------------------------------------
Total Dipole Moment    :      0.24563       0.05868       0.74641
                        -----------------------------------------
Magnitude (a.u.)       :      0.78797
Magnitude (Debye)      :      2.00287

Rotational constants in cm-1:     0.059907     0.020458     0.017675
Rotational constants in MHz :  1795.978106   613.328205   529.885290

                             ****ORCA TERMINATED NORMALLY****
TOTAL RUN TIME: 0 days 0 hours 0 minutes 40 seconds 48 msec
