                         Program Version 5.0.0 -  RELEASE  -
|  1> !LC-PBE RIJCOSX def2-TZVP def2/J TightSCF xyzfile
|  2>
|  3> *xyzfile 0 1 D6.xyz
|  4>
|  5> %MaxCore 64000
|  6>
|  7> %pal nprocs 18
|  8> end
|  9>
| 10> %scf
| 11>   MaxIter 150
| 12> end
| 13>
| 14>
| 15>                          ****END OF INPUT****

CARTESIAN COORDINATES (ANGSTROEM)
---------------------------------
  C      3.380928    2.083045   -3.350127
  N      4.535924    1.182447   -3.428518
  C      2.495557    1.816150   -2.136364
  C      1.872181    0.427903   -2.077497
  H      2.614270   -0.365825   -2.198894
  H      1.389953    0.273087   -1.112360
  S      0.579024    0.140472   -3.297943
  C      4.671956    0.122273   -4.220598
  N      5.866023   -0.507849   -4.224284
  C      3.698881   -0.312844   -4.986988
  H      2.731405   -0.050091   -4.849000
  H      3.890046   -1.055172   -5.643730
  H      5.251933    1.303459   -2.721014
  H      6.695165   -0.062322   -3.851596
  H      5.975383   -1.396884   -4.691414
  O      0.228860   -1.246868   -3.127871
  F     -0.439269    1.118966   -3.014550
  O      1.247881    0.403474   -4.595647
  H      1.697003    2.561969   -2.141109
  H      3.080787    1.987436   -1.225838
  H      2.806463    1.986511   -4.268484
  H      3.778714    3.098282   -3.307383

 Total Charge           Charge          ....    0
 Multiplicity           Mult            ....    1
 Number of Electrons    NEL             ....   96
 Basis Dimension        Dim             ....  413

ORBITAL ENERGIES
----------------

  NO   OCC          E(Eh)            E(eV)
   0   2.0000     -88.534573     -2409.1482
   1   2.0000     -24.617914      -669.8875
   2   2.0000     -18.993789      -516.8473
   3   2.0000     -18.980069      -516.4739
   4   2.0000     -14.215539      -386.8245
   5   2.0000     -14.201098      -386.4315
   6   2.0000     -10.174815      -276.8708
   7   2.0000     -10.153641      -276.2946
   8   2.0000     -10.153411      -276.2884
   9   2.0000     -10.147433      -276.1257
  10   2.0000      -9.998302      -272.0676
  11   2.0000      -8.145945      -221.6624
  12   2.0000      -6.166346      -167.7948
  13   2.0000      -6.159220      -167.6009
  14   2.0000      -6.158823      -167.5901
  15   2.0000      -1.550068       -42.1795
  16   2.0000      -1.280683       -34.8492
  17   2.0000      -1.176787       -32.0220
  18   2.0000      -1.137521       -30.9535
  19   2.0000      -1.051857       -28.6225
  20   2.0000      -1.002796       -27.2875
  21   2.0000      -0.918337       -24.9892
  22   2.0000      -0.883340       -24.0369
  23   2.0000      -0.860439       -23.4137
  24   2.0000      -0.805942       -21.9308
  25   2.0000      -0.757151       -20.6031
  26   2.0000      -0.748196       -20.3595
  27   2.0000      -0.720187       -19.5973
  28   2.0000      -0.704862       -19.1803
  29   2.0000      -0.681474       -18.5438
  30   2.0000      -0.661787       -18.0081
  31   2.0000      -0.643074       -17.4989
  32   2.0000      -0.631981       -17.1971
  33   2.0000      -0.607602       -16.5337
  34   2.0000      -0.592699       -16.1281
  35   2.0000      -0.583440       -15.8762
  36   2.0000      -0.559324       -15.2200
  37   2.0000      -0.539943       -14.6926
  38   2.0000      -0.528907       -14.3923
  39   2.0000      -0.520506       -14.1637
  40   2.0000      -0.507989       -13.8231
  41   2.0000      -0.502364       -13.6700
  42   2.0000      -0.488171       -13.2838
  43   2.0000      -0.455346       -12.3906
  44   2.0000      -0.443649       -12.0723
  45   2.0000      -0.425848       -11.5879
  46   2.0000      -0.377413       -10.2699
  47   2.0000      -0.276625        -7.5273
  48   0.0000       0.096925         2.6375
  49   0.0000       0.119306         3.2465
  50   0.0000       0.125769         3.4224
  51   0.0000       0.145284         3.9534
  52   0.0000       0.146574         3.9885

MULLIKEN ATOMIC CHARGES
-----------------------
   0 C :   -0.322076
   1 N :   -0.344184
   2 C :   -0.280282
   3 C :   -0.397630
   4 H :    0.250976
   5 H :    0.200481
   6 S :    0.775736
   7 C :    0.413162
   8 N :   -0.554850
   9 C :   -0.635655
  10 H :    0.157580
  11 H :    0.116042
  12 H :    0.217023
  13 H :    0.237207
  14 H :    0.266707
  15 O :   -0.367708
  16 F :   -0.066744
  17 O :   -0.407234
  18 H :    0.164137
  19 H :    0.161360
  20 H :    0.252870
  21 H :    0.163081
Sum of atomic charges:    0.0000000

LOEWDIN ATOMIC CHARGES
----------------------
   0 C :   -0.291497
   1 N :    0.102673
   2 C :   -0.311621
   3 C :   -0.376561
   4 H :    0.169961
   5 H :    0.148599
   6 S :    0.518603
   7 C :   -0.489906
   8 N :   -0.042649
   9 C :   -0.333045
  10 H :    0.084751
  11 H :    0.103135
  12 H :    0.181298
  13 H :    0.160551
  14 H :    0.178001
  15 O :   -0.250003
  16 F :    0.115560
  17 O :   -0.267784
  18 H :    0.149670
  19 H :    0.151405
  20 H :    0.158244
  21 H :    0.140613

  Mayer bond orders larger than 0.100000
B(  0-C ,  1-N ) :   0.8724 B(  0-C ,  2-C ) :   0.9229 B(  0-C , 20-H ) :   0.9657
B(  0-C , 21-H ) :   0.9814 B(  1-N ,  7-C ) :   1.1167 B(  1-N , 12-H ) :   0.9332
B(  2-C ,  3-C ) :   0.9203 B(  2-C , 18-H ) :   0.9757 B(  2-C , 19-H ) :   0.9644
B(  3-C ,  4-H ) :   0.9237 B(  3-C ,  5-H ) :   0.9482 B(  3-C ,  6-S ) :   0.9455
B(  6-S , 15-O ) :   1.9858 B(  6-S , 16-F ) :   1.1824 B(  6-S , 17-O ) :   1.8036
B(  7-C ,  8-N ) :   1.0641 B(  7-C ,  9-C ) :   1.6096 B(  8-N , 13-H ) :   0.9293
B(  8-N , 14-H ) :   0.9210 B(  9-C , 10-H ) :   1.0105 B(  9-C , 11-H ) :   1.0183

FINAL SINGLE POINT ENERGY      -953.323028416555

DIPOLE MOMENT
-------------
                                X             Y             Z
Electronic contribution:    -15.79835      -1.39328       0.32750
Nuclear contribution   :     16.57580       2.60270       1.54331
                        -----------------------------------------
Total Dipole Moment    :      0.77746       1.20942       1.87081
                        -----------------------------------------
Magnitude (a.u.)       :      2.35946
Magnitude (Debye)      :      5.99727

Rotational constants in cm-1:     0.060402     0.020377     0.017632
Rotational constants in MHz :  1810.792194   610.900365   528.582827

                             ****ORCA TERMINATED NORMALLY****
TOTAL RUN TIME: 0 days 0 hours 0 minutes 38 seconds 307 msec
