                         Program Version 5.0.0 -  RELEASE  -
|  1> !LC-PBE RIJCOSX def2-TZVP def2/J TightSCF xyzfile
|  2>
|  3> *xyzfile 0 1 D8.xyz
|  4>
|  5> %MaxCore 64000
|  6>
|  7> %pal nprocs 18
|  8> end
|  9>
| 10> %scf
| 11>   MaxIter 150
| 12> end
| 13>
| 14>
| 15>                          ****END OF INPUT****

CARTESIAN COORDINATES (ANGSTROEM)
---------------------------------
  C      3.380928    2.083045   -3.350127
  N      4.535924    1.182447   -3.428518
  C      2.495557    1.816150   -2.136364
  C      1.872181    0.427903   -2.077497
  H      2.614270   -0.365825   -2.198894
  H      1.389953    0.273087   -1.112360
  S      0.579024    0.140472   -3.297943
  C      4.671956    0.122273   -4.220598
  C      5.866023   -0.507849   -4.224284
  N      3.698881   -0.312844   -4.986988
  H      2.731405   -0.050091   -4.849000
  H      3.890046   -1.055172   -5.643730
  H      5.251933    1.303459   -2.721014
  H      6.695165   -0.062322   -3.851596
  H      5.975383   -1.396884   -4.691414
  O      0.228860   -1.246868   -3.127871
  O     -0.439269    1.118966   -3.014550
  F      1.247881    0.403474   -4.595647
  H      1.697003    2.561969   -2.141109
  H      3.080787    1.987436   -1.225838
  H      2.806463    1.986511   -4.268484
  H      3.778714    3.098282   -3.307383

 Total Charge           Charge          ....    0
 Multiplicity           Mult            ....    1
 Number of Electrons    NEL             ....   96
 Basis Dimension        Dim             ....  413

ORBITAL ENERGIES
----------------

  NO   OCC          E(Eh)            E(eV)
   0   2.0000     -88.547091     -2409.4888
   1   2.0000     -24.624703      -670.0722
   2   2.0000     -19.009005      -517.2613
   3   2.0000     -19.008191      -517.2392
   4   2.0000     -14.230045      -387.2192
   5   2.0000     -14.216278      -386.8446
   6   2.0000     -10.185564      -277.1633
   7   2.0000     -10.177371      -276.9403
   8   2.0000     -10.175535      -276.8904
   9   2.0000     -10.155053      -276.3330
  10   2.0000     -10.027636      -272.8658
  11   2.0000      -8.158789      -222.0119
  12   2.0000      -6.179740      -168.1593
  13   2.0000      -6.171944      -167.9471
  14   2.0000      -6.171194      -167.9267
  15   2.0000      -1.547494       -42.1094
  16   2.0000      -1.305431       -35.5226
  17   2.0000      -1.205836       -32.8125
  18   2.0000      -1.159601       -31.5543
  19   2.0000      -1.073080       -29.2000
  20   2.0000      -1.018420       -27.7126
  21   2.0000      -0.943812       -25.6824
  22   2.0000      -0.890585       -24.2341
  23   2.0000      -0.872797       -23.7500
  24   2.0000      -0.807644       -21.9771
  25   2.0000      -0.773487       -21.0477
  26   2.0000      -0.768054       -20.8998
  27   2.0000      -0.751585       -20.4517
  28   2.0000      -0.715768       -19.4770
  29   2.0000      -0.688154       -18.7256
  30   2.0000      -0.667173       -18.1547
  31   2.0000      -0.645637       -17.5687
  32   2.0000      -0.638643       -17.3784
  33   2.0000      -0.629987       -17.1428
  34   2.0000      -0.614457       -16.7202
  35   2.0000      -0.601036       -16.3550
  36   2.0000      -0.574583       -15.6352
  37   2.0000      -0.552789       -15.0422
  38   2.0000      -0.546168       -14.8620
  39   2.0000      -0.530137       -14.4258
  40   2.0000      -0.522703       -14.2235
  41   2.0000      -0.514309       -13.9950
  42   2.0000      -0.498441       -13.5633
  43   2.0000      -0.493140       -13.4190
  44   2.0000      -0.476675       -12.9710
  45   2.0000      -0.470550       -12.8043
  46   2.0000      -0.396935       -10.8011
  47   2.0000      -0.284470        -7.7408
  48   0.0000       0.090668         2.4672
  49   0.0000       0.111913         3.0453
  50   0.0000       0.127378         3.4661
  51   0.0000       0.136451         3.7130
  52   0.0000       0.147382         4.0105

MULLIKEN ATOMIC CHARGES
-----------------------
   0 C :   -0.395676
   1 N :   -0.301182
   2 C :   -0.251469
   3 C :   -0.416637
   4 H :    0.242900
   5 H :    0.220139
   6 S :    0.774147
   7 C :    0.385154
   8 C :   -0.693315
   9 N :   -0.502901
  10 H :    0.241824
  11 H :    0.269063
  12 H :    0.254247
  13 H :    0.144039
  14 H :    0.132127
  15 O :   -0.370804
  16 O :   -0.376890
  17 F :   -0.111276
  18 H :    0.192170
  19 H :    0.167028
  20 H :    0.218615
  21 H :    0.178699
Sum of atomic charges:    0.0000000

LOEWDIN ATOMIC CHARGES
----------------------
   0 C :   -0.306765
   1 N :    0.115927
   2 C :   -0.310547
   3 C :   -0.377386
   4 H :    0.159923
   5 H :    0.163279
   6 S :    0.517277
   7 C :   -0.485721
   8 C :   -0.369285
   9 N :   -0.005684
  10 H :    0.132804
  11 H :    0.187695
  12 H :    0.201983
  13 H :    0.099866
  14 H :    0.099039
  15 O :   -0.249211
  16 O :   -0.251559
  17 F :    0.077603
  18 H :    0.158284
  19 H :    0.154682
  20 H :    0.141805
  21 H :    0.145991

  Mayer bond orders larger than 0.100000
B(  0-C ,  1-N ) :   0.8926 B(  0-C ,  2-C ) :   0.9164 B(  0-C , 20-H ) :   0.9828
B(  0-C , 21-H ) :   0.9816 B(  1-N ,  7-C ) :   1.1585 B(  1-N , 12-H ) :   0.9219
B(  2-C ,  3-C ) :   0.9068 B(  2-C , 18-H ) :   0.9633 B(  2-C , 19-H ) :   0.9591
B(  3-C ,  4-H ) :   0.9241 B(  3-C ,  5-H ) :   0.9364 B(  3-C ,  6-S ) :   0.9408
B(  6-S , 15-O ) :   1.9833 B(  6-S , 16-O ) :   1.9661 B(  6-S , 17-F ) :   1.0536
B(  7-C ,  8-C ) :   1.5510 B(  7-C ,  9-N ) :   1.1550 B(  8-C , 13-H ) :   1.0061
B(  8-C , 14-H ) :   1.0120 B(  9-N , 10-H ) :   0.9028 B(  9-N , 11-H ) :   0.9190

FINAL SINGLE POINT ENERGY      -953.345440879510

DIPOLE MOMENT
-------------
                                X             Y             Z
Electronic contribution:    -14.62781      -2.40066      -2.88463
Nuclear contribution   :     14.93782       3.36795       3.35075
                        -----------------------------------------
Total Dipole Moment    :      0.31001       0.96729       0.46613
                        -----------------------------------------
Magnitude (a.u.)       :      1.11760
Magnitude (Debye)      :      2.84071

Rotational constants in cm-1:     0.059219     0.021387     0.018380
Rotational constants in MHz :  1775.354399   641.172207   551.019443

                             ****ORCA TERMINATED NORMALLY****
TOTAL RUN TIME: 0 days 0 hours 0 minutes 38 seconds 297 msec
