                         Program Version 5.0.0 -  RELEASE  -
|  1> !LC-PBE RIJCOSX def2-TZVP def2/J TightSCF xyzfile
|  2>
|  3> *xyzfile 0 1 D9.xyz
|  4>
|  5> %MaxCore 64000
|  6>
|  7> %pal nprocs 18
|  8> end
|  9>
| 10> %scf
| 11>   MaxIter 150
| 12> end
| 13>
| 14>
| 15>                          ****END OF INPUT****

CARTESIAN COORDINATES (ANGSTROEM)
---------------------------------
  C      3.380928    2.083045   -3.350127
  N      4.535924    1.182447   -3.428518
  C      2.495557    1.816150   -2.136364
  C      1.872181    0.427903   -2.077497
  H      2.614270   -0.365825   -2.198894
  H      1.389953    0.273087   -1.112360
  S      0.579024    0.140472   -3.297943
  C      4.671956    0.122273   -4.220598
  N      5.866023   -0.507849   -4.224284
  C      3.698881   -0.312844   -4.986988
  H      2.731405   -0.050091   -4.849000
  H      3.890046   -1.055172   -5.643730
  H      5.251933    1.303459   -2.721014
  H      6.695165   -0.062322   -3.851596
  H      5.975383   -1.396884   -4.691414
  O      0.228860   -1.246868   -3.127871
  O     -0.439269    1.118966   -3.014550
  F      1.247881    0.403474   -4.595647
  H      1.697003    2.561969   -2.141109
  H      3.080787    1.987436   -1.225838
  H      2.806463    1.986511   -4.268484
  H      3.778714    3.098282   -3.307383

 Total Charge           Charge          ....    0
 Multiplicity           Mult            ....    1
 Number of Electrons    NEL             ....   96
 Basis Dimension        Dim             ....  413

ORBITAL ENERGIES
----------------

  NO   OCC          E(Eh)            E(eV)
   0   2.0000     -88.528614     -2408.9861
   1   2.0000     -24.592575      -669.1980
   2   2.0000     -18.991426      -516.7830
   3   2.0000     -18.989754      -516.7375
   4   2.0000     -14.231018      -387.2457
   5   2.0000     -14.217942      -386.8899
   6   2.0000     -10.175804      -276.8977
   7   2.0000     -10.171388      -276.7775
   8   2.0000     -10.168084      -276.6876
   9   2.0000     -10.146779      -276.1079
  10   2.0000     -10.026062      -272.8230
  11   2.0000      -8.139979      -221.5001
  12   2.0000      -6.160620      -167.6390
  13   2.0000      -6.153445      -167.4438
  14   2.0000      -6.152549      -167.4194
  15   2.0000      -1.517301       -41.2879
  16   2.0000      -1.286457       -35.0063
  17   2.0000      -1.188096       -32.3297
  18   2.0000      -1.154661       -31.4199
  19   2.0000      -1.066539       -29.0220
  20   2.0000      -1.003683       -27.3116
  21   2.0000      -0.919778       -25.0284
  22   2.0000      -0.899750       -24.4834
  23   2.0000      -0.857443       -23.3322
  24   2.0000      -0.815553       -22.1923
  25   2.0000      -0.745638       -20.2898
  26   2.0000      -0.739821       -20.1316
  27   2.0000      -0.717951       -19.5364
  28   2.0000      -0.706429       -19.2229
  29   2.0000      -0.693233       -18.8638
  30   2.0000      -0.664176       -18.0732
  31   2.0000      -0.646359       -17.5883
  32   2.0000      -0.626818       -17.0566
  33   2.0000      -0.612197       -16.6587
  34   2.0000      -0.603774       -16.4295
  35   2.0000      -0.589073       -16.0295
  36   2.0000      -0.562008       -15.2930
  37   2.0000      -0.548572       -14.9274
  38   2.0000      -0.541739       -14.7415
  39   2.0000      -0.518451       -14.1078
  40   2.0000      -0.514205       -13.9922
  41   2.0000      -0.507588       -13.8122
  42   2.0000      -0.491474       -13.3737
  43   2.0000      -0.476720       -12.9722
  44   2.0000      -0.459996       -12.5171
  45   2.0000      -0.453822       -12.3491
  46   2.0000      -0.391728       -10.6595
  47   2.0000      -0.298739        -8.1291
  48   0.0000       0.093801         2.5524
  49   0.0000       0.114933         3.1275
  50   0.0000       0.129486         3.5235
  51   0.0000       0.146045         3.9741
  52   0.0000       0.150825         4.1042

MULLIKEN ATOMIC CHARGES
-----------------------
   0 C :   -0.346987
   1 N :   -0.328584
   2 C :   -0.273642
   3 C :   -0.401212
   4 H :    0.239160
   5 H :    0.213360
   6 S :    0.779654
   7 C :    0.437130
   8 N :   -0.549325
   9 C :   -0.640123
  10 H :    0.103482
  11 H :    0.127582
  12 H :    0.224381
  13 H :    0.243995
  14 H :    0.270000
  15 O :   -0.380590
  16 O :   -0.389858
  17 F :   -0.082743
  18 H :    0.191414
  19 H :    0.158853
  20 H :    0.232918
  21 H :    0.171134
Sum of atomic charges:   -0.0000000

LOEWDIN ATOMIC CHARGES
----------------------
   0 C :   -0.290763
   1 N :    0.108666
   2 C :   -0.310585
   3 C :   -0.376554
   4 H :    0.159249
   5 H :    0.159740
   6 S :    0.521500
   7 C :   -0.479830
   8 N :   -0.033723
   9 C :   -0.350591
  10 H :    0.081537
  11 H :    0.106235
  12 H :    0.185335
  13 H :    0.164417
  14 H :    0.180080
  15 O :   -0.255419
  16 O :   -0.261578
  17 F :    0.088105
  18 H :    0.158321
  19 H :    0.151274
  20 H :    0.150436
  21 H :    0.144147

  Mayer bond orders larger than 0.100000
B(  0-C ,  1-N ) :   0.8667 B(  0-C ,  2-C ) :   0.9331 B(  0-C , 20-H ) :   0.9757
B(  0-C , 21-H ) :   0.9812 B(  1-N ,  7-C ) :   1.1416 B(  1-N , 12-H ) :   0.9299
B(  2-C ,  3-C ) :   0.9181 B(  2-C , 18-H ) :   0.9654 B(  2-C , 19-H ) :   0.9627
B(  3-C ,  4-H ) :   0.9313 B(  3-C ,  5-H ) :   0.9391 B(  3-C ,  6-S ) :   0.9390
B(  6-S , 15-O ) :   1.9761 B(  6-S , 16-O ) :   1.9548 B(  6-S , 17-F ) :   1.0986
B(  7-C ,  8-N ) :   1.0825 B(  7-C ,  9-C ) :   1.5725 B(  8-N , 13-H ) :   0.9267
B(  8-N , 14-H ) :   0.9191 B(  9-C , 10-H ) :   1.0430 B(  9-C , 11-H ) :   1.0120

FINAL SINGLE POINT ENERGY      -953.343132265832

DIPOLE MOMENT
-------------
                                X             Y             Z
Electronic contribution:    -12.54185      -2.61815      -2.38622
Nuclear contribution   :     14.72648       3.38697       3.27638
                        -----------------------------------------
Total Dipole Moment    :      2.18464       0.76881       0.89016
                        -----------------------------------------
Magnitude (a.u.)       :      2.48115
Magnitude (Debye)      :      6.30658

Rotational constants in cm-1:     0.059651     0.020833     0.018010
Rotational constants in MHz :  1788.283887   624.555661   539.921162

                             ****ORCA TERMINATED NORMALLY****
TOTAL RUN TIME: 0 days 0 hours 0 minutes 38 seconds 959 msec
