                         Program Version 5.0.0 -  RELEASE  -
|  1> !CAM-B3LYP RIJCOSX def2-SVPD def2/J TightSCF
|  2> *xyz -1 1
|  3> C         -2.45380        0.05510        6.94145
|  4> C         -2.07842        1.48042        6.56410
|  5> O         -0.90125        1.85816        6.82810
|  6> O         -2.93658        2.17731        5.96415
|  7> H         -3.47026       -0.13135        6.66407
|  8> H         -2.34265       -0.07527        7.99765
|  9> H         -1.81248       -0.63046        6.42801
| 10> *
| 11> %MaxCore 64000
| 12>
| 13> %pal nprocs 4
| 14> end
| 15>
| 16> %scf
| 17>   MaxIter 150
| 18> end
| 19>
| 20>
| 21>                          ****END OF INPUT****

CARTESIAN COORDINATES (ANGSTROEM)
---------------------------------
  C     -2.453800    0.055100    6.941450
  C     -2.078420    1.480420    6.564100
  O     -0.901250    1.858160    6.828100
  O     -2.936580    2.177310    5.964150
  H     -3.470260   -0.131350    6.664070
  H     -2.342650   -0.075270    7.997650
  H     -1.812480   -0.630460    6.428010

 Total Charge           Charge          ....   -1
 Multiplicity           Mult            ....    1
 Number of Electrons    NEL             ....   32
 Basis Dimension        Dim             ....  110

ORBITAL ENERGIES
----------------

  NO   OCC          E(Eh)            E(eV)
   0   2.0000     -18.950618      -515.6725
   1   2.0000     -18.947839      -515.5969
   2   2.0000     -10.148501      -276.1547
   3   2.0000     -10.073846      -274.1233
   4   2.0000      -0.889772       -24.2119
   5   2.0000      -0.793756       -21.5992
   6   2.0000      -0.622614       -16.9422
   7   2.0000      -0.376337       -10.2407
   8   2.0000      -0.332884        -9.0582
   9   2.0000      -0.317637        -8.6433
  10   2.0000      -0.296663        -8.0726
  11   2.0000      -0.253671        -6.9027
  12   2.0000      -0.233975        -6.3668
  13   2.0000      -0.111323        -3.0292
  14   2.0000      -0.109768        -2.9869
  15   2.0000      -0.093211        -2.5364
  16   0.0000       0.199080         5.4172
  17   0.0000       0.238529         6.4907
  18   0.0000       0.256482         6.9792
  19   0.0000       0.269886         7.3440
  20   0.0000       0.293977         7.9995

MULLIKEN ATOMIC CHARGES
-----------------------
   0 C :    0.675610
   1 C :    0.006103
   2 O :   -0.664195
   3 O :   -0.627856
   4 H :   -0.143377
   5 H :   -0.121704
   6 H :   -0.124580
Sum of atomic charges:   -1.0000000

LOEWDIN ATOMIC CHARGES
----------------------
   0 C :    0.142979
   1 C :   -0.340332
   2 O :   -0.349690
   3 O :   -0.340759
   4 H :   -0.042339
   5 H :   -0.035806
   6 H :   -0.034051

  Mayer bond orders larger than 0.100000
B(  0-C ,  1-C ) :   1.1814 B(  0-C ,  4-H ) :   0.8266 B(  0-C ,  5-H ) :   0.7762
B(  0-C ,  6-H ) :   0.7847 B(  1-C ,  2-O ) :   1.5214 B(  1-C ,  3-O ) :   1.5261
B(  1-C ,  4-H ) :   0.2764 B(  1-C ,  5-H ) :   0.1897 B(  1-C ,  6-H ) :   0.1831

FINAL SINGLE POINT ENERGY      -228.282263136880

DIPOLE MOMENT
-------------
                                X             Y             Z
Electronic contribution:      0.85242       3.29309      -0.89144
Nuclear contribution   :     -1.26064      -4.68337       1.27880
                        -----------------------------------------
Total Dipole Moment    :     -0.40822      -1.39029       0.38736
                        -----------------------------------------
Magnitude (a.u.)       :      1.49986
Magnitude (Debye)      :      3.81235

Rotational constants in cm-1:     0.391994     0.333933     0.186475
Rotational constants in MHz : 11751.676689 10011.065304  5590.392476

                             ****ORCA TERMINATED NORMALLY****
TOTAL RUN TIME: 0 days 0 hours 0 minutes 10 seconds 476 msec
