                         Program Version 5.0.0 -  RELEASE  -
|  1> !CAM-B3LYP RIJCOSX def2-SVPD def2/J TightSCF
|  2> *xyz 1 1
|  3> C         -0.69912        3.48945        3.75516
|  4> N         -1.08067        3.79296        5.15686
|  5> H         -0.87449        4.76274        5.42734
|  6> H         -0.68079        3.13476        5.83900
|  7> H         -2.05755        3.53169        5.34620
|  8> H         -1.14600        4.20803        3.10030
|  9> H         -1.04188        2.50941        3.49644
| 10> H          0.36562        3.53208        3.65813
| 11> *
| 12> %MaxCore 64000
| 13>
| 14> %pal nprocs 4
| 15> end
| 16>
| 17> %scf
| 18>   MaxIter 150
| 19> end
| 20>
| 21>
| 22>                          ****END OF INPUT****

CARTESIAN COORDINATES (ANGSTROEM)
---------------------------------
  C     -0.699120    3.489450    3.755160
  N     -1.080670    3.792960    5.156860
  H     -0.874490    4.762740    5.427340
  H     -0.680790    3.134760    5.839000
  H     -2.057550    3.531690    5.346200
  H     -1.146000    4.208030    3.100300
  H     -1.041880    2.509410    3.496440
  H      0.365620    3.532080    3.658130

 Total Charge           Charge          ....    1
 Multiplicity           Mult            ....    1
 Number of Electrons    NEL             ....   18
 Basis Dimension        Dim             ....   88

ORBITAL ENERGIES
----------------

  NO   OCC          E(Eh)            E(eV)
   0   2.0000     -14.755442      -401.5160
   1   2.0000     -10.518514      -286.2233
   2   2.0000      -1.302658       -35.4471
   3   2.0000      -1.017660       -27.6919
   4   2.0000      -0.898252       -24.4427
   5   2.0000      -0.860192       -23.4070
   6   2.0000      -0.788778       -21.4637
   7   2.0000      -0.697930       -18.9916
   8   2.0000      -0.691601       -18.8194
   9   0.0000      -0.169974        -4.6252
  10   0.0000      -0.100353        -2.7308
  11   0.0000      -0.098330        -2.6757
  12   0.0000      -0.096649        -2.6300
  13   0.0000      -0.049319        -1.3420

MULLIKEN ATOMIC CHARGES
-----------------------
   0 C :    1.129194
   1 N :   -0.755981
   2 H :    0.341347
   3 H :    0.320480
   4 H :    0.335043
   5 H :   -0.126666
   6 H :   -0.125813
   7 H :   -0.117604
Sum of atomic charges:    1.0000000

LOEWDIN ATOMIC CHARGES
----------------------
   0 C :    0.283723
   1 N :    0.307366
   2 H :    0.114906
   3 H :    0.109085
   4 H :    0.108645
   5 H :    0.025587
   6 H :    0.025686
   7 H :    0.025002

  Mayer bond orders larger than 0.100000
B(  0-C ,  1-N ) :   0.7742 B(  0-C ,  5-H ) :   0.8613 B(  0-C ,  6-H ) :   0.8574
B(  0-C ,  7-H ) :   0.8663 B(  1-N ,  2-H ) :   0.7994 B(  1-N ,  3-H ) :   0.8465
B(  1-N ,  4-H ) :   0.8214 B(  1-N ,  5-H ) :   0.1072 B(  1-N ,  6-H ) :   0.1085

FINAL SINGLE POINT ENERGY       -96.088747719920

DIPOLE MOMENT
-------------
                                X             Y             Z
Electronic contribution:     -0.25053       0.28285       0.99657
Nuclear contribution   :     -0.00699      -0.18064      -0.14199
                        -----------------------------------------
Total Dipole Moment    :     -0.25752       0.10221       0.85458
                        -----------------------------------------
Magnitude (a.u.)       :      0.89837
Magnitude (Debye)      :      2.28348

Rotational constants in cm-1:     2.906310     0.688008     0.676648
Rotational constants in MHz : 87128.982229 20625.947414 20285.402367

                             ****ORCA TERMINATED NORMALLY****
TOTAL RUN TIME: 0 days 0 hours 0 minutes 5 seconds 963 msec
