                         Program Version 5.0.0 -  RELEASE  -
|  1> !CAM-B3LYP RIJCOSX def2-SVPD def2/J TightSCF
|  2> *xyz 0 1
|  3> C         -2.45380        0.05510        6.94145
|  4> C         -2.07842        1.48042        6.56410
|  5> F         -0.90125        1.85816        6.82810
|  6> O         -2.93658        2.17731        5.96415
|  7> H         -3.47026       -0.13135        6.66407
|  8> H         -2.34265       -0.07527        7.99765
|  9> H         -1.81248       -0.63046        6.42801
| 10> *
| 11> %MaxCore 64000
| 12>
| 13> %pal nprocs 4
| 14> end
| 15>
| 16> %scf
| 17>   MaxIter 150
| 18> end
| 19>
| 20>
| 21>                          ****END OF INPUT****

CARTESIAN COORDINATES (ANGSTROEM)
---------------------------------
  C     -2.453800    0.055100    6.941450
  C     -2.078420    1.480420    6.564100
  F     -0.901250    1.858160    6.828100
  O     -2.936580    2.177310    5.964150
  H     -3.470260   -0.131350    6.664070
  H     -2.342650   -0.075270    7.997650
  H     -1.812480   -0.630460    6.428010

 Total Charge           Charge          ....    0
 Multiplicity           Mult            ....    1
 Number of Electrons    NEL             ....   32
 Basis Dimension        Dim             ....  110

ORBITAL ENERGIES
----------------

  NO   OCC          E(Eh)            E(eV)
   0   2.0000     -24.848323      -676.1572
   1   2.0000     -19.229948      -523.2735
   2   2.0000     -10.453663      -284.4586
   3   2.0000     -10.290509      -280.0190
   4   2.0000      -1.389027       -37.7973
   5   2.0000      -1.111910       -30.2566
   6   2.0000      -0.855090       -23.2682
   7   2.0000      -0.736681       -20.0461
   8   2.0000      -0.629165       -17.1205
   9   2.0000      -0.624050       -16.9813
  10   2.0000      -0.580122       -15.7859
  11   2.0000      -0.519129       -14.1262
  12   2.0000      -0.507316       -13.8048
  13   2.0000      -0.479733       -13.0542
  14   2.0000      -0.429029       -11.6745
  15   2.0000      -0.369609       -10.0576
  16   0.0000       0.014826         0.4034
  17   0.0000       0.039614         1.0780
  18   0.0000       0.083084         2.2608
  19   0.0000       0.112452         3.0600
  20   0.0000       0.120447         3.2775

MULLIKEN ATOMIC CHARGES
-----------------------
   0 C :    0.617375
   1 C :    0.364858
   2 F :   -0.358523
   3 O :   -0.416693
   4 H :   -0.115788
   5 H :   -0.046203
   6 H :   -0.045024
Sum of atomic charges:   -0.0000000

LOEWDIN ATOMIC CHARGES
----------------------
   0 C :    0.215025
   1 C :   -0.038206
   2 F :   -0.040836
   3 O :   -0.136823
   4 H :    0.000789
   5 H :   -0.000978
   6 H :    0.001029

  Mayer bond orders larger than 0.100000
B(  0-C ,  1-C ) :   1.2182 B(  0-C ,  4-H ) :   0.8499 B(  0-C ,  5-H ) :   0.7759
B(  0-C ,  6-H ) :   0.7818 B(  1-C ,  2-F ) :   0.7894 B(  1-C ,  3-O ) :   1.8809
B(  1-C ,  4-H ) :   0.2369 B(  1-C ,  5-H ) :   0.1485 B(  1-C ,  6-H ) :   0.1442

FINAL SINGLE POINT ENERGY      -252.817988027923

DIPOLE MOMENT
-------------
                                X             Y             Z
Electronic contribution:      2.82365       4.10012      -0.48054
Nuclear contribution   :     -2.49112      -5.16552       1.01592
                        -----------------------------------------
Total Dipole Moment    :      0.33254      -1.06540       0.53537
                        -----------------------------------------
Magnitude (a.u.)       :      1.23785
Magnitude (Debye)      :      3.14638

Rotational constants in cm-1:     0.367635     0.321184     0.176974
Rotational constants in MHz : 11021.414238  9628.842971  5305.560130

                             ****ORCA TERMINATED NORMALLY****
TOTAL RUN TIME: 0 days 0 hours 0 minutes 10 seconds 440 msec
