                         Program Version 5.0.0 -  RELEASE  -
|  1> !CAM-B3LYP RIJCOSX def2-SVPD def2/J TightSCF
|  2> *xyz 0 1
|  3> C         -0.69912        3.48945        3.75516
|  4> C         -1.08067        3.79296        5.15686
|  5> H         -0.87449        4.76274        5.42734
|  6> H         -0.68079        3.13476        5.83900
|  7> H         -2.05755        3.53169        5.34620
|  8> H         -1.14600        4.20803        3.10030
|  9> H         -1.04188        2.50941        3.49644
| 10> H          0.36562        3.53208        3.65813
| 11> *
| 12> %MaxCore 64000
| 13>
| 14> %pal nprocs 4
| 15> end
| 16>
| 17> %scf
| 18>   MaxIter 150
| 19> end
| 20>
| 21>
| 22>                          ****END OF INPUT****

CARTESIAN COORDINATES (ANGSTROEM)
---------------------------------
  C     -0.699120    3.489450    3.755160
  C     -1.080670    3.792960    5.156860
  H     -0.874490    4.762740    5.427340
  H     -0.680790    3.134760    5.839000
  H     -2.057550    3.531690    5.346200
  H     -1.146000    4.208030    3.100300
  H     -1.041880    2.509410    3.496440
  H      0.365620    3.532080    3.658130

 Total Charge           Charge          ....    0
 Multiplicity           Mult            ....    1
 Number of Electrons    NEL             ....   18
 Basis Dimension        Dim             ....   88

ORBITAL ENERGIES
----------------

  NO   OCC          E(Eh)            E(eV)
   0   2.0000     -10.236935      -278.5612
   1   2.0000     -10.223369      -278.1920
   2   2.0000      -0.846140       -23.0246
   3   2.0000      -0.698229       -18.9998
   4   2.0000      -0.528643       -14.3851
   5   2.0000      -0.507257       -13.8032
   6   2.0000      -0.441145       -12.0042
   7   2.0000      -0.420098       -11.4314
   8   2.0000      -0.397409       -10.8140
   9   0.0000       0.057003         1.5511
  10   0.0000       0.086832         2.3628
  11   0.0000       0.132969         3.6183
  12   0.0000       0.138714         3.7746
  13   0.0000       0.156658         4.2629

MULLIKEN ATOMIC CHARGES
-----------------------
   0 C :    0.488085
   1 C :    0.738205
   2 H :   -0.281368
   3 H :   -0.282838
   4 H :   -0.274564
   5 H :   -0.136462
   6 H :   -0.118673
   7 H :   -0.132384
Sum of atomic charges:    0.0000000

LOEWDIN ATOMIC CHARGES
----------------------
   0 C :    0.081558
   1 C :    0.076031
   2 H :   -0.030334
   3 H :   -0.038070
   4 H :   -0.038035
   5 H :   -0.017218
   6 H :   -0.015916
   7 H :   -0.018015

  Mayer bond orders larger than 0.100000
B(  0-C ,  1-C ) :   1.3974 B(  0-C ,  2-H ) :   0.1690 B(  0-C ,  3-H ) :   0.1564
B(  0-C ,  4-H ) :   0.1612 B(  0-C ,  5-H ) :   0.8180 B(  0-C ,  6-H ) :   0.8266
B(  0-C ,  7-H ) :   0.8222 B(  1-C ,  2-H ) :   0.7504 B(  1-C ,  3-H ) :   0.6690
B(  1-C ,  4-H ) :   0.6729 B(  1-C ,  5-H ) :   0.1671 B(  1-C ,  6-H ) :   0.1777
B(  1-C ,  7-H ) :   0.1630 B(  3-H ,  4-H ) :   0.2963

FINAL SINGLE POINT ENERGY       -79.699339468039

DIPOLE MOMENT
-------------
                                X             Y             Z
Electronic contribution:      0.05276       0.10208      -0.06113
Nuclear contribution   :     -0.07174      -0.12630       0.09844
                        -----------------------------------------
Total Dipole Moment    :     -0.01898      -0.02422       0.03731
                        -----------------------------------------
Magnitude (a.u.)       :      0.04837
Magnitude (Debye)      :      0.12294

Rotational constants in cm-1:     2.906543     0.717882     0.705537
Rotational constants in MHz : 87135.978289 21521.550473 21151.459355

                             ****ORCA TERMINATED NORMALLY****
TOTAL RUN TIME: 0 days 0 hours 0 minutes 5 seconds 871 msec
