                         Program Version 5.0.0 -  RELEASE  -
|  1> !CAM-B3LYP RIJCOSX def2-SVPD def2/J TightSCF
|  2> *xyz 0 1
|  3> C         -2.45380        0.05510        6.94145
|  4> C         -2.07842        1.48042        6.56410
|  5> O         -0.90125        1.85816        6.82810
|  6> F         -2.93658        2.17731        5.96415
|  7> H         -3.47026       -0.13135        6.66407
|  8> H         -2.34265       -0.07527        7.99765
|  9> H         -1.81248       -0.63046        6.42801
| 10> *
| 11> %MaxCore 64000
| 12>
| 13> %pal nprocs 4
| 14> end
| 15>
| 16> %scf
| 17>   MaxIter 150
| 18> end
| 19>
| 20>
| 21>                          ****END OF INPUT****

CARTESIAN COORDINATES (ANGSTROEM)
---------------------------------
  C     -2.453800    0.055100    6.941450
  C     -2.078420    1.480420    6.564100
  O     -0.901250    1.858160    6.828100
  F     -2.936580    2.177310    5.964150
  H     -3.470260   -0.131350    6.664070
  H     -2.342650   -0.075270    7.997650
  H     -1.812480   -0.630460    6.428010

 Total Charge           Charge          ....    0
 Multiplicity           Mult            ....    1
 Number of Electrons    NEL             ....   32
 Basis Dimension        Dim             ....  110

ORBITAL ENERGIES
----------------

  NO   OCC          E(Eh)            E(eV)
   0   2.0000     -24.851108      -676.2330
   1   2.0000     -19.228155      -523.2247
   2   2.0000     -10.454350      -284.4773
   3   2.0000     -10.290756      -280.0257
   4   2.0000      -1.394154       -37.9369
   5   2.0000      -1.107642       -30.1405
   6   2.0000      -0.854965       -23.2648
   7   2.0000      -0.739813       -20.1313
   8   2.0000      -0.631390       -17.1810
   9   2.0000      -0.626802       -17.0561
  10   2.0000      -0.580440       -15.7946
  11   2.0000      -0.520371       -14.1600
  12   2.0000      -0.506674       -13.7873
  13   2.0000      -0.478862       -13.0305
  14   2.0000      -0.423635       -11.5277
  15   2.0000      -0.368968       -10.0401
  16   0.0000       0.010738         0.2922
  17   0.0000       0.039275         1.0687
  18   0.0000       0.083081         2.2607
  19   0.0000       0.115603         3.1457
  20   0.0000       0.116885         3.1806

MULLIKEN ATOMIC CHARGES
-----------------------
   0 C :    0.601676
   1 C :    0.353056
   2 O :   -0.446247
   3 F :   -0.328161
   4 H :   -0.097475
   5 H :   -0.042403
   6 H :   -0.040446
Sum of atomic charges:    0.0000000

LOEWDIN ATOMIC CHARGES
----------------------
   0 C :    0.215270
   1 C :   -0.036316
   2 O :   -0.142799
   3 F :   -0.036459
   4 H :   -0.011882
   5 H :    0.005619
   6 H :    0.006568

  Mayer bond orders larger than 0.100000
B(  0-C ,  1-C ) :   1.2382 B(  0-C ,  4-H ) :   0.8490 B(  0-C ,  5-H ) :   0.7721
B(  0-C ,  6-H ) :   0.7815 B(  1-C ,  2-O ) :   1.8486 B(  1-C ,  3-F ) :   0.8378
B(  1-C ,  4-H ) :   0.1754 B(  1-C ,  5-H ) :   0.1689 B(  1-C ,  6-H ) :   0.1592

FINAL SINGLE POINT ENERGY      -252.815088944161

DIPOLE MOMENT
-------------
                                X             Y             Z
Electronic contribution:     -0.49540       4.62109      -1.88912
Nuclear contribution   :     -0.38801      -5.49530       1.90863
                        -----------------------------------------
Total Dipole Moment    :     -0.88342      -0.87420       0.01951
                        -----------------------------------------
Magnitude (a.u.)       :      1.24299
Magnitude (Debye)      :      3.15944

Rotational constants in cm-1:     0.368583     0.320435     0.176966
Rotational constants in MHz : 11049.843408  9606.394840  5305.299921

                             ****ORCA TERMINATED NORMALLY****
TOTAL RUN TIME: 0 days 0 hours 0 minutes 10 seconds 489 msec
