                         Program Version 5.0.0 -  RELEASE  -
|  1> !CAM-B3LYP RIJCOSX def2-SVPD def2/J TightSCF xyzfile
|  2>
|  3> *xyzfile 0 1 D2.xyz
|  4>
|  5> %MaxCore 64000
|  6>
|  7> %pal nprocs 4
|  8> end
|  9>
| 10> %scf
| 11>   MaxIter 150
| 12> end
| 13>
| 14>
| 15>                          ****END OF INPUT****

CARTESIAN COORDINATES (ANGSTROEM)
---------------------------------
  C     -0.699123    3.489451    3.755163
  H     -0.966716    4.349013    3.140491
  C     -1.080669    3.792957    5.156857
  C      0.776956    3.138391    3.617408
  H     -1.331455    2.656510    3.446323
  H      1.371398    3.888342    4.149744
  H      1.046926    3.232057    2.561331
  C      1.118917    1.731170    4.115155
  H      2.200573    1.654226    4.254882
  C      0.659466    0.635182    3.153306
  H      0.677024    1.576674    5.103150
  H      1.312288    0.638870    2.274207
  H     -0.339563    0.868049    2.772876
  C      0.639957   -0.771175    3.755619
  C     -0.341821   -0.965537    4.915046
  H      1.648266   -1.028665    4.097015
  H      0.398568   -1.482386    2.958453
  H     -0.279892   -2.005646    5.252547
  C     -1.789164   -0.639231    4.557496
  H     -0.032380   -0.352918    5.765118
  H     -2.107151   -1.270102    3.719619
  H     -1.856352    0.391636    4.197604
  C     -2.790700   -0.785275    5.702812
  H     -2.867308   -1.835651    6.001675
  H     -3.774554   -0.486577    5.334807
  C     -2.453797    0.055101    6.941445
  C     -2.078419    1.480421    6.564098
  H     -1.625584   -0.382163    7.498914
  H     -3.325274    0.087746    7.599175
  H     -0.874488    4.762737    5.427344
  H     -0.680793    3.134762    5.839000
  H     -2.057550    3.531691    5.346197
  O     -0.901252    1.858156    6.828104
  F     -2.936582    2.177309    5.964151

 Total Charge           Charge          ....    0
 Multiplicity           Mult            ....    1
 Number of Electrons    NEL             ....  104
 Basis Dimension        Dim             ....  434

ORBITAL ENERGIES
----------------

  NO   OCC          E(Eh)            E(eV)
   0   2.0000     -24.859403      -676.4587
   1   2.0000     -19.232828      -523.3519
   2   2.0000     -10.458908      -284.6013
   3   2.0000     -10.295377      -280.1515
   4   2.0000     -10.279890      -279.7300
   5   2.0000     -10.263707      -279.2897
   6   2.0000     -10.252762      -278.9918
   7   2.0000     -10.248552      -278.8773
   8   2.0000     -10.241305      -278.6801
   9   2.0000     -10.234191      -278.4865
  10   2.0000     -10.231720      -278.4193
  11   2.0000     -10.225591      -278.2525
  12   2.0000     -10.172071      -276.7961
  13   2.0000      -1.405978       -38.2586
  14   2.0000      -1.122529       -30.5456
  15   2.0000      -0.912893       -24.8411
  16   2.0000      -0.883452       -24.0400
  17   2.0000      -0.853470       -23.2241
  18   2.0000      -0.825169       -22.4540
  19   2.0000      -0.780349       -21.2344
  20   2.0000      -0.759101       -20.6562
  21   2.0000      -0.736625       -20.0446
  22   2.0000      -0.695805       -18.9338
  23   2.0000      -0.684311       -18.6210
  24   2.0000      -0.644595       -17.5403
  25   2.0000      -0.637492       -17.3470
  26   2.0000      -0.634182       -17.2570
  27   2.0000      -0.609414       -16.5830
  28   2.0000      -0.588756       -16.0209
  29   2.0000      -0.556083       -15.1318
  30   2.0000      -0.550559       -14.9815
  31   2.0000      -0.530235       -14.4284
  32   2.0000      -0.524607       -14.2753
  33   2.0000      -0.502369       -13.6702
  34   2.0000      -0.493209       -13.4209
  35   2.0000      -0.489687       -13.3251
  36   2.0000      -0.477333       -12.9889
  37   2.0000      -0.470981       -12.8160
  38   2.0000      -0.457352       -12.4452
  39   2.0000      -0.444070       -12.0838
  40   2.0000      -0.440632       -11.9902
  41   2.0000      -0.433996       -11.8096
  42   2.0000      -0.418186       -11.3794
  43   2.0000      -0.410020       -11.1572
  44   2.0000      -0.402616       -10.9557
  45   2.0000      -0.392112       -10.6699
  46   2.0000      -0.385941       -10.5020
  47   2.0000      -0.375988       -10.2312
  48   2.0000      -0.369455       -10.0534
  49   2.0000      -0.359269        -9.7762
  50   2.0000      -0.357181        -9.7194
  51   2.0000      -0.323860        -8.8127
  52   0.0000       0.001777         0.0484
  53   0.0000       0.041152         1.1198
  54   0.0000       0.060392         1.6434
  55   0.0000       0.062794         1.7087
  56   0.0000       0.068797         1.8721

MULLIKEN ATOMIC CHARGES
-----------------------
   0 C :    0.198552
   1 H :   -0.375540
   2 C :    2.274493
   3 C :    0.683830
   4 H :   -0.346966
   5 H :   -0.166059
   6 H :   -0.200821
   7 C :    0.931485
   8 H :   -0.048912
   9 C :    0.177405
  10 H :   -0.950911
  11 H :   -0.327359
  12 H :   -0.203583
  13 C :    0.881376
  14 C :    0.153202
  15 H :   -0.213426
  16 H :   -0.043602
  17 H :   -0.368161
  18 C :    0.608112
  19 H :   -0.097953
  20 H :   -0.142956
  21 H :   -0.761255
  22 C :    0.610914
  23 H :   -0.257188
  24 H :   -0.024258
  25 C :    0.502309
  26 C :    0.567678
  27 H :    0.048075
  28 H :   -0.224382
  29 H :   -0.348751
  30 H :   -0.878630
  31 H :   -0.559415
  32 O :   -0.615796
  33 F :   -0.481507
Sum of atomic charges:   -0.0000000

LOEWDIN ATOMIC CHARGES
----------------------
   0 C :   -0.041006
   1 H :    0.019201
   2 C :    0.133542
   3 C :   -0.023620
   4 H :   -0.000547
   5 H :    0.025421
   6 H :    0.016084
   7 C :   -0.009165
   8 H :    0.025525
   9 C :   -0.032029
  10 H :   -0.015238
  11 H :    0.023967
  12 H :   -0.001835
  13 C :   -0.026646
  14 C :   -0.022812
  15 H :    0.023897
  16 H :    0.020818
  17 H :    0.026611
  18 C :   -0.023876
  19 H :   -0.001547
  20 H :    0.033810
  21 H :   -0.001538
  22 C :   -0.013948
  23 H :    0.028393
  24 H :    0.025787
  25 C :    0.062909
  26 C :    0.045841
  27 H :    0.035653
  28 H :    0.038207
  29 H :   -0.016744
  30 H :   -0.126511
  31 H :   -0.076652
  32 O :   -0.126595
  33 F :   -0.025357

  Mayer bond orders larger than 0.100000
B(  0-C ,  1-H ) :   0.8034 B(  0-C ,  2-C ) :   0.7071 B(  0-C ,  3-C ) :   1.1693
B(  0-C ,  4-H ) :   0.6628 B(  0-C ,  5-H ) :   0.1697 B(  0-C ,  6-H ) :   0.1878
B(  0-C ,  7-C ) :   0.2157 B(  0-C , 10-H ) :  -0.1665 B(  0-C , 29-H ) :   0.1353
B(  0-C , 30-H ) :   0.6684 B(  0-C , 31-H ) :   0.4252 B(  1-H ,  5-H ) :   0.1199
B(  1-H ,  8-H ) :   0.1061 B(  1-H , 30-H ) :   0.1180 B(  2-C ,  3-C ) :   0.1059
B(  2-C ,  4-H ) :   0.2194 B(  2-C , 29-H ) :   0.3866 B(  2-C , 30-H ) :  -0.5827
B(  3-C ,  4-H ) :   0.1368 B(  3-C ,  5-H ) :   0.6330 B(  3-C ,  6-H ) :   0.6647
B(  3-C ,  7-C ) :   1.1453 B(  3-C , 10-H ) :   0.2422 B(  3-C , 30-H ) :  -0.1693
B(  4-H ,  7-C ) :  -0.1138 B(  4-H , 10-H ) :   0.1107 B(  4-H , 12-H ) :   0.1124
B(  4-H , 21-H ) :   0.2231 B(  5-H ,  6-H ) :  -0.1605 B(  5-H ,  7-C ) :   0.1787
B(  5-H , 10-H ) :   0.1250 B(  6-H ,  7-C ) :   0.1451 B(  6-H ,  8-H ) :   0.1042
B(  7-C ,  8-H ) :   0.6012 B(  7-C ,  9-C ) :   1.0494 B(  7-C , 11-H ) :   0.2034
B(  7-C , 12-H ) :   0.1041 B(  8-H ,  9-C ) :   0.2183 B(  9-C , 10-H ) :   0.3098
B(  9-C , 11-H ) :   0.8197 B(  9-C , 12-H ) :   0.8574 B(  9-C , 13-C ) :   1.1656
B(  9-C , 14-C ) :   0.1312 B(  9-C , 15-H ) :   0.1452 B(  9-C , 16-H ) :   0.2664
B( 10-H , 13-C ) :  -0.1233 B( 10-H , 19-H ) :   0.1328 B( 10-H , 30-H ) :   0.1092
B( 13-C , 14-C ) :   1.1219 B( 13-C , 15-H ) :   0.5997 B( 13-C , 16-H ) :   0.6288
B( 14-C , 15-H ) :   0.3273 B( 14-C , 17-H ) :   0.8523 B( 14-C , 18-C ) :   1.0991
B( 14-C , 19-H ) :   0.8461 B( 14-C , 20-H ) :   0.1785 B( 14-C , 21-H ) :   0.3105
B( 15-H , 16-H ) :  -0.1567 B( 17-H , 18-C ) :   0.1483 B( 18-C , 19-H ) :   0.1215
B( 18-C , 20-H ) :   0.6526 B( 18-C , 21-H ) :   0.3844 B( 18-C , 22-C ) :   1.1780
B( 18-C , 23-H ) :   0.1599 B( 18-C , 24-H ) :   0.2937 B( 18-C , 25-C ) :   0.1339
B( 20-H , 21-H ) :   0.1206 B( 21-H , 22-C ) :   0.1622 B( 22-C , 23-H ) :   0.7471
B( 22-C , 24-H ) :   0.6340 B( 22-C , 25-C ) :   1.1098 B( 22-C , 26-C ) :   0.1022
B( 22-C , 28-H ) :   0.1820 B( 23-H , 24-H ) :  -0.1725 B( 23-H , 25-C ) :   0.1448
B( 25-C , 26-C ) :   1.1722 B( 25-C , 27-H ) :   0.8002 B( 25-C , 28-H ) :   0.5813
B( 26-C , 27-H ) :   0.1668 B( 26-C , 28-H ) :   0.3057 B( 26-C , 32-O ) :   1.7263
B( 26-C , 33-F ) :   0.5671 B( 29-H , 30-H ) :   0.2467 B( 30-H , 31-H ) :   0.5284
B( 30-H , 32-O ) :   0.1959 B( 31-H , 33-F ) :   0.2340 B( 32-O , 33-F ) :   0.1351

FINAL SINGLE POINT ENERGY      -606.116466067822

DIPOLE MOMENT
-------------
                                X             Y             Z
Electronic contribution:     -8.96086       2.99038       9.46348
Nuclear contribution   :      8.07181      -4.09641      -9.21610
                        -----------------------------------------
Total Dipole Moment    :     -0.88905      -1.10604       0.24738
                        -----------------------------------------
Magnitude (a.u.)       :      1.44046
Magnitude (Debye)      :      3.66136

Rotational constants in cm-1:     0.028400     0.023377     0.015073
Rotational constants in MHz :   851.414727   700.831775   451.871218

                             ****ORCA TERMINATED NORMALLY****
TOTAL RUN TIME: 0 days 0 hours 5 minutes 4 seconds 989 msec
