                         Program Version 5.0.0 -  RELEASE  -
|  1> !B3LYP D3BJ RIJCOSX def2-TZVPD def2/J TightSCF
|  2> *xyz -1 1
|  3> C         -1.91658       -2.48508       -3.64367
|  4> C         -1.36353       -1.98134       -2.29361
|  5> O         -0.35039       -2.74969       -1.79601
|  6> H         -2.22622       -1.90839       -1.60204
|  7> H         -1.05135       -0.91567       -2.44333
|  8> H         -1.11522       -2.57167       -4.34739
|  9> H         -2.64227       -1.79099       -4.01314
| 10> H         -2.37564       -3.44180       -3.50640
| 11> *
| 12>
| 13> %MaxCore 64000
| 14> %pal nprocs 4
| 15> end
| 16>
| 17> %scf
| 18>   MaxIter 150
| 19> end
| 20>
| 21>
| 22>                          ****END OF INPUT****

CARTESIAN COORDINATES (ANGSTROEM)
---------------------------------
  C     -1.916580   -2.485080   -3.643670
  C     -1.363530   -1.981340   -2.293610
  O     -0.350390   -2.749690   -1.796010
  H     -2.226220   -1.908390   -1.602040
  H     -1.051350   -0.915670   -2.443330
  H     -1.115220   -2.571670   -4.347390
  H     -2.642270   -1.790990   -4.013140
  H     -2.375640   -3.441800   -3.506400

 Total Charge           Charge          ....   -1
 Multiplicity           Mult            ....    1
 Number of Electrons    NEL             ....   26
 Basis Dimension        Dim             ....  159

ORBITAL ENERGIES
----------------

  NO   OCC          E(Eh)            E(eV)
   0   2.0000     -18.798903      -511.5441
   1   2.0000      -9.984988      -271.7053
   2   2.0000      -9.959840      -271.0210
   3   2.0000      -0.684578       -18.6283
   4   2.0000      -0.526816       -14.3354
   5   2.0000      -0.373449       -10.1621
   6   2.0000      -0.249896        -6.8000
   7   2.0000      -0.228816        -6.2264
   8   2.0000      -0.174081        -4.7370
   9   2.0000      -0.158130        -4.3029
  10   2.0000      -0.117560        -3.1990
  11   2.0000       0.025276         0.6878
  12   2.0000       0.028021         0.7625
  13   0.0000       0.154001         4.1906
  14   0.0000       0.177556         4.8315
  15   0.0000       0.203671         5.5422
  16   0.0000       0.207759         5.6534
  17   0.0000       0.228605         6.2207

MULLIKEN ATOMIC CHARGES
-----------------------
   0 C :   -0.952527
   1 C :   -0.219739
   2 O :   -0.928754
   3 H :    0.165020
   4 H :    0.165832
   5 H :    0.223016
   6 H :    0.326187
   7 H :    0.220965
Sum of atomic charges:   -1.0000000

LOEWDIN ATOMIC CHARGES
----------------------
   0 C :   -0.167644
   1 C :   -0.620788
   2 O :   -0.405348
   3 H :    0.049577
   4 H :    0.052930
   5 H :    0.035358
   6 H :    0.021989
   7 H :    0.033927

  Mayer bond orders larger than 0.100000
B(  0-C ,  1-C ) :   0.7639 B(  0-C ,  2-O ) :   0.3927 B(  0-C ,  5-H ) :   1.0098
B(  0-C ,  6-H ) :   0.9538 B(  0-C ,  7-H ) :   1.0045 B(  1-C ,  2-O ) :   0.9126
B(  1-C ,  3-H ) :   1.0627 B(  1-C ,  4-H ) :   1.0590

Dispersion correction           -0.006227196
FINAL SINGLE POINT ENERGY      -154.407145412450

DIPOLE MOMENT
-------------
                                X             Y             Z
Electronic contribution:      2.11217      -0.89471       1.90461
Nuclear contribution   :     -3.14382       1.30299      -2.83231
                        -----------------------------------------
Total Dipole Moment    :     -1.03165       0.40828      -0.92770
                        -----------------------------------------
Magnitude (a.u.)       :      1.44624
Magnitude (Debye)      :      3.67606

Rotational constants in cm-1:     1.288206     0.322942     0.285188
Rotational constants in MHz : 38619.437223  9681.562038  8549.712012

                             ****ORCA TERMINATED NORMALLY****
TOTAL RUN TIME: 0 days 0 hours 0 minutes 16 seconds 677 msec
