                         Program Version 5.0.0 -  RELEASE  -
|  1> !B3LYP D3BJ RIJCOSX def2-TZVPD def2/J TightSCF
|  2> *xyz 1 1
|  3> C          1.64703       -2.34528       -5.02041
|  4> C          2.20996       -2.81239       -3.66571
|  5> C          2.48901       -1.66851       -2.73754
|  6> N          3.59631       -0.94761       -2.95225
|  7> N          1.66394       -1.41369       -1.77781
|  8> H          0.81164       -1.96318       -1.70275
|  9> H          1.84550       -0.63508       -1.15875
| 10> H          4.20535       -1.17600       -3.73383
| 11> H          3.81723       -0.12585       -2.40604
| 12> H          3.14311       -3.36280       -3.81152
| 13> H          1.48768       -3.45893       -3.16521
| 14> H          1.46566       -3.19589       -5.64368
| 15> H          2.35406       -1.69850       -5.49654
| 16> H          0.73014       -1.81680       -4.86253
| 17> *
| 18>
| 19> %MaxCore 64000
| 20> %pal nprocs 4
| 21> end
| 22>
| 23> %scf
| 24>   MaxIter 150
| 25> end
| 26>
| 27>
| 28>                          ****END OF INPUT****

CARTESIAN COORDINATES (ANGSTROEM)
---------------------------------
  C      1.647030   -2.345280   -5.020410
  C      2.209960   -2.812390   -3.665710
  C      2.489010   -1.668510   -2.737540
  N      3.596310   -0.947610   -2.952250
  N      1.663940   -1.413690   -1.777810
  H      0.811640   -1.963180   -1.702750
  H      1.845500   -0.635080   -1.158750
  H      4.205350   -1.176000   -3.733830
  H      3.817230   -0.125850   -2.406040
  H      3.143110   -3.362800   -3.811520
  H      1.487680   -3.458930   -3.165210
  H      1.465660   -3.195890   -5.643680
  H      2.354060   -1.698500   -5.496540
  H      0.730140   -1.816800   -4.862530

 Total Charge           Charge          ....    1
 Multiplicity           Mult            ....    1
 Number of Electrons    NEL             ....   40
 Basis Dimension        Dim             ....  266

ORBITAL ENERGIES
----------------

  NO   OCC          E(Eh)            E(eV)
   0   2.0000     -14.565864      -396.3573
   1   2.0000     -14.556669      -396.1071
   2   2.0000     -10.489876      -285.4440
   3   2.0000     -10.367413      -282.1116
   4   2.0000     -10.323021      -280.9037
   5   2.0000      -1.204810       -32.7845
   6   2.0000      -1.109944       -30.2031
   7   2.0000      -0.967643       -26.3309
   8   2.0000      -0.860940       -23.4274
   9   2.0000      -0.817015       -22.2321
  10   2.0000      -0.775687       -21.1075
  11   2.0000      -0.751461       -20.4483
  12   2.0000      -0.705412       -19.1952
  13   2.0000      -0.647560       -17.6210
  14   2.0000      -0.622855       -16.9487
  15   2.0000      -0.612893       -16.6777
  16   2.0000      -0.544966       -14.8293
  17   2.0000      -0.536703       -14.6044
  18   2.0000      -0.531842       -14.4721
  19   2.0000      -0.493160       -13.4196
  20   0.0000      -0.210782        -5.7357
  21   0.0000      -0.171678        -4.6716
  22   0.0000      -0.129376        -3.5205
  23   0.0000      -0.124841        -3.3971
  24   0.0000      -0.098096        -2.6693

MULLIKEN ATOMIC CHARGES
-----------------------
   0 C :   -1.071532
   1 C :   -0.372016
   2 C :    0.674993
   3 N :   -0.313312
   4 N :   -0.246161
   5 H :    0.226256
   6 H :    0.196631
   7 H :    0.220813
   8 H :    0.186192
   9 H :    0.273223
  10 H :    0.257082
  11 H :    0.308541
  12 H :    0.324046
  13 H :    0.335244
Sum of atomic charges:    1.0000000

LOEWDIN ATOMIC CHARGES
----------------------
   0 C :   -0.047419
   1 C :   -0.143246
   2 C :   -0.362503
   3 N :    0.225251
   4 N :    0.241427
   5 H :    0.156497
   6 H :    0.150989
   7 H :    0.146287
   8 H :    0.140070
   9 H :    0.132404
  10 H :    0.122469
  11 H :    0.084205
  12 H :    0.073148
  13 H :    0.080421

  Mayer bond orders larger than 0.100000
B(  0-C ,  1-C ) :   0.6396 B(  0-C , 11-H ) :   0.9823 B(  0-C , 12-H ) :   0.9291
B(  0-C , 13-H ) :   0.9552 B(  1-C ,  2-C ) :   0.7741 B(  1-C ,  9-H ) :   0.9528
B(  1-C , 10-H ) :   0.9791 B(  2-C ,  3-N ) :   1.1471 B(  2-C ,  4-N ) :   1.2564
B(  3-N ,  4-N ) :   0.1026 B(  3-N ,  7-H ) :   0.9515 B(  3-N ,  8-H ) :   1.0182
B(  4-N ,  5-H ) :   0.9432 B(  4-N ,  6-H ) :   1.0070

Dispersion correction           -0.016679363
FINAL SINGLE POINT ENERGY      -228.993789897090

DIPOLE MOMENT
-------------
                                X             Y             Z
Electronic contribution:      1.18994       1.64358       3.60924
Nuclear contribution   :     -0.98617      -1.03178      -2.77619
                        -----------------------------------------
Total Dipole Moment    :      0.20378       0.61180       0.83305
                        -----------------------------------------
Magnitude (a.u.)       :      1.05347
Magnitude (Debye)      :      2.67770

Rotational constants in cm-1:     0.257311     0.127495     0.099037
Rotational constants in MHz :  7713.982239  3822.189706  2969.039713

                             ****ORCA TERMINATED NORMALLY****
TOTAL RUN TIME: 0 days 0 hours 0 minutes 36 seconds 695 msec
