                         Program Version 5.0.0 -  RELEASE  -
|  1> !B3LYP D3BJ RIJCOSX def2-TZVPD def2/J TightSCF xyzfile
|  2>
|  3> *xyzfile 0 1 B.xyz
|  4>
|  5> %MaxCore 64000
|  6>
|  7> %pal nprocs 4
|  8> end
|  9>
| 10> %scf
| 11>   MaxIter 150
| 12> end
| 13>
| 14>
| 15>                          ****END OF INPUT****

CARTESIAN COORDINATES (ANGSTROEM)
---------------------------------
  C      1.647032   -2.345276   -5.020411
  C      0.217628   -1.814022   -4.924389
  C      2.209964   -2.812388   -3.665708
  C     -0.811356   -2.908780   -4.607625
  C     -1.916579   -2.485081   -3.643665
  H     -2.554525   -1.712428   -4.091993
  C     -1.363531   -1.981337   -2.293608
  H     -2.553448   -3.355667   -3.458815
  O     -0.350395   -2.749689   -1.796006
  H      2.308385   -1.588704   -5.457128
  H      1.674286   -3.203478   -5.697392
  C      2.489007   -1.668510   -2.737538
  N      3.596314   -0.947608   -2.952247
  N      1.663936   -1.413685   -1.777806
  H      0.811642   -1.963178   -1.702755
  H      1.845503   -0.635078   -1.158749
  H      4.205351   -1.176003   -3.733825
  H      3.817230   -0.125845   -2.406041
  H     -1.244829   -3.280884   -5.541040
  H     -0.306331   -3.757746   -4.142734
  H     -0.036244   -1.318555   -5.865303
  H      0.175004   -1.035382   -4.158095
  H      3.143106   -3.362803   -3.811524
  H      1.487683   -3.458935   -3.165211
  H     -2.226220   -1.908386   -1.602039
  H     -1.051353   -0.915671   -2.443331

 Total Charge           Charge          ....    0
 Multiplicity           Mult            ....    1
 Number of Electrons    NEL             ....   80
 Basis Dimension        Dim             ....  517

ORBITAL ENERGIES
----------------

  NO   OCC          E(Eh)            E(eV)
   0   2.0000     -18.982334      -516.5356
   1   2.0000     -14.391774      -391.6201
   2   2.0000     -14.346830      -390.3971
   3   2.0000     -10.306980      -280.4672
   4   2.0000     -10.193970      -277.3920
   5   2.0000     -10.181555      -277.0542
   6   2.0000     -10.151778      -276.2439
   7   2.0000     -10.142875      -276.0017
   8   2.0000     -10.132197      -275.7111
   9   2.0000     -10.115268      -275.2504
  10   2.0000      -1.021711       -27.8022
  11   2.0000      -0.930119       -25.3098
  12   2.0000      -0.878758       -23.9122
  13   2.0000      -0.815302       -22.1855
  14   2.0000      -0.753775       -20.5113
  15   2.0000      -0.704145       -19.1608
  16   2.0000      -0.651415       -17.7259
  17   2.0000      -0.630629       -17.1603
  18   2.0000      -0.597555       -16.2603
  19   2.0000      -0.588595       -16.0165
  20   2.0000      -0.562877       -15.3167
  21   2.0000      -0.523516       -14.2456
  22   2.0000      -0.500939       -13.6312
  23   2.0000      -0.483700       -13.1622
  24   2.0000      -0.463968       -12.6252
  25   2.0000      -0.439701       -11.9649
  26   2.0000      -0.428483       -11.6596
  27   2.0000      -0.402750       -10.9594
  28   2.0000      -0.390354       -10.6221
  29   2.0000      -0.387475       -10.5437
  30   2.0000      -0.356409        -9.6984
  31   2.0000      -0.348164        -9.4740
  32   2.0000      -0.338751        -9.2179
  33   2.0000      -0.319596        -8.6967
  34   2.0000      -0.311160        -8.4671
  35   2.0000      -0.299344        -8.1456
  36   2.0000      -0.290889        -7.9155
  37   2.0000      -0.284799        -7.7498
  38   2.0000      -0.169993        -4.6258
  39   2.0000      -0.162420        -4.4197
  40   0.0000      -0.037665        -1.0249
  41   0.0000      -0.032662        -0.8888
  42   0.0000       0.002278         0.0620
  43   0.0000       0.020910         0.5690
  44   0.0000       0.026169         0.7121

MULLIKEN ATOMIC CHARGES
-----------------------
   0 C :   -0.407994
   1 C :   -0.454189
   2 C :   -0.492168
   3 C :   -0.257958
   4 C :   -0.569384
   5 H :    0.209764
   6 C :   -0.349846
   7 H :    0.257481
   8 O :   -0.957837
   9 H :    0.218074
  10 H :    0.236096
  11 C :    0.360496
  12 N :   -0.343764
  13 N :   -0.238874
  14 H :    0.372938
  15 H :    0.117634
  16 H :    0.191557
  17 H :    0.156511
  18 H :    0.258601
  19 H :    0.142172
  20 H :    0.284893
  21 H :    0.205442
  22 H :    0.283002
  23 H :    0.354008
  24 H :    0.221842
  25 H :    0.201504
Sum of atomic charges:    0.0000000

LOEWDIN ATOMIC CHARGES
----------------------
   0 C :   -0.186142
   1 C :   -0.198275
   2 C :   -0.108170
   3 C :   -0.212723
   4 C :   -0.198501
   5 H :    0.101083
   6 C :   -0.430448
   7 H :    0.100406
   8 O :   -0.285723
   9 H :    0.100516
  10 H :    0.113703
  11 C :   -0.366550
  12 N :    0.176840
  13 N :    0.237677
  14 H :   -0.028145
  15 H :    0.136450
  16 H :    0.123075
  17 H :    0.119340
  18 H :    0.103854
  19 H :    0.094553
  20 H :    0.107926
  21 H :    0.092535
  22 H :    0.121132
  23 H :    0.109951
  24 H :    0.091905
  25 H :    0.083733

  Mayer bond orders larger than 0.100000
B(  0-C ,  1-C ) :   0.9536 B(  0-C ,  2-C ) :   0.7873 B(  0-C ,  3-C ) :   0.2114
B(  0-C ,  9-H ) :   0.8805 B(  0-C , 10-H ) :   0.9696 B(  0-C , 11-C ) :   0.1746
B(  1-C ,  3-C ) :   0.6315 B(  1-C ,  4-C ) :   0.1921 B(  1-C , 20-H ) :   0.9432
B(  1-C , 21-H ) :   0.9959 B(  2-C , 11-C ) :   0.8625 B(  2-C , 22-H ) :   0.9370
B(  2-C , 23-H ) :   0.9320 B(  3-C ,  4-C ) :   0.9341 B(  3-C ,  8-O ) :  -0.1311
B(  3-C , 18-H ) :   0.9609 B(  3-C , 19-H ) :   0.9736 B(  4-C ,  5-H ) :   1.0102
B(  4-C ,  6-C ) :   0.8542 B(  4-C ,  7-H ) :   0.9371 B(  4-C ,  8-O ) :   0.1140
B(  6-C ,  8-O ) :   0.8915 B(  6-C , 24-H ) :   0.9880 B(  6-C , 25-H ) :   1.0193
B(  8-O , 13-N ) :  -0.1180 B(  8-O , 14-H ) :   0.3376 B( 11-C , 12-N ) :   1.0151
B( 11-C , 13-N ) :   1.4248 B( 12-N , 13-N ) :   0.1019 B( 12-N , 16-H ) :   0.9960
B( 12-N , 17-H ) :   1.0169 B( 13-N , 14-H ) :   0.5502 B( 13-N , 15-H ) :   1.0248

Dispersion correction           -0.043698642
FINAL SINGLE POINT ENERGY      -461.002652076278

DIPOLE MOMENT
-------------
                                X             Y             Z
Electronic contribution:      5.58112       0.85863       4.31253
Nuclear contribution   :     -2.25948       0.71378      -5.15247
                        -----------------------------------------
Total Dipole Moment    :      3.32164       1.57241      -0.83994
                        -----------------------------------------
Magnitude (a.u.)       :      3.76978
Magnitude (Debye)      :      9.58202

Rotational constants in cm-1:     0.063973     0.031829     0.024059
Rotational constants in MHz :  1917.874550   954.201145   721.285252

                             ****ORCA TERMINATED NORMALLY****
TOTAL RUN TIME: 0 days 0 hours 3 minutes 17 seconds 205 msec
