                         Program Version 5.0.0 -  RELEASE  -
|  1> !B3LYP D3BJ RIJCOSX def2-TZVPD def2/J TightSCF
|  2> *xyz 0 1
|  3> C         -1.91658       -2.48508       -3.64367
|  4> C         -1.36353       -1.98134       -2.29361
|  5> F         -0.35039       -2.74969       -1.79601
|  6> H         -2.22622       -1.90839       -1.60204
|  7> H         -1.05135       -0.91567       -2.44333
|  8> H         -1.11522       -2.57167       -4.34739
|  9> H         -2.64227       -1.79099       -4.01314
| 10> H         -2.37564       -3.44180       -3.50640
| 11> *
| 12>
| 13> %MaxCore 64000
| 14> %pal nprocs 4
| 15> end
| 16>
| 17> %scf
| 18>   MaxIter 150
| 19> end
| 20>
| 21>
| 22>                          ****END OF INPUT****

CARTESIAN COORDINATES (ANGSTROEM)
---------------------------------
  C     -1.916580   -2.485080   -3.643670
  C     -1.363530   -1.981340   -2.293610
  F     -0.350390   -2.749690   -1.796010
  H     -2.226220   -1.908390   -1.602040
  H     -1.051350   -0.915670   -2.443330
  H     -1.115220   -2.571670   -4.347390
  H     -2.642270   -1.790990   -4.013140
  H     -2.375640   -3.441800   -3.506400

 Total Charge           Charge          ....    0
 Multiplicity           Mult            ....    1
 Number of Electrons    NEL             ....   26
 Basis Dimension        Dim             ....  159

ORBITAL ENERGIES
----------------

  NO   OCC          E(Eh)            E(eV)
   0   2.0000     -24.671371      -671.3421
   1   2.0000     -10.248797      -278.8839
   2   2.0000     -10.163789      -276.5708
   3   2.0000      -1.202336       -32.7172
   4   2.0000      -0.763341       -20.7716
   5   2.0000      -0.632538       -17.2122
   6   2.0000      -0.510647       -13.8954
   7   2.0000      -0.495139       -13.4734
   8   2.0000      -0.460085       -12.5195
   9   2.0000      -0.407445       -11.0871
  10   2.0000      -0.403098       -10.9688
  11   2.0000      -0.337241        -9.1768
  12   2.0000      -0.331395        -9.0177
  13   0.0000       0.008521         0.2319
  14   0.0000       0.035157         0.9567
  15   0.0000       0.052396         1.4258
  16   0.0000       0.055900         1.5211
  17   0.0000       0.082609         2.2479

MULLIKEN ATOMIC CHARGES
-----------------------
   0 C :   -0.863775
   1 C :   -0.052870
   2 F :   -0.302657
   3 H :    0.203374
   4 H :    0.200585
   5 H :    0.260754
   6 H :    0.299218
   7 H :    0.255371
Sum of atomic charges:    0.0000000

LOEWDIN ATOMIC CHARGES
----------------------
   0 C :   -0.077818
   1 C :   -0.290293
   2 F :   -0.040529
   3 H :    0.107996
   4 H :    0.113102
   5 H :    0.062169
   6 H :    0.064205
   7 H :    0.061167

  Mayer bond orders larger than 0.100000
B(  0-C ,  1-C ) :   0.7783 B(  0-C ,  5-H ) :   0.9681 B(  0-C ,  6-H ) :   0.9409
B(  0-C ,  7-H ) :   0.9691 B(  1-C ,  2-F ) :   0.8144 B(  1-C ,  3-H ) :   0.9816
B(  1-C ,  4-H ) :   0.9807

Dispersion correction           -0.005734777
FINAL SINGLE POINT ENERGY      -179.048609669736

DIPOLE MOMENT
-------------
                                X             Y             Z
Electronic contribution:      3.61896      -1.35831       3.42699
Nuclear contribution   :     -4.15401       1.70894      -3.75000
                        -----------------------------------------
Total Dipole Moment    :     -0.53506       0.35063      -0.32300
                        -----------------------------------------
Magnitude (a.u.)       :      0.71663
Magnitude (Debye)      :      1.82153

Rotational constants in cm-1:     1.266842     0.300492     0.266603
Rotational constants in MHz : 37978.968232  9008.526876  7992.551454

                             ****ORCA TERMINATED NORMALLY****
TOTAL RUN TIME: 0 days 0 hours 0 minutes 13 seconds 963 msec
