                         Program Version 5.0.0 -  RELEASE  -
|  1> !B3LYP D3BJ RIJCOSX def2-TZVPD def2/J TightSCF
|  2> *xyz 0 1
|  3> C          1.64703       -2.34528       -5.02041
|  4> C          2.20996       -2.81239       -3.66571
|  5> C          2.48901       -1.66851       -2.73754
|  6> C          3.59631       -0.94761       -2.95225
|  7> N          1.66394       -1.41369       -1.77781
|  8> H          0.81164       -1.96318       -1.70275
|  9> H          1.84550       -0.63508       -1.15875
| 10> H          4.20535       -1.17600       -3.73383
| 11> H          3.81723       -0.12585       -2.40604
| 12> H          3.14311       -3.36280       -3.81152
| 13> H          1.48768       -3.45893       -3.16521
| 14> H          1.46566       -3.19589       -5.64368
| 15> H          2.35406       -1.69850       -5.49654
| 16> H          0.73014       -1.81680       -4.86253
| 17> *
| 18>
| 19> %MaxCore 64000
| 20> %pal nprocs 4
| 21> end
| 22>
| 23> %scf
| 24>   MaxIter 150
| 25> end
| 26>
| 27>
| 28>                          ****END OF INPUT****

CARTESIAN COORDINATES (ANGSTROEM)
---------------------------------
  C      1.647030   -2.345280   -5.020410
  C      2.209960   -2.812390   -3.665710
  C      2.489010   -1.668510   -2.737540
  C      3.596310   -0.947610   -2.952250
  N      1.663940   -1.413690   -1.777810
  H      0.811640   -1.963180   -1.702750
  H      1.845500   -0.635080   -1.158750
  H      4.205350   -1.176000   -3.733830
  H      3.817230   -0.125850   -2.406040
  H      3.143110   -3.362800   -3.811520
  H      1.487680   -3.458930   -3.165210
  H      1.465660   -3.195890   -5.643680
  H      2.354060   -1.698500   -5.496540
  H      0.730140   -1.816800   -4.862530

 Total Charge           Charge          ....    0
 Multiplicity           Mult            ....    1
 Number of Electrons    NEL             ....   40
 Basis Dimension        Dim             ....  266

ORBITAL ENERGIES
----------------

  NO   OCC          E(Eh)            E(eV)
   0   2.0000     -14.321186      -389.6993
   1   2.0000     -10.187417      -277.2137
   2   2.0000     -10.168065      -276.6871
   3   2.0000     -10.151338      -276.2320
   4   2.0000     -10.097157      -274.7576
   5   2.0000      -0.939948       -25.5773
   6   2.0000      -0.778056       -21.1720
   7   2.0000      -0.707926       -19.2636
   8   2.0000      -0.638248       -17.3676
   9   2.0000      -0.568960       -15.4822
  10   2.0000      -0.532818       -14.4987
  11   2.0000      -0.479698       -13.0533
  12   2.0000      -0.441510       -12.0141
  13   2.0000      -0.411978       -11.2105
  14   2.0000      -0.394036       -10.7223
  15   2.0000      -0.381618       -10.3843
  16   2.0000      -0.352465        -9.5911
  17   2.0000      -0.335535        -9.1304
  18   2.0000      -0.334505        -9.1024
  19   2.0000      -0.184038        -5.0079
  20   0.0000      -0.000050        -0.0014
  21   0.0000       0.026025         0.7082
  22   0.0000       0.034474         0.9381
  23   0.0000       0.038621         1.0509
  24   0.0000       0.052055         1.4165

MULLIKEN ATOMIC CHARGES
-----------------------
   0 C :   -1.042594
   1 C :   -0.373477
   2 C :    0.843397
   3 C :   -1.278504
   4 N :   -0.323181
   5 H :    0.161747
   6 H :    0.146456
   7 H :    0.271256
   8 H :    0.271108
   9 H :    0.221834
  10 H :    0.230549
  11 H :    0.273369
  12 H :    0.308425
  13 H :    0.289615
Sum of atomic charges:    0.0000000

LOEWDIN ATOMIC CHARGES
----------------------
   0 C :   -0.085190
   1 C :   -0.195605
   2 C :   -0.506239
   3 C :    0.019574
   4 N :    0.110913
   5 H :    0.111580
   6 H :    0.116836
   7 H :    0.018158
   8 H :    0.009843
   9 H :    0.111837
  10 H :    0.099805
  11 H :    0.058999
  12 H :    0.063429
  13 H :    0.066059

  Mayer bond orders larger than 0.100000
B(  0-C ,  1-C ) :   0.6147 B(  0-C , 11-H ) :   0.9735 B(  0-C , 12-H ) :   0.9704
B(  0-C , 13-H ) :   0.9678 B(  1-C ,  2-C ) :   0.6686 B(  1-C ,  9-H ) :   0.9707
B(  1-C , 10-H ) :   1.0423 B(  2-C ,  3-C ) :   1.1348 B(  2-C ,  4-N ) :   1.0436
B(  2-C ,  8-H ) :  -0.1007 B(  3-C ,  4-N ) :   0.1002 B(  3-C ,  7-H ) :   0.9678
B(  3-C ,  8-H ) :   1.0449 B(  4-N ,  5-H ) :   1.0144 B(  4-N ,  6-H ) :   1.0256

Dispersion correction           -0.017439377
FINAL SINGLE POINT ENERGY      -212.521251695833

DIPOLE MOMENT
-------------
                                X             Y             Z
Electronic contribution:     -0.04322       0.65462       3.01720
Nuclear contribution   :     -0.69146      -0.83112      -2.71336
                        -----------------------------------------
Total Dipole Moment    :     -0.73468      -0.17649       0.30384
                        -----------------------------------------
Magnitude (a.u.)       :      0.81439
Magnitude (Debye)      :      2.07001

Rotational constants in cm-1:     0.270661     0.129240     0.102040
Rotational constants in MHz :  8114.202941  3874.518141  3059.074383

                             ****ORCA TERMINATED NORMALLY****
TOTAL RUN TIME: 0 days 0 hours 0 minutes 40 seconds 947 msec
