                         Program Version 5.0.0 -  RELEASE  -
|  1> !B3LYP D3BJ RIJCOSX def2-TZVPD def2/J TightSCF
|  2> *xyz 0 1
|  3> C          1.64703       -2.34528       -5.02041
|  4> C          2.20996       -2.81239       -3.66571
|  5> C          2.48901       -1.66851       -2.73754
|  6> N          3.59631       -0.94761       -2.95225
|  7> C          1.66394       -1.41369       -1.77781
|  8> H          0.81164       -1.96318       -1.70275
|  9> H          1.84550       -0.63508       -1.15875
| 10> H          4.20535       -1.17600       -3.73383
| 11> H          3.81723       -0.12585       -2.40604
| 12> H          3.14311       -3.36280       -3.81152
| 13> H          1.48768       -3.45893       -3.16521
| 14> H          1.46566       -3.19589       -5.64368
| 15> H          2.35406       -1.69850       -5.49654
| 16> H          0.73014       -1.81680       -4.86253
| 17> *
| 18>
| 19> %MaxCore 64000
| 20> %pal nprocs 4
| 21> end
| 22>
| 23> %scf
| 24>   MaxIter 150
| 25> end
| 26>
| 27>
| 28>                          ****END OF INPUT****

CARTESIAN COORDINATES (ANGSTROEM)
---------------------------------
  C      1.647030   -2.345280   -5.020410
  C      2.209960   -2.812390   -3.665710
  C      2.489010   -1.668510   -2.737540
  N      3.596310   -0.947610   -2.952250
  C      1.663940   -1.413690   -1.777810
  H      0.811640   -1.963180   -1.702750
  H      1.845500   -0.635080   -1.158750
  H      4.205350   -1.176000   -3.733830
  H      3.817230   -0.125850   -2.406040
  H      3.143110   -3.362800   -3.811520
  H      1.487680   -3.458930   -3.165210
  H      1.465660   -3.195890   -5.643680
  H      2.354060   -1.698500   -5.496540
  H      0.730140   -1.816800   -4.862530

 Total Charge           Charge          ....    0
 Multiplicity           Mult            ....    1
 Number of Electrons    NEL             ....   40
 Basis Dimension        Dim             ....  266

ORBITAL ENERGIES
----------------

  NO   OCC          E(Eh)            E(eV)
   0   2.0000     -14.314313      -389.5123
   1   2.0000     -10.184382      -277.1311
   2   2.0000     -10.166391      -276.6415
   3   2.0000     -10.152372      -276.2601
   4   2.0000     -10.099864      -274.8313
   5   2.0000      -0.921018       -25.0622
   6   2.0000      -0.778464       -21.1831
   7   2.0000      -0.721854       -19.6426
   8   2.0000      -0.633751       -17.2452
   9   2.0000      -0.564743       -15.3674
  10   2.0000      -0.520685       -14.1686
  11   2.0000      -0.479765       -13.0551
  12   2.0000      -0.434551       -11.8247
  13   2.0000      -0.422681       -11.5017
  14   2.0000      -0.398395       -10.8409
  15   2.0000      -0.383022       -10.4226
  16   2.0000      -0.352357        -9.5881
  17   2.0000      -0.334434        -9.1004
  18   2.0000      -0.325784        -8.8650
  19   2.0000      -0.195277        -5.3137
  20   0.0000       0.000950         0.0258
  21   0.0000       0.027563         0.7500
  22   0.0000       0.035631         0.9696
  23   0.0000       0.038748         1.0544
  24   0.0000       0.054333         1.4785

MULLIKEN ATOMIC CHARGES
-----------------------
   0 C :   -1.026336
   1 C :   -0.391247
   2 C :    0.781236
   3 N :   -0.375861
   4 C :   -1.135558
   5 H :    0.259779
   6 H :    0.277728
   7 H :    0.148904
   8 H :    0.137027
   9 H :    0.259320
  10 H :    0.193584
  11 H :    0.275343
  12 H :    0.289492
  13 H :    0.306590
Sum of atomic charges:   -0.0000000

LOEWDIN ATOMIC CHARGES
----------------------
   0 C :   -0.086321
   1 C :   -0.196617
   2 C :   -0.497625
   3 N :    0.102444
   4 C :    0.020420
   5 H :    0.028070
   6 H :    0.024104
   7 H :    0.101881
   8 H :    0.104471
   9 H :    0.107884
  10 H :    0.105454
  11 H :    0.059284
  12 H :    0.057936
  13 H :    0.068617

  Mayer bond orders larger than 0.100000
B(  0-C ,  1-C ) :   0.6321 B(  0-C , 11-H ) :   0.9807 B(  0-C , 12-H ) :   0.9559
B(  0-C , 13-H ) :   0.9903 B(  1-C ,  2-C ) :   0.7039 B(  1-C ,  3-N ) :   0.1009
B(  1-C ,  9-H ) :   0.9764 B(  1-C , 10-H ) :   1.0073 B(  2-C ,  3-N ) :   0.9050
B(  2-C ,  4-C ) :   1.2720 B(  2-C ,  6-H ) :  -0.1070 B(  3-N ,  7-H ) :   1.0282
B(  3-N ,  8-H ) :   1.0335 B(  4-C ,  5-H ) :   0.9768 B(  4-C ,  6-H ) :   1.0328

Dispersion correction           -0.017414842
FINAL SINGLE POINT ENERGY      -212.525432093166

DIPOLE MOMENT
-------------
                                X             Y             Z
Electronic contribution:      1.63618       1.06777       2.00154
Nuclear contribution   :     -1.13902      -0.93906      -2.44135
                        -----------------------------------------
Total Dipole Moment    :      0.49716       0.12871      -0.43981
                        -----------------------------------------
Magnitude (a.u.)       :      0.67614
Magnitude (Debye)      :      1.71861

Rotational constants in cm-1:     0.267243     0.130607     0.102304
Rotational constants in MHz :  8011.748167  3915.504600  3066.999841

                             ****ORCA TERMINATED NORMALLY****
TOTAL RUN TIME: 0 days 0 hours 0 minutes 41 seconds 101 msec
