                         Program Version 5.0.0 -  RELEASE  -
|  1> !B3LYP D3BJ RIJCOSX def2-TZVPD def2/J TightSCF xyzfile
|  2>
|  3> *xyzfile 0 1 D1.xyz
|  4>
|  5> %MaxCore 64000
|  6>
|  7> %pal nprocs 4
|  8> end
|  9>
| 10> %scf
| 11>   MaxIter 150
| 12> end
| 13>
| 14>
| 15>                          ****END OF INPUT****

CARTESIAN COORDINATES (ANGSTROEM)
---------------------------------
  C      1.647032   -2.345276   -5.020411
  C      0.217628   -1.814022   -4.924389
  C      2.209964   -2.812388   -3.665708
  C     -0.811356   -2.908780   -4.607625
  C     -1.916579   -2.485081   -3.643665
  H     -2.554525   -1.712428   -4.091993
  C     -1.363531   -1.981337   -2.293608
  H     -2.553448   -3.355667   -3.458815
  F     -0.350395   -2.749689   -1.796006
  H      2.308385   -1.588704   -5.457128
  H      1.674286   -3.203478   -5.697392
  C      2.489007   -1.668510   -2.737538
  C      3.596314   -0.947608   -2.952247
  N      1.663936   -1.413685   -1.777806
  H      0.811642   -1.963178   -1.702755
  H      1.845503   -0.635078   -1.158749
  H      4.205351   -1.176003   -3.733825
  H      3.817230   -0.125845   -2.406041
  H     -1.244829   -3.280884   -5.541040
  H     -0.306331   -3.757746   -4.142734
  H     -0.036244   -1.318555   -5.865303
  H      0.175004   -1.035382   -4.158095
  H      3.143106   -3.362803   -3.811524
  H      1.487683   -3.458935   -3.165211
  H     -2.226220   -1.908386   -1.602039
  H     -1.051353   -0.915671   -2.443331

 Total Charge           Charge          ....    0
 Multiplicity           Mult            ....    1
 Number of Electrons    NEL             ....   80
 Basis Dimension        Dim             ....  517

ORBITAL ENERGIES
----------------

  NO   OCC          E(Eh)            E(eV)
   0   2.0000     -24.716767      -672.5774
   1   2.0000     -14.284774      -388.7085
   2   2.0000     -10.267582      -279.3951
   3   2.0000     -10.186262      -277.1823
   4   2.0000     -10.171380      -276.7773
   5   2.0000     -10.169900      -276.7370
   6   2.0000     -10.161601      -276.5112
   7   2.0000     -10.158409      -276.4244
   8   2.0000     -10.154599      -276.3207
   9   2.0000     -10.081664      -274.3360
  10   2.0000      -1.257970       -34.2311
  11   2.0000      -0.917727       -24.9726
  12   2.0000      -0.820379       -22.3237
  13   2.0000      -0.779280       -21.2053
  14   2.0000      -0.735594       -20.0165
  15   2.0000      -0.691920       -18.8281
  16   2.0000      -0.666378       -18.1331
  17   2.0000      -0.612697       -16.6723
  18   2.0000      -0.589397       -16.0383
  19   2.0000      -0.576118       -15.6770
  20   2.0000      -0.535739       -14.5782
  21   2.0000      -0.531565       -14.4646
  22   2.0000      -0.511582       -13.9208
  23   2.0000      -0.486423       -13.2362
  24   2.0000      -0.465994       -12.6804
  25   2.0000      -0.458178       -12.4677
  26   2.0000      -0.439587       -11.9618
  27   2.0000      -0.419560       -11.4168
  28   2.0000      -0.418105       -11.3772
  29   2.0000      -0.388524       -10.5723
  30   2.0000      -0.371303       -10.1037
  31   2.0000      -0.363789        -9.8992
  32   2.0000      -0.360878        -9.8200
  33   2.0000      -0.355959        -9.6861
  34   2.0000      -0.339577        -9.2404
  35   2.0000      -0.332177        -9.0390
  36   2.0000      -0.321368        -8.7449
  37   2.0000      -0.310215        -8.4414
  38   2.0000      -0.309319        -8.4170
  39   2.0000      -0.166881        -4.5411
  40   0.0000      -0.000383        -0.0104
  41   0.0000       0.012274         0.3340
  42   0.0000       0.018695         0.5087
  43   0.0000       0.023634         0.6431
  44   0.0000       0.038321         1.0428

MULLIKEN ATOMIC CHARGES
-----------------------
   0 C :   -0.445640
   1 C :   -0.529105
   2 C :   -0.509240
   3 C :   -0.362698
   4 C :   -0.518192
   5 H :    0.218533
   6 C :   -0.288482
   7 H :    0.261412
   8 F :   -0.416400
   9 H :    0.313049
  10 H :    0.203291
  11 C :    0.618687
  12 C :   -1.354524
  13 N :   -0.401650
  14 H :    0.460484
  15 H :    0.067756
  16 H :    0.285723
  17 H :    0.291950
  18 H :    0.264178
  19 H :    0.193771
  20 H :    0.280086
  21 H :    0.251631
  22 H :    0.279806
  23 H :    0.280451
  24 H :    0.269353
  25 H :    0.285771
Sum of atomic charges:    0.0000000

LOEWDIN ATOMIC CHARGES
----------------------
   0 C :   -0.186831
   1 C :   -0.196694
   2 C :   -0.141223
   3 C :   -0.205587
   4 C :   -0.171623
   5 H :    0.118597
   6 C :   -0.208868
   7 H :    0.106562
   8 F :   -0.023870
   9 H :    0.109143
  10 H :    0.107640
  11 C :   -0.485003
  12 C :    0.015243
  13 N :    0.130168
  14 H :    0.018114
  15 H :    0.120907
  16 H :    0.014083
  17 H :    0.007066
  18 H :    0.112245
  19 H :    0.098257
  20 H :    0.109183
  21 H :    0.095458
  22 H :    0.117950
  23 H :    0.094707
  24 H :    0.122503
  25 H :    0.121872

  Mayer bond orders larger than 0.100000
B(  0-C ,  1-C ) :   0.9443 B(  0-C ,  2-C ) :   0.8070 B(  0-C ,  3-C ) :   0.1914
B(  0-C ,  9-H ) :   0.8718 B(  0-C , 10-H ) :   0.9762 B(  0-C , 11-C ) :   0.1647
B(  1-C ,  3-C ) :   0.5924 B(  1-C ,  4-C ) :   0.1540 B(  1-C , 20-H ) :   0.9304
B(  1-C , 21-H ) :   1.0096 B(  2-C , 11-C ) :   0.6934 B(  2-C , 22-H ) :   0.9552
B(  2-C , 23-H ) :   0.9644 B(  3-C ,  4-C ) :   0.8837 B(  3-C , 18-H ) :   0.9574
B(  3-C , 19-H ) :   1.0152 B(  4-C ,  5-H ) :   0.9805 B(  4-C ,  6-C ) :   0.8690
B(  4-C ,  7-H ) :   0.9618 B(  4-C ,  8-F ) :   0.1429 B(  6-C ,  8-F ) :   0.7047
B(  6-C , 24-H ) :   0.9251 B(  6-C , 25-H ) :   0.9762 B( 11-C , 12-C ) :   1.0952
B( 11-C , 13-N ) :   1.0595 B( 12-C , 13-N ) :   0.1339 B( 12-C , 16-H ) :   1.0098
B( 12-C , 17-H ) :   1.0079 B( 13-N , 14-H ) :   0.6788 B( 13-N , 15-H ) :   1.0695

Dispersion correction           -0.043321770
FINAL SINGLE POINT ENERGY      -468.960413997601

DIPOLE MOMENT
-------------
                                X             Y             Z
Electronic contribution:     -1.29799      -1.75130       6.92402
Nuclear contribution   :     -0.37390       1.73388      -6.94752
                        -----------------------------------------
Total Dipole Moment    :     -1.67189      -0.01741      -0.02350
                        -----------------------------------------
Magnitude (a.u.)       :      1.67215
Magnitude (Debye)      :      4.25026

Rotational constants in cm-1:     0.062220     0.032742     0.024374
Rotational constants in MHz :  1865.297979   981.573941   730.711364

                             ****ORCA TERMINATED NORMALLY****
TOTAL RUN TIME: 0 days 0 hours 3 minutes 25 seconds 230 msec
