                         Program Version 5.0.0 -  RELEASE  -
|  1> !B3LYP D3BJ RIJCOSX def2-TZVPD def2/J TightSCF xyzfile
|  2>
|  3> *xyzfile 0 1 D2.xyz
|  4>
|  5> %MaxCore 64000
|  6>
|  7> %pal nprocs 4
|  8> end
|  9>
| 10> %scf
| 11>   MaxIter 150
| 12> end
| 13>
| 14>
| 15>                          ****END OF INPUT****

CARTESIAN COORDINATES (ANGSTROEM)
---------------------------------
  C      1.647032   -2.345276   -5.020411
  C      0.217628   -1.814022   -4.924389
  C      2.209964   -2.812388   -3.665708
  C     -0.811356   -2.908780   -4.607625
  C     -1.916579   -2.485081   -3.643665
  H     -2.554525   -1.712428   -4.091993
  C     -1.363531   -1.981337   -2.293608
  H     -2.553448   -3.355667   -3.458815
  F     -0.350395   -2.749689   -1.796006
  H      2.308385   -1.588704   -5.457128
  H      1.674286   -3.203478   -5.697392
  C      2.489007   -1.668510   -2.737538
  N      3.596314   -0.947608   -2.952247
  C      1.663936   -1.413685   -1.777806
  H      0.811642   -1.963178   -1.702755
  H      1.845503   -0.635078   -1.158749
  H      4.205351   -1.176003   -3.733825
  H      3.817230   -0.125845   -2.406041
  H     -1.244829   -3.280884   -5.541040
  H     -0.306331   -3.757746   -4.142734
  H     -0.036244   -1.318555   -5.865303
  H      0.175004   -1.035382   -4.158095
  H      3.143106   -3.362803   -3.811524
  H      1.487683   -3.458935   -3.165211
  H     -2.226220   -1.908386   -1.602039
  H     -1.051353   -0.915671   -2.443331

 Total Charge           Charge          ....    0
 Multiplicity           Mult            ....    1
 Number of Electrons    NEL             ....   80
 Basis Dimension        Dim             ....  517

ORBITAL ENERGIES
----------------

  NO   OCC          E(Eh)            E(eV)
   0   2.0000     -24.683592      -671.6747
   1   2.0000     -14.300803      -389.1446
   2   2.0000     -10.248610      -278.8788
   3   2.0000     -10.174218      -276.8545
   4   2.0000     -10.167420      -276.6696
   5   2.0000     -10.162130      -276.5256
   6   2.0000     -10.159275      -276.4479
   7   2.0000     -10.155364      -276.3415
   8   2.0000     -10.154118      -276.3076
   9   2.0000     -10.067016      -273.9374
  10   2.0000      -1.227028       -33.3891
  11   2.0000      -0.907410       -24.6919
  12   2.0000      -0.811025       -22.0691
  13   2.0000      -0.776404       -21.1270
  14   2.0000      -0.727170       -19.7873
  15   2.0000      -0.700458       -19.0604
  16   2.0000      -0.656786       -17.8721
  17   2.0000      -0.603752       -16.4289
  18   2.0000      -0.569788       -15.5047
  19   2.0000      -0.566664       -15.4197
  20   2.0000      -0.526877       -14.3370
  21   2.0000      -0.512826       -13.9547
  22   2.0000      -0.497985       -13.5509
  23   2.0000      -0.487223       -13.2580
  24   2.0000      -0.461806       -12.5664
  25   2.0000      -0.445147       -12.1131
  26   2.0000      -0.441423       -12.0117
  27   2.0000      -0.430237       -11.7073
  28   2.0000      -0.401624       -10.9287
  29   2.0000      -0.382844       -10.4177
  30   2.0000      -0.368552       -10.0288
  31   2.0000      -0.358636        -9.7590
  32   2.0000      -0.350957        -9.5500
  33   2.0000      -0.337400        -9.1811
  34   2.0000      -0.327162        -8.9025
  35   2.0000      -0.324221        -8.8225
  36   2.0000      -0.312299        -8.4981
  37   2.0000      -0.306458        -8.3392
  38   2.0000      -0.295069        -8.0292
  39   2.0000      -0.179214        -4.8767
  40   0.0000       0.006153         0.1674
  41   0.0000       0.012196         0.3319
  42   0.0000       0.019265         0.5242
  43   0.0000       0.029151         0.7932
  44   0.0000       0.040595         1.1047

MULLIKEN ATOMIC CHARGES
-----------------------
   0 C :   -0.364868
   1 C :   -0.434890
   2 C :   -0.559827
   3 C :   -0.408053
   4 C :   -0.502200
   5 H :    0.220694
   6 C :   -0.304301
   7 H :    0.252467
   8 F :   -0.349492
   9 H :    0.261810
  10 H :    0.194222
  11 C :    0.658947
  12 N :   -0.388812
  13 C :   -1.639230
  14 H :    0.819103
  15 H :    0.185587
  16 H :    0.147351
  17 H :    0.128237
  18 H :    0.262590
  19 H :    0.196155
  20 H :    0.274428
  21 H :    0.268923
  22 H :    0.325689
  23 H :    0.196864
  24 H :    0.271538
  25 H :    0.287069
Sum of atomic charges:   -0.0000000

LOEWDIN ATOMIC CHARGES
----------------------
   0 C :   -0.190351
   1 C :   -0.197507
   2 C :   -0.140463
   3 C :   -0.204830
   4 C :   -0.172896
   5 H :    0.116409
   6 C :   -0.213212
   7 H :    0.105143
   8 F :   -0.044409
   9 H :    0.104000
  10 H :    0.106863
  11 C :   -0.468668
  12 N :    0.100219
  13 C :    0.035811
  14 H :   -0.038390
  15 H :    0.035055
  16 H :    0.098102
  17 H :    0.101883
  18 H :    0.110418
  19 H :    0.098904
  20 H :    0.107810
  21 H :    0.094899
  22 H :    0.113766
  23 H :    0.099645
  24 H :    0.120652
  25 H :    0.121146

  Mayer bond orders larger than 0.100000
B(  0-C ,  1-C ) :   0.9731 B(  0-C ,  2-C ) :   0.8368 B(  0-C ,  3-C ) :   0.2091
B(  0-C ,  9-H ) :   0.8590 B(  0-C , 10-H ) :   0.9854 B(  1-C ,  3-C ) :   0.6013
B(  1-C ,  4-C ) :   0.1428 B(  1-C , 20-H ) :   0.9451 B(  1-C , 21-H ) :   0.9972
B(  2-C , 11-C ) :   0.7231 B(  2-C , 12-N ) :   0.1545 B(  2-C , 22-H ) :   0.9380
B(  2-C , 23-H ) :   1.0167 B(  3-C ,  4-C ) :   0.8983 B(  3-C , 18-H ) :   0.9594
B(  3-C , 19-H ) :   1.0116 B(  4-C ,  5-H ) :   0.9727 B(  4-C ,  6-C ) :   0.8826
B(  4-C ,  7-H ) :   0.9621 B(  4-C ,  8-F ) :   0.1295 B(  6-C ,  8-F ) :   0.7629
B(  6-C , 13-C ) :   0.1816 B(  6-C , 24-H ) :   0.9004 B(  6-C , 25-H ) :   0.9701
B(  8-F , 13-C ) :   0.1345 B(  8-F , 14-H ) :  -0.2780 B( 11-C , 12-N ) :   0.8385
B( 11-C , 13-C ) :   1.1866 B( 11-C , 15-H ) :  -0.1437 B( 12-N , 16-H ) :   1.0457
B( 12-N , 17-H ) :   1.0368 B( 13-C , 14-H ) :   0.4533 B( 13-C , 15-H ) :   1.2317

Dispersion correction           -0.043577515
FINAL SINGLE POINT ENERGY      -468.943717705007

DIPOLE MOMENT
-------------
                                X             Y             Z
Electronic contribution:      0.40993      -1.32578       6.08339
Nuclear contribution   :     -0.73748       1.64619      -6.72655
                        -----------------------------------------
Total Dipole Moment    :     -0.32756       0.32042      -0.64316
                        -----------------------------------------
Magnitude (a.u.)       :      0.78970
Magnitude (Debye)      :      2.00725

Rotational constants in cm-1:     0.063169     0.031711     0.023958
Rotational constants in MHz :  1893.751676   950.657187   718.229932

                             ****ORCA TERMINATED NORMALLY****
TOTAL RUN TIME: 0 days 0 hours 3 minutes 30 seconds 361 msec
