                         Program Version 5.0.0 -  RELEASE  -
|  1> !wB97X-D3 RIJCOSX def2-TZVPD def2/J TightSCF
|  2> *xyz -1 1
|  3> C          1.44442        5.26658       -0.97546
|  4> O          1.56525        4.23349       -1.86489
|  5> H          1.76623        6.17572       -1.43893
|  6> H          2.05096        5.07018       -0.11614
|  7> H          0.42160        5.36155       -0.67592
|  8> *
|  9> %MaxCore 64000
| 10>
| 11> %pal nprocs 8
| 12> end
| 13>
| 14> %scf
| 15>   MaxIter 150
| 16> end
| 17>
| 18>
| 19>                          ****END OF INPUT****

CARTESIAN COORDINATES (ANGSTROEM)
---------------------------------
  C      1.444420    5.266580   -0.975460
  O      1.565250    4.233490   -1.864890
  H      1.766230    6.175720   -1.438930
  H      2.050960    5.070180   -0.116140
  H      0.421600    5.361550   -0.675920

 Total Charge           Charge          ....   -1
 Multiplicity           Mult            ....    1
 Number of Electrons    NEL             ....   18
 Basis Dimension        Dim             ....  104

ORBITAL ENERGIES
----------------

  NO   OCC          E(Eh)            E(eV)
   0   2.0000     -18.873894      -513.5848
   1   2.0000     -10.055687      -273.6291
   2   2.0000      -0.773552       -21.0494
   3   2.0000      -0.508491       -13.8367
   4   2.0000      -0.295279        -8.0350
   5   2.0000      -0.295232        -8.0337
   6   2.0000      -0.194918        -5.3040
   7   2.0000      -0.041599        -1.1320
   8   2.0000      -0.041590        -1.1317
   9   0.0000       0.226219         6.1557
  10   0.0000       0.274789         7.4774
  11   0.0000       0.280138         7.6229
  12   0.0000       0.280143         7.6231
  13   0.0000       0.329951         8.9784

MULLIKEN ATOMIC CHARGES
-----------------------
   0 C :   -0.549327
   1 O :   -0.943701
   2 H :    0.164217
   3 H :    0.164435
   4 H :    0.164375
Sum of atomic charges:   -1.0000000

LOEWDIN ATOMIC CHARGES
----------------------
   0 C :   -0.513608
   1 O :   -0.515731
   2 H :    0.009797
   3 H :    0.009759
   4 H :    0.009783

  Mayer bond orders larger than 0.100000
B(  0-C ,  1-O ) :   1.0549 B(  0-C ,  2-H ) :   0.9593 B(  0-C ,  3-H ) :   0.9589
B(  0-C ,  4-H ) :   0.9588

Dispersion correction           -0.000090124
FINAL SINGLE POINT ENERGY      -115.107414697939

DIPOLE MOMENT
-------------
                                X             Y             Z
Electronic contribution:      0.16384      -1.39972      -1.20524
Nuclear contribution   :     -0.25440       2.17514       1.87266
                        -----------------------------------------
Total Dipole Moment    :     -0.09056       0.77542       0.66742
                        -----------------------------------------
Magnitude (a.u.)       :      1.02710
Magnitude (Debye)      :      2.61067

Rotational constants in cm-1:     5.477715     0.940444     0.940443
Rotational constants in MHz : 164217.753846 28193.799011 28193.774483

                             ****ORCA TERMINATED NORMALLY****
TOTAL RUN TIME: 0 days 0 hours 0 minutes 5 seconds 665 msec
