                         Program Version 5.0.0 -  RELEASE  -
|  1> !wB97X-D3 RIJCOSX def2-TZVPD def2/J TightSCF
|  2> *xyz 1 1
|  3> C         -0.70169        4.07250       -4.00392
|  4> N          0.68053        4.61482       -4.04800
|  5> H          0.69993        5.58489       -4.38827
|  6> H          1.27804        4.05598       -4.66824
|  7> H          1.08573        4.53358       -3.10652
|  8> H         -1.14500        4.14653       -4.97495
|  9> H         -1.28296        4.63405       -3.30271
| 10> H         -0.67274        3.04629       -3.70235
| 11> *
| 12> %MaxCore 64000
| 13>
| 14> %pal nprocs 8
| 15> end
| 16>
| 17> %scf
| 18>   MaxIter 150
| 19> end
| 20>
| 21>
| 22>                          ****END OF INPUT****

CARTESIAN COORDINATES (ANGSTROEM)
---------------------------------
  C     -0.701690    4.072500   -4.003920
  N      0.680530    4.614820   -4.048000
  H      0.699930    5.584890   -4.388270
  H      1.278040    4.055980   -4.668240
  H      1.085730    4.533580   -3.106520
  H     -1.145000    4.146530   -4.974950
  H     -1.282960    4.634050   -3.302710
  H     -0.672740    3.046290   -3.702350

 Total Charge           Charge          ....    1
 Multiplicity           Mult            ....    1
 Number of Electrons    NEL             ....   18
 Basis Dimension        Dim             ....  128

ORBITAL ENERGIES
----------------

  NO   OCC          E(Eh)            E(eV)
   0   2.0000     -14.771523      -401.9536
   1   2.0000     -10.530134      -286.5395
   2   2.0000      -1.343793       -36.5665
   3   2.0000      -1.051667       -28.6173
   4   2.0000      -0.917470       -24.9656
   5   2.0000      -0.907301       -24.6889
   6   2.0000      -0.811867       -22.0920
   7   2.0000      -0.724643       -19.7186
   8   2.0000      -0.722937       -19.6721
   9   0.0000      -0.131355        -3.5744
  10   0.0000      -0.069676        -1.8960
  11   0.0000      -0.061886        -1.6840
  12   0.0000      -0.061820        -1.6822
  13   0.0000      -0.021063        -0.5731

MULLIKEN ATOMIC CHARGES
-----------------------
   0 C :   -0.838389
   1 N :   -0.344872
   2 H :    0.372020
   3 H :    0.374306
   4 H :    0.380928
   5 H :    0.350099
   6 H :    0.352615
   7 H :    0.353292
Sum of atomic charges:    1.0000000

LOEWDIN ATOMIC CHARGES
----------------------
   0 C :   -0.011216
   1 N :    0.150437
   2 H :    0.183700
   3 H :    0.180236
   4 H :    0.181681
   5 H :    0.104480
   6 H :    0.105189
   7 H :    0.105493

  Mayer bond orders larger than 0.100000
B(  0-C ,  1-N ) :   0.9422 B(  0-C ,  5-H ) :   0.8905 B(  0-C ,  6-H ) :   0.8873
B(  0-C ,  7-H ) :   0.8843 B(  1-N ,  2-H ) :   0.8560 B(  1-N ,  3-H ) :   0.8555
B(  1-N ,  4-H ) :   0.8464

Dispersion correction           -0.000499704
FINAL SINGLE POINT ENERGY       -96.226619966927

DIPOLE MOMENT
-------------
                                X             Y             Z
Electronic contribution:      1.01706       0.42494      -0.03881
Nuclear contribution   :     -0.21844      -0.13976       0.01729
                        -----------------------------------------
Total Dipole Moment    :      0.79863       0.28518      -0.02152
                        -----------------------------------------
Magnitude (a.u.)       :      0.84829
Magnitude (Debye)      :      2.15618

Rotational constants in cm-1:     2.865765     0.688517     0.685249
Rotational constants in MHz : 85913.460223 20641.211162 20543.252263

                             ****ORCA TERMINATED NORMALLY****
TOTAL RUN TIME: 0 days 0 hours 0 minutes 7 seconds 66 msec
