                         Program Version 5.0.0 -  RELEASE  -
|  1> !wB97X-D3 RIJCOSX def2-TZVPD def2/J TightSCF
|  2> *xyz 0 1
|  3> C         -0.70169        4.07250       -4.00392
|  4> C          0.68053        4.61482       -4.04800
|  5> H          0.69993        5.58489       -4.38827
|  6> H          1.27804        4.05598       -4.66824
|  7> H          1.08573        4.53358       -3.10652
|  8> H         -1.14500        4.14653       -4.97495
|  9> H         -1.28296        4.63405       -3.30271
| 10> H         -0.67274        3.04629       -3.70235
| 11> *
| 12> %MaxCore 64000
| 13>
| 14> %pal nprocs 8
| 15> end
| 16>
| 17> %scf
| 18>   MaxIter 150
| 19> end
| 20>
| 21>
| 22>                          ****END OF INPUT****

CARTESIAN COORDINATES (ANGSTROEM)
---------------------------------
  C     -0.701690    4.072500   -4.003920
  C      0.680530    4.614820   -4.048000
  H      0.699930    5.584890   -4.388270
  H      1.278040    4.055980   -4.668240
  H      1.085730    4.533580   -3.106520
  H     -1.145000    4.146530   -4.974950
  H     -1.282960    4.634050   -3.302710
  H     -0.672740    3.046290   -3.702350

 Total Charge           Charge          ....    0
 Multiplicity           Mult            ....    1
 Number of Electrons    NEL             ....   18
 Basis Dimension        Dim             ....  128

ORBITAL ENERGIES
----------------

  NO   OCC          E(Eh)            E(eV)
   0   2.0000     -10.247788      -278.8565
   1   2.0000     -10.233270      -278.4614
   2   2.0000      -0.885881       -24.1060
   3   2.0000      -0.731933       -19.9169
   4   2.0000      -0.552965       -15.0469
   5   2.0000      -0.546824       -14.8798
   6   2.0000      -0.462420       -12.5831
   7   2.0000      -0.442659       -12.0454
   8   2.0000      -0.436932       -11.8895
   9   0.0000       0.078500         2.1361
  10   0.0000       0.099466         2.7066
  11   0.0000       0.142920         3.8891
  12   0.0000       0.144561         3.9337
  13   0.0000       0.169405         4.6097

MULLIKEN ATOMIC CHARGES
-----------------------
   0 C :   -0.808709
   1 C :   -0.984311
   2 H :    0.327501
   3 H :    0.328725
   4 H :    0.310576
   5 H :    0.274671
   6 H :    0.271713
   7 H :    0.279835
Sum of atomic charges:   -0.0000000

LOEWDIN ATOMIC CHARGES
----------------------
   0 C :   -0.165132
   1 C :   -0.168529
   2 H :    0.049714
   3 H :    0.047004
   4 H :    0.048725
   5 H :    0.062072
   6 H :    0.062749
   7 H :    0.063397

  Mayer bond orders larger than 0.100000
B(  0-C ,  1-C ) :   0.5841 B(  0-C ,  5-H ) :   0.9669 B(  0-C ,  6-H ) :   0.9724
B(  0-C ,  7-H ) :   0.9694 B(  1-C ,  2-H ) :   0.9297 B(  1-C ,  3-H ) :   0.9497
B(  1-C ,  4-H ) :   0.9545

Dispersion correction           -0.000488889
FINAL SINGLE POINT ENERGY       -79.823225393897

DIPOLE MOMENT
-------------
                                X             Y             Z
Electronic contribution:      0.00784       0.04584      -0.01101
Nuclear contribution   :      0.01985      -0.04545       0.00953
                        -----------------------------------------
Total Dipole Moment    :      0.02769       0.00039      -0.00148
                        -----------------------------------------
Magnitude (a.u.)       :      0.02773
Magnitude (Debye)      :      0.07049

Rotational constants in cm-1:     2.865782     0.718825     0.715264
Rotational constants in MHz : 85913.996449 21549.842906 21443.078705

                             ****ORCA TERMINATED NORMALLY****
TOTAL RUN TIME: 0 days 0 hours 0 minutes 6 seconds 459 msec
