                         Program Version 5.0.0 -  RELEASE  -
|  1> !B3LYP D3BJ RIJCOSX def2-SVP def2/J TightSCF
|  2> *xyz -1 1
|  3> C         -0.72184       -0.99951       -3.43931
|  4> C          0.28725       -1.71177       -2.52740
|  5> H          1.13178       -2.06738       -3.15940
|  6> H         -0.20414       -2.63733       -2.17048
|  7> O          0.71050       -0.92751       -1.48177
|  8> H         -1.01315       -1.65739       -4.23129
|  9> H         -0.27123       -0.12142       -3.85259
| 10> H         -1.58442       -0.72333       -2.86958
| 11> *
| 12> %MaxCore 64000
| 13>
| 14> %pal nprocs 4
| 15> end
| 16>
| 17> %scf
| 18>   MaxIter 150
| 19> end
| 20>
| 21>
| 22>                          ****END OF INPUT****

CARTESIAN COORDINATES (ANGSTROEM)
---------------------------------
  C     -0.721840   -0.999510   -3.439310
  C      0.287250   -1.711770   -2.527400
  H      1.131780   -2.067380   -3.159400
  H     -0.204140   -2.637330   -2.170480
  O      0.710500   -0.927510   -1.481770
  H     -1.013150   -1.657390   -4.231290
  H     -0.271230   -0.121420   -3.852590
  H     -1.584420   -0.723330   -2.869580

 Total Charge           Charge          ....   -1
 Multiplicity           Mult            ....    1
 Number of Electrons    NEL             ....   26
 Basis Dimension        Dim             ....   67

ORBITAL ENERGIES
----------------

  NO   OCC          E(Eh)            E(eV)
   0   2.0000     -18.744982      -510.0769
   1   2.0000      -9.970588      -271.3135
   2   2.0000      -9.959218      -271.0041
   3   2.0000      -0.623079       -16.9548
   4   2.0000      -0.496760       -13.5175
   5   2.0000      -0.342805        -9.3282
   6   2.0000      -0.230444        -6.2707
   7   2.0000      -0.208483        -5.6731
   8   2.0000      -0.151754        -4.1294
   9   2.0000      -0.134659        -3.6643
  10   2.0000      -0.066411        -1.8071
  11   2.0000       0.078587         2.1385
  12   2.0000       0.081715         2.2236
  13   0.0000       0.253132         6.8881
  14   0.0000       0.296412         8.0658
  15   0.0000       0.309737         8.4284
  16   0.0000       0.317752         8.6465
  17   0.0000       0.360297         9.8042

MULLIKEN ATOMIC CHARGES
-----------------------
   0 C :    0.105911
   1 C :    0.270711
   2 H :   -0.186629
   3 H :   -0.186425
   4 O :   -0.698899
   5 H :   -0.141145
   6 H :   -0.082716
   7 H :   -0.080808
Sum of atomic charges:   -1.0000000

LOEWDIN ATOMIC CHARGES
----------------------
   0 C :   -0.100757
   1 C :    0.016026
   2 H :   -0.087219
   3 H :   -0.086000
   4 O :   -0.658899
   5 H :   -0.043017
   6 H :   -0.020632
   7 H :   -0.019501

  Mayer bond orders larger than 0.100000
B(  0-C ,  1-C ) :   1.0062 B(  0-C ,  5-H ) :   0.9014 B(  0-C ,  6-H ) :   0.9487
B(  0-C ,  7-H ) :   0.9503 B(  1-C ,  2-H ) :   0.8556 B(  1-C ,  3-H ) :   0.8569
B(  1-C ,  4-O ) :   1.5146

Dispersion correction           -0.006234616
FINAL SINGLE POINT ENERGY      -154.188821132155

DIPOLE MOMENT
-------------
                                X             Y             Z
Electronic contribution:      1.59657       0.93143       2.68070
Nuclear contribution   :     -2.24828      -1.06600      -3.62481
                        -----------------------------------------
Total Dipole Moment    :     -0.65171      -0.13457      -0.94410
                        -----------------------------------------
Magnitude (a.u.)       :      1.15506
Magnitude (Debye)      :      2.93594

Rotational constants in cm-1:     1.278116     0.325414     0.286672
Rotational constants in MHz : 38316.964654  9755.653004  8594.216906

                             ****ORCA TERMINATED NORMALLY****
TOTAL RUN TIME: 0 days 0 hours 0 minutes 8 seconds 163 msec
