                         Program Version 5.0.0 -  RELEASE  -
|  1> !B3LYP D3BJ RIJCOSX def2-SVP def2/J TightSCF
|  2> *xyz 1 1
|  3> C          3.48828        1.60092       -1.52204
|  4> C          4.34297        1.31342       -2.75683
|  5> N          2.81029        0.42878       -1.01420
|  6> H          2.71455        2.33145       -1.76030
|  7> H          4.09099        2.06315       -0.73338
|  8> C          3.29098       -0.41802       -0.12908
|  9> N          2.51754       -1.43202        0.23936
| 10> N          4.53549       -0.28441        0.39580
| 11> H          5.04363        0.57189        0.22290
| 12> H          4.72335       -0.73327        1.28180
| 13> H          1.93479        0.10230       -1.40379
| 14> H          1.67464       -1.50562       -0.31610
| 15> H          2.92850       -2.21850        0.72549
| 16> H          3.73575        0.86277       -3.51385
| 17> H          5.13754        0.64699       -2.49333
| 18> H          4.75374        2.22930       -3.12740
| 19> *
| 20> %MaxCore 64000
| 21>
| 22> %pal nprocs 4
| 23> end
| 24>
| 25> %scf
| 26>   MaxIter 150
| 27> end
| 28>
| 29>
| 30>                          ****END OF INPUT****

CARTESIAN COORDINATES (ANGSTROEM)
---------------------------------
  C      3.488280    1.600920   -1.522040
  C      4.342970    1.313420   -2.756830
  N      2.810290    0.428780   -1.014200
  H      2.714550    2.331450   -1.760300
  H      4.090990    2.063150   -0.733380
  C      3.290980   -0.418020   -0.129080
  N      2.517540   -1.432020    0.239360
  N      4.535490   -0.284410    0.395800
  H      5.043630    0.571890    0.222900
  H      4.723350   -0.733270    1.281800
  H      1.934790    0.102300   -1.403790
  H      1.674640   -1.505620   -0.316100
  H      2.928500   -2.218500    0.725490
  H      3.735750    0.862770   -3.513850
  H      5.137540    0.646990   -2.493330
  H      4.753740    2.229300   -3.127400

 Total Charge           Charge          ....    1
 Multiplicity           Mult            ....    1
 Number of Electrons    NEL             ....   48
 Basis Dimension        Dim             ....  134

ORBITAL ENERGIES
----------------

  NO   OCC          E(Eh)            E(eV)
   0   2.0000     -14.553923      -396.0324
   1   2.0000     -14.551045      -395.9541
   2   2.0000     -14.548094      -395.8738
   3   2.0000     -10.513707      -286.0925
   4   2.0000     -10.391962      -282.7797
   5   2.0000     -10.319512      -280.8082
   6   2.0000      -1.208789       -32.8928
   7   2.0000      -1.096829       -29.8462
   8   2.0000      -1.082731       -29.4626
   9   2.0000      -0.925457       -25.1830
  10   2.0000      -0.831915       -22.6376
  11   2.0000      -0.802830       -21.8461
  12   2.0000      -0.778027       -21.1712
  13   2.0000      -0.744124       -20.2487
  14   2.0000      -0.692007       -18.8305
  15   2.0000      -0.682457       -18.5706
  16   2.0000      -0.652926       -17.7670
  17   2.0000      -0.636203       -17.3120
  18   2.0000      -0.600858       -16.3502
  19   2.0000      -0.559372       -15.2213
  20   2.0000      -0.530918       -14.4470
  21   2.0000      -0.512115       -13.9354
  22   2.0000      -0.474920       -12.9232
  23   2.0000      -0.450315       -12.2537
  24   0.0000      -0.160940        -4.3794
  25   0.0000      -0.142424        -3.8756
  26   0.0000      -0.110403        -3.0042
  27   0.0000      -0.093151        -2.5348
  28   0.0000      -0.069220        -1.8836

MULLIKEN ATOMIC CHARGES
-----------------------
   0 C :    0.036569
   1 C :    0.042320
   2 N :   -0.081434
   3 H :    0.062181
   4 H :    0.043952
   5 C :   -0.001708
   6 N :    0.006472
   7 N :   -0.035824
   8 H :    0.157223
   9 H :    0.167260
  10 H :    0.153513
  11 H :    0.159151
  12 H :    0.174314
  13 H :    0.036003
  14 H :    0.021800
  15 H :    0.058208
Sum of atomic charges:    1.0000000

LOEWDIN ATOMIC CHARGES
----------------------
   0 C :    0.042661
   1 C :   -0.038843
   2 N :    0.045817
   3 H :    0.048378
   4 H :    0.032489
   5 C :    0.141895
   6 N :    0.053373
   7 N :    0.036143
   8 H :    0.101927
   9 H :    0.109214
  10 H :    0.103102
  11 H :    0.106003
  12 H :    0.113379
  13 H :    0.033001
  14 H :    0.025225
  15 H :    0.046235

  Mayer bond orders larger than 0.100000
B(  0-C ,  1-C ) :   1.1007 B(  0-C ,  2-N ) :   0.9378 B(  0-C ,  3-H ) :   0.9425
B(  0-C ,  4-H ) :   0.9465 B(  1-C , 13-H ) :   0.9672 B(  1-C , 14-H ) :   0.9670
B(  1-C , 15-H ) :   0.9625 B(  2-N ,  5-C ) :   1.3956 B(  2-N , 10-H ) :   0.9067
B(  5-C ,  6-N ) :   1.3927 B(  5-C ,  7-N ) :   1.3722 B(  6-N , 11-H ) :   0.9222
B(  6-N , 12-H ) :   0.9249 B(  7-N ,  8-H ) :   0.9273 B(  7-N ,  9-H ) :   0.9278

Dispersion correction           -0.020255788
FINAL SINGLE POINT ENERGY      -284.030261274694

DIPOLE MOMENT
-------------
                                X             Y             Z
Electronic contribution:     -1.94974      -3.06645       3.79916
Nuclear contribution   :      1.59382       2.33278      -3.02574
                        -----------------------------------------
Total Dipole Moment    :     -0.35592      -0.73367       0.77343
                        -----------------------------------------
Magnitude (a.u.)       :      1.12390
Magnitude (Debye)      :      2.85672

Rotational constants in cm-1:     0.232230     0.073139     0.063030
Rotational constants in MHz :  6962.079716  2192.649203  1889.578947

                             ****ORCA TERMINATED NORMALLY****
TOTAL RUN TIME: 0 days 0 hours 0 minutes 16 seconds 417 msec
