                         Program Version 5.0.0 -  RELEASE  -
|  1> !B3LYP D3BJ RIJCOSX def2-TZVP def2/J TightSCF xyzfile
|  2>
|  3> *xyzfile 0 1 B.xyz
|  4>
|  5> %MaxCore 64000
|  6>
|  7> %pal nprocs 18
|  8> end
|  9>
| 10> %scf
| 11>   MaxIter 150
| 12> end
| 13>
| 14>
| 15>                          ****END OF INPUT****

CARTESIAN COORDINATES (ANGSTROEM)
---------------------------------
  C      3.488276    1.600919   -1.522040
  C      4.342970    1.313419   -2.756826
  N      2.810285    0.428783   -1.014196
  H      5.132033    0.604994   -2.484466
  C      3.535896    0.749253   -3.924604
  H      4.841247    2.242136   -3.054083
  H      2.991617   -0.132199   -3.574137
  H      4.225505    0.392784   -4.695962
  C      2.564776    1.750890   -4.544523
  H      1.918749    2.171679   -3.769419
  C      1.686235    1.161657   -5.650111
  H      3.132494    2.594775   -4.951604
  C      0.839616   -0.037582   -5.220473
  H      2.323886    0.866395   -6.490796
  H      1.029518    1.951850   -6.029329
  C     -0.151019    0.254955   -4.094256
  H      1.499442   -0.857141   -4.922958
  H      0.290097   -0.410143   -6.091131
  H      0.328265    0.833022   -3.299125
  C     -0.721843   -0.999513   -3.439309
  H     -0.957367    0.884951   -4.485450
  H     -1.083403   -1.697555   -4.205656
  H     -1.581056   -0.723848   -2.820490
  C      0.287250   -1.711771   -2.527405
  H      1.131780   -2.067380   -3.159396
  H     -0.204137   -2.637326   -2.170480
  O      0.710505   -0.927506   -1.481767
  H      2.714548    2.331455   -1.760302
  H      4.090991    2.063151   -0.733382
  C      3.290978   -0.418021   -0.129083
  N      2.517536   -1.432017    0.239360
  N      4.535490   -0.284410    0.395800
  H      5.043627    0.571888    0.222899
  H      4.723346   -0.733273    1.281800
  H      1.934787    0.102305   -1.403788
  H      1.674638   -1.505616   -0.316095
  H      2.928503   -2.218502    0.725494

 Total Charge           Charge          ....    0
 Multiplicity           Mult            ....    1
 Number of Electrons    NEL             ....  112
 Basis Dimension        Dim             ....  572

ORBITAL ENERGIES
----------------

  NO   OCC          E(Eh)            E(eV)
   0   2.0000     -18.990601      -516.7605
   1   2.0000     -14.372193      -391.0872
   2   2.0000     -14.334214      -390.0538
   3   2.0000     -14.326809      -389.8523
   4   2.0000     -10.313652      -280.6487
   5   2.0000     -10.221123      -278.1309
   6   2.0000     -10.176324      -276.9118
   7   2.0000     -10.159049      -276.4418
   8   2.0000     -10.153496      -276.2907
   9   2.0000     -10.146772      -276.1077
  10   2.0000     -10.144379      -276.0426
  11   2.0000     -10.134723      -275.7798
  12   2.0000     -10.124148      -275.4921
  13   2.0000     -10.112265      -275.1687
  14   2.0000      -1.031094       -28.0575
  15   2.0000      -0.927927       -25.2502
  16   2.0000      -0.908391       -24.7186
  17   2.0000      -0.880055       -23.9475
  18   2.0000      -0.809576       -22.0297
  19   2.0000      -0.775559       -21.1040
  20   2.0000      -0.737665       -20.0729
  21   2.0000      -0.700664       -19.0660
  22   2.0000      -0.659705       -17.9515
  23   2.0000      -0.648109       -17.6360
  24   2.0000      -0.610155       -16.6032
  25   2.0000      -0.597599       -16.2615
  26   2.0000      -0.594088       -16.1660
  27   2.0000      -0.563790       -15.3415
  28   2.0000      -0.543354       -14.7854
  29   2.0000      -0.519299       -14.1308
  30   2.0000      -0.510033       -13.8787
  31   2.0000      -0.494001       -13.4425
  32   2.0000      -0.481937       -13.1142
  33   2.0000      -0.470380       -12.7997
  34   2.0000      -0.459144       -12.4939
  35   2.0000      -0.449790       -12.2394
  36   2.0000      -0.433151       -11.7866
  37   2.0000      -0.417695       -11.3661
  38   2.0000      -0.411422       -11.1954
  39   2.0000      -0.392814       -10.6890
  40   2.0000      -0.388767       -10.5789
  41   2.0000      -0.377263       -10.2658
  42   2.0000      -0.358498        -9.7552
  43   2.0000      -0.352291        -9.5863
  44   2.0000      -0.343750        -9.3539
  45   2.0000      -0.332994        -9.0612
  46   2.0000      -0.321414        -8.7461
  47   2.0000      -0.311766        -8.4836
  48   2.0000      -0.308918        -8.4061
  49   2.0000      -0.304838        -8.2951
  50   2.0000      -0.289418        -7.8755
  51   2.0000      -0.285029        -7.7560
  52   2.0000      -0.280011        -7.6195
  53   2.0000      -0.265225        -7.2171
  54   2.0000      -0.177183        -4.8214
  55   2.0000      -0.170193        -4.6312
  56   0.0000      -0.007276        -0.1980
  57   0.0000       0.010449         0.2843
  58   0.0000       0.027663         0.7528
  59   0.0000       0.048560         1.3214
  60   0.0000       0.052264         1.4222

MULLIKEN ATOMIC CHARGES
-----------------------
   0 C :   -0.213287
   1 C :   -0.086459
   2 N :   -0.203393
   3 H :    0.089066
   4 C :   -0.217220
   5 H :    0.083187
   6 H :    0.128802
   7 H :    0.086124
   8 C :   -0.210455
   9 H :    0.092531
  10 C :   -0.099144
  11 H :    0.078171
  12 C :   -0.228938
  13 H :    0.076694
  14 H :    0.076709
  15 C :   -0.150357
  16 H :    0.097028
  17 H :    0.078791
  18 H :    0.073872
  19 C :   -0.046806
  20 H :    0.067922
  21 H :    0.036983
  22 H :    0.052671
  23 C :    0.032011
  24 H :    0.004077
  25 H :    0.030812
  26 O :   -0.759884
  27 H :    0.144301
  28 H :    0.097389
  29 C :    0.371188
  30 N :   -0.393807
  31 N :   -0.439968
  32 H :    0.241482
  33 H :    0.237283
  34 H :    0.272270
  35 H :    0.285701
  36 H :    0.214651
Sum of atomic charges:    0.0000000

LOEWDIN ATOMIC CHARGES
----------------------
   0 C :   -0.278453
   1 C :   -0.264953
   2 N :    0.181533
   3 H :    0.131518
   4 C :   -0.260905
   5 H :    0.136146
   6 H :    0.142074
   7 H :    0.134804
   8 C :   -0.266204
   9 H :    0.129449
  10 C :   -0.264229
  11 H :    0.130550
  12 C :   -0.267079
  13 H :    0.130485
  14 H :    0.132434
  15 C :   -0.270283
  16 H :    0.129100
  17 H :    0.130447
  18 H :    0.129583
  19 C :   -0.276536
  20 H :    0.125926
  21 H :    0.122569
  22 H :    0.127069
  23 C :   -0.464613
  24 H :    0.083396
  25 H :    0.096321
  26 O :   -0.296875
  27 H :    0.140257
  28 H :    0.123088
  29 C :   -0.417661
  30 N :    0.043614
  31 N :   -0.000312
  32 H :    0.172819
  33 H :    0.175125
  34 H :    0.162809
  35 H :    0.150355
  36 H :    0.166636

  Mayer bond orders larger than 0.100000
B(  0-C ,  1-C ) :   0.9284 B(  0-C ,  2-N ) :   0.9007 B(  0-C , 27-H ) :   0.9800
B(  0-C , 28-H ) :   0.9773 B(  1-C ,  3-H ) :   0.9662 B(  1-C ,  4-C ) :   0.9641
B(  1-C ,  5-H ) :   0.9665 B(  2-N , 29-C ) :   1.4526 B(  2-N , 34-H ) :   0.7374
B(  4-C ,  6-H ) :   0.9748 B(  4-C ,  7-H ) :   0.9671 B(  4-C ,  8-C ) :   0.9591
B(  8-C ,  9-H ) :   0.9794 B(  8-C , 10-C ) :   0.9795 B(  8-C , 11-H ) :   0.9620
B( 10-C , 12-C ) :   0.9610 B( 10-C , 13-H ) :   0.9696 B( 10-C , 14-H ) :   0.9690
B( 12-C , 15-C ) :   0.9682 B( 12-C , 16-H ) :   0.9833 B( 12-C , 17-H ) :   0.9641
B( 15-C , 18-H ) :   0.9674 B( 15-C , 19-C ) :   0.9830 B( 15-C , 20-H ) :   0.9622
B( 19-C , 21-H ) :   0.9512 B( 19-C , 22-H ) :   0.9546 B( 19-C , 23-C ) :   0.9623
B( 23-C , 24-H ) :   0.9588 B( 23-C , 25-H ) :   0.9442 B( 23-C , 26-O ) :   1.1422
B( 26-O , 34-H ) :   0.2501 B( 26-O , 35-H ) :   0.2457 B( 29-C , 30-N ) :   1.4018
B( 29-C , 31-N ) :   1.2064 B( 30-N , 35-H ) :   0.7363 B( 30-N , 36-H ) :   0.9183
B( 31-N , 32-H ) :   0.9104 B( 31-N , 33-H ) :   0.9158

Dispersion correction           -0.065323570
FINAL SINGLE POINT ENERGY      -634.286884858542

DIPOLE MOMENT
-------------
                                X             Y             Z
Electronic contribution:      3.60536      -2.06024      11.41201
Nuclear contribution   :     -0.74583       2.62534      -9.91488
                        -----------------------------------------
Total Dipole Moment    :      2.85954       0.56510       1.49713
                        -----------------------------------------
Magnitude (a.u.)       :      3.27684
Magnitude (Debye)      :      8.32907

Rotational constants in cm-1:     0.027028     0.016098     0.010898
Rotational constants in MHz :   810.278072   482.590922   326.703462

                             ****ORCA TERMINATED NORMALLY****
TOTAL RUN TIME: 0 days 0 hours 1 minutes 20 seconds 274 msec
