                         Program Version 5.0.0 -  RELEASE  -
|  1> !B3LYP D3BJ RIJCOSX def2-SVP def2/J TightSCF
|  2> *xyz 0 1
|  3> C         -0.72184       -0.99951       -3.43931
|  4> C          0.28725       -1.71177       -2.52740
|  5> H          1.13178       -2.06738       -3.15940
|  6> H         -0.20414       -2.63733       -2.17048
|  7> F          0.71050       -0.92751       -1.48177
|  8> H         -1.01315       -1.65739       -4.23129
|  9> H         -0.27123       -0.12142       -3.85259
| 10> H         -1.58442       -0.72333       -2.86958
| 11> *
| 12> %MaxCore 64000
| 13>
| 14> %pal nprocs 4
| 15> end
| 16>
| 17> %scf
| 18>   MaxIter 150
| 19> end
| 20>
| 21>
| 22>                          ****END OF INPUT****

CARTESIAN COORDINATES (ANGSTROEM)
---------------------------------
  C     -0.721840   -0.999510   -3.439310
  C      0.287250   -1.711770   -2.527400
  H      1.131780   -2.067380   -3.159400
  H     -0.204140   -2.637330   -2.170480
  F      0.710500   -0.927510   -1.481770
  H     -1.013150   -1.657390   -4.231290
  H     -0.271230   -0.121420   -3.852590
  H     -1.584420   -0.723330   -2.869580

 Total Charge           Charge          ....    0
 Multiplicity           Mult            ....    1
 Number of Electrons    NEL             ....   26
 Basis Dimension        Dim             ....   67

ORBITAL ENERGIES
----------------

  NO   OCC          E(Eh)            E(eV)
   0   2.0000     -24.660289      -671.0406
   1   2.0000     -10.256890      -279.1042
   2   2.0000     -10.177914      -276.9551
   3   2.0000      -1.164245       -31.6807
   4   2.0000      -0.752954       -20.4889
   5   2.0000      -0.619102       -16.8466
   6   2.0000      -0.497098       -13.5267
   7   2.0000      -0.487002       -13.2520
   8   2.0000      -0.447621       -12.1804
   9   2.0000      -0.397625       -10.8199
  10   2.0000      -0.397473       -10.8158
  11   2.0000      -0.328509        -8.9392
  12   2.0000      -0.323417        -8.8006
  13   0.0000       0.064129         1.7450
  14   0.0000       0.108967         2.9651
  15   0.0000       0.115906         3.1540
  16   0.0000       0.132667         3.6100
  17   0.0000       0.147653         4.0179

MULLIKEN ATOMIC CHARGES
-----------------------
   0 C :   -0.016303
   1 C :    0.238699
   2 H :    0.001034
   3 H :   -0.001152
   4 F :   -0.266224
   5 H :    0.006966
   6 H :    0.018369
   7 H :    0.018610
Sum of atomic charges:   -0.0000000

LOEWDIN ATOMIC CHARGES
----------------------
   0 C :   -0.064897
   1 C :    0.115640
   2 H :    0.007874
   3 H :    0.006895
   4 F :   -0.138557
   5 H :    0.027308
   6 H :    0.022672
   7 H :    0.023065

  Mayer bond orders larger than 0.100000
B(  0-C ,  1-C ) :   1.1038 B(  0-C ,  5-H ) :   0.9580 B(  0-C ,  6-H ) :   0.9700
B(  0-C ,  7-H ) :   0.9700 B(  1-C ,  2-H ) :   0.9558 B(  1-C ,  3-H ) :   0.9562
B(  1-C ,  4-F ) :   1.0038

Dispersion correction           -0.005741004
FINAL SINGLE POINT ENERGY      -178.830707972352

DIPOLE MOMENT
-------------
                                X             Y             Z
Electronic contribution:      2.72495       1.07039       4.26749
Nuclear contribution   :     -2.97459      -1.40206      -4.79987
                        -----------------------------------------
Total Dipole Moment    :     -0.24964      -0.33167      -0.53238
                        -----------------------------------------
Magnitude (a.u.)       :      0.67509
Magnitude (Debye)      :      1.71595

Rotational constants in cm-1:     1.257024     0.302702     0.267953
Rotational constants in MHz : 37684.643733  9074.792567  8033.038070

                             ****ORCA TERMINATED NORMALLY****
TOTAL RUN TIME: 0 days 0 hours 0 minutes 7 seconds 569 msec
