                         Program Version 5.0.0 -  RELEASE  -
|  1> !B3LYP D3BJ RIJCOSX def2-SVP def2/J TightSCF
|  2> *xyz 0 1
|  3> C          3.48828        1.60092       -1.52204
|  4> C          4.34297        1.31342       -2.75683
|  5> C          2.81029        0.42878       -1.01420
|  6> H          2.71455        2.33145       -1.76030
|  7> H          4.09099        2.06315       -0.73338
|  8> C          3.29098       -0.41802       -0.12908
|  9> N          2.51754       -1.43202        0.23936
| 10> N          4.53549       -0.28441        0.39580
| 11> H          5.04363        0.57189        0.22290
| 12> H          4.72335       -0.73327        1.28180
| 13> H          1.93479        0.10230       -1.40379
| 14> H          1.67464       -1.50562       -0.31610
| 15> H          2.92850       -2.21850        0.72549
| 16> H          3.73575        0.86277       -3.51385
| 17> H          5.13754        0.64699       -2.49333
| 18> H          4.75374        2.22930       -3.12740
| 19> *
| 20> %MaxCore 64000
| 21>
| 22> %pal nprocs 4
| 23> end
| 24>
| 25> %scf
| 26>   MaxIter 150
| 27> end
| 28>
| 29>
| 30>                          ****END OF INPUT****

CARTESIAN COORDINATES (ANGSTROEM)
---------------------------------
  C      3.488280    1.600920   -1.522040
  C      4.342970    1.313420   -2.756830
  C      2.810290    0.428780   -1.014200
  H      2.714550    2.331450   -1.760300
  H      4.090990    2.063150   -0.733380
  C      3.290980   -0.418020   -0.129080
  N      2.517540   -1.432020    0.239360
  N      4.535490   -0.284410    0.395800
  H      5.043630    0.571890    0.222900
  H      4.723350   -0.733270    1.281800
  H      1.934790    0.102300   -1.403790
  H      1.674640   -1.505620   -0.316100
  H      2.928500   -2.218500    0.725490
  H      3.735750    0.862770   -3.513850
  H      5.137540    0.646990   -2.493330
  H      4.753740    2.229300   -3.127400

 Total Charge           Charge          ....    0
 Multiplicity           Mult            ....    1
 Number of Electrons    NEL             ....   48
 Basis Dimension        Dim             ....  134

ORBITAL ENERGIES
----------------

  NO   OCC          E(Eh)            E(eV)
   0   2.0000     -14.319696      -389.6587
   1   2.0000     -14.315632      -389.5482
   2   2.0000     -10.213351      -277.9194
   3   2.0000     -10.153439      -276.2891
   4   2.0000     -10.144958      -276.0584
   5   2.0000     -10.096296      -274.7342
   6   2.0000      -0.939662       -25.5695
   7   2.0000      -0.852062       -23.1858
   8   2.0000      -0.759136       -20.6571
   9   2.0000      -0.680690       -18.5225
  10   2.0000      -0.601569       -16.3695
  11   2.0000      -0.569201       -15.4887
  12   2.0000      -0.528128       -14.3711
  13   2.0000      -0.500326       -13.6146
  14   2.0000      -0.458886       -12.4869
  15   2.0000      -0.431294       -11.7361
  16   2.0000      -0.410219       -11.1626
  17   2.0000      -0.386594       -10.5197
  18   2.0000      -0.373694       -10.1687
  19   2.0000      -0.345181        -9.3929
  20   2.0000      -0.326086        -8.8732
  21   2.0000      -0.314551        -8.5594
  22   2.0000      -0.253608        -6.9010
  23   2.0000      -0.150669        -4.0999
  24   0.0000       0.046233         1.2581
  25   0.0000       0.076574         2.0837
  26   0.0000       0.086117         2.3434
  27   0.0000       0.102847         2.7986
  28   0.0000       0.114184         3.1071

MULLIKEN ATOMIC CHARGES
-----------------------
   0 C :    0.084565
   1 C :    0.088315
   2 C :   -0.127119
   3 H :   -0.027124
   4 H :   -0.039932
   5 C :   -0.114733
   6 N :   -0.026133
   7 N :   -0.067696
   8 H :    0.105447
   9 H :    0.093837
  10 H :   -0.125534
  11 H :    0.110368
  12 H :    0.095146
  13 H :   -0.014635
  14 H :   -0.016037
  15 H :   -0.018734
Sum of atomic charges:    0.0000000

LOEWDIN ATOMIC CHARGES
----------------------
   0 C :   -0.033263
   1 C :   -0.047072
   2 C :   -0.208670
   3 H :    0.019276
   4 H :    0.004771
   5 C :    0.023401
   6 N :   -0.021820
   7 N :   -0.032771
   8 H :    0.072673
   9 H :    0.060843
  10 H :   -0.013947
  11 H :    0.080810
  12 H :    0.063149
  13 H :    0.014510
  14 H :    0.010744
  15 H :    0.007365

  Mayer bond orders larger than 0.100000
B(  0-C ,  1-C ) :   1.0941 B(  0-C ,  2-C ) :   1.0736 B(  0-C ,  3-H ) :   0.9063
B(  0-C ,  4-H ) :   0.9273 B(  1-C , 13-H ) :   0.9640 B(  1-C , 14-H ) :   0.9690
B(  1-C , 15-H ) :   0.9592 B(  2-C ,  5-C ) :   1.6930 B(  2-C , 10-H ) :   0.9214
B(  5-C ,  6-N ) :   1.2523 B(  5-C ,  7-N ) :   1.2435 B(  6-N , 11-H ) :   0.9316
B(  6-N , 12-H ) :   0.9434 B(  7-N ,  8-H ) :   0.9408 B(  7-N ,  9-H ) :   0.9455

Dispersion correction           -0.021183990
FINAL SINGLE POINT ENERGY      -267.558810325289

DIPOLE MOMENT
-------------
                                X             Y             Z
Electronic contribution:     -1.24521      -3.05233       3.78489
Nuclear contribution   :      1.44676       2.38443      -3.07370
                        -----------------------------------------
Total Dipole Moment    :      0.20155      -0.66791       0.71119
                        -----------------------------------------
Magnitude (a.u.)       :      0.99625
Magnitude (Debye)      :      2.53226

Rotational constants in cm-1:     0.235977     0.073199     0.063283
Rotational constants in MHz :  7074.404583  2194.453291  1897.179599

                             ****ORCA TERMINATED NORMALLY****
TOTAL RUN TIME: 0 days 0 hours 0 minutes 15 seconds 594 msec
