                         Program Version 5.0.0 -  RELEASE  -
|  1> !B3LYP D3BJ RIJCOSX def2-SVP def2/J TightSCF
|  2> *xyz 0 1
|  3> C          3.48828        1.60092       -1.52204
|  4> C          4.34297        1.31342       -2.75683
|  5> N          2.81029        0.42878       -1.01420
|  6> H          2.71455        2.33145       -1.76030
|  7> H          4.09099        2.06315       -0.73338
|  8> C          3.29098       -0.41802       -0.12908
|  9> C          2.51754       -1.43202        0.23936
| 10> N          4.53549       -0.28441        0.39580
| 11> H          5.04363        0.57189        0.22290
| 12> H          4.72335       -0.73327        1.28180
| 13> H          1.93479        0.10230       -1.40379
| 14> H          1.67464       -1.50562       -0.31610
| 15> H          2.92850       -2.21850        0.72549
| 16> H          3.73575        0.86277       -3.51385
| 17> H          5.13754        0.64699       -2.49333
| 18> H          4.75374        2.22930       -3.12740
| 19> *
| 20> %MaxCore 64000
| 21>
| 22> %pal nprocs 4
| 23> end
| 24>
| 25> %scf
| 26>   MaxIter 150
| 27> end
| 28>
| 29>
| 30>                          ****END OF INPUT****

CARTESIAN COORDINATES (ANGSTROEM)
---------------------------------
  C      3.488280    1.600920   -1.522040
  C      4.342970    1.313420   -2.756830
  N      2.810290    0.428780   -1.014200
  H      2.714550    2.331450   -1.760300
  H      4.090990    2.063150   -0.733380
  C      3.290980   -0.418020   -0.129080
  C      2.517540   -1.432020    0.239360
  N      4.535490   -0.284410    0.395800
  H      5.043630    0.571890    0.222900
  H      4.723350   -0.733270    1.281800
  H      1.934790    0.102300   -1.403790
  H      1.674640   -1.505620   -0.316100
  H      2.928500   -2.218500    0.725490
  H      3.735750    0.862770   -3.513850
  H      5.137540    0.646990   -2.493330
  H      4.753740    2.229300   -3.127400

 Total Charge           Charge          ....    0
 Multiplicity           Mult            ....    1
 Number of Electrons    NEL             ....   48
 Basis Dimension        Dim             ....  134

ORBITAL ENERGIES
----------------

  NO   OCC          E(Eh)            E(eV)
   0   2.0000     -14.320704      -389.6862
   1   2.0000     -14.319957      -389.6658
   2   2.0000     -10.222815      -278.1769
   3   2.0000     -10.217287      -278.0265
   4   2.0000     -10.173380      -276.8317
   5   2.0000     -10.085996      -274.4539
   6   2.0000      -0.952468       -25.9180
   7   2.0000      -0.866403       -23.5760
   8   2.0000      -0.763702       -20.7814
   9   2.0000      -0.688452       -18.7337
  10   2.0000      -0.619293       -16.8518
  11   2.0000      -0.588428       -16.0119
  12   2.0000      -0.527760       -14.3611
  13   2.0000      -0.492590       -13.4040
  14   2.0000      -0.472648       -12.8614
  15   2.0000      -0.436131       -11.8677
  16   2.0000      -0.424409       -11.5488
  17   2.0000      -0.398574       -10.8457
  18   2.0000      -0.371033       -10.0963
  19   2.0000      -0.368028       -10.0146
  20   2.0000      -0.358029        -9.7425
  21   2.0000      -0.351433        -9.5630
  22   2.0000      -0.248199        -6.7538
  23   2.0000      -0.150969        -4.1081
  24   0.0000       0.043531         1.1845
  25   0.0000       0.070461         1.9173
  26   0.0000       0.081674         2.2225
  27   0.0000       0.104666         2.8481
  28   0.0000       0.106779         2.9056

MULLIKEN ATOMIC CHARGES
-----------------------
   0 C :    0.079669
   1 C :    0.061558
   2 N :   -0.106254
   3 H :   -0.000448
   4 H :   -0.002664
   5 C :   -0.074617
   6 C :   -0.046571
   7 N :   -0.081036
   8 H :    0.088862
   9 H :    0.117361
  10 H :    0.114378
  11 H :   -0.086014
  12 H :   -0.068321
  13 H :    0.002875
  14 H :    0.003881
  15 H :   -0.002659
Sum of atomic charges:    0.0000000

LOEWDIN ATOMIC CHARGES
----------------------
   0 C :    0.033996
   1 C :   -0.056493
   2 N :   -0.016317
   3 H :    0.020296
   4 H :    0.013649
   5 C :    0.037803
   6 C :   -0.253990
   7 N :   -0.029199
   8 H :    0.057349
   9 H :    0.080676
  10 H :    0.083712
  11 H :   -0.015170
  12 H :   -0.012056
  13 H :    0.019244
  14 H :    0.018293
  15 H :    0.018207

  Mayer bond orders larger than 0.100000
B(  0-C ,  1-C ) :   1.0917 B(  0-C ,  2-N ) :   1.0252 B(  0-C ,  3-H ) :   0.9467
B(  0-C ,  4-H ) :   0.9437 B(  1-C , 13-H ) :   0.9658 B(  1-C , 14-H ) :   0.9652
B(  1-C , 15-H ) :   0.9581 B(  2-N ,  5-C ) :   1.2213 B(  2-N , 10-H ) :   0.9188
B(  5-C ,  6-C ) :   1.7425 B(  5-C ,  7-N ) :   1.2168 B(  6-C , 11-H ) :   0.9154
B(  6-C , 12-H ) :   0.9435 B(  7-N ,  8-H ) :   0.9522 B(  7-N ,  9-H ) :   0.9476

Dispersion correction           -0.020932358
FINAL SINGLE POINT ENERGY      -267.548502926485

DIPOLE MOMENT
-------------
                                X             Y             Z
Electronic contribution:     -0.84567      -1.04969       2.48667
Nuclear contribution   :      1.38466       1.98967      -2.80776
                        -----------------------------------------
Total Dipole Moment    :      0.53899       0.93998      -0.32110
                        -----------------------------------------
Magnitude (a.u.)       :      1.13012
Magnitude (Debye)      :      2.87254

Rotational constants in cm-1:     0.235618     0.075969     0.065309
Rotational constants in MHz :  7063.646698  2277.495424  1957.925383

                             ****ORCA TERMINATED NORMALLY****
TOTAL RUN TIME: 0 days 0 hours 0 minutes 16 seconds 63 msec
