                         Program Version 5.0.0 -  RELEASE  -
|  1> !B3LYP D3BJ RIJCOSX def2-SVP def2/J TightSCF
|  2> *xyz 0 1
|  3> C          3.48828        1.60092       -1.52204
|  4> C          4.34297        1.31342       -2.75683
|  5> N          2.81029        0.42878       -1.01420
|  6> H          2.71455        2.33145       -1.76030
|  7> H          4.09099        2.06315       -0.73338
|  8> C          3.29098       -0.41802       -0.12908
|  9> N          2.51754       -1.43202        0.23936
| 10> C          4.53549       -0.28441        0.39580
| 11> H          5.04363        0.57189        0.22290
| 12> H          4.72335       -0.73327        1.28180
| 13> H          1.93479        0.10230       -1.40379
| 14> H          1.67464       -1.50562       -0.31610
| 15> H          2.92850       -2.21850        0.72549
| 16> H          3.73575        0.86277       -3.51385
| 17> H          5.13754        0.64699       -2.49333
| 18> H          4.75374        2.22930       -3.12740
| 19> *
| 20> %MaxCore 64000
| 21>
| 22> %pal nprocs 4
| 23> end
| 24>
| 25> %scf
| 26>   MaxIter 150
| 27> end
| 28>
| 29>
| 30>                          ****END OF INPUT****

CARTESIAN COORDINATES (ANGSTROEM)
---------------------------------
  C      3.488280    1.600920   -1.522040
  C      4.342970    1.313420   -2.756830
  N      2.810290    0.428780   -1.014200
  H      2.714550    2.331450   -1.760300
  H      4.090990    2.063150   -0.733380
  C      3.290980   -0.418020   -0.129080
  N      2.517540   -1.432020    0.239360
  C      4.535490   -0.284410    0.395800
  H      5.043630    0.571890    0.222900
  H      4.723350   -0.733270    1.281800
  H      1.934790    0.102300   -1.403790
  H      1.674640   -1.505620   -0.316100
  H      2.928500   -2.218500    0.725490
  H      3.735750    0.862770   -3.513850
  H      5.137540    0.646990   -2.493330
  H      4.753740    2.229300   -3.127400

 Total Charge           Charge          ....    0
 Multiplicity           Mult            ....    1
 Number of Electrons    NEL             ....   48
 Basis Dimension        Dim             ....  134

ORBITAL ENERGIES
----------------

  NO   OCC          E(Eh)            E(eV)
   0   2.0000     -14.326066      -389.8321
   1   2.0000     -14.322416      -389.7328
   2   2.0000     -10.219931      -278.0985
   3   2.0000     -10.213803      -277.9317
   4   2.0000     -10.164577      -276.5922
   5   2.0000     -10.084993      -274.4266
   6   2.0000      -0.961097       -26.1528
   7   2.0000      -0.871712       -23.7205
   8   2.0000      -0.743720       -20.2377
   9   2.0000      -0.689930       -18.7739
  10   2.0000      -0.633815       -17.2470
  11   2.0000      -0.553143       -15.0518
  12   2.0000      -0.534627       -14.5479
  13   2.0000      -0.520039       -14.1510
  14   2.0000      -0.462779       -12.5928
  15   2.0000      -0.434853       -11.8330
  16   2.0000      -0.418673       -11.3927
  17   2.0000      -0.387884       -10.5549
  18   2.0000      -0.373597       -10.1661
  19   2.0000      -0.360715        -9.8155
  20   2.0000      -0.351405        -9.5622
  21   2.0000      -0.343311        -9.3420
  22   2.0000      -0.243466        -6.6250
  23   2.0000      -0.151814        -4.1311
  24   0.0000       0.037946         1.0326
  25   0.0000       0.074765         2.0345
  26   0.0000       0.085852         2.3361
  27   0.0000       0.102686         2.7942
  28   0.0000       0.119149         3.2422

MULLIKEN ATOMIC CHARGES
-----------------------
   0 C :    0.107898
   1 C :    0.051002
   2 N :   -0.127117
   3 H :   -0.008432
   4 H :    0.020617
   5 C :   -0.069435
   6 N :   -0.047228
   7 C :   -0.090563
   8 H :   -0.071550
   9 H :   -0.069853
  10 H :    0.085689
  11 H :    0.087356
  12 H :    0.123132
  13 H :   -0.009644
  14 H :    0.020011
  15 H :   -0.001881
Sum of atomic charges:    0.0000000

LOEWDIN ATOMIC CHARGES
----------------------
   0 C :    0.046820
   1 C :   -0.053359
   2 N :   -0.015165
   3 H :    0.016305
   4 H :    0.026596
   5 C :    0.033602
   6 N :   -0.014017
   7 C :   -0.275868
   8 H :   -0.015496
   9 H :   -0.013439
  10 H :    0.060869
  11 H :    0.059494
  12 H :    0.084932
  13 H :    0.013789
  14 H :    0.025581
  15 H :    0.019354

  Mayer bond orders larger than 0.100000
B(  0-C ,  1-C ) :   1.1097 B(  0-C ,  2-N ) :   1.0037 B(  0-C ,  3-H ) :   0.9501
B(  0-C ,  4-H ) :   0.9363 B(  1-C , 13-H ) :   0.9650 B(  1-C , 14-H ) :   0.9666
B(  1-C , 15-H ) :   0.9609 B(  2-N ,  5-C ) :   1.2037 B(  2-N , 10-H ) :   0.9306
B(  5-C ,  6-N ) :   1.2438 B(  5-C ,  7-C ) :   1.7242 B(  6-N , 11-H ) :   0.9486
B(  6-N , 12-H ) :   0.9432 B(  7-C ,  8-H ) :   0.9329 B(  7-C ,  9-H ) :   0.9383

Dispersion correction           -0.021084015
FINAL SINGLE POINT ENERGY      -267.547796744290

DIPOLE MOMENT
-------------
                                X             Y             Z
Electronic contribution:     -2.91048      -2.38278       2.20213
Nuclear contribution   :      1.81275       2.23313      -2.77458
                        -----------------------------------------
Total Dipole Moment    :     -1.09773      -0.14965      -0.57245
                        -----------------------------------------
Magnitude (a.u.)       :      1.24704
Magnitude (Debye)      :      3.16972

Rotational constants in cm-1:     0.245202     0.073668     0.064348
Rotational constants in MHz :  7350.977980  2208.513334  1929.108541

                             ****ORCA TERMINATED NORMALLY****
TOTAL RUN TIME: 0 days 0 hours 0 minutes 16 seconds 740 msec
