                         Program Version 5.0.0 -  RELEASE  -
|  1> !LC-BLYP RIJCOSX def2-TZVPD def2/J TightSCF
|  2> *xyz -1 1
|  3> C          3.76678       -2.26611       -6.51175
|  4> C          2.49670       -1.84416       -5.73570
|  5> H          1.62642       -2.21743       -6.30895
|  6> H          2.48182       -2.45607       -4.79341
|  7> O          2.45973       -0.50920       -5.50576
|  8> H          3.82914       -1.70941       -7.42340
|  9> H          3.71764       -3.31144       -6.73483
| 10> H          4.63199       -2.06931       -5.91377
| 11> *
| 12>
| 13> %MaxCore 64000
| 14>
| 15> %pal nprocs 4
| 16> end
| 17>
| 18> %scf
| 19>   MaxIter 150
| 20> end
| 21>
| 22>
| 23>                          ****END OF INPUT****

CARTESIAN COORDINATES (ANGSTROEM)
---------------------------------
  C      3.766780   -2.266110   -6.511750
  C      2.496700   -1.844160   -5.735700
  H      1.626420   -2.217430   -6.308950
  H      2.481820   -2.456070   -4.793410
  O      2.459730   -0.509200   -5.505760
  H      3.829140   -1.709410   -7.423400
  H      3.717640   -3.311440   -6.734830
  H      4.631990   -2.069310   -5.913770

 Total Charge           Charge          ....   -1
 Multiplicity           Mult            ....    1
 Number of Electrons    NEL             ....   26
 Basis Dimension        Dim             ....  159

ORBITAL ENERGIES
----------------

  NO   OCC          E(Eh)            E(eV)
   0   2.0000     -18.606154      -506.2992
   1   2.0000      -9.884832      -268.9799
   2   2.0000      -9.858339      -268.2590
   3   2.0000      -0.782826       -21.3018
   4   2.0000      -0.633192       -17.2300
   5   2.0000      -0.480042       -13.0626
   6   2.0000      -0.356740        -9.7074
   7   2.0000      -0.331528        -9.0213
   8   2.0000      -0.275976        -7.5097
   9   2.0000      -0.257357        -7.0030
  10   2.0000      -0.216366        -5.8876
  11   2.0000      -0.067864        -1.8467
  12   2.0000      -0.066343        -1.8053
  13   0.0000       0.198638         5.4052
  14   0.0000       0.219078         5.9614
  15   0.0000       0.249102         6.7784
  16   0.0000       0.249519         6.7898
  17   0.0000       0.273573         7.4443

MULLIKEN ATOMIC CHARGES
-----------------------
   0 C :   -1.182025
   1 C :   -0.527260
   2 H :    0.295375
   3 H :    0.287393
   4 O :   -0.892769
   5 H :    0.319065
   6 H :    0.397850
   7 H :    0.302371
Sum of atomic charges:   -1.0000000

LOEWDIN ATOMIC CHARGES
----------------------
   0 C :   -0.182933
   1 C :   -0.657316
   2 H :    0.059877
   3 H :    0.066151
   4 O :   -0.402367
   5 H :    0.042967
   6 H :    0.031639
   7 H :    0.041983

  Mayer bond orders larger than 0.100000
B(  0-C ,  1-C ) :   0.6597 B(  0-C ,  4-O ) :   0.2527 B(  0-C ,  5-H ) :   0.9564
B(  0-C ,  6-H ) :   0.9109 B(  0-C ,  7-H ) :   0.9662 B(  1-C ,  2-H ) :   1.0080
B(  1-C ,  3-H ) :   0.9996 B(  1-C ,  4-O ) :   0.9725 B(  2-H ,  3-H ) :   0.1075

FINAL SINGLE POINT ENERGY      -154.111936847811

DIPOLE MOMENT
-------------
                                X             Y             Z
Electronic contribution:     -1.06366       2.42782       0.93498
Nuclear contribution   :      1.63615      -3.79938      -1.48621
                        -----------------------------------------
Total Dipole Moment    :      0.57250      -1.37156      -0.55123
                        -----------------------------------------
Magnitude (a.u.)       :      1.58517
Magnitude (Debye)      :      4.02919

Rotational constants in cm-1:     1.265582     0.329289     0.289024
Rotational constants in MHz : 37941.194363  9871.829581  8664.719106

                             ****ORCA TERMINATED NORMALLY****
TOTAL RUN TIME: 0 days 0 hours 0 minutes 17 seconds 225 msec
