                         Program Version 5.0.0 -  RELEASE  -
|  1> !LC-BLYP RIJCOSX def2-TZVPD def2/J TightSCF
|  2> *xyz 1 1
|  3> C          4.99986       -1.59613       -5.92488
|  4> N          5.28156       -1.97413       -4.53576
|  5> C          3.76678       -2.26611       -6.51175
|  6> C          4.79250       -1.36132       -3.45730
|  7> N          3.93990       -0.37492       -3.55736
|  8> N          5.25986       -1.75422       -2.23913
|  9> H          5.92282       -2.52145       -2.18672
| 10> H          4.65468       -1.64040       -1.44202
| 11> H          5.70914       -2.87560       -4.38702
| 12> H          3.33010       -0.31764       -4.36125
| 13> H          3.69849        0.11447       -2.70833
| 14> H          4.84333       -0.51793       -5.94302
| 15> H          5.90170       -1.82250       -6.49647
| 16> H          3.63046       -1.94025       -7.52177
| 17> H          2.90710       -2.00116       -5.93240
| 18> H          3.89538       -3.32820       -6.49392
| 19> *
| 20>
| 21> %MaxCore 64000
| 22>
| 23> %pal nprocs 4
| 24> end
| 25>
| 26> %scf
| 27>   MaxIter 150
| 28> end
| 29>
| 30>
| 31>                          ****END OF INPUT****

CARTESIAN COORDINATES (ANGSTROEM)
---------------------------------
  C      4.999860   -1.596130   -5.924880
  N      5.281560   -1.974130   -4.535760
  C      3.766780   -2.266110   -6.511750
  C      4.792500   -1.361320   -3.457300
  N      3.939900   -0.374920   -3.557360
  N      5.259860   -1.754220   -2.239130
  H      5.922820   -2.521450   -2.186720
  H      4.654680   -1.640400   -1.442020
  H      5.709140   -2.875600   -4.387020
  H      3.330100   -0.317640   -4.361250
  H      3.698490    0.114470   -2.708330
  H      4.843330   -0.517930   -5.943020
  H      5.901700   -1.822500   -6.496470
  H      3.630460   -1.940250   -7.521770
  H      2.907100   -2.001160   -5.932400
  H      3.895380   -3.328200   -6.493920

 Total Charge           Charge          ....    1
 Multiplicity           Mult            ....    1
 Number of Electrons    NEL             ....   48
 Basis Dimension        Dim             ....  312

ORBITAL ENERGIES
----------------

  NO   OCC          E(Eh)            E(eV)
   0   2.0000     -14.398378      -391.7998
   1   2.0000     -14.394505      -391.6944
   2   2.0000     -14.388507      -391.5312
   3   2.0000     -10.407985      -283.2157
   4   2.0000     -10.274371      -279.5799
   5   2.0000     -10.206771      -277.7403
   6   2.0000      -1.317572       -35.8529
   7   2.0000      -1.207988       -32.8710
   8   2.0000      -1.192897       -32.4604
   9   2.0000      -1.040899       -28.3243
  10   2.0000      -0.947969       -25.7956
  11   2.0000      -0.911270       -24.7969
  12   2.0000      -0.895475       -24.3671
  13   2.0000      -0.844767       -22.9873
  14   2.0000      -0.798477       -21.7277
  15   2.0000      -0.794225       -21.6120
  16   2.0000      -0.745289       -20.2803
  17   2.0000      -0.740138       -20.1402
  18   2.0000      -0.711031       -19.3481
  19   2.0000      -0.665287       -18.1034
  20   2.0000      -0.633989       -17.2517
  21   2.0000      -0.613861       -16.7040
  22   2.0000      -0.580499       -15.7962
  23   2.0000      -0.549141       -14.9429
  24   0.0000      -0.110775        -3.0143
  25   0.0000      -0.095580        -2.6009
  26   0.0000      -0.074902        -2.0382
  27   0.0000      -0.065769        -1.7897
  28   0.0000      -0.042349        -1.1524

MULLIKEN ATOMIC CHARGES
-----------------------
   0 C :   -0.818509
   1 N :   -0.171609
   2 C :   -1.115772
   3 C :    0.596535
   4 N :   -0.291591
   5 N :   -0.395374
   6 H :    0.231075
   7 H :    0.242324
   8 H :    0.202551
   9 H :    0.244199
  10 H :    0.218066
  11 H :    0.469757
  12 H :    0.408472
  13 H :    0.409300
  14 H :    0.378750
  15 H :    0.391827
Sum of atomic charges:    1.0000000

LOEWDIN ATOMIC CHARGES
----------------------
   0 C :   -0.218412
   1 N :    0.091313
   2 C :   -0.073675
   3 C :   -0.445628
   4 N :    0.233302
   5 N :    0.199642
   6 H :    0.134105
   7 H :    0.128348
   8 H :    0.165132
   9 H :    0.133069
  10 H :    0.146111
  11 H :    0.124663
  12 H :    0.137175
  13 H :    0.090064
  14 H :    0.070831
  15 H :    0.083960

  Mayer bond orders larger than 0.100000
B(  0-C ,  1-N ) :   0.7559 B(  0-C ,  2-C ) :   0.4641 B(  0-C ,  3-C ) :  -0.1293
B(  0-C ,  4-N ) :   0.1056 B(  0-C , 11-H ) :   0.8357 B(  0-C , 12-H ) :   0.8743
B(  1-N ,  3-C ) :   1.2315 B(  1-N ,  8-H ) :   1.0164 B(  2-C , 13-H ) :   0.9428
B(  2-C , 14-H ) :   0.8758 B(  2-C , 15-H ) :   0.9263 B(  3-C ,  4-N ) :   1.1907
B(  3-C ,  5-N ) :   1.0548 B(  4-N ,  9-H ) :   0.9288 B(  4-N , 10-H ) :   0.9876
B(  5-N ,  6-H ) :   0.9500 B(  5-N ,  7-H ) :   0.9734

FINAL SINGLE POINT ENERGY      -283.779800576377

DIPOLE MOMENT
-------------
                                X             Y             Z
Electronic contribution:      1.74607       1.09279       4.71901
Nuclear contribution   :     -1.95709      -1.20097      -3.70214
                        -----------------------------------------
Total Dipole Moment    :     -0.21102      -0.10818       1.01688
                        -----------------------------------------
Magnitude (a.u.)       :      1.04416
Magnitude (Debye)      :      2.65404

Rotational constants in cm-1:     0.241661     0.071598     0.061743
Rotational constants in MHz :  7244.800091  2146.442409  1851.001864

                             ****ORCA TERMINATED NORMALLY****
TOTAL RUN TIME: 0 days 0 hours 1 minutes 1 seconds 483 msec
