                         Program Version 5.0.0 -  RELEASE  -
|  1> !LC-BLYP RIJCOSX def2-TZVPD def2/J TightSCF xyzfile
|  2>
|  3> *xyzfile 0 1 B.xyz
|  4>
|  5> %MaxCore 64000
|  6>
|  7> %pal nprocs 4
|  8> end
|  9>
| 10> %scf
| 11>   MaxIter 150
| 12> end
| 13>
| 14>
| 15>                          ****END OF INPUT****

CARTESIAN COORDINATES (ANGSTROEM)
---------------------------------
  C      4.999862   -1.596133   -5.924876
  N      5.281560   -1.974132   -4.535764
  C      3.766779   -2.266110   -6.511752
  C      2.496702   -1.844161   -5.735704
  H      1.626416   -2.217434   -6.308950
  H      2.481824   -2.456069   -4.793414
  O      2.459729   -0.509204   -5.505757
  C      4.792500   -1.361316   -3.457295
  N      3.939898   -0.374925   -3.557359
  N      5.259860   -1.754224   -2.239133
  H      5.922824   -2.521451   -2.186720
  H      4.654678   -1.640404   -1.442016
  H      5.709139   -2.875599   -4.387021
  H      3.330101   -0.317639   -4.361247
  H      3.698494    0.114468   -2.708333
  H      4.843333   -0.517930   -5.943019
  H      5.901695   -1.822503   -6.496467
  H      3.886191   -3.357076   -6.533604
  H      3.685602   -1.922168   -7.547128

 Total Charge           Charge          ....    0
 Multiplicity           Mult            ....    1
 Number of Electrons    NEL             ....   64
 Basis Dimension        Dim             ....  398

ORBITAL ENERGIES
----------------

  NO   OCC          E(Eh)            E(eV)
   0   2.0000     -18.791344      -511.3385
   1   2.0000     -14.235464      -387.3667
   2   2.0000     -14.228035      -387.1645
   3   2.0000     -14.185049      -385.9948
   4   2.0000     -10.232585      -278.4428
   5   2.0000     -10.102144      -274.8933
   6   2.0000     -10.052156      -273.5331
   7   2.0000     -10.037974      -273.1472
   8   2.0000      -1.144934       -31.1552
   9   2.0000      -1.039045       -28.2739
  10   2.0000      -1.020711       -27.7749
  11   2.0000      -0.977483       -26.5987
  12   2.0000      -0.865856       -23.5611
  13   2.0000      -0.784847       -21.3568
  14   2.0000      -0.740781       -20.1577
  15   2.0000      -0.719601       -19.5813
  16   2.0000      -0.692507       -18.8441
  17   2.0000      -0.648930       -17.6583
  18   2.0000      -0.624377       -16.9902
  19   2.0000      -0.610907       -16.6236
  20   2.0000      -0.574627       -15.6364
  21   2.0000      -0.568039       -15.4571
  22   2.0000      -0.541441       -14.7333
  23   2.0000      -0.510836       -13.9006
  24   2.0000      -0.463262       -12.6060
  25   2.0000      -0.443596       -12.0709
  26   2.0000      -0.431950       -11.7540
  27   2.0000      -0.409558       -11.1447
  28   2.0000      -0.396740       -10.7958
  29   2.0000      -0.375441       -10.2163
  30   2.0000      -0.262437        -7.1413
  31   2.0000      -0.258772        -7.0415
  32   0.0000       0.017797         0.4843
  33   0.0000       0.052026         1.4157
  34   0.0000       0.062436         1.6990
  35   0.0000       0.067269         1.8305
  36   0.0000       0.085096         2.3156

MULLIKEN ATOMIC CHARGES
-----------------------
   0 C :   -0.830937
   1 N :   -0.199967
   2 C :   -0.508690
   3 C :   -0.764373
   4 H :    0.453238
   5 H :    0.291253
   6 O :   -0.870973
   7 C :    0.497737
   8 N :   -0.248486
   9 N :   -0.437718
  10 H :    0.194595
  11 H :    0.211953
  12 H :    0.182167
  13 H :    0.288443
  14 H :    0.159679
  15 H :    0.442201
  16 H :    0.415193
  17 H :    0.372028
  18 H :    0.352657
Sum of atomic charges:   -0.0000000

LOEWDIN ATOMIC CHARGES
----------------------
   0 C :   -0.192829
   1 N :    0.085308
   2 C :   -0.198610
   3 C :   -0.473085
   4 H :    0.102734
   5 H :    0.098315
   6 O :   -0.284870
   7 C :   -0.468572
   8 N :    0.223821
   9 N :    0.160204
  10 H :    0.111791
  11 H :    0.110871
  12 H :    0.149815
  13 H :   -0.025321
  14 H :    0.131664
  15 H :    0.125288
  16 H :    0.121255
  17 H :    0.107604
  18 H :    0.114617

  Mayer bond orders larger than 0.100000
B(  0-C ,  1-N ) :   0.7447 B(  0-C ,  2-C ) :   0.6657 B(  0-C ,  7-C ) :  -0.1025
B(  0-C , 15-H ) :   0.8594 B(  0-C , 16-H ) :   0.8444 B(  1-N ,  7-C ) :   1.2016
B(  1-N , 12-H ) :   1.0172 B(  2-C ,  3-C ) :   0.6963 B(  2-C , 17-H ) :   0.9458
B(  2-C , 18-H ) :   0.9188 B(  3-C ,  4-H ) :   0.8768 B(  3-C ,  5-H ) :   1.0081
B(  3-C ,  6-O ) :   1.0613 B(  6-O ,  8-N ) :  -0.1184 B(  6-O , 13-H ) :   0.2447
B(  7-C ,  8-N ) :   1.2963 B(  7-C ,  9-N ) :   0.9494 B(  8-N , 13-H ) :   0.6959
B(  8-N , 14-H ) :   1.0426 B(  9-N , 10-H ) :   0.9831 B(  9-N , 11-H ) :   0.9944

FINAL SINGLE POINT ENERGY      -397.701840665450

DIPOLE MOMENT
-------------
                                X             Y             Z
Electronic contribution:      1.92168       1.90898       3.68821
Nuclear contribution   :      0.51577      -3.31768      -1.36804
                        -----------------------------------------
Total Dipole Moment    :      2.43745      -1.40870       2.32018
                        -----------------------------------------
Magnitude (a.u.)       :      3.64812
Magnitude (Debye)      :      9.27280

Rotational constants in cm-1:     0.111492     0.050787     0.040163
Rotational constants in MHz :  3342.457536  1522.560798  1204.057148

                             ****ORCA TERMINATED NORMALLY****
TOTAL RUN TIME: 0 days 0 hours 1 minutes 59 seconds 844 msec
