                         Program Version 5.0.0 -  RELEASE  -
|  1> !LC-BLYP RIJCOSX def2-TZVPD def2/J TightSCF
|  2> *xyz 0 1
|  3> C          3.76678       -2.26611       -6.51175
|  4> C          2.49670       -1.84416       -5.73570
|  5> H          1.62642       -2.21743       -6.30895
|  6> H          2.48182       -2.45607       -4.79341
|  7> F          2.45973       -0.50920       -5.50576
|  8> H          3.82914       -1.70941       -7.42340
|  9> H          3.71764       -3.31144       -6.73483
| 10> H          4.63199       -2.06931       -5.91377
| 11> *
| 12>
| 13> %MaxCore 64000
| 14>
| 15> %pal nprocs 4
| 16> end
| 17>
| 18> %scf
| 19>   MaxIter 150
| 20> end
| 21>
| 22>
| 23>                          ****END OF INPUT****

CARTESIAN COORDINATES (ANGSTROEM)
---------------------------------
  C      3.766780   -2.266110   -6.511750
  C      2.496700   -1.844160   -5.735700
  H      1.626420   -2.217430   -6.308950
  H      2.481820   -2.456070   -4.793410
  F      2.459730   -0.509200   -5.505760
  H      3.829140   -1.709410   -7.423400
  H      3.717640   -3.311440   -6.734830
  H      4.631990   -2.069310   -5.913770

 Total Charge           Charge          ....    0
 Multiplicity           Mult            ....    1
 Number of Electrons    NEL             ....   26
 Basis Dimension        Dim             ....  159

ORBITAL ENERGIES
----------------

  NO   OCC          E(Eh)            E(eV)
   0   2.0000     -24.445223      -665.1883
   1   2.0000     -10.148855      -276.1644
   2   2.0000     -10.062670      -273.8192
   3   2.0000      -1.286771       -35.0148
   4   2.0000      -0.872181       -23.7333
   5   2.0000      -0.740327       -20.1453
   6   2.0000      -0.617887       -16.8136
   7   2.0000      -0.604638       -16.4530
   8   2.0000      -0.565546       -15.3893
   9   2.0000      -0.507591       -13.8123
  10   2.0000      -0.502145       -13.6640
  11   2.0000      -0.433652       -11.8003
  12   2.0000      -0.427559       -11.6345
  13   0.0000       0.055617         1.5134
  14   0.0000       0.078820         2.1448
  15   0.0000       0.100041         2.7223
  16   0.0000       0.103338         2.8120
  17   0.0000       0.132610         3.6085

MULLIKEN ATOMIC CHARGES
-----------------------
   0 C :   -1.162904
   1 C :   -0.300400
   2 H :    0.316781
   3 H :    0.307893
   4 F :   -0.269329
   5 H :    0.364033
   6 H :    0.392045
   7 H :    0.351881
Sum of atomic charges:   -0.0000000

LOEWDIN ATOMIC CHARGES
----------------------
   0 C :   -0.096732
   1 C :   -0.328088
   2 H :    0.114836
   3 H :    0.122872
   4 F :   -0.019769
   5 H :    0.068843
   6 H :    0.070177
   7 H :    0.067861

  Mayer bond orders larger than 0.100000
B(  0-C ,  1-C ) :   0.6512 B(  0-C ,  5-H ) :   0.9070 B(  0-C ,  6-H ) :   0.8984
B(  0-C ,  7-H ) :   0.9188 B(  1-C ,  2-H ) :   0.9435 B(  1-C ,  3-H ) :   0.9427
B(  1-C ,  4-F ) :   0.8404

FINAL SINGLE POINT ENERGY      -178.740440625713

DIPOLE MOMENT
-------------
                                X             Y             Z
Electronic contribution:     -2.07798       4.31481       1.80837
Nuclear contribution   :      2.16248      -5.01128      -1.96962
                        -----------------------------------------
Total Dipole Moment    :      0.08450      -0.69647      -0.16125
                        -----------------------------------------
Magnitude (a.u.)       :      0.71987
Magnitude (Debye)      :      1.82977

Rotational constants in cm-1:     1.244010     0.306580     0.270375
Rotational constants in MHz : 37294.476802  9191.037795  8105.639967

                             ****ORCA TERMINATED NORMALLY****
TOTAL RUN TIME: 0 days 0 hours 0 minutes 14 seconds 909 msec
