                         Program Version 5.0.0 -  RELEASE  -
|  1> !LC-BLYP RIJCOSX def2-TZVPD def2/J TightSCF
|  2> *xyz 0 1
|  3> C          4.99986       -1.59613       -5.92488
|  4> C          5.28156       -1.97413       -4.53576
|  5> C          3.76678       -2.26611       -6.51175
|  6> C          4.79250       -1.36132       -3.45730
|  7> N          3.93990       -0.37492       -3.55736
|  8> N          5.25986       -1.75422       -2.23913
|  9> H          5.92282       -2.52145       -2.18672
| 10> H          4.65468       -1.64040       -1.44202
| 11> H          5.70914       -2.87560       -4.38702
| 12> H          3.33010       -0.31764       -4.36125
| 13> H          3.69849        0.11447       -2.70833
| 14> H          4.84333       -0.51793       -5.94302
| 15> H          5.90170       -1.82250       -6.49647
| 16> H          3.63046       -1.94025       -7.52177
| 17> H          2.90710       -2.00116       -5.93240
| 18> H          3.89538       -3.32820       -6.49392
| 19> *
| 20>
| 21> %MaxCore 64000
| 22>
| 23> %pal nprocs 4
| 24> end
| 25>
| 26> %scf
| 27>   MaxIter 150
| 28> end
| 29>
| 30>
| 31>                          ****END OF INPUT****

CARTESIAN COORDINATES (ANGSTROEM)
---------------------------------
  C      4.999860   -1.596130   -5.924880
  C      5.281560   -1.974130   -4.535760
  C      3.766780   -2.266110   -6.511750
  C      4.792500   -1.361320   -3.457300
  N      3.939900   -0.374920   -3.557360
  N      5.259860   -1.754220   -2.239130
  H      5.922820   -2.521450   -2.186720
  H      4.654680   -1.640400   -1.442020
  H      5.709140   -2.875600   -4.387020
  H      3.330100   -0.317640   -4.361250
  H      3.698490    0.114470   -2.708330
  H      4.843330   -0.517930   -5.943020
  H      5.901700   -1.822500   -6.496470
  H      3.630460   -1.940250   -7.521770
  H      2.907100   -2.001160   -5.932400
  H      3.895380   -3.328200   -6.493920

 Total Charge           Charge          ....    0
 Multiplicity           Mult            ....    1
 Number of Electrons    NEL             ....   48
 Basis Dimension        Dim             ....  312

ORBITAL ENERGIES
----------------

  NO   OCC          E(Eh)            E(eV)
   0   2.0000     -14.174846      -385.7172
   1   2.0000     -14.166544      -385.4913
   2   2.0000     -10.113975      -275.2153
   3   2.0000     -10.041164      -273.2340
   4   2.0000     -10.035873      -273.0900
   5   2.0000      -9.993816      -271.9456
   6   2.0000      -1.065049       -28.9815
   7   2.0000      -0.972735       -26.4695
   8   2.0000      -0.883199       -24.0331
   9   2.0000      -0.802851       -21.8467
  10   2.0000      -0.722595       -19.6628
  11   2.0000      -0.684834       -18.6353
  12   2.0000      -0.651858       -17.7380
  13   2.0000      -0.609360       -16.5815
  14   2.0000      -0.579490       -15.7687
  15   2.0000      -0.548366       -14.9218
  16   2.0000      -0.520174       -14.1547
  17   2.0000      -0.502554       -13.6752
  18   2.0000      -0.486279       -13.2323
  19   2.0000      -0.454373       -12.3641
  20   2.0000      -0.425153       -11.5690
  21   2.0000      -0.417065       -11.3489
  22   2.0000      -0.366913        -9.9842
  23   2.0000      -0.257078        -6.9954
  24   0.0000       0.046730         1.2716
  25   0.0000       0.071797         1.9537
  26   0.0000       0.078226         2.1286
  27   0.0000       0.088349         2.4041
  28   0.0000       0.102286         2.7833

MULLIKEN ATOMIC CHARGES
-----------------------
   0 C :   -1.057413
   1 C :   -0.360522
   2 C :   -1.109762
   3 C :    0.478167
   4 N :   -0.329406
   5 N :   -0.468090
   6 H :    0.184832
   7 H :    0.179680
   8 H :    0.254964
   9 H :    0.186731
  10 H :    0.171528
  11 H :    0.421947
  12 H :    0.355183
  13 H :    0.352670
  14 H :    0.367303
  15 H :    0.372188
Sum of atomic charges:   -0.0000000

LOEWDIN ATOMIC CHARGES
----------------------
   0 C :   -0.297907
   1 C :   -0.144561
   2 C :   -0.121568
   3 C :   -0.558728
   4 N :    0.140445
   5 N :    0.105109
   6 H :    0.103066
   7 H :    0.085539
   8 H :    0.066702
   9 H :    0.105198
  10 H :    0.106184
  11 H :    0.102723
  12 H :    0.109119
  13 H :    0.064921
  14 H :    0.062267
  15 H :    0.071490

  Mayer bond orders larger than 0.100000
B(  0-C ,  1-C ) :   0.3856 B(  0-C ,  2-C ) :   0.3807 B(  0-C ,  3-C ) :   0.1441
B(  0-C , 11-H ) :   0.9242 B(  0-C , 12-H ) :   1.0401 B(  1-C ,  2-C ) :  -0.1478
B(  1-C ,  3-C ) :   1.2334 B(  1-C ,  4-N ) :   0.1183 B(  1-C ,  5-N ) :   0.1035
B(  1-C ,  8-H ) :   1.1873 B(  1-C , 12-H ) :  -0.1041 B(  2-C , 13-H ) :   0.9594
B(  2-C , 14-H ) :   0.9137 B(  2-C , 15-H ) :   0.9632 B(  3-C ,  4-N ) :   0.9265
B(  3-C ,  5-N ) :   0.8664 B(  3-C ,  8-H ) :  -0.2168 B(  4-N ,  9-H ) :   0.9788
B(  4-N , 10-H ) :   1.0285 B(  5-N ,  6-H ) :   0.9890 B(  5-N ,  7-H ) :   1.0416

FINAL SINGLE POINT ENERGY      -267.302924335548

DIPOLE MOMENT
-------------
                                X             Y             Z
Electronic contribution:      1.22419       1.37312       4.47798
Nuclear contribution   :     -1.82485      -1.28952      -3.74132
                        -----------------------------------------
Total Dipole Moment    :     -0.60067       0.08360       0.73666
                        -----------------------------------------
Magnitude (a.u.)       :      0.95418
Magnitude (Debye)      :      2.42533

Rotational constants in cm-1:     0.245790     0.071632     0.062004
Rotational constants in MHz :  7368.599517  2147.482078  1858.844841

                             ****ORCA TERMINATED NORMALLY****
TOTAL RUN TIME: 0 days 0 hours 1 minutes 7 seconds 957 msec
