                         Program Version 5.0.0 -  RELEASE  -
|  1> !LC-BLYP RIJCOSX def2-TZVPD def2/J TightSCF
|  2> *xyz 0 1
|  3> C          4.99986       -1.59613       -5.92488
|  4> N          5.28156       -1.97413       -4.53576
|  5> C          3.76678       -2.26611       -6.51175
|  6> C          4.79250       -1.36132       -3.45730
|  7> C          3.93990       -0.37492       -3.55736
|  8> N          5.25986       -1.75422       -2.23913
|  9> H          5.92282       -2.52145       -2.18672
| 10> H          4.65468       -1.64040       -1.44202
| 11> H          5.70914       -2.87560       -4.38702
| 12> H          3.33010       -0.31764       -4.36125
| 13> H          3.69849        0.11447       -2.70833
| 14> H          4.84333       -0.51793       -5.94302
| 15> H          5.90170       -1.82250       -6.49647
| 16> H          3.63046       -1.94025       -7.52177
| 17> H          2.90710       -2.00116       -5.93240
| 18> H          3.89538       -3.32820       -6.49392
| 19> *
| 20>
| 21> %MaxCore 64000
| 22>
| 23> %pal nprocs 4
| 24> end
| 25>
| 26> %scf
| 27>   MaxIter 150
| 28> end
| 29>
| 30>
| 31>                          ****END OF INPUT****

CARTESIAN COORDINATES (ANGSTROEM)
---------------------------------
  C      4.999860   -1.596130   -5.924880
  N      5.281560   -1.974130   -4.535760
  C      3.766780   -2.266110   -6.511750
  C      4.792500   -1.361320   -3.457300
  C      3.939900   -0.374920   -3.557360
  N      5.259860   -1.754220   -2.239130
  H      5.922820   -2.521450   -2.186720
  H      4.654680   -1.640400   -1.442020
  H      5.709140   -2.875600   -4.387020
  H      3.330100   -0.317640   -4.361250
  H      3.698490    0.114470   -2.708330
  H      4.843330   -0.517930   -5.943020
  H      5.901700   -1.822500   -6.496470
  H      3.630460   -1.940250   -7.521770
  H      2.907100   -2.001160   -5.932400
  H      3.895380   -3.328200   -6.493920

 Total Charge           Charge          ....    0
 Multiplicity           Mult            ....    1
 Number of Electrons    NEL             ....   48
 Basis Dimension        Dim             ....  312

ORBITAL ENERGIES
----------------

  NO   OCC          E(Eh)            E(eV)
   0   2.0000     -14.172127      -385.6432
   1   2.0000     -14.167807      -385.5256
   2   2.0000     -10.116188      -275.2755
   3   2.0000     -10.099154      -274.8119
   4   2.0000     -10.052048      -273.5301
   5   2.0000      -9.982961      -271.6502
   6   2.0000      -1.064910       -28.9777
   7   2.0000      -0.981912       -26.7192
   8   2.0000      -0.864824       -23.5331
   9   2.0000      -0.824970       -22.4486
  10   2.0000      -0.745989       -20.2994
  11   2.0000      -0.670261       -18.2387
  12   2.0000      -0.649716       -17.6797
  13   2.0000      -0.616250       -16.7690
  14   2.0000      -0.560116       -15.2415
  15   2.0000      -0.551296       -15.0015
  16   2.0000      -0.532976       -14.5030
  17   2.0000      -0.500819       -13.6280
  18   2.0000      -0.485993       -13.2245
  19   2.0000      -0.471349       -12.8261
  20   2.0000      -0.455711       -12.4005
  21   2.0000      -0.446396       -12.1471
  22   2.0000      -0.349565        -9.5121
  23   2.0000      -0.269845        -7.3429
  24   0.0000       0.048394         1.3169
  25   0.0000       0.069161         1.8820
  26   0.0000       0.076629         2.0852
  27   0.0000       0.082035         2.2323
  28   0.0000       0.104592         2.8461

MULLIKEN ATOMIC CHARGES
-----------------------
   0 C :   -0.845346
   1 N :   -0.244362
   2 C :   -1.129243
   3 C :    0.595238
   4 C :   -1.101265
   5 N :   -0.421484
   6 H :    0.181998
   7 H :    0.205261
   8 H :    0.159287
   9 H :    0.275678
  10 H :    0.336709
  11 H :    0.485002
  12 H :    0.388964
  13 H :    0.394043
  14 H :    0.356542
  15 H :    0.362979
Sum of atomic charges:    0.0000000

LOEWDIN ATOMIC CHARGES
----------------------
   0 C :   -0.254987
   1 N :    0.015362
   2 C :   -0.099795
   3 C :   -0.567183
   4 C :   -0.000367
   5 N :    0.111958
   6 H :    0.093348
   7 H :    0.097945
   8 H :    0.133223
   9 H :    0.013077
  10 H :    0.019979
  11 H :    0.113877
  12 H :    0.116537
  13 H :    0.071106
  14 H :    0.066960
  15 H :    0.068962

  Mayer bond orders larger than 0.100000
B(  0-C ,  1-N ) :   0.7629 B(  0-C ,  2-C ) :   0.4444 B(  0-C ,  4-C ) :   0.2434
B(  0-C , 11-H ) :   0.8672 B(  0-C , 12-H ) :   0.8685 B(  1-N ,  3-C ) :   0.9755
B(  1-N ,  4-C ) :   0.1012 B(  1-N ,  8-H ) :   1.0582 B(  2-C , 13-H ) :   0.9391
B(  2-C , 14-H ) :   0.9312 B(  2-C , 15-H ) :   0.9305 B(  3-C ,  4-C ) :   1.1986
B(  3-C ,  5-N ) :   0.8750 B(  4-C ,  9-H ) :   0.9940 B(  4-C , 10-H ) :   1.0408
B(  5-N ,  6-H ) :   1.0056 B(  5-N ,  7-H ) :   0.9893

FINAL SINGLE POINT ENERGY      -267.296739406605

DIPOLE MOMENT
-------------
                                X             Y             Z
Electronic contribution:      2.39332      -0.08444       3.47636
Nuclear contribution   :     -2.10948      -0.95026      -3.53375
                        -----------------------------------------
Total Dipole Moment    :      0.28385      -1.03470      -0.05739
                        -----------------------------------------
Magnitude (a.u.)       :      1.07446
Magnitude (Debye)      :      2.73107

Rotational constants in cm-1:     0.255209     0.072067     0.062929
Rotational constants in MHz :  7650.964615  2160.525743  1886.569524

                             ****ORCA TERMINATED NORMALLY****
TOTAL RUN TIME: 0 days 0 hours 1 minutes 7 seconds 588 msec
