                         Program Version 5.0.0 -  RELEASE  -
|  1> !LC-BLYP RIJCOSX def2-TZVPD def2/J TightSCF
|  2> *xyz 0 1
|  3> C          4.99986       -1.59613       -5.92488
|  4> N          5.28156       -1.97413       -4.53576
|  5> C          3.76678       -2.26611       -6.51175
|  6> C          4.79250       -1.36132       -3.45730
|  7> N          3.93990       -0.37492       -3.55736
|  8> C          5.25986       -1.75422       -2.23913
|  9> H          5.92282       -2.52145       -2.18672
| 10> H          4.65468       -1.64040       -1.44202
| 11> H          5.70914       -2.87560       -4.38702
| 12> H          3.33010       -0.31764       -4.36125
| 13> H          3.69849        0.11447       -2.70833
| 14> H          4.84333       -0.51793       -5.94302
| 15> H          5.90170       -1.82250       -6.49647
| 16> H          3.63046       -1.94025       -7.52177
| 17> H          2.90710       -2.00116       -5.93240
| 18> H          3.89538       -3.32820       -6.49392
| 19> *
| 20>
| 21> %MaxCore 64000
| 22>
| 23> %pal nprocs 4
| 24> end
| 25>
| 26> %scf
| 27>   MaxIter 150
| 28> end
| 29>
| 30>
| 31>                          ****END OF INPUT****

CARTESIAN COORDINATES (ANGSTROEM)
---------------------------------
  C      4.999860   -1.596130   -5.924880
  N      5.281560   -1.974130   -4.535760
  C      3.766780   -2.266110   -6.511750
  C      4.792500   -1.361320   -3.457300
  N      3.939900   -0.374920   -3.557360
  C      5.259860   -1.754220   -2.239130
  H      5.922820   -2.521450   -2.186720
  H      4.654680   -1.640400   -1.442020
  H      5.709140   -2.875600   -4.387020
  H      3.330100   -0.317640   -4.361250
  H      3.698490    0.114470   -2.708330
  H      4.843330   -0.517930   -5.943020
  H      5.901700   -1.822500   -6.496470
  H      3.630460   -1.940250   -7.521770
  H      2.907100   -2.001160   -5.932400
  H      3.895380   -3.328200   -6.493920

 Total Charge           Charge          ....    0
 Multiplicity           Mult            ....    1
 Number of Electrons    NEL             ....   48
 Basis Dimension        Dim             ....  312

ORBITAL ENERGIES
----------------

  NO   OCC          E(Eh)            E(eV)
   0   2.0000     -14.175637      -385.7387
   1   2.0000     -14.172162      -385.6441
   2   2.0000     -10.120926      -275.4044
   3   2.0000     -10.108322      -275.0614
   4   2.0000     -10.063259      -273.8352
   5   2.0000      -9.977666      -271.5061
   6   2.0000      -1.075318       -29.2609
   7   2.0000      -0.992254       -27.0006
   8   2.0000      -0.883133       -24.0313
   9   2.0000      -0.805217       -21.9111
  10   2.0000      -0.737245       -20.0615
  11   2.0000      -0.710679       -19.3386
  12   2.0000      -0.652399       -17.7527
  13   2.0000      -0.605343       -16.4722
  14   2.0000      -0.586620       -15.9627
  15   2.0000      -0.549830       -14.9616
  16   2.0000      -0.537566       -14.6279
  17   2.0000      -0.508402       -13.8343
  18   2.0000      -0.490706       -13.3528
  19   2.0000      -0.467868       -12.7313
  20   2.0000      -0.463132       -12.6025
  21   2.0000      -0.448994       -12.2177
  22   2.0000      -0.356737        -9.7073
  23   2.0000      -0.254949        -6.9375
  24   0.0000       0.045040         1.2256
  25   0.0000       0.072797         1.9809
  26   0.0000       0.073165         1.9909
  27   0.0000       0.078368         2.1325
  28   0.0000       0.105150         2.8613

MULLIKEN ATOMIC CHARGES
-----------------------
   0 C :   -0.830512
   1 N :   -0.228088
   2 C :   -1.107410
   3 C :    0.489294
   4 N :   -0.358307
   5 C :   -1.067465
   6 H :    0.305129
   7 H :    0.291122
   8 H :    0.150606
   9 H :    0.194812
  10 H :    0.187659
  11 H :    0.465404
  12 H :    0.395247
  13 H :    0.398410
  14 H :    0.363638
  15 H :    0.350462
Sum of atomic charges:    0.0000000

LOEWDIN ATOMIC CHARGES
----------------------
   0 C :   -0.256579
   1 N :    0.024897
   2 C :   -0.102326
   3 C :   -0.579892
   4 N :    0.137456
   5 C :   -0.014818
   6 H :    0.002560
   7 H :   -0.003211
   8 H :    0.141698
   9 H :    0.097246
  10 H :    0.116587
  11 H :    0.111559
  12 H :    0.117815
  13 H :    0.070992
  14 H :    0.064085
  15 H :    0.071931

  Mayer bond orders larger than 0.100000
B(  0-C ,  1-N ) :   0.7487 B(  0-C ,  2-C ) :   0.4316 B(  0-C ,  3-C ) :  -0.1505
B(  0-C ,  4-N ) :   0.1409 B(  0-C , 11-H ) :   0.8663 B(  0-C , 12-H ) :   0.8968
B(  1-N ,  3-C ) :   1.0302 B(  1-N ,  5-C ) :   0.1221 B(  1-N ,  8-H ) :   1.0406
B(  2-C , 13-H ) :   0.9412 B(  2-C , 14-H ) :   0.9118 B(  2-C , 15-H ) :   0.9597
B(  3-C ,  4-N ) :   1.0285 B(  3-C ,  5-C ) :   1.0853 B(  3-C ,  7-H ) :  -0.1285
B(  4-N ,  5-C ) :   0.1031 B(  4-N ,  9-H ) :   0.9844 B(  4-N , 10-H ) :   1.0030
B(  5-C ,  6-H ) :   0.9972 B(  5-C ,  7-H ) :   1.0960

FINAL SINGLE POINT ENERGY      -267.289924329690

DIPOLE MOMENT
-------------
                                X             Y             Z
Electronic contribution:      1.13884       1.24498       2.10618
Nuclear contribution   :     -1.82946      -1.24287      -3.25410
                        -----------------------------------------
Total Dipole Moment    :     -0.69061       0.00211      -1.14792
                        -----------------------------------------
Magnitude (a.u.)       :      1.33966
Magnitude (Debye)      :      3.40514

Rotational constants in cm-1:     0.244672     0.074506     0.064043
Rotational constants in MHz :  7335.067153  2233.624025  1919.970379

                             ****ORCA TERMINATED NORMALLY****
TOTAL RUN TIME: 0 days 0 hours 1 minutes 8 seconds 354 msec
