                         Program Version 5.0.0 -  RELEASE  -
|  1> !LC-BLYP RIJCOSX def2-TZVPD def2/J TightSCF xyzfile
|  2>
|  3> *xyzfile 0 1 D1.xyz
|  4>
|  5> %MaxCore 64000
|  6>
|  7> %pal nprocs 4
|  8> end
|  9>
| 10> %scf
| 11>   MaxIter 150
| 12> end
| 13>
| 14>
| 15>                          ****END OF INPUT****

CARTESIAN COORDINATES (ANGSTROEM)
---------------------------------
  C      4.999862   -1.596133   -5.924876
  C      5.281560   -1.974132   -4.535764
  C      3.766779   -2.266110   -6.511752
  C      2.496702   -1.844161   -5.735704
  H      1.626416   -2.217434   -6.308950
  H      2.481824   -2.456069   -4.793414
  F      2.459729   -0.509204   -5.505757
  C      4.792500   -1.361316   -3.457295
  N      3.939898   -0.374925   -3.557359
  N      5.259860   -1.754224   -2.239133
  H      5.922824   -2.521451   -2.186720
  H      4.654678   -1.640404   -1.442016
  H      5.709139   -2.875599   -4.387021
  H      3.330101   -0.317639   -4.361247
  H      3.698494    0.114468   -2.708333
  H      4.843333   -0.517930   -5.943019
  H      5.901695   -1.822503   -6.496467
  H      3.886191   -3.357076   -6.533604
  H      3.685602   -1.922168   -7.547128

 Total Charge           Charge          ....    0
 Multiplicity           Mult            ....    1
 Number of Electrons    NEL             ....   64
 Basis Dimension        Dim             ....  398

ORBITAL ENERGIES
----------------

  NO   OCC          E(Eh)            E(eV)
   0   2.0000     -24.476856      -666.0491
   1   2.0000     -14.161332      -385.3494
   2   2.0000     -14.146732      -384.9522
   3   2.0000     -10.151798      -276.2445
   4   2.0000     -10.108242      -275.0592
   5   2.0000     -10.064468      -273.8681
   6   2.0000     -10.043465      -273.2966
   7   2.0000      -9.989438      -271.8264
   8   2.0000      -1.326651       -36.1000
   9   2.0000      -1.053786       -28.6750
  10   2.0000      -0.962725       -26.1971
  11   2.0000      -0.905420       -24.6377
  12   2.0000      -0.832638       -22.6572
  13   2.0000      -0.780330       -21.2338
  14   2.0000      -0.708290       -19.2735
  15   2.0000      -0.696405       -18.9501
  16   2.0000      -0.651230       -17.7209
  17   2.0000      -0.633861       -17.2482
  18   2.0000      -0.620823       -16.8935
  19   2.0000      -0.602408       -16.3924
  20   2.0000      -0.594057       -16.1651
  21   2.0000      -0.557365       -15.1667
  22   2.0000      -0.526681       -14.3317
  23   2.0000      -0.510621       -13.8947
  24   2.0000      -0.498435       -13.5631
  25   2.0000      -0.473421       -12.8824
  26   2.0000      -0.453616       -12.3435
  27   2.0000      -0.435288       -11.8448
  28   2.0000      -0.423065       -11.5122
  29   2.0000      -0.413340       -11.2475
  30   2.0000      -0.355198        -9.6654
  31   2.0000      -0.252970        -6.8837
  32   0.0000       0.050131         1.3641
  33   0.0000       0.065262         1.7759
  34   0.0000       0.073981         2.0131
  35   0.0000       0.077370         2.1053
  36   0.0000       0.093539         2.5453

MULLIKEN ATOMIC CHARGES
-----------------------
   0 C :   -0.996166
   1 C :   -0.606442
   2 C :   -0.579059
   3 C :   -0.562690
   4 H :    0.424775
   5 H :    0.352115
   6 F :   -0.367922
   7 C :    0.609908
   8 N :   -0.349117
   9 N :   -0.493057
  10 H :    0.180555
  11 H :    0.176408
  12 H :    0.238249
  13 H :    0.297886
  14 H :    0.126443
  15 H :    0.396724
  16 H :    0.384128
  17 H :    0.406825
  18 H :    0.360439
Sum of atomic charges:    0.0000000

LOEWDIN ATOMIC CHARGES
----------------------
   0 C :   -0.244590
   1 C :   -0.137900
   2 C :   -0.187344
   3 C :   -0.242899
   4 H :    0.125980
   5 H :    0.137373
   6 F :   -0.010540
   7 C :   -0.554162
   8 N :    0.155112
   9 N :    0.108205
  10 H :    0.101150
  11 H :    0.085329
  12 H :    0.066107
  13 H :    0.023499
  14 H :    0.110380
  15 H :    0.113625
  16 H :    0.115117
  17 H :    0.125085
  18 H :    0.110471

  Mayer bond orders larger than 0.100000
B(  0-C ,  1-C ) :   0.3763 B(  0-C ,  2-C ) :   0.5537 B(  0-C ,  7-C ) :   0.1014
B(  0-C , 15-H ) :   0.9469 B(  0-C , 16-H ) :   1.0232 B(  1-C ,  2-C ) :  -0.1151
B(  1-C ,  7-C ) :   1.2694 B(  1-C ,  8-N ) :   0.1668 B(  1-C , 12-H ) :   1.2545
B(  1-C , 15-H ) :  -0.1215 B(  2-C ,  3-C ) :   0.7709 B(  2-C , 17-H ) :   0.9146
B(  2-C , 18-H ) :   0.9039 B(  3-C ,  4-H ) :   0.8681 B(  3-C ,  5-H ) :   0.9505
B(  3-C ,  6-F ) :   0.7851 B(  7-C ,  8-N ) :   0.8842 B(  7-C ,  9-N ) :   0.8286
B(  7-C , 12-H ) :  -0.2381 B(  8-N , 13-H ) :   0.8561 B(  8-N , 14-H ) :   1.0747
B(  9-N , 10-H ) :   0.9954 B(  9-N , 11-H ) :   1.0438

FINAL SINGLE POINT ENERGY      -405.656152442666

DIPOLE MOMENT
-------------
                                X             Y             Z
Electronic contribution:     -3.33968       3.95944       0.75549
Nuclear contribution   :      2.63975      -4.51113      -0.34926
                        -----------------------------------------
Total Dipole Moment    :     -0.69994      -0.55169       0.40623
                        -----------------------------------------
Magnitude (a.u.)       :      0.97944
Magnitude (Debye)      :      2.48953

Rotational constants in cm-1:     0.109429     0.049838     0.039337
Rotational constants in MHz :  3280.611039  1494.113088  1179.280063

                             ****ORCA TERMINATED NORMALLY****
TOTAL RUN TIME: 0 days 0 hours 1 minutes 52 seconds 922 msec
