                         Program Version 5.0.0 -  RELEASE  -
|  1> !LC-BLYP RIJCOSX def2-TZVPD def2/J TightSCF xyzfile
|  2>
|  3> *xyzfile 0 1 D2.xyz
|  4>
|  5> %MaxCore 64000
|  6>
|  7> %pal nprocs 4
|  8> end
|  9>
| 10> %scf
| 11>   MaxIter 150
| 12> end
| 13>
| 14>
| 15>                          ****END OF INPUT****

CARTESIAN COORDINATES (ANGSTROEM)
---------------------------------
  C      4.999862   -1.596133   -5.924876
  N      5.281560   -1.974132   -4.535764
  C      3.766779   -2.266110   -6.511752
  C      2.496702   -1.844161   -5.735704
  H      1.626416   -2.217434   -6.308950
  H      2.481824   -2.456069   -4.793414
  F      2.459729   -0.509204   -5.505757
  C      4.792500   -1.361316   -3.457295
  C      3.939898   -0.374925   -3.557359
  N      5.259860   -1.754224   -2.239133
  H      5.922824   -2.521451   -2.186720
  H      4.654678   -1.640404   -1.442016
  H      5.709139   -2.875599   -4.387021
  H      3.330101   -0.317639   -4.361247
  H      3.698494    0.114468   -2.708333
  H      4.843333   -0.517930   -5.943019
  H      5.901695   -1.822503   -6.496467
  H      3.886191   -3.357076   -6.533604
  H      3.685602   -1.922168   -7.547128

 Total Charge           Charge          ....    0
 Multiplicity           Mult            ....    1
 Number of Electrons    NEL             ....   64
 Basis Dimension        Dim             ....  398

ORBITAL ENERGIES
----------------

  NO   OCC          E(Eh)            E(eV)
   0   2.0000     -24.454435      -665.4390
   1   2.0000     -14.169288      -385.5659
   2   2.0000     -14.159872      -385.3097
   3   2.0000     -10.150946      -276.2213
   4   2.0000     -10.104523      -274.9580
   5   2.0000     -10.101867      -274.8858
   6   2.0000     -10.079536      -274.2781
   7   2.0000      -9.957292      -270.9517
   8   2.0000      -1.306937       -35.5636
   9   2.0000      -1.060158       -28.8484
  10   2.0000      -0.978465       -26.6254
  11   2.0000      -0.893642       -24.3172
  12   2.0000      -0.819162       -22.2905
  13   2.0000      -0.802435       -21.8354
  14   2.0000      -0.721555       -19.6345
  15   2.0000      -0.675733       -18.3876
  16   2.0000      -0.656606       -17.8672
  17   2.0000      -0.623161       -16.9571
  18   2.0000      -0.621112       -16.9013
  19   2.0000      -0.602448       -16.3934
  20   2.0000      -0.588297       -16.0084
  21   2.0000      -0.560095       -15.2409
  22   2.0000      -0.531414       -14.4605
  23   2.0000      -0.510127       -13.8813
  24   2.0000      -0.489260       -13.3135
  25   2.0000      -0.480648       -13.0791
  26   2.0000      -0.459208       -12.4957
  27   2.0000      -0.446234       -12.1426
  28   2.0000      -0.433745       -11.8028
  29   2.0000      -0.402868       -10.9626
  30   2.0000      -0.346082        -9.4174
  31   2.0000      -0.258505        -7.0343
  32   0.0000       0.044753         1.2178
  33   0.0000       0.064505         1.7553
  34   0.0000       0.070249         1.9116
  35   0.0000       0.075913         2.0657
  36   0.0000       0.092796         2.5251

MULLIKEN ATOMIC CHARGES
-----------------------
   0 C :   -0.943500
   1 N :   -0.243556
   2 C :   -0.525198
   3 C :   -0.584236
   4 H :    0.426585
   5 H :    0.368530
   6 F :   -0.300344
   7 C :    0.678523
   8 C :   -1.234935
   9 N :   -0.456769
  10 H :    0.175232
  11 H :    0.198407
  12 H :    0.141605
  13 H :    0.308125
  14 H :    0.356210
  15 H :    0.468150
  16 H :    0.416166
  17 H :    0.384419
  18 H :    0.366587
Sum of atomic charges:   -0.0000000

LOEWDIN ATOMIC CHARGES
----------------------
   0 C :   -0.200668
   1 N :    0.027065
   2 C :   -0.171620
   3 C :   -0.246988
   4 H :    0.125695
   5 H :    0.136573
   6 F :   -0.028930
   7 C :   -0.562460
   8 C :    0.017669
   9 N :    0.109454
  10 H :    0.089635
  11 H :    0.096252
  12 H :    0.132973
  13 H :   -0.039981
  14 H :    0.031136
  15 H :    0.125464
  16 H :    0.122517
  17 H :    0.121271
  18 H :    0.114941

  Mayer bond orders larger than 0.100000
B(  0-C ,  1-N ) :   0.7802 B(  0-C ,  2-C ) :   0.6027 B(  0-C ,  8-C ) :   0.1059
B(  0-C , 15-H ) :   0.8559 B(  0-C , 16-H ) :   0.8873 B(  1-N ,  7-C ) :   0.8934
B(  1-N , 12-H ) :   1.0727 B(  2-C ,  3-C ) :   0.7687 B(  2-C , 17-H ) :   0.9154
B(  2-C , 18-H ) :   0.9404 B(  3-C ,  4-H ) :   0.8644 B(  3-C ,  5-H ) :   0.9406
B(  3-C ,  6-F ) :   0.8243 B(  6-F , 13-H ) :  -0.2743 B(  7-C ,  8-C ) :   1.0798
B(  7-C ,  9-N ) :   0.8063 B(  7-C , 13-H ) :  -0.1605 B(  8-C , 13-H ) :   1.1606
B(  8-C , 14-H ) :   1.0839 B(  9-N , 10-H ) :   1.0141 B(  9-N , 11-H ) :   0.9961

FINAL SINGLE POINT ENERGY      -405.625694148186

DIPOLE MOMENT
-------------
                                X             Y             Z
Electronic contribution:     -2.28730       2.68563      -0.17070
Nuclear contribution   :      2.43398      -4.26587      -0.19921
                        -----------------------------------------
Total Dipole Moment    :      0.14669      -1.58024      -0.36991
                        -----------------------------------------
Magnitude (a.u.)       :      1.62957
Magnitude (Debye)      :      4.14205

Rotational constants in cm-1:     0.110089     0.049944     0.039407
Rotational constants in MHz :  3300.378855  1497.273856  1181.385913

                             ****ORCA TERMINATED NORMALLY****
TOTAL RUN TIME: 0 days 0 hours 1 minutes 56 seconds 852 msec
