                         Program Version 5.0.0 -  RELEASE  -
|  1> !LC-BLYP RIJCOSX def2-TZVPD def2/J TightSCF xyzfile
|  2>
|  3> *xyzfile 0 1 D3.xyz
|  4>
|  5> %MaxCore 64000
|  6>
|  7> %pal nprocs 4
|  8> end
|  9>
| 10> %scf
| 11>   MaxIter 150
| 12> end
| 13>
| 14>
| 15>                          ****END OF INPUT****

CARTESIAN COORDINATES (ANGSTROEM)
---------------------------------
  C      4.999862   -1.596133   -5.924876
  N      5.281560   -1.974132   -4.535764
  C      3.766779   -2.266110   -6.511752
  C      2.496702   -1.844161   -5.735704
  H      1.626416   -2.217434   -6.308950
  H      2.481824   -2.456069   -4.793414
  F      2.459729   -0.509204   -5.505757
  C      4.792500   -1.361316   -3.457295
  N      3.939898   -0.374925   -3.557359
  C      5.259860   -1.754224   -2.239133
  H      5.922824   -2.521451   -2.186720
  H      4.654678   -1.640404   -1.442016
  H      5.709139   -2.875599   -4.387021
  H      3.330101   -0.317639   -4.361247
  H      3.698494    0.114468   -2.708333
  H      4.843333   -0.517930   -5.943019
  H      5.901695   -1.822503   -6.496467
  H      3.886191   -3.357076   -6.533604
  H      3.685602   -1.922168   -7.547128

 Total Charge           Charge          ....    0
 Multiplicity           Mult            ....    1
 Number of Electrons    NEL             ....   64
 Basis Dimension        Dim             ....  398

ORBITAL ENERGIES
----------------

  NO   OCC          E(Eh)            E(eV)
   0   2.0000     -24.491391      -666.4446
   1   2.0000     -14.170437      -385.5972
   2   2.0000     -14.145604      -384.9215
   3   2.0000     -10.170984      -276.7665
   4   2.0000     -10.111759      -275.1550
   5   2.0000     -10.110844      -275.1301
   6   2.0000     -10.091657      -274.6079
   7   2.0000      -9.968839      -271.2659
   8   2.0000      -1.341577       -36.5062
   9   2.0000      -1.066989       -29.0342
  10   2.0000      -0.984153       -26.7802
  11   2.0000      -0.909612       -24.7518
  12   2.0000      -0.838794       -22.8247
  13   2.0000      -0.779900       -21.2222
  14   2.0000      -0.729053       -19.8385
  15   2.0000      -0.704701       -19.1759
  16   2.0000      -0.683779       -18.6066
  17   2.0000      -0.650947       -17.7132
  18   2.0000      -0.623148       -16.9567
  19   2.0000      -0.610415       -16.6103
  20   2.0000      -0.576979       -15.7004
  21   2.0000      -0.573065       -15.5939
  22   2.0000      -0.542021       -14.7491
  23   2.0000      -0.527181       -14.3453
  24   2.0000      -0.492285       -13.3957
  25   2.0000      -0.480850       -13.0846
  26   2.0000      -0.471808       -12.8385
  27   2.0000      -0.456071       -12.4103
  28   2.0000      -0.443524       -12.0689
  29   2.0000      -0.441725       -12.0200
  30   2.0000      -0.347380        -9.4527
  31   2.0000      -0.246748        -6.7144
  32   0.0000       0.042298         1.1510
  33   0.0000       0.063997         1.7414
  34   0.0000       0.065546         1.7836
  35   0.0000       0.070803         1.9267
  36   0.0000       0.093742         2.5508

MULLIKEN ATOMIC CHARGES
-----------------------
   0 C :   -0.907933
   1 N :   -0.235683
   2 C :   -0.533494
   3 C :   -0.567369
   4 H :    0.420034
   5 H :    0.352619
   6 F :   -0.359758
   7 C :    0.407495
   8 N :   -0.359400
   9 C :   -1.116925
  10 H :    0.329400
  11 H :    0.301473
  12 H :    0.147919
  13 H :    0.323362
  14 H :    0.145313
  15 H :    0.455336
  16 H :    0.433298
  17 H :    0.385984
  18 H :    0.378330
Sum of atomic charges:    0.0000000

LOEWDIN ATOMIC CHARGES
----------------------
   0 C :   -0.202395
   1 N :    0.036971
   2 C :   -0.171682
   3 C :   -0.239281
   4 H :    0.129303
   5 H :    0.141538
   6 F :   -0.009833
   7 C :   -0.580334
   8 N :    0.152657
   9 C :   -0.019330
  10 H :   -0.001777
  11 H :   -0.005299
  12 H :    0.142293
  13 H :    0.019828
  14 H :    0.120457
  15 H :    0.122256
  16 H :    0.123903
  17 H :    0.124896
  18 H :    0.115828

  Mayer bond orders larger than 0.100000
B(  0-C ,  1-N ) :   0.7322 B(  0-C ,  2-C ) :   0.5936 B(  0-C ,  7-C ) :  -0.1332
B(  0-C , 15-H ) :   0.8596 B(  0-C , 16-H ) :   0.8749 B(  1-N ,  7-C ) :   0.9829
B(  1-N ,  9-C ) :   0.1489 B(  1-N , 12-H ) :   1.0332 B(  2-C ,  3-C ) :   0.7611
B(  2-C , 17-H ) :   0.9129 B(  2-C , 18-H ) :   0.9435 B(  3-C ,  4-H ) :   0.8714
B(  3-C ,  5-H ) :   0.9406 B(  3-C ,  6-F ) :   0.8030 B(  7-C ,  8-N ) :   1.0224
B(  7-C ,  9-C ) :   1.1027 B(  7-C , 11-H ) :  -0.1111 B(  8-N ,  9-C ) :   0.1108
B(  8-N , 13-H ) :   0.8291 B(  8-N , 14-H ) :   1.0425 B(  9-C , 10-H ) :   0.9853
B(  9-C , 11-H ) :   1.0720

FINAL SINGLE POINT ENERGY      -405.639116830155

DIPOLE MOMENT
-------------
                                X             Y             Z
Electronic contribution:     -3.49695       3.84559      -1.54357
Nuclear contribution   :      2.63642      -4.47741       0.00296
                        -----------------------------------------
Total Dipole Moment    :     -0.86054      -0.63182      -1.54062
                        -----------------------------------------
Magnitude (a.u.)       :      1.87436
Magnitude (Debye)      :      4.76424

Rotational constants in cm-1:     0.108041     0.051979     0.040387
Rotational constants in MHz :  3238.993235  1558.297571  1210.782552

                             ****ORCA TERMINATED NORMALLY****
TOTAL RUN TIME: 0 days 0 hours 1 minutes 57 seconds 692 msec
