                         Program Version 5.0.0 -  RELEASE  -
|  1> !wB97X-D3 RIJCOSX def2-TZVPD def2/J TightSCF
|  2> *xyz -1 1
|  3> C          4.26524        2.50052       -0.79589
|  4> C          4.98224        1.65026        0.24742
|  5> O          4.36806        1.38927        1.31371
|  6> O          6.12892        1.23351       -0.04562
|  7> H          4.90412        2.63966       -1.64287
|  8> H          4.02079        3.45265       -0.37328
|  9> H          3.36773        2.00584       -1.10356
| 10> *
| 11> %MaxCore 64000
| 12> %pal nprocs 8
| 13> end
| 14> %scf
| 15>   MaxIter 150
| 16> end
| 17>
| 18>
| 19>                          ****END OF INPUT****

CARTESIAN COORDINATES (ANGSTROEM)
---------------------------------
  C      4.265240    2.500520   -0.795890
  C      4.982240    1.650260    0.247420
  O      4.368060    1.389270    1.313710
  O      6.128920    1.233510   -0.045620
  H      4.904120    2.639660   -1.642870
  H      4.020790    3.452650   -0.373280
  H      3.367730    2.005840   -1.103560

 Total Charge           Charge          ....   -1
 Multiplicity           Mult            ....    1
 Number of Electrons    NEL             ....   32
 Basis Dimension        Dim             ....  181

ORBITAL ENERGIES
----------------

  NO   OCC          E(Eh)            E(eV)
   0   2.0000     -18.960068      -515.9297
   1   2.0000     -18.958923      -515.8985
   2   2.0000     -10.156240      -276.3653
   3   2.0000     -10.083934      -274.3978
   4   2.0000      -0.931526       -25.3481
   5   2.0000      -0.836179       -22.7536
   6   2.0000      -0.658697       -17.9240
   7   2.0000      -0.409579       -11.1452
   8   2.0000      -0.359922        -9.7940
   9   2.0000      -0.345513        -9.4019
  10   2.0000      -0.324892        -8.8407
  11   2.0000      -0.280164        -7.6237
  12   2.0000      -0.260526        -7.0893
  13   2.0000      -0.136811        -3.7228
  14   2.0000      -0.132857        -3.6152
  15   2.0000      -0.118347        -3.2204
  16   0.0000       0.203207         5.5295
  17   0.0000       0.223765         6.0890
  18   0.0000       0.235990         6.4216
  19   0.0000       0.253882         6.9085
  20   0.0000       0.275170         7.4877

MULLIKEN ATOMIC CHARGES
-----------------------
   0 C :   -0.697687
   1 C :    0.541406
   2 O :   -0.762752
   3 O :   -0.747925
   4 H :    0.240282
   5 H :    0.215940
   6 H :    0.210737
Sum of atomic charges:   -1.0000000

LOEWDIN ATOMIC CHARGES
----------------------
   0 C :   -0.071992
   1 C :   -0.809456
   2 O :   -0.132529
   3 O :   -0.126654
   4 H :    0.043828
   5 H :    0.047944
   6 H :    0.048859

  Mayer bond orders larger than 0.100000
B(  0-C ,  1-C ) :   0.8958 B(  0-C ,  4-H ) :   0.9891 B(  0-C ,  5-H ) :   0.9437
B(  0-C ,  6-H ) :   0.9395 B(  1-C ,  2-O ) :   1.4703 B(  1-C ,  3-O ) :   1.4714

Dispersion correction           -0.000903673
FINAL SINGLE POINT ENERGY      -228.553453893953

DIPOLE MOMENT
-------------
                                X             Y             Z
Electronic contribution:      1.69195      -2.00435       2.43299
Nuclear contribution   :     -2.34880       2.82033      -3.41655
                        -----------------------------------------
Total Dipole Moment    :     -0.65685       0.81598      -0.98356
                        -----------------------------------------
Magnitude (a.u.)       :      1.43689
Magnitude (Debye)      :      3.65229

Rotational constants in cm-1:     0.393413     0.334516     0.186969
Rotational constants in MHz : 11794.232386 10028.538646  5605.197050

                             ****ORCA TERMINATED NORMALLY****
TOTAL RUN TIME: 0 days 0 hours 0 minutes 11 seconds 716 msec
