                         Program Version 5.0.0 -  RELEASE  -
|  1> !wB97X-D3 RIJCOSX def2-TZVPD def2/J TightSCF
|  2> *xyz 1 1
|  3> C          3.91385       -1.65829        3.01513
|  4> N          5.03927       -0.90115        2.49282
|  5> C          6.21038       -1.41726        2.17824
|  6> N          6.53591       -2.67712        2.55608
|  7> N          7.07675       -0.70082        1.47891
|  8> H          7.95464       -1.12155        1.20755
|  9> H          6.75616        0.10664        0.96028
| 10> H          4.84217        0.01761        2.11519
| 11> H          5.99388       -3.12692        3.28278
| 12> H          7.49844       -2.97548        2.46878
| 13> H          3.08844       -0.99893        3.18495
| 14> H          4.19412       -2.12366        3.93697
| 15> H          3.63051       -2.40965        2.30798
| 16> *
| 17> %MaxCore 64000
| 18> %pal nprocs 8
| 19> end
| 20> %scf
| 21>   MaxIter 150
| 22> end
| 23>
| 24>
| 25>                          ****END OF INPUT****

CARTESIAN COORDINATES (ANGSTROEM)
---------------------------------
  C      3.913850   -1.658290    3.015130
  N      5.039270   -0.901150    2.492820
  C      6.210380   -1.417260    2.178240
  N      6.535910   -2.677120    2.556080
  N      7.076750   -0.700820    1.478910
  H      7.954640   -1.121550    1.207550
  H      6.756160    0.106640    0.960280
  H      4.842170    0.017610    2.115190
  H      5.993880   -3.126920    3.282780
  H      7.498440   -2.975480    2.468780
  H      3.088440   -0.998930    3.184950
  H      4.194120   -2.123660    3.936970
  H      3.630510   -2.409650    2.307980

 Total Charge           Charge          ....    1
 Multiplicity           Mult            ....    1
 Number of Electrons    NEL             ....   40
 Basis Dimension        Dim             ....  257

ORBITAL ENERGIES
----------------

  NO   OCC          E(Eh)            E(eV)
   0   2.0000     -14.654100      -398.7583
   1   2.0000     -14.648432      -398.6041
   2   2.0000     -14.647828      -398.5877
   3   2.0000     -10.618274      -288.9379
   4   2.0000     -10.479040      -285.1492
   5   2.0000      -1.339803       -36.4579
   6   2.0000      -1.227513       -33.4023
   7   2.0000      -1.210851       -32.9489
   8   2.0000      -1.023647       -27.8549
   9   2.0000      -0.938161       -25.5287
  10   2.0000      -0.893552       -24.3148
  11   2.0000      -0.860319       -23.4105
  12   2.0000      -0.794873       -21.6296
  13   2.0000      -0.789420       -21.4812
  14   2.0000      -0.760000       -20.6807
  15   2.0000      -0.743348       -20.2275
  16   2.0000      -0.693627       -18.8746
  17   2.0000      -0.678201       -18.4548
  18   2.0000      -0.577513       -15.7149
  19   2.0000      -0.552307       -15.0290
  20   0.0000      -0.093817        -2.5529
  21   0.0000      -0.092647        -2.5211
  22   0.0000      -0.056705        -1.5430
  23   0.0000      -0.053997        -1.4693
  24   0.0000      -0.026568        -0.7230

MULLIKEN ATOMIC CHARGES
-----------------------
   0 C :   -0.973295
   1 N :   -0.207718
   2 C :    0.790367
   3 N :   -0.391139
   4 N :   -0.412567
   5 H :    0.221111
   6 H :    0.233702
   7 H :    0.245705
   8 H :    0.225702
   9 H :    0.222403
  10 H :    0.323763
  11 H :    0.335099
  12 H :    0.386869
Sum of atomic charges:    1.0000000

LOEWDIN ATOMIC CHARGES
----------------------
   0 C :   -0.024076
   1 N :    0.042597
   2 C :   -0.431100
   3 N :    0.207293
   4 N :    0.200954
   5 H :    0.141145
   6 H :    0.143496
   7 H :    0.167386
   8 H :    0.124449
   9 H :    0.137434
  10 H :    0.101462
  11 H :    0.089271
  12 H :    0.099689

  Mayer bond orders larger than 0.100000
B(  0-C ,  1-N ) :   0.8665 B(  0-C ,  2-C ) :  -0.1220 B(  0-C , 10-H ) :   0.9009
B(  0-C , 11-H ) :   0.8911 B(  0-C , 12-H ) :   0.8442 B(  1-N ,  2-C ) :   1.2540
B(  1-N ,  4-N ) :   0.1007 B(  1-N ,  7-H ) :   0.9785 B(  2-C ,  3-N ) :   1.1467
B(  2-C ,  4-N ) :   1.0947 B(  3-N ,  8-H ) :   0.9578 B(  3-N ,  9-H ) :   0.9952
B(  4-N ,  5-H ) :   0.9966 B(  4-N ,  6-H ) :   0.9671

Dispersion correction           -0.002371491
FINAL SINGLE POINT ENERGY      -245.109821033849

DIPOLE MOMENT
-------------
                                X             Y             Z
Electronic contribution:      2.43175       0.85093      -0.96745
Nuclear contribution   :     -2.01473      -0.74897       0.69347
                        -----------------------------------------
Total Dipole Moment    :      0.41702       0.10196      -0.27398
                        -----------------------------------------
Magnitude (a.u.)       :      0.50929
Magnitude (Debye)      :      1.29450

Rotational constants in cm-1:     0.313249     0.134439     0.096258
Rotational constants in MHz :  9390.961986  4030.377472  2885.728233

                             ****ORCA TERMINATED NORMALLY****
TOTAL RUN TIME: 0 days 0 hours 0 minutes 27 seconds 860 msec
