                         Program Version 5.0.0 -  RELEASE  -
|  1> !wB97X-D3 RIJCOSX def2-TZVPD def2/J TightSCF
|  2> *xyz 0 1
|  3> C          4.26524        2.50052       -0.79589
|  4> C          4.98224        1.65026        0.24742
|  5> F          4.36806        1.38927        1.31371
|  6> O          6.12892        1.23351       -0.04562
|  7> H          4.90412        2.63966       -1.64287
|  8> H          4.02079        3.45265       -0.37328
|  9> H          3.36773        2.00584       -1.10356
| 10> *
| 11> %MaxCore 64000
| 12> %pal nprocs 8
| 13> end
| 14> %scf
| 15>   MaxIter 150
| 16> end
| 17>
| 18>
| 19>                          ****END OF INPUT****

CARTESIAN COORDINATES (ANGSTROEM)
---------------------------------
  C      4.265240    2.500520   -0.795890
  C      4.982240    1.650260    0.247420
  F      4.368060    1.389270    1.313710
  O      6.128920    1.233510   -0.045620
  H      4.904120    2.639660   -1.642870
  H      4.020790    3.452650   -0.373280
  H      3.367730    2.005840   -1.103560

 Total Charge           Charge          ....    0
 Multiplicity           Mult            ....    1
 Number of Electrons    NEL             ....   32
 Basis Dimension        Dim             ....  181

ORBITAL ENERGIES
----------------

  NO   OCC          E(Eh)            E(eV)
   0   2.0000     -24.857874      -676.4171
   1   2.0000     -19.237935      -523.4908
   2   2.0000     -10.460450      -284.6433
   3   2.0000     -10.300142      -280.2811
   4   2.0000      -1.437058       -39.1043
   5   2.0000      -1.151264       -31.3275
   6   2.0000      -0.889956       -24.2169
   7   2.0000      -0.768324       -20.9071
   8   2.0000      -0.654691       -17.8151
   9   2.0000      -0.650330       -17.6964
  10   2.0000      -0.609726       -16.5915
  11   2.0000      -0.545580       -14.8460
  12   2.0000      -0.533706       -14.5229
  13   2.0000      -0.501451       -13.6452
  14   2.0000      -0.452337       -12.3087
  15   2.0000      -0.391234       -10.6460
  16   0.0000       0.056833         1.5465
  17   0.0000       0.061355         1.6696
  18   0.0000       0.093511         2.5446
  19   0.0000       0.107093         2.9141
  20   0.0000       0.115850         3.1524

MULLIKEN ATOMIC CHARGES
-----------------------
   0 C :   -0.800701
   1 C :    0.721838
   2 F :   -0.222247
   3 O :   -0.548271
   4 H :    0.269463
   5 H :    0.292497
   6 H :    0.287421
Sum of atomic charges:    0.0000000

LOEWDIN ATOMIC CHARGES
----------------------
   0 C :    0.007784
   1 C :   -0.508732
   2 F :    0.196519
   3 O :    0.065011
   4 H :    0.080906
   5 H :    0.078729
   6 H :    0.079782

  Mayer bond orders larger than 0.100000
B(  0-C ,  1-C ) :   0.8788 B(  0-C ,  4-H ) :   0.9805 B(  0-C ,  5-H ) :   0.9141
B(  0-C ,  6-H ) :   0.9107 B(  1-C ,  2-F ) :   0.9785 B(  1-C ,  3-O ) :   1.6968

Dispersion correction           -0.000896073
FINAL SINGLE POINT ENERGY      -253.122271885738

DIPOLE MOMENT
-------------
                                X             Y             Z
Electronic contribution:      0.76279      -2.51619       4.32406
Nuclear contribution   :     -1.76261       3.13449      -4.58927
                        -----------------------------------------
Total Dipole Moment    :     -0.99981       0.61830      -0.26521
                        -----------------------------------------
Magnitude (a.u.)       :      1.20510
Magnitude (Debye)      :      3.06312

Rotational constants in cm-1:     0.370628     0.320375     0.177409
Rotational constants in MHz : 11111.155899  9604.607061  5318.597912

                             ****ORCA TERMINATED NORMALLY****
TOTAL RUN TIME: 0 days 0 hours 0 minutes 13 seconds 269 msec
