                         Program Version 5.0.0 -  RELEASE  -
|  1> !wB97X-D3 RIJCOSX def2-TZVPD def2/J TightSCF
|  2> *xyz 0 1
|  3> C          3.91385       -1.65829        3.01513
|  4> C          5.03927       -0.90115        2.49282
|  5> C          6.21038       -1.41726        2.17824
|  6> N          6.53591       -2.67712        2.55608
|  7> N          7.07675       -0.70082        1.47891
|  8> H          7.95464       -1.12155        1.20755
|  9> H          6.75616        0.10664        0.96028
| 10> H          4.84217        0.01761        2.11519
| 11> H          5.99388       -3.12692        3.28278
| 12> H          7.49844       -2.97548        2.46878
| 13> H          3.08844       -0.99893        3.18495
| 14> H          4.19412       -2.12366        3.93697
| 15> H          3.63051       -2.40965        2.30798
| 16> *
| 17> %MaxCore 64000
| 18> %pal nprocs 8
| 19> end
| 20> %scf
| 21>   MaxIter 150
| 22> end
| 23>
| 24>
| 25>                          ****END OF INPUT****

CARTESIAN COORDINATES (ANGSTROEM)
---------------------------------
  C      3.913850   -1.658290    3.015130
  C      5.039270   -0.901150    2.492820
  C      6.210380   -1.417260    2.178240
  N      6.535910   -2.677120    2.556080
  N      7.076750   -0.700820    1.478910
  H      7.954640   -1.121550    1.207550
  H      6.756160    0.106640    0.960280
  H      4.842170    0.017610    2.115190
  H      5.993880   -3.126920    3.282780
  H      7.498440   -2.975480    2.468780
  H      3.088440   -0.998930    3.184950
  H      4.194120   -2.123660    3.936970
  H      3.630510   -2.409650    2.307980

 Total Charge           Charge          ....    0
 Multiplicity           Mult            ....    1
 Number of Electrons    NEL             ....   40
 Basis Dimension        Dim             ....  257

ORBITAL ENERGIES
----------------

  NO   OCC          E(Eh)            E(eV)
   0   2.0000     -14.422543      -392.4574
   1   2.0000     -14.418267      -392.3410
   2   2.0000     -10.315981      -280.7121
   3   2.0000     -10.235676      -278.5269
   4   2.0000     -10.194579      -277.4086
   5   2.0000      -1.076755       -29.3000
   6   2.0000      -0.984355       -26.7857
   7   2.0000      -0.869671       -23.6650
   8   2.0000      -0.768893       -20.9227
   9   2.0000      -0.687653       -18.7120
  10   2.0000      -0.640456       -17.4277
  11   2.0000      -0.612036       -16.6544
  12   2.0000      -0.569603       -15.4997
  13   2.0000      -0.523365       -14.2415
  14   2.0000      -0.512813       -13.9543
  15   2.0000      -0.473084       -12.8733
  16   2.0000      -0.455762       -12.4019
  17   2.0000      -0.434026       -11.8105
  18   2.0000      -0.361269        -9.8306
  19   2.0000      -0.245722        -6.6864
  20   0.0000       0.064588         1.7575
  21   0.0000       0.089641         2.4392
  22   0.0000       0.096819         2.6346
  23   0.0000       0.119648         3.2558
  24   0.0000       0.131009         3.5649

MULLIKEN ATOMIC CHARGES
-----------------------
   0 C :   -1.063066
   1 C :   -0.609683
   2 C :    0.622037
   3 N :   -0.414341
   4 N :   -0.449719
   5 H :    0.169487
   6 H :    0.205011
   7 H :    0.334497
   8 H :    0.193201
   9 H :    0.173160
  10 H :    0.319742
  11 H :    0.281976
  12 H :    0.237699
Sum of atomic charges:   -0.0000000

LOEWDIN ATOMIC CHARGES
----------------------
   0 C :   -0.135765
   1 C :   -0.189663
   2 C :   -0.554157
   3 N :    0.119232
   4 N :    0.097675
   5 H :    0.099396
   6 H :    0.112500
   7 H :    0.061266
   8 H :    0.096040
   9 H :    0.097190
  10 H :    0.067387
  11 H :    0.058975
  12 H :    0.069924

  Mayer bond orders larger than 0.100000
B(  0-C ,  1-C ) :   0.7462 B(  0-C , 10-H ) :   0.9571 B(  0-C , 11-H ) :   0.9795
B(  0-C , 12-H ) :   0.9378 B(  1-C ,  2-C ) :   1.2763 B(  1-C ,  7-H ) :   0.9567
B(  2-C ,  3-N ) :   1.0543 B(  2-C ,  4-N ) :   1.0536 B(  2-C ,  7-H ) :  -0.1581
B(  3-N ,  8-H ) :   0.9733 B(  3-N ,  9-H ) :   1.0222 B(  4-N ,  5-H ) :   1.0343
B(  4-N ,  6-H ) :   0.9721

Dispersion correction           -0.002373163
FINAL SINGLE POINT ENERGY      -228.629203478153

DIPOLE MOMENT
-------------
                                X             Y             Z
Electronic contribution:      2.97108       0.36041      -1.01541
Nuclear contribution   :     -2.16157      -0.63191       0.72436
                        -----------------------------------------
Total Dipole Moment    :      0.80951      -0.27150      -0.29105
                        -----------------------------------------
Magnitude (a.u.)       :      0.90207
Magnitude (Debye)      :      2.29288

Rotational constants in cm-1:     0.318470     0.135474     0.097247
Rotational constants in MHz :  9547.495553  4061.405016  2915.385882

                             ****ORCA TERMINATED NORMALLY****
TOTAL RUN TIME: 0 days 0 hours 0 minutes 28 seconds 203 msec
