                         Program Version 5.0.0 -  RELEASE  -
|  1> !wB97X-D3 RIJCOSX def2-TZVPD def2/J TightSCF
|  2> *xyz 0 1
|  3> C          4.26524        2.50052       -0.79589
|  4> C          4.98224        1.65026        0.24742
|  5> O          4.36806        1.38927        1.31371
|  6> F          6.12892        1.23351       -0.04562
|  7> H          4.90412        2.63966       -1.64287
|  8> H          4.02079        3.45265       -0.37328
|  9> H          3.36773        2.00584       -1.10356
| 10> *
| 11> %MaxCore 64000
| 12> %pal nprocs 8
| 13> end
| 14> %scf
| 15>   MaxIter 150
| 16> end
| 17>
| 18>
| 19>                          ****END OF INPUT****

CARTESIAN COORDINATES (ANGSTROEM)
---------------------------------
  C      4.265240    2.500520   -0.795890
  C      4.982240    1.650260    0.247420
  O      4.368060    1.389270    1.313710
  F      6.128920    1.233510   -0.045620
  H      4.904120    2.639660   -1.642870
  H      4.020790    3.452650   -0.373280
  H      3.367730    2.005840   -1.103560

 Total Charge           Charge          ....    0
 Multiplicity           Mult            ....    1
 Number of Electrons    NEL             ....   32
 Basis Dimension        Dim             ....  181

ORBITAL ENERGIES
----------------

  NO   OCC          E(Eh)            E(eV)
   0   2.0000     -24.858577      -676.4363
   1   2.0000     -19.237575      -523.4810
   2   2.0000     -10.461061      -284.6599
   3   2.0000     -10.300382      -280.2876
   4   2.0000      -1.439280       -39.1648
   5   2.0000      -1.149098       -31.2685
   6   2.0000      -0.890540       -24.2328
   7   2.0000      -0.769465       -20.9382
   8   2.0000      -0.655255       -17.8304
   9   2.0000      -0.651764       -17.7354
  10   2.0000      -0.610272       -16.6063
  11   2.0000      -0.546473       -14.8703
  12   2.0000      -0.532922       -14.5015
  13   2.0000      -0.501136       -13.6366
  14   2.0000      -0.448812       -12.2128
  15   2.0000      -0.392673       -10.6852
  16   0.0000       0.053229         1.4484
  17   0.0000       0.061253         1.6668
  18   0.0000       0.093430         2.5424
  19   0.0000       0.107272         2.9190
  20   0.0000       0.117445         3.1958

MULLIKEN ATOMIC CHARGES
-----------------------
   0 C :   -0.776155
   1 C :    0.702005
   2 O :   -0.554632
   3 F :   -0.212061
   4 H :    0.304867
   5 H :    0.269553
   6 H :    0.266422
Sum of atomic charges:    0.0000000

LOEWDIN ATOMIC CHARGES
----------------------
   0 C :    0.008563
   1 C :   -0.508362
   2 O :    0.061643
   3 F :    0.198907
   4 H :    0.070877
   5 H :    0.083918
   6 H :    0.084455

  Mayer bond orders larger than 0.100000
B(  0-C ,  1-C ) :   0.8872 B(  0-C ,  4-H ) :   0.9354 B(  0-C ,  5-H ) :   0.9289
B(  0-C ,  6-H ) :   0.9247 B(  1-C ,  2-O ) :   1.7031 B(  1-C ,  3-F ) :   0.9981

Dispersion correction           -0.000908897
FINAL SINGLE POINT ENERGY      -253.121391066992

DIPOLE MOMENT
-------------
                                X             Y             Z
Electronic contribution:      3.64757      -2.77150       2.09807
Nuclear contribution   :     -3.58210       3.29544      -3.18468
                        -----------------------------------------
Total Dipole Moment    :      0.06547       0.52393      -1.08661
                        -----------------------------------------
Magnitude (a.u.)       :      1.20810
Magnitude (Debye)      :      3.07075

Rotational constants in cm-1:     0.368075     0.322590     0.177495
Rotational constants in MHz : 11034.605942  9670.991558  5321.154504

                             ****ORCA TERMINATED NORMALLY****
TOTAL RUN TIME: 0 days 0 hours 0 minutes 13 seconds 830 msec
