                         Program Version 5.0.0 -  RELEASE  -
|  1> !wB97X-D3 RIJCOSX def2-TZVPD def2/J TightSCF
|  2> *xyz 0 1
|  3> C          3.91385       -1.65829        3.01513
|  4> N          5.03927       -0.90115        2.49282
|  5> C          6.21038       -1.41726        2.17824
|  6> C          6.53591       -2.67712        2.55608
|  7> N          7.07675       -0.70082        1.47891
|  8> H          7.95464       -1.12155        1.20755
|  9> H          6.75616        0.10664        0.96028
| 10> H          4.84217        0.01761        2.11519
| 11> H          5.99388       -3.12692        3.28278
| 12> H          7.49844       -2.97548        2.46878
| 13> H          3.08844       -0.99893        3.18495
| 14> H          4.19412       -2.12366        3.93697
| 15> H          3.63051       -2.40965        2.30798
| 16> *
| 17> %MaxCore 64000
| 18> %pal nprocs 8
| 19> end
| 20> %scf
| 21>   MaxIter 150
| 22> end
| 23>
| 24>
| 25>                          ****END OF INPUT****

CARTESIAN COORDINATES (ANGSTROEM)
---------------------------------
  C      3.913850   -1.658290    3.015130
  N      5.039270   -0.901150    2.492820
  C      6.210380   -1.417260    2.178240
  C      6.535910   -2.677120    2.556080
  N      7.076750   -0.700820    1.478910
  H      7.954640   -1.121550    1.207550
  H      6.756160    0.106640    0.960280
  H      4.842170    0.017610    2.115190
  H      5.993880   -3.126920    3.282780
  H      7.498440   -2.975480    2.468780
  H      3.088440   -0.998930    3.184950
  H      4.194120   -2.123660    3.936970
  H      3.630510   -2.409650    2.307980

 Total Charge           Charge          ....    0
 Multiplicity           Mult            ....    1
 Number of Electrons    NEL             ....   40
 Basis Dimension        Dim             ....  257

ORBITAL ENERGIES
----------------

  NO   OCC          E(Eh)            E(eV)
   0   2.0000     -14.429284      -392.6408
   1   2.0000     -14.423219      -392.4757
   2   2.0000     -10.325408      -280.9686
   3   2.0000     -10.297758      -280.2162
   4   2.0000     -10.184990      -277.1477
   5   2.0000      -1.091695       -29.7065
   6   2.0000      -1.004385       -27.3307
   7   2.0000      -0.833947       -22.6929
   8   2.0000      -0.809265       -22.0212
   9   2.0000      -0.677838       -18.4449
  10   2.0000      -0.653518       -17.7831
  11   2.0000      -0.623871       -16.9764
  12   2.0000      -0.554344       -15.0845
  13   2.0000      -0.544699       -14.8220
  14   2.0000      -0.513973       -13.9859
  15   2.0000      -0.482537       -13.1305
  16   2.0000      -0.470260       -12.7964
  17   2.0000      -0.461195       -12.5498
  18   2.0000      -0.345983        -9.4147
  19   2.0000      -0.253468        -6.8972
  20   0.0000       0.063568         1.7298
  21   0.0000       0.083416         2.2699
  22   0.0000       0.095733         2.6050
  23   0.0000       0.122386         3.3303
  24   0.0000       0.130999         3.5647

MULLIKEN ATOMIC CHARGES
-----------------------
   0 C :   -0.950755
   1 N :   -0.248443
   2 C :    0.904562
   3 C :   -1.434369
   4 N :   -0.452692
   5 H :    0.194733
   6 H :    0.179091
   7 H :    0.220664
   8 H :    0.300726
   9 H :    0.338112
  10 H :    0.326501
  11 H :    0.280218
  12 H :    0.341651
Sum of atomic charges:    0.0000000

LOEWDIN ATOMIC CHARGES
----------------------
   0 C :   -0.077782
   1 N :   -0.036403
   2 C :   -0.573737
   3 C :   -0.001755
   4 N :    0.105494
   5 H :    0.112640
   6 H :    0.103531
   7 H :    0.135313
   8 H :   -0.006022
   9 H :    0.003865
  10 H :    0.077746
  11 H :    0.074841
  12 H :    0.082269

  Mayer bond orders larger than 0.100000
B(  0-C ,  1-N ) :   0.8625 B(  0-C ,  3-C ) :   0.1256 B(  0-C , 10-H ) :   0.8610
B(  0-C , 11-H ) :   0.9391 B(  0-C , 12-H ) :   0.9113 B(  1-N ,  2-C ) :   1.1297
B(  1-N ,  7-H ) :   0.9905 B(  2-C ,  3-C ) :   1.0701 B(  2-C ,  4-N ) :   0.9659
B(  2-C ,  9-H ) :  -0.1070 B(  3-C ,  8-H ) :   1.0028 B(  3-C ,  9-H ) :   1.0110
B(  4-N ,  5-H ) :   0.9908 B(  4-N ,  6-H ) :   1.0159

Dispersion correction           -0.002368308
FINAL SINGLE POINT ENERGY      -228.619423372681

DIPOLE MOMENT
-------------
                                X             Y             Z
Electronic contribution:      1.47414       2.01945      -1.15767
Nuclear contribution   :     -1.85843      -0.99162       0.73717
                        -----------------------------------------
Total Dipole Moment    :     -0.38429       1.02783      -0.42050
                        -----------------------------------------
Magnitude (a.u.)       :      1.17513
Magnitude (Debye)      :      2.98695

Rotational constants in cm-1:     0.336495     0.135025     0.098658
Rotational constants in MHz : 10087.870488  4047.943278  2957.678786

                             ****ORCA TERMINATED NORMALLY****
TOTAL RUN TIME: 0 days 0 hours 0 minutes 28 seconds 247 msec
