                         Program Version 5.0.0 -  RELEASE  -
|  1> !wB97X-D3 RIJCOSX def2-TZVPD def2/J TightSCF
|  2> *xyz 0 1
|  3> C          3.91385       -1.65829        3.01513
|  4> N          5.03927       -0.90115        2.49282
|  5> C          6.21038       -1.41726        2.17824
|  6> N          6.53591       -2.67712        2.55608
|  7> C          7.07675       -0.70082        1.47891
|  8> H          7.95464       -1.12155        1.20755
|  9> H          6.75616        0.10664        0.96028
| 10> H          4.84217        0.01761        2.11519
| 11> H          5.99388       -3.12692        3.28278
| 12> H          7.49844       -2.97548        2.46878
| 13> H          3.08844       -0.99893        3.18495
| 14> H          4.19412       -2.12366        3.93697
| 15> H          3.63051       -2.40965        2.30798
| 16> *
| 17> %MaxCore 64000
| 18> %pal nprocs 8
| 19> end
| 20> %scf
| 21>   MaxIter 150
| 22> end
| 23>
| 24>
| 25>                          ****END OF INPUT****

CARTESIAN COORDINATES (ANGSTROEM)
---------------------------------
  C      3.913850   -1.658290    3.015130
  N      5.039270   -0.901150    2.492820
  C      6.210380   -1.417260    2.178240
  N      6.535910   -2.677120    2.556080
  C      7.076750   -0.700820    1.478910
  H      7.954640   -1.121550    1.207550
  H      6.756160    0.106640    0.960280
  H      4.842170    0.017610    2.115190
  H      5.993880   -3.126920    3.282780
  H      7.498440   -2.975480    2.468780
  H      3.088440   -0.998930    3.184950
  H      4.194120   -2.123660    3.936970
  H      3.630510   -2.409650    2.307980

 Total Charge           Charge          ....    0
 Multiplicity           Mult            ....    1
 Number of Electrons    NEL             ....   40
 Basis Dimension        Dim             ....  257

ORBITAL ENERGIES
----------------

  NO   OCC          E(Eh)            E(eV)
   0   2.0000     -14.424338      -392.5062
   1   2.0000     -14.422095      -392.4452
   2   2.0000     -10.322639      -280.8933
   3   2.0000     -10.305582      -280.4291
   4   2.0000     -10.181316      -277.0477
   5   2.0000      -1.086354       -29.5612
   6   2.0000      -0.997396       -27.1405
   7   2.0000      -0.860504       -23.4155
   8   2.0000      -0.781206       -21.2577
   9   2.0000      -0.707082       -19.2407
  10   2.0000      -0.636431       -17.3182
  11   2.0000      -0.594322       -16.1723
  12   2.0000      -0.573771       -15.6131
  13   2.0000      -0.560018       -15.2389
  14   2.0000      -0.504179       -13.7194
  15   2.0000      -0.488208       -13.2848
  16   2.0000      -0.478491       -13.0204
  17   2.0000      -0.458164       -12.4673
  18   2.0000      -0.351963        -9.5774
  19   2.0000      -0.250106        -6.8057
  20   0.0000       0.061877         1.6838
  21   0.0000       0.090152         2.4532
  22   0.0000       0.095712         2.6045
  23   0.0000       0.120861         3.2888
  24   0.0000       0.129746         3.5306

MULLIKEN ATOMIC CHARGES
-----------------------
   0 C :   -0.955839
   1 N :   -0.205903
   2 C :    0.997116
   3 N :   -0.426073
   4 C :   -1.568750
   5 H :    0.308374
   6 H :    0.332584
   7 H :    0.206802
   8 H :    0.175337
   9 H :    0.196921
  10 H :    0.311854
  11 H :    0.290360
  12 H :    0.337216
Sum of atomic charges:   -0.0000000

LOEWDIN ATOMIC CHARGES
----------------------
   0 C :   -0.080803
   1 N :   -0.031966
   2 C :   -0.566711
   3 N :    0.113833
   4 C :   -0.015674
   5 H :    0.006568
   6 H :    0.009160
   7 H :    0.143139
   8 H :    0.087506
   9 H :    0.108978
  10 H :    0.079372
  11 H :    0.069115
  12 H :    0.077482

  Mayer bond orders larger than 0.100000
B(  0-C ,  1-N ) :   0.8322 B(  0-C ,  2-C ) :  -0.1052 B(  0-C , 10-H ) :   0.9130
B(  0-C , 11-H ) :   0.9198 B(  0-C , 12-H ) :   0.8962 B(  1-N ,  2-C ) :   1.1463
B(  1-N ,  4-C ) :   0.1166 B(  1-N ,  7-H ) :   0.9591 B(  2-C ,  3-N ) :   1.0232
B(  2-C ,  4-C ) :   0.8906 B(  2-C ,  5-H ) :  -0.1407 B(  3-N ,  8-H ) :   1.0110
B(  3-N ,  9-H ) :   0.9821 B(  4-C ,  5-H ) :   1.0812 B(  4-C ,  6-H ) :   0.9256

Dispersion correction           -0.002384317
FINAL SINGLE POINT ENERGY      -228.617813530488

DIPOLE MOMENT
-------------
                                X             Y             Z
Electronic contribution:      0.93507       0.09553       0.02238
Nuclear contribution   :     -1.74889      -0.59133       0.51900
                        -----------------------------------------
Total Dipole Moment    :     -0.81381      -0.49580       0.54137
                        -----------------------------------------
Magnitude (a.u.)       :      1.09599
Magnitude (Debye)      :      2.78579

Rotational constants in cm-1:     0.319878     0.140238     0.099847
Rotational constants in MHz :  9589.703832  4204.215525  2993.343846

                             ****ORCA TERMINATED NORMALLY****
TOTAL RUN TIME: 0 days 0 hours 0 minutes 29 seconds 621 msec
