                         Program Version 5.0.0 -  RELEASE  -
|  1> !wB97X-D3 RIJCOSX def2-TZVPD def2/J TightSCF xyzfile
|  2>
|  3> *xyzfile 0 1 D3.xyz
|  4>
|  5> %MaxCore 64000
|  6>
|  7> %pal nprocs 18
|  8> end
|  9>
| 10> %scf
| 11>   MaxIter 150
| 12> end
| 13>
| 14>
| 15>                          ****END OF INPUT****

CARTESIAN COORDINATES (ANGSTROEM)
---------------------------------
  C      3.913853   -1.658291    3.015134
  N      5.039266   -0.901154    2.492821
  C      4.084215    1.742081   -2.114724
  C      4.265245    2.500518   -0.795890
  H      4.868534    3.392674   -0.981134
  H      3.307640    2.824571   -0.387809
  C      4.982240    1.650257    0.247422
  C      6.210384   -1.417261    2.178244
  N      6.535913   -2.677122    2.556078
  C      7.076754   -0.700820    1.478906
  H      7.954643   -1.121554    1.207554
  H      6.756161    0.106637    0.960278
  H      4.842168    0.017609    2.115191
  H      5.993876   -3.126918    3.282784
  H      7.498441   -2.975482    2.468776
  F      4.368065    1.389270    1.313706
  O      6.128919    1.233512   -0.045620
  C      3.139159   -2.376572    1.910609
  H      3.267235   -0.939401    3.520693
  H      4.247195   -2.355095    3.790065
  C      1.997274    0.430918   -1.399218
  C      3.412746    0.376886   -1.965497
  H      4.047407   -0.246590   -1.326706
  H      3.390774   -0.118719   -2.942839
  H      5.068475    1.598504   -2.565728
  H      3.503356    2.363939   -2.804565
  C      2.399946   -1.389579    1.009490
  H      2.440750   -3.087118    2.362976
  H      3.844475   -2.970462    1.318677
  C      2.070177   -1.936705   -0.372401
  H      1.481611   -1.061542    1.509912
  H      3.008628   -0.490001    0.897451
  C      1.322238   -0.935775   -1.256413
  H      1.472747   -2.850902   -0.283997
  H      3.003539   -2.234041   -0.862535
  H      1.376444    1.058920   -2.047420
  H      2.015341    0.929780   -0.426535
  H      0.316648   -0.787213   -0.848278
  H      1.185611   -1.379252   -2.248613

 Total Charge           Charge          ....    0
 Multiplicity           Mult            ....    1
 Number of Electrons    NEL             ....  126
 Basis Dimension        Dim             ....  805

ORBITAL ENERGIES
----------------

  NO   OCC          E(Eh)            E(eV)
   0   2.0000     -24.879821      -677.0144
   1   2.0000     -19.244485      -523.6691
   2   2.0000     -14.402321      -391.9071
   3   2.0000     -14.399035      -391.8177
   4   2.0000     -10.468606      -284.8653
   5   2.0000     -10.311562      -280.5919
   6   2.0000     -10.303353      -280.3685
   7   2.0000     -10.298026      -280.2235
   8   2.0000     -10.292469      -280.0723
   9   2.0000     -10.279187      -279.7109
  10   2.0000     -10.277142      -279.6552
  11   2.0000     -10.273550      -279.5575
  12   2.0000     -10.269937      -279.4592
  13   2.0000     -10.269554      -279.4488
  14   2.0000     -10.265981      -279.3516
  15   2.0000     -10.144990      -276.0592
  16   2.0000      -1.462403       -39.7940
  17   2.0000      -1.165426       -31.7128
  18   2.0000      -1.067908       -29.0593
  19   2.0000      -0.981873       -26.7181
  20   2.0000      -0.952147       -25.9092
  21   2.0000      -0.925894       -25.1949
  22   2.0000      -0.895471       -24.3670
  23   2.0000      -0.856985       -23.3198
  24   2.0000      -0.829843       -22.5812
  25   2.0000      -0.802937       -21.8490
  26   2.0000      -0.779073       -21.1997
  27   2.0000      -0.756650       -20.5895
  28   2.0000      -0.720070       -19.5941
  29   2.0000      -0.709050       -19.2942
  30   2.0000      -0.690155       -18.7801
  31   2.0000      -0.677940       -18.4477
  32   2.0000      -0.670214       -18.2374
  33   2.0000      -0.652660       -17.7598
  34   2.0000      -0.635684       -17.2979
  35   2.0000      -0.611962       -16.6523
  36   2.0000      -0.593597       -16.1526
  37   2.0000      -0.585599       -15.9349
  38   2.0000      -0.575066       -15.6484
  39   2.0000      -0.563116       -15.3232
  40   2.0000      -0.557235       -15.1631
  41   2.0000      -0.542341       -14.7579
  42   2.0000      -0.532227       -14.4826
  43   2.0000      -0.528177       -14.3724
  44   2.0000      -0.516241       -14.0476
  45   2.0000      -0.499634       -13.5957
  46   2.0000      -0.494524       -13.4567
  47   2.0000      -0.485921       -13.2226
  48   2.0000      -0.474002       -12.8982
  49   2.0000      -0.466793       -12.7021
  50   2.0000      -0.461525       -12.5587
  51   2.0000      -0.460084       -12.5195
  52   2.0000      -0.450538       -12.2598
  53   2.0000      -0.443908       -12.0793
  54   2.0000      -0.437417       -11.9027
  55   2.0000      -0.429961       -11.6998
  56   2.0000      -0.422644       -11.5007
  57   2.0000      -0.410336       -11.1658
  58   2.0000      -0.408346       -11.1117
  59   2.0000      -0.404537       -11.0080
  60   2.0000      -0.364457        -9.9174
  61   2.0000      -0.331741        -9.0271
  62   2.0000      -0.226255        -6.1567
  63   0.0000       0.038487         1.0473
  64   0.0000       0.061763         1.6807
  65   0.0000       0.072561         1.9745
  66   0.0000       0.073070         1.9883
  67   0.0000       0.075732         2.0608

MULLIKEN ATOMIC CHARGES
-----------------------
   0 C :   -1.160346
   1 N :   -0.044414
   2 C :   -0.641254
   3 C :   -0.497157
   4 H :    0.310934
   5 H :    0.322793
   6 C :    0.686376
   7 C :    1.101651
   8 N :   -0.405265
   9 C :   -1.818187
  10 H :    0.268667
  11 H :    0.453518
  12 H :    0.238073
  13 H :    0.151871
  14 H :    0.209618
  15 F :   -0.364580
  16 O :   -0.631358
  17 C :   -0.390343
  18 H :    0.322841
  19 H :    0.351984
  20 C :   -0.403318
  21 C :   -0.601586
  22 H :    0.313470
  23 H :    0.313847
  24 H :    0.311187
  25 H :    0.293522
  26 C :    0.500479
  27 H :    0.353961
  28 H :    0.326051
  29 C :   -0.457552
  30 H :    0.353755
  31 H :   -0.772967
  32 C :   -0.801540
  33 H :    0.301506
  34 H :    0.351518
  35 H :    0.289466
  36 H :    0.253929
  37 H :    0.309494
  38 H :    0.299357
Sum of atomic charges:    0.0000000

LOEWDIN ATOMIC CHARGES
----------------------
   0 C :   -0.188750
   1 N :    0.028614
   2 C :   -0.190577
   3 C :   -0.096985
   4 H :    0.129156
   5 H :    0.112778
   6 C :   -0.430700
   7 C :   -0.541567
   8 N :    0.111339
   9 C :    0.008366
  10 H :    0.015229
  11 H :   -0.045922
  12 H :    0.092958
  13 H :    0.082450
  14 H :    0.106607
  15 F :    0.186571
  16 O :    0.084753
  17 C :   -0.187779
  18 H :    0.120369
  19 H :    0.105524
  20 C :   -0.218375
  21 C :   -0.206460
  22 H :    0.109698
  23 H :    0.123861
  24 H :    0.117059
  25 H :    0.117933
  26 C :   -0.218089
  27 H :    0.112710
  28 H :    0.115478
  29 C :   -0.216593
  30 H :    0.125904
  31 H :    0.079542
  32 C :   -0.210803
  33 H :    0.116027
  34 H :    0.112454
  35 H :    0.117625
  36 H :    0.097894
  37 H :    0.110747
  38 H :    0.110955

  Mayer bond orders larger than 0.100000
B(  0-C ,  1-N ) :   1.0440 B(  0-C ,  7-C ) :  -0.1630 B(  0-C ,  8-N ) :   0.1208
B(  0-C , 17-C ) :   0.6616 B(  0-C , 18-H ) :   0.8685 B(  0-C , 19-H ) :   0.8558
B(  0-C , 26-C ) :   0.2322 B(  0-C , 27-H ) :  -0.1185 B(  0-C , 31-H ) :   0.1361
B(  1-N ,  7-C ) :   1.1788 B(  1-N , 12-H ) :   0.7564 B(  2-C ,  3-C ) :   0.8266
B(  2-C ,  6-C ) :   0.2147 B(  2-C , 20-C ) :   0.2809 B(  2-C , 21-C ) :   1.0551
B(  2-C , 24-H ) :   0.8961 B(  2-C , 25-H ) :   0.9170 B(  3-C ,  4-H ) :   0.8501
B(  3-C ,  5-H ) :   0.9616 B(  3-C ,  6-C ) :   0.9445 B(  3-C , 20-C ) :   0.1694
B(  6-C , 15-F ) :   0.8194 B(  6-C , 16-O ) :   1.5963 B(  6-C , 21-C ) :   0.1294
B(  7-C ,  8-N ) :   1.0054 B(  7-C ,  9-C ) :   0.5971 B(  7-C , 10-H ) :  -0.2779
B(  7-C , 12-H ) :  -0.1181 B(  8-N , 13-H ) :   1.0184 B(  8-N , 14-H ) :   0.9753
B(  9-C , 10-H ) :   1.2360 B(  9-C , 11-H ) :   0.9235 B( 11-H , 16-O ) :  -0.2303
B( 17-C , 26-C ) :   0.6620 B( 17-C , 27-H ) :   0.9505 B( 17-C , 28-H ) :   0.8041
B( 17-C , 29-C ) :   0.5414 B( 17-C , 30-H ) :  -0.1432 B( 20-C , 21-C ) :   0.2477
B( 20-C , 22-H ) :  -0.1138 B( 20-C , 32-C ) :   0.9682 B( 20-C , 35-H ) :   0.8944
B( 20-C , 36-H ) :   1.0192 B( 21-C , 22-H ) :   1.0352 B( 21-C , 23-H ) :   0.8448
B( 21-C , 29-C ) :   0.1970 B( 21-C , 32-C ) :   0.3001 B( 21-C , 36-H ) :  -0.1395
B( 26-C , 29-C ) :   0.5234 B( 26-C , 30-H ) :   0.8178 B( 26-C , 31-H ) :   1.3022
B( 26-C , 32-C ) :   0.3460 B( 29-C , 31-H ) :  -0.1832 B( 29-C , 32-C ) :   0.8819
B( 29-C , 33-H ) :   0.8987 B( 29-C , 34-H ) :   0.9088 B( 32-C , 37-H ) :   0.9263
B( 32-C , 38-H ) :   0.9277

Dispersion correction           -0.020075480
FINAL SINGLE POINT ENERGY      -755.736364893399

DIPOLE MOMENT
-------------
                                X             Y             Z
Electronic contribution:      9.42798       8.69041       6.68701
Nuclear contribution   :    -11.12616      -8.32792      -6.96231
                        -----------------------------------------
Total Dipole Moment    :     -1.69818       0.36249      -0.27531
                        -----------------------------------------
Magnitude (a.u.)       :      1.75812
Magnitude (Debye)      :      4.46879

Rotational constants in cm-1:     0.020226     0.013574     0.009520
Rotational constants in MHz :   606.360011   406.923773   285.390769

                             ****ORCA TERMINATED NORMALLY****
TOTAL RUN TIME: 0 days 0 hours 5 minutes 4 seconds 30 msec
