                         Program Version 5.0.0 -  RELEASE  -
|  1> !wB97X-D3 RIJCOSX def2-TZVPD def2/J TightSCF xyzfile
|  2>
|  3> *xyzfile 0 1 D6.xyz
|  4>
|  5> %MaxCore 64000
|  6>
|  7> %pal nprocs 18
|  8> end
|  9>
| 10> %scf
| 11>   MaxIter 150
| 12> end
| 13>
| 14>
| 15>                          ****END OF INPUT****

CARTESIAN COORDINATES (ANGSTROEM)
---------------------------------
  C      3.913853   -1.658291    3.015134
  N      5.039266   -0.901154    2.492821
  C      4.084215    1.742081   -2.114724
  C      4.265245    2.500518   -0.795890
  H      4.868534    3.392674   -0.981134
  H      3.307640    2.824571   -0.387809
  C      4.982240    1.650257    0.247422
  C      6.210384   -1.417261    2.178244
  N      6.535913   -2.677122    2.556078
  C      7.076754   -0.700820    1.478906
  H      7.954643   -1.121554    1.207554
  H      6.756161    0.106637    0.960278
  H      4.842168    0.017609    2.115191
  H      5.993876   -3.126918    3.282784
  H      7.498441   -2.975482    2.468776
  O      4.368065    1.389270    1.313706
  F      6.128919    1.233512   -0.045620
  C      3.139159   -2.376572    1.910609
  H      3.267235   -0.939401    3.520693
  H      4.247195   -2.355095    3.790065
  C      1.997274    0.430918   -1.399218
  C      3.412746    0.376886   -1.965497
  H      4.047407   -0.246590   -1.326706
  H      3.390774   -0.118719   -2.942839
  H      5.068475    1.598504   -2.565728
  H      3.503356    2.363939   -2.804565
  C      2.399946   -1.389579    1.009490
  H      2.440750   -3.087118    2.362976
  H      3.844475   -2.970462    1.318677
  C      2.070177   -1.936705   -0.372401
  H      1.481611   -1.061542    1.509912
  H      3.008628   -0.490001    0.897451
  C      1.322238   -0.935775   -1.256413
  H      1.472747   -2.850902   -0.283997
  H      3.003539   -2.234041   -0.862535
  H      1.376444    1.058920   -2.047420
  H      2.015341    0.929780   -0.426535
  H      0.316648   -0.787213   -0.848278
  H      1.185611   -1.379252   -2.248613

 Total Charge           Charge          ....    0
 Multiplicity           Mult            ....    1
 Number of Electrons    NEL             ....  126
 Basis Dimension        Dim             ....  805

ORBITAL ENERGIES
----------------

  NO   OCC          E(Eh)            E(eV)
   0   2.0000     -24.868912      -676.7175
   1   2.0000     -19.258104      -524.0396
   2   2.0000     -14.403855      -391.9488
   3   2.0000     -14.385558      -391.4509
   4   2.0000     -10.476844      -285.0894
   5   2.0000     -10.314036      -280.6592
   6   2.0000     -10.301845      -280.3274
   7   2.0000     -10.298022      -280.2234
   8   2.0000     -10.294753      -280.1345
   9   2.0000     -10.282004      -279.7876
  10   2.0000     -10.273993      -279.5696
  11   2.0000     -10.270055      -279.4624
  12   2.0000     -10.264531      -279.3121
  13   2.0000     -10.259478      -279.1746
  14   2.0000     -10.259213      -279.1674
  15   2.0000     -10.156234      -276.3652
  16   2.0000      -1.454324       -39.5742
  17   2.0000      -1.175540       -31.9881
  18   2.0000      -1.063199       -28.9311
  19   2.0000      -0.978239       -26.6192
  20   2.0000      -0.954791       -25.9812
  21   2.0000      -0.923321       -25.1248
  22   2.0000      -0.891757       -24.2659
  23   2.0000      -0.854557       -23.2537
  24   2.0000      -0.828150       -22.5351
  25   2.0000      -0.791420       -21.5356
  26   2.0000      -0.784165       -21.3382
  27   2.0000      -0.751227       -20.4419
  28   2.0000      -0.720996       -19.6193
  29   2.0000      -0.704023       -19.1574
  30   2.0000      -0.681422       -18.5424
  31   2.0000      -0.675421       -18.3791
  32   2.0000      -0.669350       -18.2139
  33   2.0000      -0.659082       -17.9345
  34   2.0000      -0.627951       -17.0874
  35   2.0000      -0.611950       -16.6520
  36   2.0000      -0.590278       -16.0623
  37   2.0000      -0.586797       -15.9676
  38   2.0000      -0.576037       -15.6748
  39   2.0000      -0.563490       -15.3333
  40   2.0000      -0.555551       -15.1173
  41   2.0000      -0.535232       -14.5644
  42   2.0000      -0.531379       -14.4596
  43   2.0000      -0.522899       -14.2288
  44   2.0000      -0.515635       -14.0312
  45   2.0000      -0.508907       -13.8481
  46   2.0000      -0.491853       -13.3840
  47   2.0000      -0.482268       -13.1232
  48   2.0000      -0.477909       -13.0046
  49   2.0000      -0.472293       -12.8517
  50   2.0000      -0.464792       -12.6476
  51   2.0000      -0.450047       -12.2464
  52   2.0000      -0.447846       -12.1865
  53   2.0000      -0.437476       -11.9043
  54   2.0000      -0.434226       -11.8159
  55   2.0000      -0.429977       -11.7003
  56   2.0000      -0.418143       -11.3783
  57   2.0000      -0.405711       -11.0400
  58   2.0000      -0.404310       -11.0018
  59   2.0000      -0.399778       -10.8785
  60   2.0000      -0.392858       -10.6902
  61   2.0000      -0.326916        -8.8958
  62   2.0000      -0.230079        -6.2608
  63   0.0000       0.035521         0.9666
  64   0.0000       0.063199         1.7197
  65   0.0000       0.072740         1.9794
  66   0.0000       0.075174         2.0456
  67   0.0000       0.076024         2.0687

MULLIKEN ATOMIC CHARGES
-----------------------
   0 C :   -1.135798
   1 N :   -0.031387
   2 C :   -0.672185
   3 C :   -0.407641
   4 H :    0.331144
   5 H :    0.289027
   6 C :    0.627033
   7 C :    1.105600
   8 N :   -0.405310
   9 C :   -1.765922
  10 H :    0.279588
  11 H :    0.425651
  12 H :    0.142512
  13 H :    0.156091
  14 H :    0.206482
  15 O :   -0.712770
  16 F :   -0.320465
  17 C :   -0.418600
  18 H :    0.334961
  19 H :    0.345534
  20 C :   -0.454582
  21 C :   -0.496864
  22 H :    0.268800
  23 H :    0.311653
  24 H :    0.314840
  25 H :    0.308325
  26 C :    0.541267
  27 H :    0.347290
  28 H :    0.315890
  29 C :   -0.436954
  30 H :    0.334638
  31 H :   -0.732023
  32 C :   -0.803700
  33 H :    0.294932
  34 H :    0.342865
  35 H :    0.292154
  36 H :    0.276175
  37 H :    0.306931
  38 H :    0.294820
Sum of atomic charges:    0.0000000

LOEWDIN ATOMIC CHARGES
----------------------
   0 C :   -0.186910
   1 N :    0.029238
   2 C :   -0.194152
   3 C :   -0.090584
   4 H :    0.126958
   5 H :    0.121810
   6 C :   -0.425593
   7 C :   -0.540325
   8 N :    0.115319
   9 C :    0.003039
  10 H :    0.011249
  11 H :   -0.025307
  12 H :    0.065980
  13 H :    0.084550
  14 H :    0.106161
  15 O :    0.071850
  16 F :    0.195170
  17 C :   -0.188314
  18 H :    0.122160
  19 H :    0.103723
  20 C :   -0.215186
  21 C :   -0.206913
  22 H :    0.109376
  23 H :    0.123281
  24 H :    0.114027
  25 H :    0.118455
  26 C :   -0.216313
  27 H :    0.111480
  28 H :    0.113726
  29 C :   -0.218097
  30 H :    0.126483
  31 H :    0.078805
  32 C :   -0.210852
  33 H :    0.114997
  34 H :    0.110676
  35 H :    0.117422
  36 H :    0.101704
  37 H :    0.111048
  38 H :    0.109862

  Mayer bond orders larger than 0.100000
B(  0-C ,  1-N ) :   1.0430 B(  0-C ,  7-C ) :  -0.1628 B(  0-C ,  8-N ) :   0.1189
B(  0-C , 17-C ) :   0.6940 B(  0-C , 18-H ) :   0.8533 B(  0-C , 19-H ) :   0.8621
B(  0-C , 26-C ) :   0.1989 B(  0-C , 27-H ) :  -0.1188 B(  0-C , 31-H ) :   0.1571
B(  1-N ,  7-C ) :   1.1406 B(  1-N , 12-H ) :   0.8087 B(  1-N , 15-O ) :  -0.1198
B(  2-C ,  3-C ) :   0.7857 B(  2-C ,  6-C ) :   0.2294 B(  2-C , 20-C ) :   0.3042
B(  2-C , 21-C ) :   0.9646 B(  2-C , 24-H ) :   0.9207 B(  2-C , 25-H ) :   0.8931
B(  3-C ,  4-H ) :   0.8605 B(  3-C ,  5-H ) :   0.9730 B(  3-C ,  6-C ) :   0.9230
B(  3-C , 20-C ) :   0.1721 B(  6-C , 15-O ) :   1.6464 B(  6-C , 16-F ) :   0.7522
B(  7-C ,  8-N ) :   1.0070 B(  7-C ,  9-C ) :   0.7143 B(  7-C , 10-H ) :  -0.2440
B(  7-C , 12-H ) :  -0.1433 B(  8-N , 13-H ) :   1.0144 B(  8-N , 14-H ) :   0.9773
B(  9-C , 10-H ) :   1.1937 B(  9-C , 11-H ) :   0.8384 B( 11-H , 16-F ) :  -0.1374
B( 15-O , 16-F ) :   0.1340 B( 17-C , 26-C ) :   0.6512 B( 17-C , 27-H ) :   0.9544
B( 17-C , 28-H ) :   0.8038 B( 17-C , 29-C ) :   0.5317 B( 17-C , 30-H ) :  -0.1464
B( 20-C , 21-C ) :   0.3236 B( 20-C , 32-C ) :   0.9723 B( 20-C , 35-H ) :   0.8911
B( 20-C , 36-H ) :   0.9908 B( 21-C , 22-H ) :   1.0092 B( 21-C , 23-H ) :   0.8731
B( 21-C , 26-C ) :  -0.1056 B( 21-C , 29-C ) :   0.2020 B( 21-C , 32-C ) :   0.2934
B( 21-C , 36-H ) :  -0.1194 B( 26-C , 29-C ) :   0.5323 B( 26-C , 30-H ) :   0.8126
B( 26-C , 31-H ) :   1.3393 B( 26-C , 32-C ) :   0.3339 B( 29-C , 31-H ) :  -0.2306
B( 29-C , 32-C ) :   0.8748 B( 29-C , 33-H ) :   0.9049 B( 29-C , 34-H ) :   0.9122
B( 32-C , 37-H ) :   0.9255 B( 32-C , 38-H ) :   0.9303

Dispersion correction           -0.020134997
FINAL SINGLE POINT ENERGY      -755.750124037632

DIPOLE MOMENT
-------------
                                X             Y             Z
Electronic contribution:     12.37939       8.53575       4.38111
Nuclear contribution   :    -13.25777      -8.13937      -5.31678
                        -----------------------------------------
Total Dipole Moment    :     -0.87837       0.39638      -0.93566
                        -----------------------------------------
Magnitude (a.u.)       :      1.34318
Magnitude (Debye)      :      3.41409

Rotational constants in cm-1:     0.020021     0.013636     0.009443
Rotational constants in MHz :   600.208195   408.782966   283.102361

                             ****ORCA TERMINATED NORMALLY****
TOTAL RUN TIME: 0 days 0 hours 4 minutes 24 seconds 496 msec
