                         Program Version 5.0.0 -  RELEASE  -
|  1> !M062X D3Zero RIJCOSX def2-TZVP def2/J TightSCF
|  2> *xyz -1 1
|  3> C         -0.77894        0.17197        1.80496
|  4> C         -0.60249       -0.63071        0.49224
|  5> H          0.31389       -1.24035        0.60350
|  6> H         -0.36383        0.11332       -0.30117
|  7> O         -1.71206       -1.37684        0.20253
|  8> H         -1.65864        0.77733        1.73736
|  9> H          0.07466        0.79896        1.95712
| 10> H         -0.87474       -0.50584        2.62734
| 11> *
| 12> %MaxCore 64000
| 13>
| 14> %pal nprocs 4
| 15> end
| 16>
| 17> %scf
| 18>   MaxIter 150
| 19> end
| 20>
| 21>
| 22>                          ****END OF INPUT****

CARTESIAN COORDINATES (ANGSTROEM)
---------------------------------
  C     -0.778940    0.171970    1.804960
  C     -0.602490   -0.630710    0.492240
  H      0.313890   -1.240350    0.603500
  H     -0.363830    0.113320   -0.301170
  O     -1.712060   -1.376840    0.202530
  H     -1.658640    0.777330    1.737360
  H      0.074660    0.798960    1.957120
  H     -0.874740   -0.505840    2.627340

 Total Charge           Charge          ....   -1
 Multiplicity           Mult            ....    1
 Number of Electrons    NEL             ....   26
 Basis Dimension        Dim             ....  123

ORBITAL ENERGIES
----------------

  NO   OCC          E(Eh)            E(eV)
   0   2.0000     -19.267233      -524.2881
   1   2.0000     -10.338199      -281.3167
   2   2.0000     -10.315657      -280.7033
   3   2.0000      -0.779128       -21.2011
   4   2.0000      -0.610766       -16.6198
   5   2.0000      -0.448056       -12.1922
   6   2.0000      -0.310654        -8.4533
   7   2.0000      -0.286421        -7.7939
   8   2.0000      -0.226011        -6.1501
   9   2.0000      -0.213340        -5.8053
  10   2.0000      -0.166338        -4.5263
  11   2.0000      -0.021860        -0.5948
  12   2.0000      -0.021141        -0.5753
  13   0.0000       0.252443         6.8693
  14   0.0000       0.288901         7.8614
  15   0.0000       0.313424         8.5287
  16   0.0000       0.318110         8.6562
  17   0.0000       0.348212         9.4753

MULLIKEN ATOMIC CHARGES
-----------------------
   0 C :   -0.282381
   1 C :    0.005952
   2 H :   -0.027117
   3 H :   -0.029913
   4 O :   -0.807101
   5 H :    0.064920
   6 H :    0.012631
   7 H :    0.063011
Sum of atomic charges:   -1.0000000

LOEWDIN ATOMIC CHARGES
----------------------
   0 C :   -0.368964
   1 C :   -0.554177
   2 H :    0.057917
   3 H :    0.057074
   4 O :   -0.446965
   5 H :    0.090121
   6 H :    0.076032
   7 H :    0.088961

  Mayer bond orders larger than 0.100000
B(  0-C ,  1-C ) :   0.8812 B(  0-C ,  4-O ) :  -0.1724 B(  0-C ,  5-H ) :   0.9746
B(  0-C ,  6-H ) :   0.9460 B(  0-C ,  7-H ) :   0.9767 B(  1-C ,  2-H ) :   0.9391
B(  1-C ,  3-H ) :   0.9411 B(  1-C ,  4-O ) :   1.5216

Dispersion correction           -0.000014817
FINAL SINGLE POINT ENERGY      -154.402114821774

DIPOLE MOMENT
-------------
                                X             Y             Z
Electronic contribution:     -1.68372      -1.88724      -1.50753
Nuclear contribution   :      2.47835       2.80827       2.30058
                        -----------------------------------------
Total Dipole Moment    :      0.79462       0.92104       0.79305
                        -----------------------------------------
Magnitude (a.u.)       :      1.45212
Magnitude (Debye)      :      3.69101

Rotational constants in cm-1:     1.255775     0.327783     0.287473
Rotational constants in MHz : 37647.186859  9826.677683  8618.224821

                             ****ORCA TERMINATED NORMALLY****
TOTAL RUN TIME: 0 days 0 hours 0 minutes 12 seconds 247 msec
