                         Program Version 5.0.0 -  RELEASE  -
|  1> !M062X D3Zero RIJCOSX def2-TZVP def2/J TightSCF
|  2> *xyz 1 1
|  3> C         -2.12050        0.88520        1.78951
|  4> C         -0.77894        0.17197        1.80496
|  5> H         -2.32419        1.47265        2.68608
|  6> H         -2.18770        1.54127        0.91948
|  7> N         -3.17690       -0.15948        1.61070
|  8> H         -4.06474        0.23127        1.28675
|  9> H         -3.34407       -0.67151        2.48493
| 10> H         -2.71686       -0.78189        0.93588
| 11> H         -0.65708       -0.37837        0.89547
| 12> H         -0.74207       -0.50050        2.63642
| 13> H          0.00707        0.89251        1.89389
| 14> *
| 15> %MaxCore 64000
| 16>
| 17> %pal nprocs 4
| 18> end
| 19>
| 20> %scf
| 21>   MaxIter 150
| 22> end
| 23>
| 24>
| 25>                          ****END OF INPUT****

CARTESIAN COORDINATES (ANGSTROEM)
---------------------------------
  C     -2.120500    0.885200    1.789510
  C     -0.778940    0.171970    1.804960
  H     -2.324190    1.472650    2.686080
  H     -2.187700    1.541270    0.919480
  N     -3.176900   -0.159480    1.610700
  H     -4.064740    0.231270    1.286750
  H     -3.344070   -0.671510    2.484930
  H     -2.716860   -0.781890    0.935880
  H     -0.657080   -0.378370    0.895470
  H     -0.742070   -0.500500    2.636420
  H      0.007070    0.892510    1.893890

 Total Charge           Charge          ....    1
 Multiplicity           Mult            ....    1
 Number of Electrons    NEL             ....   26
 Basis Dimension        Dim             ....  141

ORBITAL ENERGIES
----------------

  NO   OCC          E(Eh)            E(eV)
   0   2.0000     -15.079305      -410.3287
   1   2.0000     -10.792553      -293.6803
   2   2.0000     -10.714325      -291.5516
   3   2.0000      -1.325897       -36.0795
   4   2.0000      -1.064221       -28.9589
   5   2.0000      -0.931748       -25.3542
   6   2.0000      -0.879637       -23.9361
   7   2.0000      -0.868918       -23.6445
   8   2.0000      -0.760380       -20.6910
   9   2.0000      -0.713277       -19.4092
  10   2.0000      -0.648516       -17.6470
  11   2.0000      -0.640844       -17.4382
  12   2.0000      -0.620110       -16.8740
  13   0.0000      -0.161842        -4.4040
  14   0.0000      -0.102027        -2.7763
  15   0.0000      -0.098848        -2.6898
  16   0.0000      -0.078366        -2.1325
  17   0.0000      -0.043585        -1.1860

MULLIKEN ATOMIC CHARGES
-----------------------
   0 C :   -0.224820
   1 C :   -0.421578
   2 H :    0.211209
   3 H :    0.205649
   4 N :   -0.317276
   5 H :    0.343878
   6 H :    0.340852
   7 H :    0.329826
   8 H :    0.162434
   9 H :    0.173485
  10 H :    0.196340
Sum of atomic charges:    1.0000000

LOEWDIN ATOMIC CHARGES
----------------------
   0 C :   -0.272968
   1 C :   -0.280626
   2 H :    0.152021
   3 H :    0.154191
   4 N :    0.165612
   5 H :    0.220670
   6 H :    0.223267
   7 H :    0.227733
   8 H :    0.129353
   9 H :    0.132422
  10 H :    0.148326

  Mayer bond orders larger than 0.100000
B(  0-C ,  1-C ) :   0.9597 B(  0-C ,  2-H ) :   0.9539 B(  0-C ,  3-H ) :   0.9531
B(  0-C ,  4-N ) :   0.8355 B(  1-C ,  8-H ) :   0.9526 B(  1-C ,  9-H ) :   0.9568
B(  1-C , 10-H ) :   0.9606 B(  4-N ,  5-H ) :   0.8701 B(  4-N ,  6-H ) :   0.8714
B(  4-N ,  7-H ) :   0.8714

Dispersion correction           -0.000047288
FINAL SINGLE POINT ENERGY      -135.505073308254

DIPOLE MOMENT
-------------
                                X             Y             Z
Electronic contribution:     -1.82431      -0.14835      -0.05688
Nuclear contribution   :      0.50278      -0.30871      -0.06979
                        -----------------------------------------
Total Dipole Moment    :     -1.32153      -0.45706      -0.12667
                        -----------------------------------------
Magnitude (a.u.)       :      1.40406
Magnitude (Debye)      :      3.56885

Rotational constants in cm-1:     0.963746     0.295157     0.256910
Rotational constants in MHz : 28892.375247  8848.576767  7701.963879

                             ****ORCA TERMINATED NORMALLY****
TOTAL RUN TIME: 0 days 0 hours 0 minutes 13 seconds 8 msec
