                         Program Version 5.0.0 -  RELEASE  -
|  1> !M062X D3Zero RIJCOSX def2-TZVP def2/J TightSCF xyzfile
|  2>
|  3> *xyzfile 0 1 B.xyz
|  4>
|  5> %MaxCore 64000
|  6>
|  7> %pal nprocs 18
|  8> end
|  9>
| 10> %scf
| 11>   MaxIter 150
| 12> end
| 13>
| 14>
| 15>                          ****END OF INPUT****

CARTESIAN COORDINATES (ANGSTROEM)
---------------------------------
  C     -2.120502    0.885196    1.789506
  C     -0.778939    0.171966    1.804965
  H     -2.324193    1.472649    2.686078
  H     -2.187698    1.541272    0.919482
  N     -3.176900   -0.159484    1.610700
  H      0.015695    0.910767    1.939153
  H     -0.743553   -0.506827    2.665420
  C     -0.602493   -0.630712    0.492240
  H      0.313894   -1.240346    0.603498
  H     -0.363829    0.113322   -0.301169
  O     -1.712061   -1.376836    0.202535
  H     -4.064736    0.231272    1.286754
  H     -3.344073   -0.671511    2.484928
  H     -2.716861   -0.781886    0.935880

 Total Charge           Charge          ....    0
 Multiplicity           Mult            ....    1
 Number of Electrons    NEL             ....   42
 Basis Dimension        Dim             ....  209

ORBITAL ENERGIES
----------------

  NO   OCC          E(Eh)            E(eV)
   0   2.0000     -19.490285      -530.3576
   1   2.0000     -14.825259      -403.4158
   2   2.0000     -10.599643      -288.4310
   3   2.0000     -10.530369      -286.5459
   4   2.0000     -10.526841      -286.4499
   5   2.0000      -1.101240       -29.9663
   6   2.0000      -1.007786       -27.4232
   7   2.0000      -0.867463       -23.6049
   8   2.0000      -0.742857       -20.2142
   9   2.0000      -0.672653       -18.3038
  10   2.0000      -0.647727       -17.6256
  11   2.0000      -0.621821       -16.9206
  12   2.0000      -0.554509       -15.0890
  13   2.0000      -0.503981       -13.7140
  14   2.0000      -0.470584       -12.8052
  15   2.0000      -0.466674       -12.6988
  16   2.0000      -0.422851       -11.5064
  17   2.0000      -0.403613       -10.9829
  18   2.0000      -0.382400       -10.4056
  19   2.0000      -0.249162        -6.7800
  20   2.0000      -0.243291        -6.6203
  21   0.0000       0.023683         0.6445
  22   0.0000       0.067461         1.8357
  23   0.0000       0.080031         2.1777
  24   0.0000       0.112242         3.0543
  25   0.0000       0.125170         3.4061

MULLIKEN ATOMIC CHARGES
-----------------------
   0 C :   -0.197491
   1 C :   -0.316034
   2 H :    0.152462
   3 H :    0.171892
   4 N :   -0.373726
   5 H :    0.131264
   6 H :    0.125846
   7 C :   -0.007920
   8 H :    0.075383
   9 H :    0.057092
  10 O :   -0.701747
  11 H :    0.273220
  12 H :    0.274859
  13 H :    0.334901
Sum of atomic charges:    0.0000000

LOEWDIN ATOMIC CHARGES
----------------------
   0 C :   -0.274891
   1 C :   -0.298318
   2 H :    0.125513
   3 H :    0.142409
   4 N :    0.122498
   5 H :    0.138414
   6 H :    0.132026
   7 C :   -0.471630
   8 H :    0.103994
   9 H :    0.096693
  10 O :   -0.292462
  11 H :    0.182609
  12 H :    0.189119
  13 H :    0.104026

  Mayer bond orders larger than 0.100000
B(  0-C ,  1-C ) :   0.9399 B(  0-C ,  2-H ) :   0.9813 B(  0-C ,  3-H ) :   0.9690
B(  0-C ,  4-N ) :   0.8523 B(  1-C ,  5-H ) :   0.9700 B(  1-C ,  6-H ) :   0.9709
B(  1-C ,  7-C ) :   0.9294 B(  4-N , 11-H ) :   0.9028 B(  4-N , 12-H ) :   0.9017
B(  4-N , 13-H ) :   0.5812 B(  7-C ,  8-H ) :   0.9665 B(  7-C ,  9-H ) :   0.9527
B(  7-C , 10-O ) :   1.1804 B( 10-O , 13-H ) :   0.4117

Dispersion correction           -0.000151311
FINAL SINGLE POINT ENERGY      -249.632131314726

DIPOLE MOMENT
-------------
                                X             Y             Z
Electronic contribution:     -1.52306      -1.45396      -0.78925
Nuclear contribution   :      0.08650       3.01678       2.47433
                        -----------------------------------------
Total Dipole Moment    :     -1.43655       1.56282       1.68508
                        -----------------------------------------
Magnitude (a.u.)       :      2.71027
Magnitude (Debye)      :      6.88897

Rotational constants in cm-1:     0.238796     0.156489     0.106146
Rotational constants in MHz :  7158.916762  4691.413084  3182.185740

                             ****ORCA TERMINATED NORMALLY****
TOTAL RUN TIME: 0 days 0 hours 0 minutes 14 seconds 259 msec
