                         Program Version 5.0.0 -  RELEASE  -
|  1> !M062X D3Zero RIJCOSX def2-TZVP def2/J TightSCF
|  2> *xyz 0 1
|  3> C         -0.77894        0.17197        1.80496
|  4> C         -0.60249       -0.63071        0.49224
|  5> H          0.31389       -1.24035        0.60350
|  6> H         -0.36383        0.11332       -0.30117
|  7> F         -1.71206       -1.37684        0.20253
|  8> H         -1.65864        0.77733        1.73736
|  9> H          0.07466        0.79896        1.95712
| 10> H         -0.87474       -0.50584        2.62734
| 11> *
| 12> %MaxCore 64000
| 13>
| 14> %pal nprocs 4
| 15> end
| 16>
| 17> %scf
| 18>   MaxIter 150
| 19> end
| 20>
| 21>
| 22>                          ****END OF INPUT****

CARTESIAN COORDINATES (ANGSTROEM)
---------------------------------
  C     -0.778940    0.171970    1.804960
  C     -0.602490   -0.630710    0.492240
  H      0.313890   -1.240350    0.603500
  H     -0.363830    0.113320   -0.301170
  F     -1.712060   -1.376840    0.202530
  H     -1.658640    0.777330    1.737360
  H      0.074660    0.798960    1.957120
  H     -0.874740   -0.505840    2.627340

 Total Charge           Charge          ....    0
 Multiplicity           Mult            ....    1
 Number of Electrons    NEL             ....   26
 Basis Dimension        Dim             ....  123

ORBITAL ENERGIES
----------------

  NO   OCC          E(Eh)            E(eV)
   0   2.0000     -25.231174      -686.5752
   1   2.0000     -10.615029      -288.8496
   2   2.0000     -10.528336      -286.4906
   3   2.0000      -1.342385       -36.5281
   4   2.0000      -0.860584       -23.4177
   5   2.0000      -0.722874       -19.6704
   6   2.0000      -0.589887       -16.0516
   7   2.0000      -0.581641       -15.8273
   8   2.0000      -0.545354       -14.8398
   9   2.0000      -0.481609       -13.1052
  10   2.0000      -0.467342       -12.7170
  11   2.0000      -0.403360       -10.9760
  12   2.0000      -0.400639       -10.9019
  13   0.0000       0.074209         2.0193
  14   0.0000       0.112963         3.0739
  15   0.0000       0.133442         3.6312
  16   0.0000       0.135970         3.6999
  17   0.0000       0.148584         4.0432

MULLIKEN ATOMIC CHARGES
-----------------------
   0 C :   -0.394244
   1 C :    0.003413
   2 H :    0.111143
   3 H :    0.110594
   4 F :   -0.235862
   5 H :    0.139460
   6 H :    0.127500
   7 H :    0.137995
Sum of atomic charges:   -0.0000000

LOEWDIN ATOMIC CHARGES
----------------------
   0 C :   -0.310775
   1 C :   -0.366274
   2 H :    0.116628
   3 H :    0.118055
   4 F :    0.089665
   5 H :    0.117041
   6 H :    0.119795
   7 H :    0.115866

  Mayer bond orders larger than 0.100000
B(  0-C ,  1-C ) :   0.9696 B(  0-C ,  5-H ) :   0.9692 B(  0-C ,  6-H ) :   0.9601
B(  0-C ,  7-H ) :   0.9705 B(  1-C ,  2-H ) :   0.9749 B(  1-C ,  3-H ) :   0.9760
B(  1-C ,  4-F ) :   0.9708

Dispersion correction           -0.000018803
FINAL SINGLE POINT ENERGY      -179.050707900607

DIPOLE MOMENT
-------------
                                X             Y             Z
Electronic contribution:     -2.72873      -3.28995      -2.82699
Nuclear contribution   :      3.27800       3.70743       3.04146
                        -----------------------------------------
Total Dipole Moment    :      0.54927       0.41748       0.21447
                        -----------------------------------------
Magnitude (a.u.)       :      0.72249
Magnitude (Debye)      :      1.83642

Rotational constants in cm-1:     1.234437     0.305084     0.268865
Rotational constants in MHz : 37007.496448  9146.194083  8060.380630

                             ****ORCA TERMINATED NORMALLY****
TOTAL RUN TIME: 0 days 0 hours 0 minutes 9 seconds 862 msec
