                         Program Version 5.0.0 -  RELEASE  -
|  1> !M062X D3Zero RIJCOSX def2-TZVP def2/J TightSCF
|  2> *xyz 0 1
|  3> C         -2.12050        0.88520        1.78951
|  4> C         -0.77894        0.17197        1.80496
|  5> H         -2.32419        1.47265        2.68608
|  6> H         -2.18770        1.54127        0.91948
|  7> C         -3.17690       -0.15948        1.61070
|  8> H         -4.06474        0.23127        1.28675
|  9> H         -3.34407       -0.67151        2.48493
| 10> H         -2.71686       -0.78189        0.93588
| 11> H         -0.65708       -0.37837        0.89547
| 12> H         -0.74207       -0.50050        2.63642
| 13> H          0.00707        0.89251        1.89389
| 14> *
| 15> %MaxCore 64000
| 16>
| 17> %pal nprocs 4
| 18> end
| 19>
| 20> %scf
| 21>   MaxIter 150
| 22> end
| 23>
| 24>
| 25>                          ****END OF INPUT****

CARTESIAN COORDINATES (ANGSTROEM)
---------------------------------
  C     -2.120500    0.885200    1.789510
  C     -0.778940    0.171970    1.804960
  H     -2.324190    1.472650    2.686080
  H     -2.187700    1.541270    0.919480
  C     -3.176900   -0.159480    1.610700
  H     -4.064740    0.231270    1.286750
  H     -3.344070   -0.671510    2.484930
  H     -2.716860   -0.781890    0.935880
  H     -0.657080   -0.378370    0.895470
  H     -0.742070   -0.500500    2.636420
  H      0.007070    0.892510    1.893890

 Total Charge           Charge          ....    0
 Multiplicity           Mult            ....    1
 Number of Electrons    NEL             ....   26
 Basis Dimension        Dim             ....  141

ORBITAL ENERGIES
----------------

  NO   OCC          E(Eh)            E(eV)
   0   2.0000     -10.519524      -286.2508
   1   2.0000     -10.511235      -286.0253
   2   2.0000     -10.491602      -285.4910
   3   2.0000      -0.895044       -24.3554
   4   2.0000      -0.778251       -21.1773
   5   2.0000      -0.669412       -18.2156
   6   2.0000      -0.542654       -14.7664
   7   2.0000      -0.522555       -14.2194
   8   2.0000      -0.465060       -12.6549
   9   2.0000      -0.449825       -12.2404
  10   2.0000      -0.400047       -10.8858
  11   2.0000      -0.390833       -10.6351
  12   2.0000      -0.387835       -10.5535
  13   0.0000       0.074689         2.0324
  14   0.0000       0.115922         3.1544
  15   0.0000       0.122655         3.3376
  16   0.0000       0.128078         3.4852
  17   0.0000       0.145178         3.9505

MULLIKEN ATOMIC CHARGES
-----------------------
   0 C :   -0.212022
   1 C :   -0.408689
   2 H :    0.116341
   3 H :    0.115664
   4 C :   -0.362969
   5 H :    0.122920
   6 H :    0.130091
   7 H :    0.106923
   8 H :    0.129748
   9 H :    0.132033
  10 H :    0.129958
Sum of atomic charges:    0.0000000

LOEWDIN ATOMIC CHARGES
----------------------
   0 C :   -0.323053
   1 C :   -0.310694
   2 H :    0.127954
   3 H :    0.132955
   4 C :   -0.301299
   5 H :    0.103458
   6 H :    0.107377
   7 H :    0.115543
   8 H :    0.115902
   9 H :    0.117530
  10 H :    0.114327

  Mayer bond orders larger than 0.100000
B(  0-C ,  1-C ) :   0.9449 B(  0-C ,  2-H ) :   0.9770 B(  0-C ,  3-H ) :   0.9810
B(  0-C ,  4-C ) :   0.9278 B(  1-C ,  8-H ) :   0.9758 B(  1-C ,  9-H ) :   0.9746
B(  1-C , 10-H ) :   0.9824 B(  4-C ,  5-H ) :   0.9855 B(  4-C ,  6-H ) :   0.9830
B(  4-C ,  7-H ) :   0.9767

Dispersion correction           -0.000046052
FINAL SINGLE POINT ENERGY      -119.094259344906

DIPOLE MOMENT
-------------
                                X             Y             Z
Electronic contribution:     -0.14547       0.47816       0.11348
Nuclear contribution   :      0.13334      -0.45108      -0.10852
                        -----------------------------------------
Total Dipole Moment    :     -0.01213       0.02707       0.00497
                        -----------------------------------------
Magnitude (a.u.)       :      0.03008
Magnitude (Debye)      :      0.07646

Rotational constants in cm-1:     0.972269     0.310387     0.269029
Rotational constants in MHz : 29147.878530  9305.178981  8065.286472

                             ****ORCA TERMINATED NORMALLY****
TOTAL RUN TIME: 0 days 0 hours 0 minutes 13 seconds 574 msec
