                         Program Version 5.0.0 -  RELEASE  -
|  1> !PBE0 D3BJ RIJCOSX def2-SVPD def2/J TightSCF
|  2> *xyz -1 1
|  3> C         -5.57236       -5.80780       -0.81644
|  4> S         -6.90318       -4.61903       -0.52846
|  5> O         -8.11485       -5.25093       -0.95701
|  6> O         -6.53271       -3.42684       -1.31485
|  7> O         -6.86563       -4.29496        0.91412
|  8> H         -5.55376       -6.07856       -1.85145
|  9> H         -5.73990       -6.68165       -0.22212
| 10> H         -4.63562       -5.36690       -0.54622
| 11> *
| 12> %MaxCore 64000
| 13>
| 14> %pal nprocs 4
| 15> end
| 16>
| 17> %scf
| 18>   MaxIter 150
| 19> end
| 20>
| 21>                          ****END OF INPUT****

CARTESIAN COORDINATES (ANGSTROEM)
---------------------------------
  C     -5.572360   -5.807800   -0.816440
  S     -6.903180   -4.619030   -0.528460
  O     -8.114850   -5.250930   -0.957010
  O     -6.532710   -3.426840   -1.314850
  O     -6.865630   -4.294960    0.914120
  H     -5.553760   -6.078560   -1.851450
  H     -5.739900   -6.681650   -0.222120
  H     -4.635620   -5.366900   -0.546220

 Total Charge           Charge          ....   -1
 Multiplicity           Mult            ....    1
 Number of Electrons    NEL             ....   50
 Basis Dimension        Dim             ....  140

ORBITAL ENERGIES
----------------

  NO   OCC          E(Eh)            E(eV)
   0   2.0000     -89.038426     -2422.8588
   1   2.0000     -19.000341      -517.0256
   2   2.0000     -18.987997      -516.6897
   3   2.0000     -18.986980      -516.6620
   4   2.0000     -10.088504      -274.5222
   5   2.0000      -7.997592      -217.6255
   6   2.0000      -5.939825      -161.6308
   7   2.0000      -5.939616      -161.6252
   8   2.0000      -5.939459      -161.6209
   9   2.0000      -0.954944       -25.9853
  10   2.0000      -0.814129       -22.1536
  11   2.0000      -0.790171       -21.5017
  12   2.0000      -0.601520       -16.3682
  13   2.0000      -0.406032       -11.0487
  14   2.0000      -0.317867        -8.6496
  15   2.0000      -0.305535        -8.3140
  16   2.0000      -0.304375        -8.2825
  17   2.0000      -0.263514        -7.1706
  18   2.0000      -0.261771        -7.1231
  19   2.0000      -0.164184        -4.4677
  20   2.0000      -0.163804        -4.4573
  21   2.0000      -0.129043        -3.5114
  22   2.0000      -0.120533        -3.2799
  23   2.0000      -0.113688        -3.0936
  24   2.0000      -0.075464        -2.0535
  25   0.0000       0.156742         4.2652
  26   0.0000       0.189942         5.1686
  27   0.0000       0.190113         5.1732
  28   0.0000       0.194372         5.2891
  29   0.0000       0.218019         5.9326

MULLIKEN ATOMIC CHARGES
-----------------------
   0 C :    0.306786
   1 S :    1.171608
   2 O :   -0.774688
   3 O :   -0.819871
   4 O :   -0.821768
   5 H :   -0.017886
   6 H :   -0.023927
   7 H :   -0.020253
Sum of atomic charges:   -1.0000000

LOEWDIN ATOMIC CHARGES
----------------------
   0 C :    0.054542
   1 S :    0.845788
   2 O :   -0.580452
   3 O :   -0.603701
   4 O :   -0.602940
   5 H :   -0.037942
   6 H :   -0.038701
   7 H :   -0.036595

  Mayer bond orders larger than 0.100000
B(  0-C ,  1-S ) :   0.9461 B(  0-C ,  5-H ) :   0.9381 B(  0-C ,  6-H ) :   0.9412
B(  0-C ,  7-H ) :   0.9433 B(  1-S ,  2-O ) :   1.3191 B(  1-S ,  3-O ) :   1.2868
B(  1-S ,  4-O ) :   1.2804 B(  1-S ,  5-H ) :   0.1009 B(  1-S ,  6-H ) :   0.1006
B(  1-S ,  7-H ) :   0.1089

Dispersion correction           -0.005326679
FINAL SINGLE POINT ENERGY      -663.077128590389

DIPOLE MOMENT
-------------
                                X             Y             Z
Electronic contribution:     -3.23687       2.72369       0.63318
Nuclear contribution   :      4.23639      -3.86101      -0.94151
                        -----------------------------------------
Total Dipole Moment    :      0.99952      -1.13731      -0.30833
                        -----------------------------------------
Magnitude (a.u.)       :      1.54518
Magnitude (Debye)      :      3.92754

Rotational constants in cm-1:     0.172406     0.155169     0.153146
Rotational constants in MHz :  5168.590738  4651.861875  4591.214998

                             ****ORCA TERMINATED NORMALLY****
TOTAL RUN TIME: 0 days 0 hours 0 minutes 10 seconds 265 msec
