                         Program Version 5.0.0 -  RELEASE  -
|  1> !PBE0 D3BJ RIJCOSX def2-SVPD def2/J TightSCF
|  2> *xyz 1 1
|  3> C         -4.38262       -1.67089        1.21620
|  4> N         -5.76354       -1.91517        0.70501
|  5> H         -5.84081       -2.11520       -0.30065
|  6> H         -6.40882       -1.14866        0.93612
|  7> H         -6.17478       -2.79061        1.05143
|  8> H         -4.01369       -0.74796        0.81997
|  9> H         -3.74223       -2.47168        0.91037
| 10> H         -4.40201       -1.61791        2.28471
| 11> *
| 12> %MaxCore 64000
| 13>
| 14> %pal nprocs 4
| 15> end
| 16>
| 17> %scf
| 18>   MaxIter 150
| 19> end
| 20>
| 21>                          ****END OF INPUT****

CARTESIAN COORDINATES (ANGSTROEM)
---------------------------------
  C     -4.382620   -1.670890    1.216200
  N     -5.763540   -1.915170    0.705010
  H     -5.840810   -2.115200   -0.300650
  H     -6.408820   -1.148660    0.936120
  H     -6.174780   -2.790610    1.051430
  H     -4.013690   -0.747960    0.819970
  H     -3.742230   -2.471680    0.910370
  H     -4.402010   -1.617910    2.284710

 Total Charge           Charge          ....    1
 Multiplicity           Mult            ....    1
 Number of Electrons    NEL             ....   18
 Basis Dimension        Dim             ....   88

ORBITAL ENERGIES
----------------

  NO   OCC          E(Eh)            E(eV)
   0   2.0000     -14.746625      -401.2761
   1   2.0000     -10.492337      -285.5110
   2   2.0000      -1.243872       -33.8475
   3   2.0000      -0.960322       -26.1317
   4   2.0000      -0.831733       -22.6326
   5   2.0000      -0.807275       -21.9671
   6   2.0000      -0.735911       -20.0252
   7   2.0000      -0.641566       -17.4579
   8   2.0000      -0.638370       -17.3709
   9   0.0000      -0.195094        -5.3088
  10   0.0000      -0.127559        -3.4710
  11   0.0000      -0.125255        -3.4084
  12   0.0000      -0.121918        -3.3175
  13   0.0000      -0.073919        -2.0114

MULLIKEN ATOMIC CHARGES
-----------------------
   0 C :    0.826007
   1 N :   -0.910753
   2 H :    0.361562
   3 H :    0.392276
   4 H :    0.368597
   5 H :   -0.015254
   6 H :   -0.016674
   7 H :   -0.005762
Sum of atomic charges:    1.0000000

LOEWDIN ATOMIC CHARGES
----------------------
   0 C :    0.290513
   1 N :    0.303316
   2 H :    0.109191
   3 H :    0.111591
   4 H :    0.106642
   5 H :    0.025932
   6 H :    0.025970
   7 H :    0.026844

  Mayer bond orders larger than 0.100000
B(  0-C ,  1-N ) :   0.7147 B(  0-C ,  5-H ) :   0.9156 B(  0-C ,  6-H ) :   0.9160
B(  0-C ,  7-H ) :   0.9058 B(  1-N ,  2-H ) :   0.8011 B(  1-N ,  3-H ) :   0.7521
B(  1-N ,  4-H ) :   0.7978

Dispersion correction           -0.002665516
FINAL SINGLE POINT ENERGY       -96.033418550259

DIPOLE MOMENT
-------------
                                X             Y             Z
Electronic contribution:     -0.96170      -0.13436      -0.35416
Nuclear contribution   :      0.12888      -0.05969       0.04130
                        -----------------------------------------
Total Dipole Moment    :     -0.83282      -0.19406      -0.31286
                        -----------------------------------------
Magnitude (a.u.)       :      0.91056
Magnitude (Debye)      :      2.31446

Rotational constants in cm-1:     2.932748     0.676653     0.669753
Rotational constants in MHz : 87921.559023 20285.538082 20078.692306

                             ****ORCA TERMINATED NORMALLY****
TOTAL RUN TIME: 0 days 0 hours 0 minutes 4 seconds 418 msec
