                         Program Version 5.0.0 -  RELEASE  -
|  1> !PBE0 D3BJ RIJCOSX def2-SVPD def2/J TightSCF
|  2> *xyz 0 1
|  3> C         -5.57236       -5.80780       -0.81644
|  4> S         -6.90318       -4.61903       -0.52846
|  5> F         -8.11485       -5.25093       -0.95701
|  6> O         -6.53271       -3.42684       -1.31485
|  7> O         -6.86563       -4.29496        0.91412
|  8> H         -5.55376       -6.07856       -1.85145
|  9> H         -5.73990       -6.68165       -0.22212
| 10> H         -4.63562       -5.36690       -0.54622
| 11> *
| 12> %MaxCore 64000
| 13>
| 14> %pal nprocs 4
| 15> end
| 16>
| 17> %scf
| 18>   MaxIter 150
| 19> end
| 20>
| 21>                          ****END OF INPUT****

CARTESIAN COORDINATES (ANGSTROEM)
---------------------------------
  C     -5.572360   -5.807800   -0.816440
  S     -6.903180   -4.619030   -0.528460
  F     -8.114850   -5.250930   -0.957010
  O     -6.532710   -3.426840   -1.314850
  O     -6.865630   -4.294960    0.914120
  H     -5.553760   -6.078560   -1.851450
  H     -5.739900   -6.681650   -0.222120
  H     -4.635620   -5.366900   -0.546220

 Total Charge           Charge          ....    0
 Multiplicity           Mult            ....    1
 Number of Electrons    NEL             ....   50
 Basis Dimension        Dim             ....  140

ORBITAL ENERGIES
----------------

  NO   OCC          E(Eh)            E(eV)
   0   2.0000     -89.306127     -2430.1433
   1   2.0000     -24.914169      -677.9490
   2   2.0000     -19.227924      -523.2184
   3   2.0000     -19.226896      -523.1904
   4   2.0000     -10.299228      -280.2562
   5   2.0000      -8.265917      -224.9270
   6   2.0000      -6.212293      -169.0451
   7   2.0000      -6.205584      -168.8625
   8   2.0000      -6.204790      -168.8409
   9   2.0000      -1.424370       -38.7591
  10   2.0000      -1.130001       -30.7489
  11   2.0000      -1.026557       -27.9340
  12   2.0000      -0.826950       -22.5025
  13   2.0000      -0.749562       -20.3966
  14   2.0000      -0.634255       -17.2590
  15   2.0000      -0.620598       -16.8873
  16   2.0000      -0.580573       -15.7982
  17   2.0000      -0.497930       -13.5494
  18   2.0000      -0.494296       -13.4505
  19   2.0000      -0.486660       -13.2427
  20   2.0000      -0.455415       -12.3925
  21   2.0000      -0.400807       -10.9065
  22   2.0000      -0.350500        -9.5376
  23   2.0000      -0.345816        -9.4101
  24   2.0000      -0.319993        -8.7074
  25   0.0000      -0.004184        -0.1139
  26   0.0000       0.034746         0.9455
  27   0.0000       0.038259         1.0411
  28   0.0000       0.049026         1.3341
  29   0.0000       0.051654         1.4056

MULLIKEN ATOMIC CHARGES
-----------------------
   0 C :    0.289005
   1 S :    1.322621
   2 F :   -0.379042
   3 O :   -0.676088
   4 O :   -0.677361
   5 H :    0.046884
   6 H :    0.042038
   7 H :    0.031943
Sum of atomic charges:   -0.0000000

LOEWDIN ATOMIC CHARGES
----------------------
   0 C :    0.124229
   1 S :    1.118505
   2 F :   -0.255609
   3 O :   -0.484012
   4 O :   -0.482686
   5 H :   -0.011599
   6 H :   -0.011940
   7 H :    0.003112

  Mayer bond orders larger than 0.100000
B(  0-C ,  1-S ) :   1.0039 B(  0-C ,  5-H ) :   0.9219 B(  0-C ,  6-H ) :   0.9260
B(  0-C ,  7-H ) :   0.9336 B(  1-S ,  2-F ) :   0.6889 B(  1-S ,  3-O ) :   1.4982
B(  1-S ,  4-O ) :   1.4914 B(  1-S ,  7-H ) :   0.1076

Dispersion correction           -0.004991885
FINAL SINGLE POINT ENERGY      -687.543066556671

DIPOLE MOMENT
-------------
                                X             Y             Z
Electronic contribution:     -5.21425       1.61498      -0.09151
Nuclear contribution   :      5.53040      -3.27628      -0.52239
                        -----------------------------------------
Total Dipole Moment    :      0.31615      -1.66130      -0.61391
                        -----------------------------------------
Magnitude (a.u.)       :      1.79910
Magnitude (Debye)      :      4.57295

Rotational constants in cm-1:     0.163239     0.153903     0.144751
Rotational constants in MHz :  4893.777363  4613.882823  4339.513182

                             ****ORCA TERMINATED NORMALLY****
TOTAL RUN TIME: 0 days 0 hours 0 minutes 10 seconds 263 msec
