                         Program Version 5.0.0 -  RELEASE  -
|  1> !PBE0 D3BJ RIJCOSX def2-SVPD def2/J TightSCF
|  2> *xyz 0 1
|  3> C         -4.38262       -1.67089        1.21620
|  4> C         -5.76354       -1.91517        0.70501
|  5> H         -5.84081       -2.11520       -0.30065
|  6> H         -6.40882       -1.14866        0.93612
|  7> H         -6.17478       -2.79061        1.05143
|  8> H         -4.01369       -0.74796        0.81997
|  9> H         -3.74223       -2.47168        0.91037
| 10> H         -4.40201       -1.61791        2.28471
| 11> *
| 12> %MaxCore 64000
| 13>
| 14> %pal nprocs 4
| 15> end
| 16>
| 17> %scf
| 18>   MaxIter 150
| 19> end
| 20>
| 21>                          ****END OF INPUT****

CARTESIAN COORDINATES (ANGSTROEM)
---------------------------------
  C     -4.382620   -1.670890    1.216200
  C     -5.763540   -1.915170    0.705010
  H     -5.840810   -2.115200   -0.300650
  H     -6.408820   -1.148660    0.936120
  H     -6.174780   -2.790610    1.051430
  H     -4.013690   -0.747960    0.819970
  H     -3.742230   -2.471680    0.910370
  H     -4.402010   -1.617910    2.284710

 Total Charge           Charge          ....    0
 Multiplicity           Mult            ....    1
 Number of Electrons    NEL             ....   18
 Basis Dimension        Dim             ....   88

ORBITAL ENERGIES
----------------

  NO   OCC          E(Eh)            E(eV)
   0   2.0000     -10.211430      -277.8671
   1   2.0000     -10.196272      -277.4547
   2   2.0000      -0.783291       -21.3144
   3   2.0000      -0.640978       -17.4419
   4   2.0000      -0.464379       -12.6364
   5   2.0000      -0.450969       -12.2715
   6   2.0000      -0.388911       -10.5828
   7   2.0000      -0.361830        -9.8459
   8   2.0000      -0.348386        -9.4801
   9   0.0000       0.036219         0.9856
  10   0.0000       0.066678         1.8144
  11   0.0000       0.110536         3.0078
  12   0.0000       0.113639         3.0923
  13   0.0000       0.133052         3.6205

MULLIKEN ATOMIC CHARGES
-----------------------
   0 C :    0.123767
   1 C :    0.355664
   2 H :   -0.169848
   3 H :   -0.131266
   4 H :   -0.158144
   5 H :   -0.014182
   6 H :   -0.000405
   7 H :   -0.005586
Sum of atomic charges:    0.0000000

LOEWDIN ATOMIC CHARGES
----------------------
   0 C :    0.080986
   1 C :    0.072163
   2 H :   -0.036511
   3 H :   -0.031788
   4 H :   -0.037985
   5 H :   -0.016307
   6 H :   -0.015614
   7 H :   -0.014943

  Mayer bond orders larger than 0.100000
B(  0-C ,  1-C ) :   1.4478 B(  0-C ,  2-H ) :   0.1163 B(  0-C ,  3-H ) :   0.1396
B(  0-C ,  4-H ) :   0.1259 B(  0-C ,  5-H ) :   0.8882 B(  0-C ,  6-H ) :   0.8940
B(  0-C ,  7-H ) :   0.8737 B(  1-C ,  2-H ) :   0.8102 B(  1-C ,  3-H ) :   0.8361
B(  1-C ,  4-H ) :   0.8030 B(  1-C ,  5-H ) :   0.1308 B(  1-C ,  6-H ) :   0.1282
B(  1-C ,  7-H ) :   0.1357 B(  2-H ,  4-H ) :   0.2255

Dispersion correction           -0.002675706
FINAL SINGLE POINT ENERGY       -79.654387159894

DIPOLE MOMENT
-------------
                                X             Y             Z
Electronic contribution:      0.07809       0.07457       0.03222
Nuclear contribution   :     -0.10782      -0.10031      -0.04623
                        -----------------------------------------
Total Dipole Moment    :     -0.02973      -0.02574      -0.01401
                        -----------------------------------------
Magnitude (a.u.)       :      0.04175
Magnitude (Debye)      :      0.10611

Rotational constants in cm-1:     2.932831     0.705715     0.698218
Rotational constants in MHz : 87924.050302 21156.813368 20932.044240

                             ****ORCA TERMINATED NORMALLY****
TOTAL RUN TIME: 0 days 0 hours 0 minutes 4 seconds 442 msec
