                         Program Version 5.0.0 -  RELEASE  -
|  1> !PBE0 D3BJ RIJCOSX def2-SVPD def2/J TightSCF
|  2> *xyz 0 1
|  3> C         -5.57236       -5.80780       -0.81644
|  4> S         -6.90318       -4.61903       -0.52846
|  5> O         -8.11485       -5.25093       -0.95701
|  6> F         -6.53271       -3.42684       -1.31485
|  7> O         -6.86563       -4.29496        0.91412
|  8> H         -5.55376       -6.07856       -1.85145
|  9> H         -5.73990       -6.68165       -0.22212
| 10> H         -4.63562       -5.36690       -0.54622
| 11> *
| 12> %MaxCore 64000
| 13>
| 14> %pal nprocs 4
| 15> end
| 16>
| 17> %scf
| 18>   MaxIter 150
| 19> end
| 20>
| 21>                          ****END OF INPUT****

CARTESIAN COORDINATES (ANGSTROEM)
---------------------------------
  C     -5.572360   -5.807800   -0.816440
  S     -6.903180   -4.619030   -0.528460
  O     -8.114850   -5.250930   -0.957010
  F     -6.532710   -3.426840   -1.314850
  O     -6.865630   -4.294960    0.914120
  H     -5.553760   -6.078560   -1.851450
  H     -5.739900   -6.681650   -0.222120
  H     -4.635620   -5.366900   -0.546220

 Total Charge           Charge          ....    0
 Multiplicity           Mult            ....    1
 Number of Electrons    NEL             ....   50
 Basis Dimension        Dim             ....  140

ORBITAL ENERGIES
----------------

  NO   OCC          E(Eh)            E(eV)
   0   2.0000     -89.303777     -2430.0793
   1   2.0000     -24.892905      -677.3704
   2   2.0000     -19.240229      -523.5533
   3   2.0000     -19.227344      -523.2026
   4   2.0000     -10.298382      -280.2332
   5   2.0000      -8.263561      -224.8629
   6   2.0000      -6.209650      -168.9732
   7   2.0000      -6.203527      -168.8066
   8   2.0000      -6.202630      -168.7821
   9   2.0000      -1.387169       -37.7468
  10   2.0000      -1.146652       -31.2020
  11   2.0000      -1.042436       -28.3661
  12   2.0000      -0.824269       -22.4295
  13   2.0000      -0.731411       -19.9027
  14   2.0000      -0.616135       -16.7659
  15   2.0000      -0.594818       -16.1858
  16   2.0000      -0.576780       -15.6950
  17   2.0000      -0.499364       -13.5884
  18   2.0000      -0.497669       -13.5423
  19   2.0000      -0.485071       -13.1994
  20   2.0000      -0.462111       -12.5747
  21   2.0000      -0.409926       -11.1547
  22   2.0000      -0.363222        -9.8838
  23   2.0000      -0.349704        -9.5159
  24   2.0000      -0.332410        -9.0453
  25   0.0000      -0.002340        -0.0637
  26   0.0000       0.033479         0.9110
  27   0.0000       0.039351         1.0708
  28   0.0000       0.050902         1.3851
  29   0.0000       0.051507         1.4016

MULLIKEN ATOMIC CHARGES
-----------------------
   0 C :    0.286584
   1 S :    1.332276
   2 O :   -0.646237
   3 F :   -0.402784
   4 O :   -0.688894
   5 H :    0.046912
   6 H :    0.030549
   7 H :    0.041595
Sum of atomic charges:   -0.0000000

LOEWDIN ATOMIC CHARGES
----------------------
   0 C :    0.124803
   1 S :    1.116176
   2 O :   -0.462836
   3 F :   -0.274466
   4 O :   -0.483295
   5 H :   -0.011305
   6 H :    0.001719
   7 H :   -0.010797

  Mayer bond orders larger than 0.100000
B(  0-C ,  1-S ) :   1.0039 B(  0-C ,  5-H ) :   0.9240 B(  0-C ,  6-H ) :   0.9302
B(  0-C ,  7-H ) :   0.9294 B(  1-S ,  2-O ) :   1.5268 B(  1-S ,  3-F ) :   0.6440
B(  1-S ,  4-O ) :   1.4887 B(  1-S ,  6-H ) :   0.1016

Dispersion correction           -0.004991999
FINAL SINGLE POINT ENERGY      -687.561334312906

DIPOLE MOMENT
-------------
                                X             Y             Z
Electronic contribution:     -2.58786       4.64776      -0.70000
Nuclear contribution   :      3.94974      -5.09866      -0.16489
                        -----------------------------------------
Total Dipole Moment    :      1.36188      -0.45090      -0.86488
                        -----------------------------------------
Magnitude (a.u.)       :      1.67513
Magnitude (Debye)      :      4.25783

Rotational constants in cm-1:     0.163657     0.151977     0.145976
Rotational constants in MHz :  4906.325390  4556.144033  4376.262759

                             ****ORCA TERMINATED NORMALLY****
TOTAL RUN TIME: 0 days 0 hours 0 minutes 11 seconds 731 msec
