                         Program Version 5.0.0 -  RELEASE  -
|  1> !PBE0 D3BJ RIJCOSX def2-SVPD def2/J TightSCF
|  2> *xyz 0 1
|  3> C         -5.57236       -5.80780       -0.81644
|  4> S         -6.90318       -4.61903       -0.52846
|  5> O         -8.11485       -5.25093       -0.95701
|  6> O         -6.53271       -3.42684       -1.31485
|  7> F         -6.86563       -4.29496        0.91412
|  8> H         -5.55376       -6.07856       -1.85145
|  9> H         -5.73990       -6.68165       -0.22212
| 10> H         -4.63562       -5.36690       -0.54622
| 11> *
| 12> %MaxCore 64000
| 13>
| 14> %pal nprocs 4
| 15> end
| 16>
| 17> %scf
| 18>   MaxIter 150
| 19> end
| 20>
| 21>                          ****END OF INPUT****

CARTESIAN COORDINATES (ANGSTROEM)
---------------------------------
  C     -5.572360   -5.807800   -0.816440
  S     -6.903180   -4.619030   -0.528460
  O     -8.114850   -5.250930   -0.957010
  O     -6.532710   -3.426840   -1.314850
  F     -6.865630   -4.294960    0.914120
  H     -5.553760   -6.078560   -1.851450
  H     -5.739900   -6.681650   -0.222120
  H     -4.635620   -5.366900   -0.546220

 Total Charge           Charge          ....    0
 Multiplicity           Mult            ....    1
 Number of Electrons    NEL             ....   50
 Basis Dimension        Dim             ....  140

ORBITAL ENERGIES
----------------

  NO   OCC          E(Eh)            E(eV)
   0   2.0000     -89.303503     -2430.0719
   1   2.0000     -24.892825      -677.3682
   2   2.0000     -19.240321      -523.5558
   3   2.0000     -19.226420      -523.1775
   4   2.0000     -10.298376      -280.2331
   5   2.0000      -8.263321      -224.8564
   6   2.0000      -6.209370      -168.9656
   7   2.0000      -6.203287      -168.8000
   8   2.0000      -6.202417      -168.7763
   9   2.0000      -1.385219       -37.6937
  10   2.0000      -1.147431       -31.2232
  11   2.0000      -1.043272       -28.3889
  12   2.0000      -0.823484       -22.4081
  13   2.0000      -0.731098       -19.8942
  14   2.0000      -0.615428       -16.7466
  15   2.0000      -0.593610       -16.1530
  16   2.0000      -0.576262       -15.6809
  17   2.0000      -0.498695       -13.5702
  18   2.0000      -0.497939       -13.5496
  19   2.0000      -0.485903       -13.2221
  20   2.0000      -0.462179       -12.5765
  21   2.0000      -0.410073       -11.1587
  22   2.0000      -0.363246        -9.8844
  23   2.0000      -0.349105        -9.4996
  24   2.0000      -0.332469        -9.0469
  25   0.0000      -0.003824        -0.1041
  26   0.0000       0.030903         0.8409
  27   0.0000       0.039456         1.0737
  28   0.0000       0.050861         1.3840
  29   0.0000       0.051495         1.4013

MULLIKEN ATOMIC CHARGES
-----------------------
   0 C :    0.287811
   1 S :    1.331591
   2 O :   -0.646246
   3 O :   -0.687672
   4 F :   -0.404762
   5 H :    0.035650
   6 H :    0.040622
   7 H :    0.043006
Sum of atomic charges:    0.0000000

LOEWDIN ATOMIC CHARGES
----------------------
   0 C :    0.124986
   1 S :    1.116467
   2 O :   -0.462637
   3 O :   -0.484217
   4 F :   -0.274091
   5 H :    0.002225
   6 H :   -0.012357
   7 H :   -0.010376

  Mayer bond orders larger than 0.100000
B(  0-C ,  1-S ) :   1.0042 B(  0-C ,  5-H ) :   0.9271 B(  0-C ,  6-H ) :   0.9263
B(  0-C ,  7-H ) :   0.9299 B(  1-S ,  2-O ) :   1.5260 B(  1-S ,  3-O ) :   1.4938
B(  1-S ,  4-F ) :   0.6382 B(  1-S ,  5-H ) :   0.1013

Dispersion correction           -0.004993044
FINAL SINGLE POINT ENERGY      -687.560957473748

DIPOLE MOMENT
-------------
                                X             Y             Z
Electronic contribution:     -3.14361       3.19372       3.02358
Nuclear contribution   :      4.28235      -4.23136      -2.39177
                        -----------------------------------------
Total Dipole Moment    :      1.13874      -1.03764       0.63181
                        -----------------------------------------
Magnitude (a.u.)       :      1.66511
Magnitude (Debye)      :      4.23238

Rotational constants in cm-1:     0.164456     0.151338     0.145749
Rotational constants in MHz :  4930.268698  4537.002642  4369.437533

                             ****ORCA TERMINATED NORMALLY****
TOTAL RUN TIME: 0 days 0 hours 0 minutes 11 seconds 757 msec
