                         Program Version 5.0.0 -  RELEASE  -
|  1> !PBE0 D3BJ RIJCOSX def2-SVPD def2/J TightSCF xyzfile
|  2>
|  3> *xyzfile 0 1 D1.xyz
|  4>
|  5> %MaxCore 64000
|  6>
|  7> %pal nprocs 4
|  8> end
|  9>
| 10> %scf
| 11>   MaxIter 150
| 12> end
| 13>
| 14>
| 15>                          ****END OF INPUT****

CARTESIAN COORDINATES (ANGSTROEM)
---------------------------------
  C     -4.382623   -1.670889    1.216201
  C     -5.763539   -1.915170    0.705012
  C     -3.281728   -2.191272    0.294361
  C     -5.572364   -5.807798   -0.816445
  S     -6.903179   -4.619033   -0.528458
  H     -5.840812   -2.115205   -0.300646
  H     -6.408823   -1.148656    0.936124
  H     -6.174781   -2.790606    1.051433
  F     -8.114853   -5.250932   -0.957007
  O     -6.532715   -3.426838   -1.314848
  H     -4.328618   -2.139223    2.198103
  H     -4.261583   -0.597399    1.357248
  O     -6.865632   -4.294957    0.914118
  C     -3.474641   -3.605898   -0.259608
  H     -2.354548   -2.127602    0.871433
  H     -3.166611   -1.499693   -0.545037
  C     -3.827078   -4.661097    0.786174
  H     -2.560559   -3.889391   -0.788050
  H     -4.255932   -3.570040   -1.019300
  C     -4.457800   -5.941875    0.229195
  H     -5.177347   -5.542575   -1.797714
  H     -6.074202   -6.768894   -0.921272
  H     -4.530506   -4.253640    1.511979
  H     -2.933400   -4.932302    1.356825
  H     -3.681064   -6.562236   -0.229885
  H     -4.843942   -6.512728    1.075805

 Total Charge           Charge          ....    0
 Multiplicity           Mult            ....    1
 Number of Electrons    NEL             ....   98
 Basis Dimension        Dim             ....  356

ORBITAL ENERGIES
----------------

  NO   OCC          E(Eh)            E(eV)
   0   2.0000     -89.307477     -2430.1800
   1   2.0000     -24.915337      -677.9808
   2   2.0000     -19.232156      -523.3336
   3   2.0000     -19.230956      -523.3009
   4   2.0000     -10.302360      -280.3415
   5   2.0000     -10.264128      -279.3011
   6   2.0000     -10.230609      -278.3890
   7   2.0000     -10.219771      -278.0941
   8   2.0000     -10.211049      -277.8568
   9   2.0000     -10.196790      -277.4688
  10   2.0000     -10.139136      -275.8999
  11   2.0000      -8.266467      -224.9420
  12   2.0000      -6.212767      -169.0580
  13   2.0000      -6.206407      -168.8849
  14   2.0000      -6.205269      -168.8539
  15   2.0000      -1.424543       -38.7638
  16   2.0000      -1.138540       -30.9813
  17   2.0000      -1.035430       -28.1755
  18   2.0000      -0.856831       -23.3156
  19   2.0000      -0.814976       -22.1766
  20   2.0000      -0.775738       -21.1089
  21   2.0000      -0.748248       -20.3609
  22   2.0000      -0.710944       -19.3458
  23   2.0000      -0.663591       -18.0572
  24   2.0000      -0.630589       -17.1592
  25   2.0000      -0.623433       -16.9645
  26   2.0000      -0.605543       -16.4777
  27   2.0000      -0.573793       -15.6137
  28   2.0000      -0.553964       -15.0741
  29   2.0000      -0.514052       -13.9881
  30   2.0000      -0.511345       -13.9144
  31   2.0000      -0.488080       -13.2813
  32   2.0000      -0.486266       -13.2320
  33   2.0000      -0.456753       -12.4289
  34   2.0000      -0.449491       -12.2313
  35   2.0000      -0.431664       -11.7462
  36   2.0000      -0.425808       -11.5868
  37   2.0000      -0.402149       -10.9430
  38   2.0000      -0.393159       -10.6984
  39   2.0000      -0.389353       -10.5948
  40   2.0000      -0.360163        -9.8005
  41   2.0000      -0.355196        -9.6654
  42   2.0000      -0.350446        -9.5361
  43   2.0000      -0.347001        -9.4424
  44   2.0000      -0.337171        -9.1749
  45   2.0000      -0.324354        -8.8261
  46   2.0000      -0.306127        -8.3301
  47   2.0000      -0.300470        -8.1762
  48   2.0000      -0.278171        -7.5694
  49   0.0000      -0.000183        -0.0050
  50   0.0000       0.012466         0.3392
  51   0.0000       0.033911         0.9228
  52   0.0000       0.037710         1.0262
  53   0.0000       0.042440         1.1548

MULLIKEN ATOMIC CHARGES
-----------------------
   0 C :   -0.190536
   1 C :    1.478134
   2 C :    0.324405
   3 C :    0.009758
   4 S :    1.742566
   5 H :   -0.269488
   6 H :   -0.343564
   7 H :   -0.626213
   8 F :   -0.573181
   9 O :   -0.721709
  10 H :    0.182208
  11 H :   -0.323266
  12 O :   -0.800776
  13 C :   -0.050120
  14 H :    0.001778
  15 H :    0.113172
  16 C :   -0.129584
  17 H :   -0.268949
  18 H :    0.055123
  19 C :    0.330498
  20 H :    0.212481
  21 H :   -0.160772
  22 H :    0.105930
  23 H :   -0.196999
  24 H :    0.032338
  25 H :    0.066766
Sum of atomic charges:    0.0000000

LOEWDIN ATOMIC CHARGES
----------------------
   0 C :   -0.049780
   1 C :    0.135095
   2 C :   -0.027766
   3 C :   -0.038329
   4 S :    1.208094
   5 H :   -0.092209
   6 H :   -0.018392
   7 H :   -0.131318
   8 F :   -0.248505
   9 O :   -0.466453
  10 H :    0.016357
  11 H :    0.016380
  12 O :   -0.455372
  13 C :   -0.013500
  14 H :    0.017007
  15 H :    0.027189
  16 C :   -0.011692
  17 H :    0.024609
  18 H :   -0.013485
  19 C :   -0.016966
  20 H :    0.024483
  21 H :    0.012455
  22 H :   -0.000026
  23 H :    0.032590
  24 H :    0.036760
  25 H :    0.032774

  Mayer bond orders larger than 0.100000
B(  0-C ,  1-C ) :   1.1904 B(  0-C ,  2-C ) :   1.1744 B(  0-C ,  5-H ) :   0.2800
B(  0-C ,  7-H ) :   0.2796 B(  0-C , 10-H ) :   0.6992 B(  0-C , 11-H ) :   1.0888
B(  0-C , 14-H ) :   0.1610 B(  0-C , 15-H ) :   0.1445 B(  1-C ,  2-C ) :   0.1103
B(  1-C ,  5-H ) :   0.1998 B(  1-C ,  6-H ) :   0.6364 B(  1-C , 10-H ) :   0.1838
B(  2-C , 10-H ) :   0.1100 B(  2-C , 13-C ) :   1.2990 B(  2-C , 14-H ) :   0.7992
B(  2-C , 15-H ) :   0.6871 B(  3-C ,  4-S ) :   0.9685 B(  3-C ,  8-F ) :   0.1264
B(  3-C , 19-C ) :   1.2807 B(  3-C , 20-H ) :   0.8601 B(  3-C , 21-H ) :   0.9051
B(  3-C , 24-H ) :   0.1180 B(  3-C , 25-H ) :   0.1134 B(  4-S ,  8-F ) :   0.5158
B(  4-S ,  9-O ) :   1.3180 B(  4-S , 12-O ) :   1.3140 B(  5-H ,  7-H ) :   0.7919
B(  5-H ,  9-O ) :   0.1530 B(  5-H , 11-H ) :   0.1437 B(  5-H , 18-H ) :   0.1327
B(  6-H ,  7-H ) :   0.1145 B(  6-H , 11-H ) :  -0.1249 B(  6-H , 18-H ) :  -0.1234
B(  7-H , 10-H ) :  -0.1044 B(  7-H , 17-H ) :  -0.1070 B(  9-O , 12-O ) :   0.1748
B( 10-H , 11-H ) :  -0.1831 B( 10-H , 22-H ) :   0.1300 B( 11-H , 14-H ) :   0.1000
B( 13-C , 14-H ) :   0.1652 B( 13-C , 15-H ) :   0.2135 B( 13-C , 16-C ) :   1.2073
B( 13-C , 17-H ) :   0.9113 B( 13-C , 18-H ) :   0.8300 B( 13-C , 23-H ) :   0.1709
B( 16-C , 17-H ) :   0.1878 B( 16-C , 18-H ) :   0.1416 B( 16-C , 19-C ) :   1.2930
B( 16-C , 22-H ) :   0.8664 B( 16-C , 23-H ) :   0.9016 B( 16-C , 24-H ) :   0.1261
B( 16-C , 25-H ) :   0.2209 B( 19-C , 21-H ) :   0.2010 B( 19-C , 24-H ) :   0.7907
B( 19-C , 25-H ) :   0.7067

Dispersion correction           -0.026783552
FINAL SINGLE POINT ENERGY      -922.941986262283

DIPOLE MOMENT
-------------
                                X             Y             Z
Electronic contribution:    -18.92017      -8.68415      -6.72702
Nuclear contribution   :     19.08524       6.89775       6.14221
                        -----------------------------------------
Total Dipole Moment    :      0.16507      -1.78640      -0.58481
                        -----------------------------------------
Magnitude (a.u.)       :      1.88692
Magnitude (Debye)      :      4.79616

Rotational constants in cm-1:     0.049343     0.024787     0.019726
Rotational constants in MHz :  1479.262779   743.087234   591.370705

                             ****ORCA TERMINATED NORMALLY****
TOTAL RUN TIME: 0 days 0 hours 1 minutes 45 seconds 197 msec
