                         Program Version 5.0.0 -  RELEASE  -
|  1> !LC-PBE RIJCOSX def2-TZVPD def2/J TightSCF
|  2> *xyz -1 1
|  3> C          1.44442        5.26658       -0.97546
|  4> O          1.56525        4.23349       -1.86489
|  5> C          0.14812        5.21087       -0.13809
|  6> H          1.47425        6.26464       -1.47692
|  7> H          2.28962        5.30327       -0.26445
|  8> H         -0.69779        5.17417       -0.79230
|  9> H          0.08430        6.08276        0.47887
| 10> H          0.15965        4.33708        0.47938
| 11> *
| 12> %MaxCore 64000
| 13>
| 14> %pal nprocs 4
| 15> end
| 16>
| 17> %scf
| 18>   MaxIter 150
| 19> end
| 20>
| 21>
| 22>                          ****END OF INPUT****

CARTESIAN COORDINATES (ANGSTROEM)
---------------------------------
  C      1.444420    5.266580   -0.975460
  O      1.565250    4.233490   -1.864890
  C      0.148120    5.210870   -0.138090
  H      1.474250    6.264640   -1.476920
  H      2.289620    5.303270   -0.264450
  H     -0.697790    5.174170   -0.792300
  H      0.084300    6.082760    0.478870
  H      0.159650    4.337080    0.479380

 Total Charge           Charge          ....   -1
 Multiplicity           Mult            ....    1
 Number of Electrons    NEL             ....   26
 Basis Dimension        Dim             ....  159

ORBITAL ENERGIES
----------------

  NO   OCC          E(Eh)            E(eV)
   0   2.0000     -18.632129      -507.0060
   1   2.0000      -9.926487      -270.1134
   2   2.0000      -9.903107      -269.4772
   3   2.0000      -0.841940       -22.9103
   4   2.0000      -0.694980       -18.9114
   5   2.0000      -0.528443       -14.3797
   6   2.0000      -0.393455       -10.7064
   7   2.0000      -0.367359        -9.9964
   8   2.0000      -0.308291        -8.3890
   9   2.0000      -0.287768        -7.8306
  10   2.0000      -0.242150        -6.5892
  11   2.0000      -0.092676        -2.5218
  12   2.0000      -0.089437        -2.4337
  13   0.0000       0.209607         5.7037
  14   0.0000       0.230030         6.2594
  15   0.0000       0.261607         7.1187
  16   0.0000       0.262646         7.1469
  17   0.0000       0.285630         7.7724

MULLIKEN ATOMIC CHARGES
-----------------------
   0 C :   -0.400485
   1 O :   -0.919122
   2 C :   -0.988406
   3 H :    0.212318
   4 H :    0.214793
   5 H :    0.270954
   6 H :    0.343929
   7 H :    0.266020
Sum of atomic charges:   -1.0000000

LOEWDIN ATOMIC CHARGES
----------------------
   0 C :   -0.643251
   1 O :   -0.436405
   2 C :   -0.187558
   3 H :    0.068581
   4 H :    0.064504
   5 H :    0.048519
   6 H :    0.038036
   7 H :    0.047574

  Mayer bond orders larger than 0.100000
B(  0-C ,  1-O ) :   1.0029 B(  0-C ,  2-C ) :   0.7466 B(  0-C ,  3-H ) :   1.0376
B(  0-C ,  4-H ) :   1.0411 B(  1-O ,  2-C ) :   0.1901 B(  2-C ,  5-H ) :   0.9722
B(  2-C ,  6-H ) :   0.9306 B(  2-C ,  7-H ) :   0.9730

FINAL SINGLE POINT ENERGY      -154.010494999276

DIPOLE MOMENT
-------------
                                X             Y             Z
Electronic contribution:      1.13304      -1.51591      -1.94031
Nuclear contribution   :     -1.83256       2.47114       3.17273
                        -----------------------------------------
Total Dipole Moment    :     -0.69952       0.95523       1.23242
                        -----------------------------------------
Magnitude (a.u.)       :      1.70900
Magnitude (Debye)      :      4.34392

Rotational constants in cm-1:     1.286062     0.322579     0.284728
Rotational constants in MHz : 38555.180127  9670.683110  8535.939140

                             ****ORCA TERMINATED NORMALLY****
TOTAL RUN TIME: 0 days 0 hours 0 minutes 15 seconds 362 msec
