                         Program Version 5.0.0 -  RELEASE  -
|  1> !LC-PBE RIJCOSX def2-TZVPD def2/J TightSCF
|  2> *xyz 1 1
|  3> C         -0.70169        4.07250       -4.00392
|  4> N          0.68053        4.61482       -4.04800
|  5> H          0.69993        5.58489       -4.38827
|  6> H          1.27804        4.05598       -4.66824
|  7> H          1.08573        4.53358       -3.10652
|  8> C         -1.70347        5.09320       -3.47740
|  9> H         -0.99590        3.74039       -5.00065
| 10> H         -0.64358        3.20191       -3.35153
| 11> H         -1.73704        5.93384       -4.13853
| 12> H         -1.40338        5.41759       -2.50291
| 13> H         -2.67335        4.64479       -3.42108
| 14> *
| 15> %MaxCore 64000
| 16>
| 17> %pal nprocs 4
| 18> end
| 19>
| 20> %scf
| 21>   MaxIter 150
| 22> end
| 23>
| 24>
| 25>                          ****END OF INPUT****

CARTESIAN COORDINATES (ANGSTROEM)
---------------------------------
  C     -0.701690    4.072500   -4.003920
  N      0.680530    4.614820   -4.048000
  H      0.699930    5.584890   -4.388270
  H      1.278040    4.055980   -4.668240
  H      1.085730    4.533580   -3.106520
  C     -1.703470    5.093200   -3.477400
  H     -0.995900    3.740390   -5.000650
  H     -0.643580    3.201910   -3.351530
  H     -1.737040    5.933840   -4.138530
  H     -1.403380    5.417590   -2.502910
  H     -2.673350    4.644790   -3.421080

 Total Charge           Charge          ....    1
 Multiplicity           Mult            ....    1
 Number of Electrons    NEL             ....   26
 Basis Dimension        Dim             ....  183

ORBITAL ENERGIES
----------------

  NO   OCC          E(Eh)            E(eV)
   0   2.0000     -14.550044      -395.9268
   1   2.0000     -10.369440      -282.1668
   2   2.0000     -10.286976      -279.9229
   3   2.0000      -1.391691       -37.8698
   4   2.0000      -1.139823       -31.0162
   5   2.0000      -1.007274       -27.4093
   6   2.0000      -0.953315       -25.9410
   7   2.0000      -0.933846       -25.4112
   8   2.0000      -0.839150       -22.8344
   9   2.0000      -0.784494       -21.3472
  10   2.0000      -0.718012       -19.5381
  11   2.0000      -0.700386       -19.0585
  12   2.0000      -0.680890       -18.5280
  13   0.0000      -0.121222        -3.2986
  14   0.0000      -0.067599        -1.8395
  15   0.0000      -0.065379        -1.7791
  16   0.0000      -0.059819        -1.6278
  17   0.0000      -0.027684        -0.7533

MULLIKEN ATOMIC CHARGES
-----------------------
   0 C :   -0.431740
   1 N :   -0.425508
   2 H :    0.389717
   3 H :    0.394258
   4 H :    0.405730
   5 C :   -1.301853
   6 H :    0.369909
   7 H :    0.370618
   8 H :    0.431826
   9 H :    0.419966
  10 H :    0.377079
Sum of atomic charges:    1.0000000

LOEWDIN ATOMIC CHARGES
----------------------
   0 C :   -0.222853
   1 N :    0.173819
   2 H :    0.187037
   3 H :    0.186149
   4 H :    0.188645
   5 C :   -0.079982
   6 H :    0.143648
   7 H :    0.142404
   8 H :    0.090728
   9 H :    0.090612
  10 H :    0.099795

  Mayer bond orders larger than 0.100000
B(  0-C ,  1-N ) :   0.8814 B(  0-C ,  5-C ) :   0.6130 B(  0-C ,  6-H ) :   0.8970
B(  0-C ,  7-H ) :   0.8913 B(  1-N ,  2-H ) :   0.8377 B(  1-N ,  3-H ) :   0.8468
B(  1-N ,  4-H ) :   0.8278 B(  5-C ,  8-H ) :   0.8467 B(  5-C ,  9-H ) :   0.8757
B(  5-C , 10-H ) :   0.9418

FINAL SINGLE POINT ENERGY      -135.130455307449

DIPOLE MOMENT
-------------
                                X             Y             Z
Electronic contribution:      1.77497      -0.33005      -0.45645
Nuclear contribution   :     -0.23930       0.27560       0.19485
                        -----------------------------------------
Total Dipole Moment    :      1.53567      -0.05445      -0.26160
                        -----------------------------------------
Magnitude (a.u.)       :      1.55875
Magnitude (Debye)      :      3.96202

Rotational constants in cm-1:     1.018556     0.279088     0.248454
Rotational constants in MHz : 30535.536069  8366.847891  7448.451392

                             ****ORCA TERMINATED NORMALLY****
TOTAL RUN TIME: 0 days 0 hours 0 minutes 19 seconds 189 msec
