                         Program Version 5.0.0 -  RELEASE  -
|  1> !LC-PBE RIJCOSX def2-TZVPD def2/J TightSCF xyzfile
|  2>
|  3> *xyzfile 0 1 B.xyz
|  4>
|  5> %MaxCore 64000
|  6>
|  7> %pal nprocs 4
|  8> end
|  9>
| 10> %scf
| 11>   MaxIter 150
| 12> end
| 13>
| 14>
| 15>                          ****END OF INPUT****

CARTESIAN COORDINATES (ANGSTROEM)
---------------------------------
  C     -0.701686    4.072499   -4.003920
  N      0.680528    4.614820   -4.048005
  C      1.444422    5.266576   -0.975463
  O      1.565248    4.233493   -1.864885
  H      0.699926    5.584890   -4.388272
  H      1.278044    4.055977   -4.668235
  H      1.085729    4.533581   -3.106524
  C     -1.703475    5.093197   -3.477396
  H     -0.995895    3.740394   -5.000654
  H     -0.643580    3.201910   -3.351533
  C     -1.313997    5.785995   -2.169271
  H     -1.877057    5.850103   -4.251154
  H     -2.653264    4.564475   -3.354796
  H     -2.097137    6.509395   -1.929558
  H     -0.416875    6.387594   -2.339097
  C     -1.073895    4.844728   -0.979904
  H     -1.968893    4.809608   -0.352568
  C      0.148120    5.210874   -0.138092
  H     -0.909754    3.827531   -1.338975
  H      1.474250    6.264638   -1.476917
  H      2.289622    5.303267   -0.264450
  H      0.261827    4.450942    0.640711
  H     -0.002516    6.171031    0.371483

 Total Charge           Charge          ....    0
 Multiplicity           Mult            ....    1
 Number of Electrons    NEL             ....   66
 Basis Dimension        Dim             ....  434

ORBITAL ENERGIES
----------------

  NO   OCC          E(Eh)            E(eV)
   0   2.0000     -18.840987      -512.6893
   1   2.0000     -14.293240      -388.9388
   2   2.0000     -10.181142      -277.0430
   3   2.0000     -10.136065      -275.8164
   4   2.0000     -10.111106      -275.1372
   5   2.0000     -10.098221      -274.7866
   6   2.0000     -10.089144      -274.5396
   7   2.0000     -10.070835      -274.0414
   8   2.0000      -1.163505       -31.6606
   9   2.0000      -1.057053       -28.7639
  10   2.0000      -0.990149       -26.9433
  11   2.0000      -0.921103       -25.0645
  12   2.0000      -0.864252       -23.5175
  13   2.0000      -0.800526       -21.7834
  14   2.0000      -0.748938       -20.3796
  15   2.0000      -0.720486       -19.6054
  16   2.0000      -0.717718       -19.5301
  17   2.0000      -0.674173       -18.3452
  18   2.0000      -0.633065       -17.2266
  19   2.0000      -0.609909       -16.5965
  20   2.0000      -0.602058       -16.3828
  21   2.0000      -0.559604       -15.2276
  22   2.0000      -0.547534       -14.8992
  23   2.0000      -0.529453       -14.4071
  24   2.0000      -0.510951       -13.9037
  25   2.0000      -0.488375       -13.2894
  26   2.0000      -0.481645       -13.1062
  27   2.0000      -0.461626       -12.5615
  28   2.0000      -0.436714       -11.8836
  29   2.0000      -0.428660       -11.6644
  30   2.0000      -0.418714       -11.3938
  31   2.0000      -0.305608        -8.3160
  32   2.0000      -0.303371        -8.2551
  33   0.0000       0.042498         1.1564
  34   0.0000       0.068004         1.8505
  35   0.0000       0.071670         1.9502
  36   0.0000       0.086494         2.3536
  37   0.0000       0.101376         2.7586

MULLIKEN ATOMIC CHARGES
-----------------------
   0 C :   -0.717501
   1 N :   -0.227467
   2 C :   -0.620131
   3 O :   -0.924136
   4 H :    0.383012
   5 H :    0.397425
   6 H :    0.134442
   7 C :   -0.740474
   8 H :    0.385186
   9 H :    0.410563
  10 C :   -0.701714
  11 H :    0.373308
  12 H :    0.349634
  13 H :    0.402704
  14 H :    0.319103
  15 C :   -0.532590
  16 H :    0.413824
  17 C :   -0.764614
  18 H :    0.267590
  19 H :    0.301689
  20 H :    0.356424
  21 H :    0.413984
  22 H :    0.319740
Sum of atomic charges:    0.0000000

LOEWDIN ATOMIC CHARGES
----------------------
   0 C :   -0.193884
   1 N :    0.136266
   2 C :   -0.440304
   3 O :   -0.285323
   4 H :    0.169451
   5 H :    0.168725
   6 H :   -0.045735
   7 C :   -0.212913
   8 H :    0.125975
   9 H :    0.131343
  10 C :   -0.221424
  11 H :    0.119121
  12 H :    0.127481
  13 H :    0.119674
  14 H :    0.100284
  15 C :   -0.229836
  16 H :    0.115017
  17 C :   -0.220763
  18 H :    0.103529
  19 H :    0.099706
  20 H :    0.105803
  21 H :    0.112993
  22 H :    0.114816

  Mayer bond orders larger than 0.100000
B(  0-C ,  1-N ) :   0.8536 B(  0-C ,  7-C ) :   0.7077 B(  0-C ,  8-H ) :   0.9247
B(  0-C ,  9-H ) :   0.9059 B(  1-N ,  3-O ) :  -0.1599 B(  1-N ,  4-H ) :   0.8104
B(  1-N ,  5-H ) :   0.8427 B(  1-N ,  6-H ) :   0.8136 B(  2-C ,  3-O ) :   0.9033
B(  2-C , 17-C ) :   0.7561 B(  2-C , 19-H ) :   1.0178 B(  2-C , 20-H ) :   0.9515
B(  3-O ,  6-H ) :   0.3369 B(  7-C , 10-C ) :   0.7213 B(  7-C , 11-H ) :   0.9218
B(  7-C , 12-H ) :   0.9495 B( 10-C , 13-H ) :   0.9175 B( 10-C , 14-H ) :   0.9835
B( 10-C , 15-C ) :   0.6103 B( 15-C , 16-H ) :   0.8830 B( 15-C , 17-C ) :   0.8215
B( 15-C , 18-H ) :   1.0015 B( 17-C , 21-H ) :   0.8659 B( 17-C , 22-H ) :   0.9977

FINAL SINGLE POINT ENERGY      -366.549667332342

DIPOLE MOMENT
-------------
                                X             Y             Z
Electronic contribution:      1.97656      -1.49393      -1.29806
Nuclear contribution   :     -3.16446       1.92310      -1.11926
                        -----------------------------------------
Total Dipole Moment    :     -1.18791       0.42917      -2.41732
                        -----------------------------------------
Magnitude (a.u.)       :      2.72740
Magnitude (Debye)      :      6.93251

Rotational constants in cm-1:     0.085554     0.055600     0.038553
Rotational constants in MHz :  2564.854379  1666.836664  1155.798427

                             ****ORCA TERMINATED NORMALLY****
TOTAL RUN TIME: 0 days 0 hours 2 minutes 28 seconds 793 msec
