                         Program Version 5.0.0 -  RELEASE  -
|  1> !LC-PBE RIJCOSX def2-TZVPD def2/J TightSCF
|  2> *xyz 0 1
|  3> C          1.44442        5.26658       -0.97546
|  4> F          1.56525        4.23349       -1.86489
|  5> C          0.14812        5.21087       -0.13809
|  6> H          1.47425        6.26464       -1.47692
|  7> H          2.28962        5.30327       -0.26445
|  8> H         -0.69779        5.17417       -0.79230
|  9> H          0.08430        6.08276        0.47887
| 10> H          0.15965        4.33708        0.47938
| 11> *
| 12> %MaxCore 64000
| 13>
| 14> %pal nprocs 4
| 15> end
| 16>
| 17> %scf
| 18>   MaxIter 150
| 19> end
| 20>
| 21>
| 22>                          ****END OF INPUT****

CARTESIAN COORDINATES (ANGSTROEM)
---------------------------------
  C      1.444420    5.266580   -0.975460
  F      1.565250    4.233490   -1.864890
  C      0.148120    5.210870   -0.138090
  H      1.474250    6.264640   -1.476920
  H      2.289620    5.303270   -0.264450
  H     -0.697790    5.174170   -0.792300
  H      0.084300    6.082760    0.478870
  H      0.159650    4.337080    0.479380

 Total Charge           Charge          ....    0
 Multiplicity           Mult            ....    1
 Number of Electrons    NEL             ....   26
 Basis Dimension        Dim             ....  159

ORBITAL ENERGIES
----------------

  NO   OCC          E(Eh)            E(eV)
   0   2.0000     -24.476606      -666.0423
   1   2.0000     -10.195973      -277.4465
   2   2.0000     -10.109383      -275.0903
   3   2.0000      -1.355316       -36.8800
   4   2.0000      -0.940083       -25.5810
   5   2.0000      -0.795404       -21.6440
   6   2.0000      -0.657620       -17.8947
   7   2.0000      -0.647670       -17.6240
   8   2.0000      -0.606869       -16.5138
   9   2.0000      -0.546910       -14.8822
  10   2.0000      -0.537882       -14.6365
  11   2.0000      -0.470326       -12.7982
  12   2.0000      -0.461108       -12.5474
  13   0.0000       0.068973         1.8769
  14   0.0000       0.090958         2.4751
  15   0.0000       0.114629         3.1192
  16   0.0000       0.117085         3.1861
  17   0.0000       0.145584         3.9615

MULLIKEN ATOMIC CHARGES
-----------------------
   0 C :   -0.214126
   1 F :   -0.268364
   2 C :   -1.077257
   3 H :    0.273642
   4 H :    0.272633
   5 H :    0.328619
   6 H :    0.365651
   7 H :    0.319202
Sum of atomic charges:    0.0000000

LOEWDIN ATOMIC CHARGES
----------------------
   0 C :   -0.312318
   1 F :   -0.039747
   2 C :   -0.107051
   3 H :    0.122809
   4 H :    0.117204
   5 H :    0.072796
   6 H :    0.074440
   7 H :    0.071868

  Mayer bond orders larger than 0.100000
B(  0-C ,  1-F ) :   0.7990 B(  0-C ,  2-C ) :   0.7638 B(  0-C ,  3-H ) :   0.9616
B(  0-C ,  4-H ) :   0.9653 B(  2-C ,  5-H ) :   0.9237 B(  2-C ,  6-H ) :   0.9071
B(  2-C ,  7-H ) :   0.9320

FINAL SINGLE POINT ENERGY      -178.632535868354

DIPOLE MOMENT
-------------
                                X             Y             Z
Electronic contribution:      2.29739      -2.71109      -3.67396
Nuclear contribution   :     -2.43357       3.25919       4.19687
                        -----------------------------------------
Total Dipole Moment    :     -0.13619       0.54810       0.52291
                        -----------------------------------------
Magnitude (a.u.)       :      0.76967
Magnitude (Debye)      :      1.95635

Rotational constants in cm-1:     1.264662     0.300144     0.266170
Rotational constants in MHz : 37913.611527  8998.095216  7979.576054

                             ****ORCA TERMINATED NORMALLY****
TOTAL RUN TIME: 0 days 0 hours 0 minutes 14 seconds 128 msec
