                         Program Version 5.0.0 -  RELEASE  -
|  1> !LC-PBE RIJCOSX def2-TZVPD def2/J TightSCF
|  2> *xyz 0 1
|  3> C         -0.70169        4.07250       -4.00392
|  4> C          0.68053        4.61482       -4.04800
|  5> H          0.69993        5.58489       -4.38827
|  6> H          1.27804        4.05598       -4.66824
|  7> H          1.08573        4.53358       -3.10652
|  8> C         -1.70347        5.09320       -3.47740
|  9> H         -0.99590        3.74039       -5.00065
| 10> H         -0.64358        3.20191       -3.35153
| 11> H         -1.73704        5.93384       -4.13853
| 12> H         -1.40338        5.41759       -2.50291
| 13> H         -2.67335        4.64479       -3.42108
| 14> *
| 15> %MaxCore 64000
| 16>
| 17> %pal nprocs 4
| 18> end
| 19>
| 20> %scf
| 21>   MaxIter 150
| 22> end
| 23>
| 24>
| 25>                          ****END OF INPUT****

CARTESIAN COORDINATES (ANGSTROEM)
---------------------------------
  C     -0.701690    4.072500   -4.003920
  C      0.680530    4.614820   -4.048000
  H      0.699930    5.584890   -4.388270
  H      1.278040    4.055980   -4.668240
  H      1.085730    4.533580   -3.106520
  C     -1.703470    5.093200   -3.477400
  H     -0.995900    3.740390   -5.000650
  H     -0.643580    3.201910   -3.351530
  H     -1.737040    5.933840   -4.138530
  H     -1.403380    5.417590   -2.502910
  H     -2.673350    4.644790   -3.421080

 Total Charge           Charge          ....    0
 Multiplicity           Mult            ....    1
 Number of Electrons    NEL             ....   26
 Basis Dimension        Dim             ....  183

ORBITAL ENERGIES
----------------

  NO   OCC          E(Eh)            E(eV)
   0   2.0000     -10.099809      -274.8298
   1   2.0000     -10.089380      -274.5460
   2   2.0000     -10.070638      -274.0360
   3   2.0000      -0.971810       -26.4443
   4   2.0000      -0.860194       -23.4071
   5   2.0000      -0.744091       -20.2478
   6   2.0000      -0.617656       -16.8073
   7   2.0000      -0.589767       -16.0484
   8   2.0000      -0.540436       -14.7060
   9   2.0000      -0.527155       -14.3446
  10   2.0000      -0.466315       -12.6891
  11   2.0000      -0.462082       -12.5739
  12   2.0000      -0.452053       -12.3010
  13   0.0000       0.074500         2.0273
  14   0.0000       0.092212         2.5092
  15   0.0000       0.094708         2.5771
  16   0.0000       0.124896         3.3986
  17   0.0000       0.147020         4.0006

MULLIKEN ATOMIC CHARGES
-----------------------
   0 C :   -0.343401
   1 C :   -1.272197
   2 H :    0.367250
   3 H :    0.369136
   4 H :    0.373802
   5 C :   -1.193526
   6 H :    0.335313
   7 H :    0.305101
   8 H :    0.364591
   9 H :    0.353825
  10 H :    0.340106
Sum of atomic charges:   -0.0000000

LOEWDIN ATOMIC CHARGES
----------------------
   0 C :   -0.340019
   1 C :   -0.150955
   2 H :    0.063798
   3 H :    0.059552
   4 H :    0.064974
   5 C :   -0.139801
   6 H :    0.111341
   7 H :    0.111289
   8 H :    0.074687
   9 H :    0.075962
  10 H :    0.069170

  Mayer bond orders larger than 0.100000
B(  0-C ,  1-C ) :   0.5977 B(  0-C ,  5-C ) :   0.5991 B(  0-C ,  6-H ) :   0.9212
B(  0-C ,  7-H ) :   0.9405 B(  1-C ,  2-H ) :   0.8925 B(  1-C ,  3-H ) :   0.9565
B(  1-C ,  4-H ) :   0.9407 B(  5-C ,  8-H ) :   0.9272 B(  5-C ,  9-H ) :   0.9329
B(  5-C , 10-H ) :   0.9708

FINAL SINGLE POINT ENERGY      -118.736708114950

DIPOLE MOMENT
-------------
                                X             Y             Z
Electronic contribution:     -0.13561      -0.31085      -0.13610
Nuclear contribution   :      0.16058       0.27975       0.12812
                        -----------------------------------------
Total Dipole Moment    :      0.02496      -0.03110      -0.00798
                        -----------------------------------------
Magnitude (a.u.)       :      0.04067
Magnitude (Debye)      :      0.10337

Rotational constants in cm-1:     1.027122     0.293327     0.260229
Rotational constants in MHz : 30792.337141  8793.723318  7801.458329

                             ****ORCA TERMINATED NORMALLY****
TOTAL RUN TIME: 0 days 0 hours 0 minutes 18 seconds 255 msec
