                         Program Version 5.0.0 -  RELEASE  -
|  1> !LC-PBE RIJCOSX def2-TZVPD def2/J TightSCF xyzfile
|  2>
|  3> *xyzfile 0 1 D.xyz
|  4>
|  5> %MaxCore 64000
|  6>
|  7> %pal nprocs 4
|  8> end
|  9>
| 10> %scf
| 11>   MaxIter 150
| 12> end
| 13>
| 14>
| 15>                          ****END OF INPUT****

CARTESIAN COORDINATES (ANGSTROEM)
---------------------------------
  C     -0.701686    4.072499   -4.003920
  C      0.680528    4.614820   -4.048005
  C      1.444422    5.266576   -0.975463
  F      1.565248    4.233493   -1.864885
  H      0.699926    5.584890   -4.388272
  H      1.278044    4.055977   -4.668235
  H      1.085729    4.533581   -3.106524
  C     -1.703475    5.093197   -3.477396
  H     -0.995895    3.740394   -5.000654
  H     -0.643580    3.201910   -3.351533
  C     -1.313997    5.785995   -2.169271
  H     -1.877057    5.850103   -4.251154
  H     -2.653264    4.564475   -3.354796
  H     -2.097137    6.509395   -1.929558
  H     -0.416875    6.387594   -2.339097
  C     -1.073895    4.844728   -0.979904
  H     -1.968893    4.809608   -0.352568
  C      0.148120    5.210874   -0.138092
  H     -0.909754    3.827531   -1.338975
  H      1.474250    6.264638   -1.476917
  H      2.289622    5.303267   -0.264450
  H      0.261827    4.450942    0.640711
  H     -0.002516    6.171031    0.371483

 Total Charge           Charge          ....    0
 Multiplicity           Mult            ....    1
 Number of Electrons    NEL             ....   66
 Basis Dimension        Dim             ....  434

ORBITAL ENERGIES
----------------

  NO   OCC          E(Eh)            E(eV)
   0   2.0000     -24.496175      -666.5748
   1   2.0000     -10.203160      -277.6421
   2   2.0000     -10.125635      -275.5325
   3   2.0000     -10.110631      -275.1243
   4   2.0000     -10.104008      -274.9440
   5   2.0000     -10.096732      -274.7460
   6   2.0000     -10.083731      -274.3923
   7   2.0000     -10.027042      -272.8497
   8   2.0000      -1.388257       -37.7764
   9   2.0000      -0.997356       -27.1394
  10   2.0000      -0.963577       -26.2203
  11   2.0000      -0.896730       -24.4013
  12   2.0000      -0.860535       -23.4163
  13   2.0000      -0.796396       -21.6710
  14   2.0000      -0.756461       -20.5843
  15   2.0000      -0.698278       -19.0011
  16   2.0000      -0.690845       -18.7988
  17   2.0000      -0.673004       -18.3134
  18   2.0000      -0.643701       -17.5160
  19   2.0000      -0.606496       -16.5036
  20   2.0000      -0.599100       -16.3023
  21   2.0000      -0.570625       -15.5275
  22   2.0000      -0.555084       -15.1046
  23   2.0000      -0.527054       -14.3419
  24   2.0000      -0.515979       -14.0405
  25   2.0000      -0.502429       -13.6718
  26   2.0000      -0.491871       -13.3845
  27   2.0000      -0.468801       -12.7567
  28   2.0000      -0.458462       -12.4754
  29   2.0000      -0.441249       -12.0070
  30   2.0000      -0.427909       -11.6440
  31   2.0000      -0.424140       -11.5414
  32   2.0000      -0.402740       -10.9591
  33   0.0000       0.066355         1.8056
  34   0.0000       0.077403         2.1062
  35   0.0000       0.080881         2.2009
  36   0.0000       0.085404         2.3240
  37   0.0000       0.101578         2.7641

MULLIKEN ATOMIC CHARGES
-----------------------
   0 C :   -0.530240
   1 C :   -1.041936
   2 C :   -0.491247
   3 F :   -0.335031
   4 H :    0.364471
   5 H :    0.461788
   6 H :    0.098652
   7 C :   -0.834695
   8 H :    0.351472
   9 H :    0.369911
  10 C :   -0.663545
  11 H :    0.393321
  12 H :    0.325389
  13 H :    0.405361
  14 H :    0.327145
  15 C :   -0.674756
  16 H :    0.417812
  17 C :   -0.763133
  18 H :    0.319464
  19 H :    0.389720
  20 H :    0.354623
  21 H :    0.416519
  22 H :    0.338936
Sum of atomic charges:    0.0000000

LOEWDIN ATOMIC CHARGES
----------------------
   0 C :   -0.274209
   1 C :   -0.130949
   2 C :   -0.225785
   3 F :   -0.027379
   4 H :    0.074718
   5 H :    0.069227
   6 H :   -0.034728
   7 C :   -0.233277
   8 H :    0.114353
   9 H :    0.110327
  10 C :   -0.222718
  11 H :    0.120848
  12 H :    0.117119
  13 H :    0.117472
  14 H :    0.101027
  15 C :   -0.219723
  16 H :    0.120676
  17 C :   -0.195857
  18 H :    0.110015
  19 H :    0.134288
  20 H :    0.129633
  21 H :    0.116898
  22 H :    0.128024

  Mayer bond orders larger than 0.100000
B(  0-C ,  1-C ) :   0.4463 B(  0-C ,  7-C ) :   0.7487 B(  0-C ,  8-H ) :   0.9478
B(  0-C ,  9-H ) :   0.9072 B(  0-C , 10-C ) :  -0.1091 B(  1-C ,  3-F ) :   0.1345
B(  1-C ,  4-H ) :   1.0337 B(  1-C ,  5-H ) :   0.9335 B(  1-C ,  6-H ) :   0.9857
B(  2-C ,  3-F ) :   0.7642 B(  2-C , 17-C ) :   0.7943 B(  2-C , 19-H ) :   0.9312
B(  2-C , 20-H ) :   0.9255 B(  3-F ,  6-H ) :  -0.2103 B(  7-C , 10-C ) :   0.8079
B(  7-C , 11-H ) :   0.9143 B(  7-C , 12-H ) :   0.9496 B( 10-C , 13-H ) :   0.8964
B( 10-C , 14-H ) :   0.9965 B( 10-C , 15-C ) :   0.5892 B( 15-C , 16-H ) :   0.8843
B( 15-C , 17-C ) :   0.7659 B( 15-C , 18-H ) :   0.9897 B( 17-C , 21-H ) :   0.8766
B( 17-C , 22-H ) :   0.9603

FINAL SINGLE POINT ENERGY      -374.510310658766

DIPOLE MOMENT
-------------
                                X             Y             Z
Electronic contribution:      5.12058      -2.24255       2.80275
Nuclear contribution   :     -5.08831       2.68947      -1.99048
                        -----------------------------------------
Total Dipole Moment    :      0.03227       0.44693       0.81227
                        -----------------------------------------
Magnitude (a.u.)       :      0.92767
Magnitude (Debye)      :      2.35795

Rotational constants in cm-1:     0.084646     0.055672     0.038419
Rotational constants in MHz :  2537.625105  1668.992890  1151.781380

                             ****ORCA TERMINATED NORMALLY****
TOTAL RUN TIME: 0 days 0 hours 2 minutes 3 seconds 668 msec
