                         Program Version 5.0.0 -  RELEASE  -
|  1> !TPSS D3BJ RIJCOSX def2-SVPD def2/J TightSCF
|  2> *xyz -1 1
|  3> C         -0.05915        1.50352        3.41058
|  4> C          1.08303        0.74964        4.08571
|  5> O          2.22817        1.26348        4.01983
|  6> O          0.81003       -0.34541        4.63627
|  7> H          0.31461        2.41205        2.98658
|  8> H         -0.81316        1.73160        4.13470
|  9> H         -0.47977        0.89552        2.63708
| 10> *
| 11>
| 12> %MaxCore 64000
| 13>
| 14> %pal nprocs 4
| 15> end
| 16>
| 17> %scf
| 18>   MaxIter 150
| 19> end
| 20>
| 21>
| 22>                          ****END OF INPUT****

CARTESIAN COORDINATES (ANGSTROEM)
---------------------------------
  C     -0.059150    1.503520    3.410580
  C      1.083030    0.749640    4.085710
  O      2.228170    1.263480    4.019830
  O      0.810030   -0.345410    4.636270
  H      0.314610    2.412050    2.986580
  H     -0.813160    1.731600    4.134700
  H     -0.479770    0.895520    2.637080

 Total Charge           Charge          ....   -1
 Multiplicity           Mult            ....    1
 Number of Electrons    NEL             ....   32
 Basis Dimension        Dim             ....  110

ORBITAL ENERGIES
----------------

  NO   OCC          E(Eh)            E(eV)
   0   2.0000     -18.634416      -507.0682
   1   2.0000     -18.633855      -507.0530
   2   2.0000      -9.874039      -268.6863
   3   2.0000      -9.813130      -267.0288
   4   2.0000      -0.735971       -20.0268
   5   2.0000      -0.646735       -17.5985
   6   2.0000      -0.482305       -13.1242
   7   2.0000      -0.252000        -6.8573
   8   2.0000      -0.218232        -5.9384
   9   2.0000      -0.203086        -5.5262
  10   2.0000      -0.173024        -4.7082
  11   2.0000      -0.135711        -3.6929
  12   2.0000      -0.123121        -3.3503
  13   2.0000      -0.009745        -0.2652
  14   2.0000       0.002148         0.0585
  15   2.0000       0.019827         0.5395
  16   0.0000       0.163531         4.4499
  17   0.0000       0.204303         5.5594
  18   0.0000       0.205045         5.5795
  19   0.0000       0.231245         6.2925
  20   0.0000       0.249076         6.7777

MULLIKEN ATOMIC CHARGES
-----------------------
   0 C :    0.408014
   1 C :    0.050896
   2 O :   -0.652659
   3 O :   -0.675025
   4 H :   -0.058476
   5 H :   -0.036105
   6 H :   -0.036644
Sum of atomic charges:   -1.0000000

LOEWDIN ATOMIC CHARGES
----------------------
   0 C :    0.147915
   1 C :   -0.334519
   2 O :   -0.337480
   3 O :   -0.338888
   4 H :   -0.050571
   5 H :   -0.043714
   6 H :   -0.042743

  Mayer bond orders larger than 0.100000
B(  0-C ,  1-C ) :   1.2468 B(  0-C ,  4-H ) :   0.8894 B(  0-C ,  5-H ) :   0.8362
B(  0-C ,  6-H ) :   0.8397 B(  1-C ,  2-O ) :   1.4501 B(  1-C ,  3-O ) :   1.4712
B(  1-C ,  4-H ) :   0.2403 B(  1-C ,  5-H ) :   0.1659 B(  1-C ,  6-H ) :   0.1622

Dispersion correction           -0.004509218
FINAL SINGLE POINT ENERGY      -228.405499683657

DIPOLE MOMENT
-------------
                                X             Y             Z
Electronic contribution:      2.74788      -1.80862       1.61132
Nuclear contribution   :     -3.75920       2.48542      -2.19871
                        -----------------------------------------
Total Dipole Moment    :     -1.01132       0.67680      -0.58739
                        -----------------------------------------
Magnitude (a.u.)       :      1.35124
Magnitude (Debye)      :      3.43458

Rotational constants in cm-1:     0.392838     0.334689     0.186890
Rotational constants in MHz : 11776.984954 10033.729666  5602.815156

                             ****ORCA TERMINATED NORMALLY****
TOTAL RUN TIME: 0 days 0 hours 0 minutes 4 seconds 968 msec
