                         Program Version 5.0.0 -  RELEASE  -
|  1> !TPSS D3BJ RIJCOSX def2-SVPD def2/J TightSCF
|  2> *xyz 1 1
|  3> C          4.60295       -2.44010        2.63478
|  4> C          3.86085       -1.59157        3.62289
|  5> N          2.75650       -2.04616        4.16633
|  6> N          4.25433       -0.36291        3.86046
|  7> H          3.56526        0.31099        4.16898
|  8> H          5.05429       -0.01606        3.33784
|  9> H          2.43970       -2.97389        3.89740
| 10> H          2.06687       -1.41253        4.54981
| 11> H          5.47239       -1.91604        2.29664
| 12> H          3.96816       -2.65362        1.80030
| 13> H          4.89801       -3.35632        3.10209
| 14> *
| 15>
| 16> %MaxCore 64000
| 17>
| 18> %pal nprocs 4
| 19> end
| 20>
| 21> %scf
| 22>   MaxIter 150
| 23> end
| 24>
| 25>
| 26>                          ****END OF INPUT****

CARTESIAN COORDINATES (ANGSTROEM)
---------------------------------
  C      4.602950   -2.440100    2.634780
  C      3.860850   -1.591570    3.622890
  N      2.756500   -2.046160    4.166330
  N      4.254330   -0.362910    3.860460
  H      3.565260    0.310990    4.168980
  H      5.054290   -0.016060    3.337840
  H      2.439700   -2.973890    3.897400
  H      2.066870   -1.412530    4.549810
  H      5.472390   -1.916040    2.296640
  H      3.968160   -2.653620    1.800300
  H      4.898010   -3.356320    3.102090

 Total Charge           Charge          ....    1
 Multiplicity           Mult            ....    1
 Number of Electrons    NEL             ....   32
 Basis Dimension        Dim             ....  136

ORBITAL ENERGIES
----------------

  NO   OCC          E(Eh)            E(eV)
   0   2.0000     -14.371211      -391.0605
   1   2.0000     -14.370453      -391.0399
   2   2.0000     -10.323460      -280.9156
   3   2.0000     -10.204636      -277.6823
   4   2.0000      -1.141659       -31.0661
   5   2.0000      -1.049799       -28.5665
   6   2.0000      -0.897071       -24.4105
   7   2.0000      -0.793669       -21.5968
   8   2.0000      -0.734072       -19.9751
   9   2.0000      -0.728935       -19.8353
  10   2.0000      -0.663066       -18.0429
  11   2.0000      -0.623403       -16.9637
  12   2.0000      -0.582737       -15.8571
  13   2.0000      -0.567896       -15.4532
  14   2.0000      -0.538872       -14.6635
  15   2.0000      -0.467177       -12.7125
  16   0.0000      -0.253945        -6.9102
  17   0.0000      -0.177720        -4.8360
  18   0.0000      -0.134478        -3.6593
  19   0.0000      -0.130352        -3.5471
  20   0.0000      -0.109261        -2.9732

MULLIKEN ATOMIC CHARGES
-----------------------
   0 C :    0.551512
   1 C :    0.285197
   2 N :    0.061540
   3 N :   -0.010931
   4 H :   -0.040068
   5 H :    0.081882
   6 H :    0.059609
   7 H :   -0.109567
   8 H :    0.031401
   9 H :    0.026174
  10 H :    0.063251
Sum of atomic charges:    1.0000000

LOEWDIN ATOMIC CHARGES
----------------------
   0 C :    0.247441
   1 C :   -0.070841
   2 N :    0.280804
   3 N :    0.284018
   4 H :    0.050531
   5 H :    0.054010
   6 H :    0.059625
   7 H :    0.050239
   8 H :    0.002989
   9 H :    0.022540
  10 H :    0.018644

  Mayer bond orders larger than 0.100000
B(  0-C ,  1-C ) :   1.2976 B(  0-C ,  8-H ) :   0.8061 B(  0-C ,  9-H ) :   0.8355
B(  0-C , 10-H ) :   0.7074 B(  1-C ,  2-N ) :   1.1355 B(  1-C ,  3-N ) :   1.0601
B(  1-C ,  4-H ) :  -0.1376 B(  1-C ,  7-H ) :  -0.1495 B(  1-C ,  8-H ) :   0.2217
B(  1-C ,  9-H ) :   0.1234 B(  1-C , 10-H ) :   0.2230 B(  2-N ,  3-N ) :   0.1961
B(  2-N ,  6-H ) :   1.0467 B(  2-N ,  7-H ) :   1.2540 B(  3-N ,  4-H ) :   1.2348
B(  3-N ,  5-H ) :   1.0058 B(  4-H ,  5-H ) :  -0.1298 B(  6-H ,  7-H ) :  -0.1423
B(  8-H , 10-H ) :   0.1126

Dispersion correction           -0.008477038
FINAL SINGLE POINT ENERGY      -189.622165267093

DIPOLE MOMENT
-------------
                                X             Y             Z
Electronic contribution:     -0.96163       1.15709       1.63420
Nuclear contribution   :      0.47466      -0.79212      -1.71537
                        -----------------------------------------
Total Dipole Moment    :     -0.48697       0.36497      -0.08117
                        -----------------------------------------
Magnitude (a.u.)       :      0.61395
Magnitude (Debye)      :      1.56054

Rotational constants in cm-1:     0.335502     0.299428     0.163704
Rotational constants in MHz : 10058.111638  8976.630214  4907.722182

                             ****ORCA TERMINATED NORMALLY****
TOTAL RUN TIME: 0 days 0 hours 0 minutes 6 seconds 690 msec
