                         Program Version 5.0.0 -  RELEASE  -
|  1> !TPSS D3BJ RIJCOSX def2-SVPD def2/J TightSCF
|  2> *xyz 0 1
|  3> C         -0.05915        1.50352        3.41058
|  4> C          1.08303        0.74964        4.08571
|  5> F          2.22817        1.26348        4.01983
|  6> O          0.81003       -0.34541        4.63627
|  7> H          0.31461        2.41205        2.98658
|  8> H         -0.81316        1.73160        4.13470
|  9> H         -0.47977        0.89552        2.63708
| 10> *
| 11>
| 12> %MaxCore 64000
| 13>
| 14> %pal nprocs 4
| 15> end
| 16>
| 17> %scf
| 18>   MaxIter 150
| 19> end
| 20>
| 21>
| 22>                          ****END OF INPUT****

CARTESIAN COORDINATES (ANGSTROEM)
---------------------------------
  C     -0.059150    1.503520    3.410580
  C      1.083030    0.749640    4.085710
  F      2.228170    1.263480    4.019830
  O      0.810030   -0.345410    4.636270
  H      0.314610    2.412050    2.986580
  H     -0.813160    1.731600    4.134700
  H     -0.479770    0.895520    2.637080

 Total Charge           Charge          ....    0
 Multiplicity           Mult            ....    1
 Number of Electrons    NEL             ....   32
 Basis Dimension        Dim             ....  110

ORBITAL ENERGIES
----------------

  NO   OCC          E(Eh)            E(eV)
   0   2.0000     -24.498915      -666.6494
   1   2.0000     -18.908744      -514.5331
   2   2.0000     -10.176329      -276.9120
   3   2.0000     -10.030399      -272.9410
   4   2.0000      -1.227636       -33.4057
   5   2.0000      -0.956866       -26.0377
   6   2.0000      -0.712529       -19.3889
   7   2.0000      -0.601391       -16.3647
   8   2.0000      -0.496877       -13.5207
   9   2.0000      -0.492529       -13.4024
  10   2.0000      -0.453604       -12.3432
  11   2.0000      -0.407379       -11.0853
  12   2.0000      -0.394384       -10.7317
  13   2.0000      -0.356560        -9.7025
  14   2.0000      -0.318330        -8.6622
  15   2.0000      -0.253033        -6.8854
  16   0.0000      -0.067320        -1.8319
  17   0.0000       0.001458         0.0397
  18   0.0000       0.048550         1.3211
  19   0.0000       0.074632         2.0308
  20   0.0000       0.076997         2.0952

MULLIKEN ATOMIC CHARGES
-----------------------
   0 C :    0.356998
   1 C :    0.439914
   2 F :   -0.346424
   3 O :   -0.503556
   4 H :   -0.017292
   5 H :    0.034351
   6 H :    0.036010
Sum of atomic charges:    0.0000000

LOEWDIN ATOMIC CHARGES
----------------------
   0 C :    0.223075
   1 C :   -0.037386
   2 F :   -0.033778
   3 O :   -0.134836
   4 H :   -0.018509
   5 H :    0.000452
   6 H :    0.000983

  Mayer bond orders larger than 0.100000
B(  0-C ,  1-C ) :   1.2562 B(  0-C ,  4-H ) :   0.8928 B(  0-C ,  5-H ) :   0.8164
B(  0-C ,  6-H ) :   0.8194 B(  1-C ,  2-F ) :   0.7861 B(  1-C ,  3-O ) :   1.7611
B(  1-C ,  4-H ) :   0.1497 B(  1-C ,  5-H ) :   0.1393 B(  1-C ,  6-H ) :   0.1347

Dispersion correction           -0.004155752
FINAL SINGLE POINT ENERGY      -252.941859941874

DIPOLE MOMENT
-------------
                                X             Y             Z
Electronic contribution:      4.69639      -1.06417       1.59141
Nuclear contribution   :     -5.01294       1.99942      -2.18092
                        -----------------------------------------
Total Dipole Moment    :     -0.31655       0.93526      -0.58951
                        -----------------------------------------
Magnitude (a.u.)       :      1.14997
Magnitude (Debye)      :      2.92299

Rotational constants in cm-1:     0.368501     0.321908     0.177384
Rotational constants in MHz : 11047.396090  9650.552559  5317.833075

                             ****ORCA TERMINATED NORMALLY****
TOTAL RUN TIME: 0 days 0 hours 0 minutes 4 seconds 536 msec
