                         Program Version 5.0.0 -  RELEASE  -
|  1> !TPSS D3BJ RIJCOSX def2-SVPD def2/J TightSCF
|  2> *xyz 0 1
|  3> C          4.60295       -2.44010        2.63478
|  4> C          3.86085       -1.59157        3.62289
|  5> C          2.75650       -2.04616        4.16633
|  6> N          4.25433       -0.36291        3.86046
|  7> H          3.56526        0.31099        4.16898
|  8> H          5.05429       -0.01606        3.33784
|  9> H          2.43970       -2.97389        3.89740
| 10> H          2.06687       -1.41253        4.54981
| 11> H          5.47239       -1.91604        2.29664
| 12> H          3.96816       -2.65362        1.80030
| 13> H          4.89801       -3.35632        3.10209
| 14> *
| 15>
| 16> %MaxCore 64000
| 17>
| 18> %pal nprocs 4
| 19> end
| 20>
| 21> %scf
| 22>   MaxIter 150
| 23> end
| 24>
| 25>
| 26>                          ****END OF INPUT****

CARTESIAN COORDINATES (ANGSTROEM)
---------------------------------
  C      4.602950   -2.440100    2.634780
  C      3.860850   -1.591570    3.622890
  C      2.756500   -2.046160    4.166330
  N      4.254330   -0.362910    3.860460
  H      3.565260    0.310990    4.168980
  H      5.054290   -0.016060    3.337840
  H      2.439700   -2.973890    3.897400
  H      2.066870   -1.412530    4.549810
  H      5.472390   -1.916040    2.296640
  H      3.968160   -2.653620    1.800300
  H      4.898010   -3.356320    3.102090

 Total Charge           Charge          ....    0
 Multiplicity           Mult            ....    1
 Number of Electrons    NEL             ....   32
 Basis Dimension        Dim             ....  136

ORBITAL ENERGIES
----------------

  NO   OCC          E(Eh)            E(eV)
   0   2.0000     -14.120877      -384.2486
   1   2.0000     -10.013464      -272.4802
   2   2.0000      -9.995051      -271.9792
   3   2.0000      -9.929689      -270.2006
   4   2.0000      -0.861753       -23.4495
   5   2.0000      -0.695305       -18.9202
   6   2.0000      -0.631021       -17.1710
   7   2.0000      -0.520870       -14.1736
   8   2.0000      -0.482468       -13.1286
   9   2.0000      -0.428741       -11.6666
  10   2.0000      -0.391939       -10.6652
  11   2.0000      -0.361493        -9.8367
  12   2.0000      -0.347347        -9.4518
  13   2.0000      -0.323658        -8.8072
  14   2.0000      -0.291025        -7.9192
  15   2.0000      -0.159343        -4.3359
  16   0.0000       0.003829         0.1042
  17   0.0000       0.018902         0.5143
  18   0.0000       0.045053         1.2259
  19   0.0000       0.052294         1.4230
  20   0.0000       0.077682         2.1138

MULLIKEN ATOMIC CHARGES
-----------------------
   0 C :    0.734124
   1 C :   -0.401660
   2 C :    0.224769
   3 N :    0.093412
   4 H :   -0.079847
   5 H :   -0.065375
   6 H :   -0.070996
   7 H :   -0.357232
   8 H :   -0.095640
   9 H :   -0.024330
  10 H :    0.042776
Sum of atomic charges:    0.0000000

LOEWDIN ATOMIC CHARGES
----------------------
   0 C :    0.178432
   1 C :   -0.289688
   2 C :    0.160702
   3 N :    0.164508
   4 H :    0.007383
   5 H :   -0.003741
   6 H :   -0.078767
   7 H :   -0.087748
   8 H :   -0.032144
   9 H :   -0.008699
  10 H :   -0.010240

  Mayer bond orders larger than 0.100000
B(  0-C ,  1-C ) :   1.1782 B(  0-C ,  8-H ) :   0.7360 B(  0-C ,  9-H ) :   0.8250
B(  0-C , 10-H ) :   0.7044 B(  1-C ,  2-C ) :   1.8157 B(  1-C ,  3-N ) :   1.0399
B(  1-C ,  6-H ) :   0.1447 B(  1-C ,  7-H ) :   0.1402 B(  1-C ,  8-H ) :   0.2692
B(  1-C ,  9-H ) :   0.1331 B(  1-C , 10-H ) :   0.2403 B(  2-C ,  3-N ) :   0.2774
B(  2-C ,  6-H ) :   0.7917 B(  2-C ,  7-H ) :   0.9101 B(  3-N ,  4-H ) :   1.1599
B(  3-N ,  5-H ) :   1.0428 B(  4-H ,  5-H ) :  -0.1121 B(  6-H ,  7-H ) :   0.1170

Dispersion correction           -0.008904445
FINAL SINGLE POINT ENERGY      -173.162077309507

DIPOLE MOMENT
-------------
                                X             Y             Z
Electronic contribution:      0.12125       1.46256       1.09366
Nuclear contribution   :      0.22927      -0.89318      -1.58153
                        -----------------------------------------
Total Dipole Moment    :      0.35052       0.56938      -0.48787
                        -----------------------------------------
Magnitude (a.u.)       :      0.82769
Magnitude (Debye)      :      2.10382

Rotational constants in cm-1:     0.356805     0.302813     0.169682
Rotational constants in MHz : 10696.748191  9078.116910  5086.926242

                             ****ORCA TERMINATED NORMALLY****
TOTAL RUN TIME: 0 days 0 hours 0 minutes 7 seconds 294 msec
