                         Program Version 5.0.0 -  RELEASE  -
|  1> !TPSS D3BJ RIJCOSX def2-SVPD def2/J TightSCF
|  2> *xyz 0 1
|  3> C         -0.05915        1.50352        3.41058
|  4> C          1.08303        0.74964        4.08571
|  5> O          2.22817        1.26348        4.01983
|  6> F          0.81003       -0.34541        4.63627
|  7> H          0.31461        2.41205        2.98658
|  8> H         -0.81316        1.73160        4.13470
|  9> H         -0.47977        0.89552        2.63708
| 10> *
| 11>
| 12> %MaxCore 64000
| 13>
| 14> %pal nprocs 4
| 15> end
| 16>
| 17> %scf
| 18>   MaxIter 150
| 19> end
| 20>
| 21>
| 22>                          ****END OF INPUT****

CARTESIAN COORDINATES (ANGSTROEM)
---------------------------------
  C     -0.059150    1.503520    3.410580
  C      1.083030    0.749640    4.085710
  O      2.228170    1.263480    4.019830
  F      0.810030   -0.345410    4.636270
  H      0.314610    2.412050    2.986580
  H     -0.813160    1.731600    4.134700
  H     -0.479770    0.895520    2.637080

 Total Charge           Charge          ....    0
 Multiplicity           Mult            ....    1
 Number of Electrons    NEL             ....   32
 Basis Dimension        Dim             ....  110

ORBITAL ENERGIES
----------------

  NO   OCC          E(Eh)            E(eV)
   0   2.0000     -24.499592      -666.6678
   1   2.0000     -18.908531      -514.5273
   2   2.0000     -10.176190      -276.9082
   3   2.0000     -10.030193      -272.9354
   4   2.0000      -1.228491       -33.4289
   5   2.0000      -0.956277       -26.0216
   6   2.0000      -0.712441       -19.3865
   7   2.0000      -0.601701       -16.3731
   8   2.0000      -0.497909       -13.5488
   9   2.0000      -0.492571       -13.4035
  10   2.0000      -0.452773       -12.3206
  11   2.0000      -0.406530       -11.0622
  12   2.0000      -0.395189       -10.7536
  13   2.0000      -0.356377        -9.6975
  14   2.0000      -0.320777        -8.7288
  15   2.0000      -0.250810        -6.8249
  16   0.0000      -0.064840        -1.7644
  17   0.0000       0.001559         0.0424
  18   0.0000       0.048428         1.3178
  19   0.0000       0.072823         1.9816
  20   0.0000       0.080867         2.2005

MULLIKEN ATOMIC CHARGES
-----------------------
   0 C :    0.368862
   1 C :    0.454801
   2 O :   -0.486546
   3 F :   -0.366394
   4 H :   -0.035298
   5 H :    0.031669
   6 H :    0.032906
Sum of atomic charges:   -0.0000000

LOEWDIN ATOMIC CHARGES
----------------------
   0 C :    0.222344
   1 C :   -0.038779
   2 O :   -0.135275
   3 F :   -0.031568
   4 H :   -0.004873
   5 H :   -0.006472
   6 H :   -0.005377

  Mayer bond orders larger than 0.100000
B(  0-C ,  1-C ) :   1.2409 B(  0-C ,  4-H ) :   0.8991 B(  0-C ,  5-H ) :   0.8170
B(  0-C ,  6-H ) :   0.8187 B(  1-C ,  2-O ) :   1.7759 B(  1-C ,  3-F ) :   0.7499
B(  1-C ,  4-H ) :   0.2013 B(  1-C ,  5-H ) :   0.1242 B(  1-C ,  6-H ) :   0.1220

Dispersion correction           -0.004155394
FINAL SINGLE POINT ENERGY      -252.941857951390

DIPOLE MOMENT
-------------
                                X             Y             Z
Electronic contribution:      2.40987      -3.65651       2.58401
Nuclear contribution   :     -3.54758       3.66189      -2.81789
                        -----------------------------------------
Total Dipole Moment    :     -1.13771       0.00538      -0.23388
                        -----------------------------------------
Magnitude (a.u.)       :      1.16151
Magnitude (Debye)      :      2.95234

Rotational constants in cm-1:     0.369278     0.321254     0.177365
Rotational constants in MHz : 11070.686557  9630.951649  5317.254673

                             ****ORCA TERMINATED NORMALLY****
TOTAL RUN TIME: 0 days 0 hours 0 minutes 4 seconds 749 msec
