                         Program Version 5.0.0 -  RELEASE  -
|  1> !TPSS D3BJ RIJCOSX def2-SVPD def2/J TightSCF
|  2> *xyz 0 1
|  3> C          4.60295       -2.44010        2.63478
|  4> C          3.86085       -1.59157        3.62289
|  5> N          2.75650       -2.04616        4.16633
|  6> C          4.25433       -0.36291        3.86046
|  7> H          3.56526        0.31099        4.16898
|  8> H          5.05429       -0.01606        3.33784
|  9> H          2.43970       -2.97389        3.89740
| 10> H          2.06687       -1.41253        4.54981
| 11> H          5.47239       -1.91604        2.29664
| 12> H          3.96816       -2.65362        1.80030
| 13> H          4.89801       -3.35632        3.10209
| 14> *
| 15>
| 16> %MaxCore 64000
| 17>
| 18> %pal nprocs 4
| 19> end
| 20>
| 21> %scf
| 22>   MaxIter 150
| 23> end
| 24>
| 25>
| 26>                          ****END OF INPUT****

CARTESIAN COORDINATES (ANGSTROEM)
---------------------------------
  C      4.602950   -2.440100    2.634780
  C      3.860850   -1.591570    3.622890
  N      2.756500   -2.046160    4.166330
  C      4.254330   -0.362910    3.860460
  H      3.565260    0.310990    4.168980
  H      5.054290   -0.016060    3.337840
  H      2.439700   -2.973890    3.897400
  H      2.066870   -1.412530    4.549810
  H      5.472390   -1.916040    2.296640
  H      3.968160   -2.653620    1.800300
  H      4.898010   -3.356320    3.102090

 Total Charge           Charge          ....    0
 Multiplicity           Mult            ....    1
 Number of Electrons    NEL             ....   32
 Basis Dimension        Dim             ....  136

ORBITAL ENERGIES
----------------

  NO   OCC          E(Eh)            E(eV)
   0   2.0000     -14.120960      -384.2509
   1   2.0000     -10.014962      -272.5210
   2   2.0000      -9.994731      -271.9704
   3   2.0000      -9.931848      -270.2593
   4   2.0000      -0.861058       -23.4306
   5   2.0000      -0.695993       -18.9389
   6   2.0000      -0.632087       -17.2000
   7   2.0000      -0.523914       -14.2564
   8   2.0000      -0.481198       -13.0941
   9   2.0000      -0.427952       -11.6452
  10   2.0000      -0.393397       -10.7049
  11   2.0000      -0.360496        -9.8096
  12   2.0000      -0.349320        -9.5055
  13   2.0000      -0.322162        -8.7665
  14   2.0000      -0.289354        -7.8737
  15   2.0000      -0.162467        -4.4210
  16   0.0000       0.005012         0.1364
  17   0.0000       0.020089         0.5466
  18   0.0000       0.044314         1.2058
  19   0.0000       0.054206         1.4750
  20   0.0000       0.078530         2.1369

MULLIKEN ATOMIC CHARGES
-----------------------
   0 C :    0.700145
   1 C :   -0.446404
   2 N :    0.171069
   3 C :    0.261916
   4 H :   -0.367979
   5 H :   -0.031044
   6 H :   -0.111201
   7 H :   -0.157154
   8 H :    0.016884
   9 H :   -0.025427
  10 H :   -0.010804
Sum of atomic charges:   -0.0000000

LOEWDIN ATOMIC CHARGES
----------------------
   0 C :    0.176835
   1 C :   -0.293798
   2 N :    0.163568
   3 C :    0.166290
   4 H :   -0.086189
   5 H :   -0.085102
   6 H :    0.001894
   7 H :    0.006976
   8 H :   -0.018239
   9 H :   -0.012279
  10 H :   -0.019957

  Mayer bond orders larger than 0.100000
B(  0-C ,  1-C ) :   1.3104 B(  0-C ,  8-H ) :   0.8152 B(  0-C ,  9-H ) :   0.7460
B(  0-C , 10-H ) :   0.6712 B(  1-C ,  2-N ) :   1.1367 B(  1-C ,  3-C ) :   1.8028
B(  1-C ,  4-H ) :   0.1826 B(  1-C ,  8-H ) :   0.2241 B(  1-C ,  9-H ) :   0.2390
B(  1-C , 10-H ) :   0.2716 B(  2-N ,  3-C ) :   0.2793 B(  2-N ,  6-H ) :   1.1028
B(  2-N ,  7-H ) :   1.1956 B(  3-C ,  4-H ) :   0.8568 B(  3-C ,  5-H ) :   0.8682
B(  4-H ,  5-H ) :   0.1147 B(  6-H ,  7-H ) :  -0.1194 B(  8-H ,  9-H ) :   0.1032

Dispersion correction           -0.008904256
FINAL SINGLE POINT ENERGY      -173.162950266343

DIPOLE MOMENT
-------------
                                X             Y             Z
Electronic contribution:     -1.19334       0.00114       1.39249
Nuclear contribution   :      0.56519      -0.51568      -1.65012
                        -----------------------------------------
Total Dipole Moment    :     -0.62815      -0.51455      -0.25763
                        -----------------------------------------
Magnitude (a.u.)       :      0.85188
Magnitude (Debye)      :      2.16532

Rotational constants in cm-1:     0.356673     0.303029     0.169717
Rotational constants in MHz : 10692.789749  9084.577259  5087.998414

                             ****ORCA TERMINATED NORMALLY****
TOTAL RUN TIME: 0 days 0 hours 0 minutes 6 seconds 971 msec
