                         Program Version 5.0.0 -  RELEASE  -
|  1> !TPSS D3BJ RIJCOSX def2-SVPD def2/J TightSCF xyzfile
|  2>
|  3> *xyzfile 0 1 D1.xyz
|  4>
|  5> %MaxCore 64000
|  6>
|  7> %pal nprocs 4
|  8> end
|  9>
| 10> %scf
| 11>   MaxIter 150
| 12> end
| 13>
| 14>
| 15>                          ****END OF INPUT****

CARTESIAN COORDINATES (ANGSTROEM)
---------------------------------
  C      4.602954   -2.440100    2.634780
  C     -0.914947    0.615112    2.505538
  C     -0.059146    1.503524    3.410578
  H      0.365364    2.344315    2.861161
  H     -0.692261    1.920207    4.198985
  C      1.083027    0.749640    4.085705
  C      3.860851   -1.591565    3.622893
  C      2.756502   -2.046159    4.166333
  N      4.254325   -0.362905    3.860455
  H      3.565256    0.310994    4.168983
  H      5.054292   -0.016059    3.337838
  H      2.439696   -2.973894    3.897395
  H      2.066869   -1.412532    4.549813
  F      2.228167    1.263475    4.019826
  O      0.810034   -0.345411    4.636269
  C      3.744685   -2.580557    1.361882
  C      0.772139    0.636882    0.562129
  C     -0.130740   -0.193985    1.470763
  H     -0.840563   -0.760165    0.856377
  H      0.466691   -0.938942    2.006959
  H     -1.647961    1.245963    1.991076
  H     -1.478180   -0.081046    3.130424
  C      3.203721   -1.256004    0.826211
  H      2.898939   -3.239289    1.583074
  H      4.334962   -3.095523    0.600188
  C      2.107815   -1.442385   -0.216865
  H      2.786775   -0.672760    1.650711
  H      4.021008   -0.652993    0.414046
  C      1.390662   -0.145912   -0.602422
  H      1.372179   -2.152184    0.176151
  H      2.523302   -1.906787   -1.117115
  H      1.561361    1.100094    1.161831
  H      0.195516    1.468325    0.142758
  H      0.602893   -0.398214   -1.319716
  H      2.087247    0.508272   -1.137335
  H      5.561557   -1.971347    2.407084
  H      4.810498   -3.422552    3.063099

 Total Charge           Charge          ....    0
 Multiplicity           Mult            ....    1
 Number of Electrons    NEL             ....  118
 Basis Dimension        Dim             ....  482

ORBITAL ENERGIES
----------------

  NO   OCC          E(Eh)            E(eV)
   0   2.0000     -24.521746      -667.2706
   1   2.0000     -18.919443      -514.8242
   2   2.0000     -14.098137      -383.6298
   3   2.0000     -10.184329      -277.1297
   4   2.0000     -10.038287      -273.1557
   5   2.0000     -10.017369      -272.5865
   6   2.0000     -10.002224      -272.1743
   7   2.0000     -10.002107      -272.1712
   8   2.0000      -9.997056      -272.0337
   9   2.0000      -9.992460      -271.9087
  10   2.0000      -9.990987      -271.8686
  11   2.0000      -9.989130      -271.8180
  12   2.0000      -9.988671      -271.8055
  13   2.0000      -9.987302      -271.7683
  14   2.0000      -9.900142      -269.3966
  15   2.0000      -1.251848       -34.0645
  16   2.0000      -0.973213       -26.4825
  17   2.0000      -0.845051       -22.9950
  18   2.0000      -0.765669       -20.8349
  19   2.0000      -0.741432       -20.1754
  20   2.0000      -0.717646       -19.5281
  21   2.0000      -0.682604       -18.5746
  22   2.0000      -0.659295       -17.9403
  23   2.0000      -0.631047       -17.1716
  24   2.0000      -0.618995       -16.8437
  25   2.0000      -0.591831       -16.1046
  26   2.0000      -0.559199       -15.2166
  27   2.0000      -0.539159       -14.6713
  28   2.0000      -0.520936       -14.1754
  29   2.0000      -0.513565       -13.9748
  30   2.0000      -0.501964       -13.6591
  31   2.0000      -0.489628       -13.3235
  32   2.0000      -0.477677       -12.9982
  33   2.0000      -0.454170       -12.3586
  34   2.0000      -0.439282       -11.9535
  35   2.0000      -0.436461       -11.8767
  36   2.0000      -0.427986       -11.6461
  37   2.0000      -0.410006       -11.1568
  38   2.0000      -0.400778       -10.9057
  39   2.0000      -0.386718       -10.5231
  40   2.0000      -0.384105       -10.4520
  41   2.0000      -0.367801       -10.0084
  42   2.0000      -0.364283        -9.9126
  43   2.0000      -0.352412        -9.5896
  44   2.0000      -0.349855        -9.5200
  45   2.0000      -0.335345        -9.1252
  46   2.0000      -0.331917        -9.0319
  47   2.0000      -0.322490        -8.7754
  48   2.0000      -0.316836        -8.6215
  49   2.0000      -0.309219        -8.4143
  50   2.0000      -0.306405        -8.3377
  51   2.0000      -0.296650        -8.0723
  52   2.0000      -0.288810        -7.8589
  53   2.0000      -0.285952        -7.7811
  54   2.0000      -0.279389        -7.6026
  55   2.0000      -0.275454        -7.4955
  56   2.0000      -0.266994        -7.2653
  57   2.0000      -0.237331        -6.4581
  58   2.0000      -0.140830        -3.8322
  59   0.0000      -0.080813        -2.1990
  60   0.0000      -0.001654        -0.0450
  61   0.0000       0.015971         0.4346
  62   0.0000       0.017446         0.4747
  63   0.0000       0.022047         0.5999

MULLIKEN ATOMIC CHARGES
-----------------------
   0 C :    0.790415
   1 C :    0.457934
   2 C :    0.095167
   3 H :    0.229488
   4 H :   -0.140010
   5 C :    0.643884
   6 C :   -0.408054
   7 C :    0.746806
   8 N :    0.352433
   9 H :   -0.341420
  10 H :    0.067849
  11 H :   -0.154354
  12 H :   -0.722387
  13 F :   -0.483240
  14 O :   -0.578238
  15 C :   -0.008947
  16 C :   -0.245549
  17 C :   -0.207493
  18 H :   -0.141636
  19 H :   -0.005884
  20 H :   -0.052075
  21 H :    0.100569
  22 C :    0.090537
  23 H :    0.096947
  24 H :   -0.228080
  25 C :   -0.073003
  26 H :   -0.300617
  27 H :    0.027914
  28 C :    0.729372
  29 H :    0.207397
  30 H :   -0.319113
  31 H :    0.188211
  32 H :   -0.486327
  33 H :    0.095132
  34 H :    0.006158
  35 H :   -0.047544
  36 H :    0.017760
Sum of atomic charges:    0.0000000

LOEWDIN ATOMIC CHARGES
----------------------
   0 C :    0.025576
   1 C :   -0.005628
   2 C :    0.061639
   3 H :    0.017920
   4 H :    0.039297
   5 C :    0.043489
   6 C :   -0.256795
   7 C :    0.204606
   8 N :    0.197293
   9 H :   -0.068401
  10 H :    0.001756
  11 H :   -0.071673
  12 H :   -0.169199
  13 F :   -0.025974
  14 O :   -0.103888
  15 C :   -0.012134
  16 C :   -0.030218
  17 C :   -0.018978
  18 H :    0.028356
  19 H :    0.010834
  20 H :    0.024444
  21 H :    0.026110
  22 C :   -0.025168
  23 H :    0.014892
  24 H :    0.015418
  25 C :   -0.029580
  26 H :   -0.019520
  27 H :    0.027806
  28 C :   -0.021109
  29 H :    0.013772
  30 H :    0.019894
  31 H :    0.002721
  32 H :    0.018580
  33 H :    0.017334
  34 H :    0.017897
  35 H :    0.006535
  36 H :    0.022095

  Mayer bond orders larger than 0.100000
B(  0-C ,  6-C ) :   1.1622 B(  0-C ,  8-N ) :   0.1251 B(  0-C , 15-C ) :   1.1024
B(  0-C , 35-H ) :   0.5397 B(  0-C , 36-H ) :   0.6533 B(  1-C ,  2-C ) :   1.1964
B(  1-C ,  4-H ) :   0.1762 B(  1-C , 17-C ) :   1.2562 B(  1-C , 20-H ) :   0.7736
B(  1-C , 21-H ) :   0.6370 B(  2-C ,  3-H ) :   0.8070 B(  2-C ,  4-H ) :   0.7162
B(  2-C ,  5-C ) :   1.1919 B(  2-C , 17-C ) :   0.1334 B(  2-C , 20-H ) :   0.1438
B(  2-C , 21-H ) :   0.1111 B(  3-H ,  5-C ) :   0.1280 B(  4-H ,  5-C ) :   0.2356
B(  5-C , 13-F ) :   0.5925 B(  5-C , 14-O ) :   1.7068 B(  6-C ,  7-C ) :   1.9150
B(  6-C ,  8-N ) :   0.8771 B(  6-C , 10-H ) :   0.1316 B(  6-C , 12-H ) :   0.3046
B(  6-C , 15-C ) :   0.1405 B(  6-C , 35-H ) :   0.3176 B(  6-C , 36-H ) :   0.2328
B(  7-C ,  8-N ) :   0.4435 B(  7-C , 11-H ) :   0.7047 B(  7-C , 12-H ) :   0.1465
B(  7-C , 15-C ) :   0.1087 B(  8-N ,  9-H ) :   1.0100 B(  8-N , 10-H ) :   0.9277
B(  8-N , 11-H ) :   0.2319 B(  8-N , 12-H ) :  -0.1960 B(  9-H , 10-H ) :  -0.2121
B(  9-H , 13-F ) :   0.1005 B( 12-H , 14-O ) :   0.1776 B( 13-F , 14-O ) :   0.1152
B( 15-C , 22-C ) :   1.1526 B( 15-C , 23-H ) :   0.8619 B( 15-C , 24-H ) :   0.9505
B( 15-C , 25-C ) :   0.1041 B( 15-C , 26-H ) :   0.1792 B( 15-C , 27-H ) :   0.1026
B( 15-C , 35-H ) :   0.2096 B( 15-C , 36-H ) :   0.1531 B( 16-C , 17-C ) :   1.2791
B( 16-C , 18-H ) :   0.1771 B( 16-C , 19-H ) :   0.1175 B( 16-C , 25-C ) :   0.1637
B( 16-C , 28-C ) :   1.0738 B( 16-C , 31-H ) :   0.8035 B( 16-C , 32-H ) :   1.1620
B( 16-C , 33-H ) :   0.1449 B( 16-C , 34-H ) :   0.2608 B( 17-C , 18-H ) :   0.8730
B( 17-C , 19-H ) :   0.9260 B( 17-C , 20-H ) :   0.1990 B( 17-C , 21-H ) :   0.2326
B( 17-C , 32-H ) :   0.1237 B( 20-H , 21-H ) :  -0.1059 B( 22-C , 23-H ) :   0.1304
B( 22-C , 24-H ) :   0.2357 B( 22-C , 25-C ) :   1.2168 B( 22-C , 26-H ) :   0.9993
B( 22-C , 27-H ) :   0.7317 B( 22-C , 29-H ) :   0.1100 B( 22-C , 30-H ) :   0.2344
B( 25-C , 28-C ) :   1.1505 B( 25-C , 29-H ) :   0.8091 B( 25-C , 30-H ) :   0.9788
B( 25-C , 33-H ) :   0.2052 B( 25-C , 34-H ) :   0.1646 B( 26-H , 27-H ) :   0.1675
B( 26-H , 31-H ) :   0.1740 B( 26-H , 32-H ) :  -0.1176 B( 28-C , 29-H ) :   0.1024
B( 28-C , 33-H ) :   0.6558 B( 28-C , 34-H ) :   0.6384

Dispersion correction           -0.053664814
FINAL SINGLE POINT ENERGY      -699.970340763932

DIPOLE MOMENT
-------------
                                X             Y             Z
Electronic contribution:      1.20443       7.35424      15.00368
Nuclear contribution   :     -1.66567      -5.90236     -15.95042
                        -----------------------------------------
Total Dipole Moment    :     -0.46124       1.45187      -0.94674
                        -----------------------------------------
Magnitude (a.u.)       :      1.79360
Magnitude (Debye)      :      4.55896

Rotational constants in cm-1:     0.021600     0.017292     0.011381
Rotational constants in MHz :   647.565282   518.410024   341.193038

                             ****ORCA TERMINATED NORMALLY****
TOTAL RUN TIME: 0 days 0 hours 1 minutes 41 seconds 566 msec
