                         Program Version 5.0.0 -  RELEASE  -
|  1> !TPSS D3BJ RIJCOSX def2-SVPD def2/J TightSCF xyzfile
|  2>
|  3> *xyzfile 0 1 D2.xyz
|  4>
|  5> %MaxCore 64000
|  6>
|  7> %pal nprocs 4
|  8> end
|  9>
| 10> %scf
| 11>   MaxIter 150
| 12> end
| 13>
| 14>
| 15>                          ****END OF INPUT****

CARTESIAN COORDINATES (ANGSTROEM)
---------------------------------
  C      4.602954   -2.440100    2.634780
  C     -0.914947    0.615112    2.505538
  C     -0.059146    1.503524    3.410578
  H      0.365364    2.344315    2.861161
  H     -0.692261    1.920207    4.198985
  C      1.083027    0.749640    4.085705
  C      3.860851   -1.591565    3.622893
  N      2.756502   -2.046159    4.166333
  C      4.254325   -0.362905    3.860455
  H      3.565256    0.310994    4.168983
  H      5.054292   -0.016059    3.337838
  H      2.439696   -2.973894    3.897395
  H      2.066869   -1.412532    4.549813
  F      2.228167    1.263475    4.019826
  O      0.810034   -0.345411    4.636269
  C      3.744685   -2.580557    1.361882
  C      0.772139    0.636882    0.562129
  C     -0.130740   -0.193985    1.470763
  H     -0.840563   -0.760165    0.856377
  H      0.466691   -0.938942    2.006959
  H     -1.647961    1.245963    1.991076
  H     -1.478180   -0.081046    3.130424
  C      3.203721   -1.256004    0.826211
  H      2.898939   -3.239289    1.583074
  H      4.334962   -3.095523    0.600188
  C      2.107815   -1.442385   -0.216865
  H      2.786775   -0.672760    1.650711
  H      4.021008   -0.652993    0.414046
  C      1.390662   -0.145912   -0.602422
  H      1.372179   -2.152184    0.176151
  H      2.523302   -1.906787   -1.117115
  H      1.561361    1.100094    1.161831
  H      0.195516    1.468325    0.142758
  H      0.602893   -0.398214   -1.319716
  H      2.087247    0.508272   -1.137335
  H      5.561557   -1.971347    2.407084
  H      4.810498   -3.422552    3.063099

 Total Charge           Charge          ....    0
 Multiplicity           Mult            ....    1
 Number of Electrons    NEL             ....  118
 Basis Dimension        Dim             ....  482

ORBITAL ENERGIES
----------------

  NO   OCC          E(Eh)            E(eV)
   0   2.0000     -24.512264      -667.0126
   1   2.0000     -18.930905      -515.1361
   2   2.0000     -14.086792      -383.3211
   3   2.0000     -10.191821      -277.3336
   4   2.0000     -10.041288      -273.2373
   5   2.0000     -10.020992      -272.6850
   6   2.0000     -10.005994      -272.2769
   7   2.0000     -10.003158      -272.1998
   8   2.0000      -9.997587      -272.0482
   9   2.0000      -9.993828      -271.9459
  10   2.0000      -9.992369      -271.9062
  11   2.0000      -9.991528      -271.8833
  12   2.0000      -9.987442      -271.7721
  13   2.0000      -9.985639      -271.7230
  14   2.0000      -9.908210      -269.6161
  15   2.0000      -1.244132       -33.8546
  16   2.0000      -0.983696       -26.7677
  17   2.0000      -0.837349       -22.7854
  18   2.0000      -0.768547       -20.9132
  19   2.0000      -0.742162       -20.1953
  20   2.0000      -0.716950       -19.5092
  21   2.0000      -0.684224       -18.6187
  22   2.0000      -0.654682       -17.8148
  23   2.0000      -0.642283       -17.4774
  24   2.0000      -0.611500       -16.6398
  25   2.0000      -0.593090       -16.1388
  26   2.0000      -0.558821       -15.2063
  27   2.0000      -0.534783       -14.5522
  28   2.0000      -0.516402       -14.0520
  29   2.0000      -0.511724       -13.9247
  30   2.0000      -0.503805       -13.7092
  31   2.0000      -0.495322       -13.4784
  32   2.0000      -0.479329       -13.0432
  33   2.0000      -0.454986       -12.3808
  34   2.0000      -0.442606       -12.0439
  35   2.0000      -0.436989       -11.8911
  36   2.0000      -0.420461       -11.4413
  37   2.0000      -0.411418       -11.1953
  38   2.0000      -0.400296       -10.8926
  39   2.0000      -0.394099       -10.7240
  40   2.0000      -0.383322       -10.4307
  41   2.0000      -0.372495       -10.1361
  42   2.0000      -0.364970        -9.9313
  43   2.0000      -0.356638        -9.7046
  44   2.0000      -0.344324        -9.3695
  45   2.0000      -0.338351        -9.2070
  46   2.0000      -0.332080        -9.0363
  47   2.0000      -0.329289        -8.9604
  48   2.0000      -0.316723        -8.6185
  49   2.0000      -0.313812        -8.5393
  50   2.0000      -0.307647        -8.3715
  51   2.0000      -0.291675        -7.9369
  52   2.0000      -0.289215        -7.8700
  53   2.0000      -0.286490        -7.7958
  54   2.0000      -0.280345        -7.6286
  55   2.0000      -0.276424        -7.5219
  56   2.0000      -0.267180        -7.2703
  57   2.0000      -0.256644        -6.9836
  58   2.0000      -0.142041        -3.8651
  59   0.0000      -0.086511        -2.3541
  60   0.0000      -0.000606        -0.0165
  61   0.0000       0.012197         0.3319
  62   0.0000       0.018632         0.5070
  63   0.0000       0.021655         0.5893

MULLIKEN ATOMIC CHARGES
-----------------------
   0 C :    0.574191
   1 C :    0.454189
   2 C :    0.063692
   3 H :    0.221110
   4 H :   -0.119605
   5 C :    0.765623
   6 C :   -0.386892
   7 N :    0.395737
   8 C :    0.744780
   9 H :   -0.644455
  10 H :   -0.042007
  11 H :    0.022082
  12 H :   -0.483335
  13 F :   -0.483922
  14 O :   -0.609505
  15 C :    0.098549
  16 C :   -0.237168
  17 C :   -0.205492
  18 H :   -0.153021
  19 H :   -0.019098
  20 H :   -0.054982
  21 H :    0.091181
  22 C :    0.180558
  23 H :    0.087001
  24 H :   -0.283962
  25 C :   -0.046880
  26 H :   -0.399520
  27 H :   -0.003202
  28 C :    0.722947
  29 H :    0.179256
  30 H :   -0.332758
  31 H :    0.170594
  32 H :   -0.458630
  33 H :    0.101981
  34 H :    0.009317
  35 H :    0.147999
  36 H :   -0.066352
Sum of atomic charges:   -0.0000000

LOEWDIN ATOMIC CHARGES
----------------------
   0 C :    0.024416
   1 C :   -0.006306
   2 C :    0.064136
   3 H :    0.020992
   4 H :    0.040588
   5 C :    0.050654
   6 C :   -0.258762
   7 N :    0.214102
   8 C :    0.188322
   9 H :   -0.142256
  10 H :   -0.077733
  11 H :    0.004448
  12 H :   -0.105105
  13 F :   -0.027738
  14 O :   -0.103568
  15 C :   -0.013176
  16 C :   -0.028617
  17 C :   -0.021193
  18 H :    0.028126
  19 H :    0.007858
  20 H :    0.025193
  21 H :    0.025143
  22 C :   -0.020320
  23 H :    0.007404
  24 H :    0.017187
  25 C :   -0.032224
  26 H :   -0.018966
  27 H :    0.033676
  28 C :   -0.020404
  29 H :    0.011211
  30 H :    0.019175
  31 H :    0.005180
  32 H :    0.019138
  33 H :    0.017095
  34 H :    0.019012
  35 H :    0.018768
  36 H :    0.014545

  Mayer bond orders larger than 0.100000
B(  0-C ,  6-C ) :   1.2810 B(  0-C ,  8-C ) :   0.1252 B(  0-C , 15-C ) :   1.1102
B(  0-C , 23-H ) :   0.1140 B(  0-C , 24-H ) :   0.1367 B(  0-C , 35-H ) :   0.7429
B(  0-C , 36-H ) :   0.5612 B(  1-C ,  2-C ) :   1.1964 B(  1-C ,  4-H ) :   0.1710
B(  1-C , 17-C ) :   1.2531 B(  1-C , 20-H ) :   0.7767 B(  1-C , 21-H ) :   0.6457
B(  2-C ,  3-H ) :   0.8280 B(  2-C ,  4-H ) :   0.7040 B(  2-C ,  5-C ) :   1.1949
B(  2-C , 17-C ) :   0.1251 B(  2-C , 20-H ) :   0.1435 B(  2-C , 21-H ) :   0.1157
B(  3-H ,  5-C ) :   0.1313 B(  4-H ,  5-C ) :   0.2341 B(  5-C , 13-F ) :   0.6249
B(  5-C , 14-O ) :   1.5416 B(  6-C ,  7-N ) :   0.9317 B(  6-C ,  8-C ) :   1.9589
B(  6-C ,  9-H ) :   0.3456 B(  6-C , 10-H ) :   0.2873 B(  6-C , 35-H ) :   0.1561
B(  6-C , 36-H ) :   0.2906 B(  7-N ,  8-C ) :   0.4139 B(  7-N , 11-H ) :   0.9840
B(  7-N , 12-H ) :   1.0414 B(  8-C ,  9-H ) :   0.1686 B(  8-C , 10-H ) :   0.7409
B(  9-H , 13-F ) :   0.1908 B( 11-H , 12-H ) :  -0.2236 B( 12-H , 14-O ) :   0.1542
B( 13-F , 14-O ) :   0.1091 B( 15-C , 22-C ) :   1.1403 B( 15-C , 23-H ) :   0.8355
B( 15-C , 24-H ) :   0.9335 B( 15-C , 25-C ) :   0.1162 B( 15-C , 26-H ) :   0.1502
B( 15-C , 35-H ) :   0.1455 B( 15-C , 36-H ) :   0.1763 B( 16-C , 17-C ) :   1.2748
B( 16-C , 18-H ) :   0.1727 B( 16-C , 19-H ) :   0.1173 B( 16-C , 25-C ) :   0.1665
B( 16-C , 28-C ) :   1.0810 B( 16-C , 31-H ) :   0.8106 B( 16-C , 32-H ) :   1.1418
B( 16-C , 33-H ) :   0.1428 B( 16-C , 34-H ) :   0.2632 B( 17-C , 18-H ) :   0.8839
B( 17-C , 19-H ) :   0.9260 B( 17-C , 20-H ) :   0.1978 B( 17-C , 21-H ) :   0.2283
B( 17-C , 32-H ) :   0.1247 B( 20-H , 21-H ) :  -0.1032 B( 22-C , 23-H ) :   0.1204
B( 22-C , 24-H ) :   0.1996 B( 22-C , 25-C ) :   1.1849 B( 22-C , 26-H ) :   0.9585
B( 22-C , 27-H ) :   0.7275 B( 22-C , 29-H ) :   0.1125 B( 22-C , 30-H ) :   0.2389
B( 25-C , 27-H ) :   0.1077 B( 25-C , 28-C ) :   1.1550 B( 25-C , 29-H ) :   0.8172
B( 25-C , 30-H ) :   0.9744 B( 25-C , 33-H ) :   0.2017 B( 25-C , 34-H ) :   0.1587
B( 26-H , 27-H ) :   0.2103 B( 26-H , 31-H ) :   0.1697 B( 26-H , 32-H ) :  -0.1064
B( 28-C , 29-H ) :   0.1016 B( 28-C , 33-H ) :   0.6603 B( 28-C , 34-H ) :   0.6365

Dispersion correction           -0.053601129
FINAL SINGLE POINT ENERGY      -699.980075941746

DIPOLE MOMENT
-------------
                                X             Y             Z
Electronic contribution:      0.08619       6.23301      15.17375
Nuclear contribution   :     -1.39991      -5.60370     -16.00470
                        -----------------------------------------
Total Dipole Moment    :     -1.31371       0.62931      -0.83095
                        -----------------------------------------
Magnitude (a.u.)       :      1.67701
Magnitude (Debye)      :      4.26261

Rotational constants in cm-1:     0.021622     0.017313     0.011402
Rotational constants in MHz :   648.226014   519.043632   341.814105

                             ****ORCA TERMINATED NORMALLY****
TOTAL RUN TIME: 0 days 0 hours 1 minutes 42 seconds 657 msec
