                         Program Version 5.0.0 -  RELEASE  -
|  1> !TPSS D3BJ RIJCOSX def2-SVPD def2/J TightSCF xyzfile
|  2>
|  3> *xyzfile 0 1 D4.xyz
|  4>
|  5> %MaxCore 64000
|  6>
|  7> %pal nprocs 4
|  8> end
|  9>
| 10> %scf
| 11>   MaxIter 150
| 12> end
| 13>
| 14>
| 15>                          ****END OF INPUT****

CARTESIAN COORDINATES (ANGSTROEM)
---------------------------------
  C      4.602954   -2.440100    2.634780
  C     -0.914947    0.615112    2.505538
  C     -0.059146    1.503524    3.410578
  H      0.365364    2.344315    2.861161
  H     -0.692261    1.920207    4.198985
  C      1.083027    0.749640    4.085705
  C      3.860851   -1.591565    3.622893
  N      2.756502   -2.046159    4.166333
  C      4.254325   -0.362905    3.860455
  H      3.565256    0.310994    4.168983
  H      5.054292   -0.016059    3.337838
  H      2.439696   -2.973894    3.897395
  H      2.066869   -1.412532    4.549813
  O      2.228167    1.263475    4.019826
  F      0.810034   -0.345411    4.636269
  C      3.744685   -2.580557    1.361882
  C      0.772139    0.636882    0.562129
  C     -0.130740   -0.193985    1.470763
  H     -0.840563   -0.760165    0.856377
  H      0.466691   -0.938942    2.006959
  H     -1.647961    1.245963    1.991076
  H     -1.478180   -0.081046    3.130424
  C      3.203721   -1.256004    0.826211
  H      2.898939   -3.239289    1.583074
  H      4.334962   -3.095523    0.600188
  C      2.107815   -1.442385   -0.216865
  H      2.786775   -0.672760    1.650711
  H      4.021008   -0.652993    0.414046
  C      1.390662   -0.145912   -0.602422
  H      1.372179   -2.152184    0.176151
  H      2.523302   -1.906787   -1.117115
  H      1.561361    1.100094    1.161831
  H      0.195516    1.468325    0.142758
  H      0.602893   -0.398214   -1.319716
  H      2.087247    0.508272   -1.137335
  H      5.561557   -1.971347    2.407084
  H      4.810498   -3.422552    3.063099

 Total Charge           Charge          ....    0
 Multiplicity           Mult            ....    1
 Number of Electrons    NEL             ....  118
 Basis Dimension        Dim             ....  482

ORBITAL ENERGIES
----------------

  NO   OCC          E(Eh)            E(eV)
   0   2.0000     -24.523191      -667.3100
   1   2.0000     -18.919606      -514.8287
   2   2.0000     -14.099933      -383.6787
   3   2.0000     -10.184929      -277.1460
   4   2.0000     -10.038634      -273.1651
   5   2.0000     -10.022842      -272.7354
   6   2.0000     -10.009089      -272.3611
   7   2.0000     -10.000401      -272.1247
   8   2.0000      -9.995929      -272.0030
   9   2.0000      -9.991426      -271.8805
  10   2.0000      -9.990974      -271.8682
  11   2.0000      -9.990507      -271.8555
  12   2.0000      -9.986523      -271.7471
  13   2.0000      -9.983408      -271.6623
  14   2.0000      -9.898777      -269.3594
  15   2.0000      -1.254027       -34.1238
  16   2.0000      -0.972566       -26.4649
  17   2.0000      -0.844810       -22.9884
  18   2.0000      -0.769901       -20.9501
  19   2.0000      -0.741488       -20.1769
  20   2.0000      -0.717021       -19.5111
  21   2.0000      -0.682079       -18.5603
  22   2.0000      -0.657178       -17.8827
  23   2.0000      -0.633615       -17.2415
  24   2.0000      -0.621694       -16.9172
  25   2.0000      -0.591505       -16.0957
  26   2.0000      -0.561218       -15.2715
  27   2.0000      -0.535374       -14.5683
  28   2.0000      -0.527415       -14.3517
  29   2.0000      -0.517659       -14.0862
  30   2.0000      -0.504142       -13.7184
  31   2.0000      -0.493762       -13.4359
  32   2.0000      -0.471046       -12.8178
  33   2.0000      -0.457040       -12.4367
  34   2.0000      -0.443275       -12.0621
  35   2.0000      -0.439629       -11.9629
  36   2.0000      -0.419688       -11.4203
  37   2.0000      -0.405175       -11.0254
  38   2.0000      -0.398758       -10.8508
  39   2.0000      -0.395154       -10.7527
  40   2.0000      -0.379294       -10.3211
  41   2.0000      -0.373755       -10.1704
  42   2.0000      -0.366620        -9.9762
  43   2.0000      -0.351677        -9.5696
  44   2.0000      -0.346997        -9.4423
  45   2.0000      -0.338990        -9.2244
  46   2.0000      -0.334866        -9.1122
  47   2.0000      -0.322774        -8.7831
  48   2.0000      -0.319572        -8.6960
  49   2.0000      -0.313285        -8.5249
  50   2.0000      -0.309166        -8.4128
  51   2.0000      -0.292003        -7.9458
  52   2.0000      -0.289826        -7.8866
  53   2.0000      -0.287148        -7.8137
  54   2.0000      -0.279509        -7.6058
  55   2.0000      -0.273892        -7.4530
  56   2.0000      -0.265996        -7.2381
  57   2.0000      -0.232272        -6.3205
  58   2.0000      -0.141467        -3.8495
  59   0.0000      -0.079612        -2.1663
  60   0.0000      -0.005564        -0.1514
  61   0.0000       0.011107         0.3022
  62   0.0000       0.017863         0.4861
  63   0.0000       0.023000         0.6259

MULLIKEN ATOMIC CHARGES
-----------------------
   0 C :    0.578939
   1 C :    0.459848
   2 C :    0.096832
   3 H :    0.199664
   4 H :   -0.127592
   5 C :    0.740951
   6 C :   -0.395808
   7 N :    0.393429
   8 C :    0.727878
   9 H :   -0.592787
  10 H :   -0.077817
  11 H :    0.014371
  12 H :   -0.467449
  13 O :   -0.561958
  14 F :   -0.491226
  15 C :    0.099774
  16 C :   -0.245577
  17 C :   -0.176614
  18 H :   -0.150134
  19 H :   -0.046842
  20 H :   -0.060457
  21 H :    0.041863
  22 C :    0.224488
  23 H :    0.084351
  24 H :   -0.294333
  25 C :   -0.048826
  26 H :   -0.415747
  27 H :    0.001281
  28 C :    0.734951
  29 H :    0.170889
  30 H :   -0.334609
  31 H :    0.186976
  32 H :   -0.458140
  33 H :    0.093050
  34 H :    0.012055
  35 H :    0.152213
  36 H :   -0.067890
Sum of atomic charges:   -0.0000000

LOEWDIN ATOMIC CHARGES
----------------------
   0 C :    0.023881
   1 C :   -0.016524
   2 C :    0.068430
   3 H :    0.031227
   4 H :    0.036686
   5 C :    0.041652
   6 C :   -0.260693
   7 N :    0.207522
   8 C :    0.197724
   9 H :   -0.169831
  10 H :   -0.073176
  11 H :    0.003249
  12 H :   -0.070473
  13 O :   -0.104637
  14 F :   -0.023162
  15 C :   -0.014873
  16 C :   -0.024244
  17 C :   -0.024446
  18 H :    0.027146
  19 H :    0.004986
  20 H :    0.024259
  21 H :    0.019465
  22 C :   -0.018165
  23 H :    0.005555
  24 H :    0.016766
  25 C :   -0.033208
  26 H :   -0.016583
  27 H :    0.034898
  28 C :   -0.020266
  29 H :    0.009753
  30 H :    0.018891
  31 H :    0.009853
  32 H :    0.019844
  33 H :    0.016191
  34 H :    0.019716
  35 H :    0.019722
  36 H :    0.012865

  Mayer bond orders larger than 0.100000
B(  0-C ,  6-C ) :   1.2737 B(  0-C ,  8-C ) :   0.1198 B(  0-C , 15-C ) :   1.1040
B(  0-C , 23-H ) :   0.1143 B(  0-C , 24-H ) :   0.1394 B(  0-C , 35-H ) :   0.7386
B(  0-C , 36-H ) :   0.5691 B(  1-C ,  2-C ) :   1.1782 B(  1-C ,  4-H ) :   0.1662
B(  1-C , 17-C ) :   1.2370 B(  1-C , 19-H ) :   0.1031 B(  1-C , 20-H ) :   0.7854
B(  1-C , 21-H ) :   0.6554 B(  2-C ,  3-H ) :   0.8526 B(  2-C ,  4-H ) :   0.7249
B(  2-C ,  5-C ) :   1.1380 B(  2-C , 17-C ) :   0.1009 B(  2-C , 20-H ) :   0.1426
B(  2-C , 21-H ) :   0.1097 B(  3-H ,  5-C ) :   0.1243 B(  4-H ,  5-C ) :   0.2196
B(  5-C , 13-O ) :   1.6961 B(  5-C , 14-F ) :   0.4977 B(  6-C ,  7-N ) :   0.9298
B(  6-C ,  8-C ) :   1.9556 B(  6-C ,  9-H ) :   0.3329 B(  6-C , 10-H ) :   0.2971
B(  6-C , 35-H ) :   0.1564 B(  6-C , 36-H ) :   0.2863 B(  7-N ,  8-C ) :   0.4035
B(  7-N , 11-H ) :   1.0158 B(  7-N , 12-H ) :   1.0364 B(  8-C ,  9-H ) :   0.2368
B(  8-C , 10-H ) :   0.7409 B(  9-H , 13-O ) :   0.1399 B(  9-H , 24-H ) :  -0.1023
B( 10-H , 23-H ) :  -0.1000 B( 11-H , 12-H ) :  -0.2116 B( 12-H , 14-F ) :   0.1088
B( 13-O , 14-F ) :   0.1082 B( 15-C , 22-C ) :   1.1330 B( 15-C , 23-H ) :   0.8316
B( 15-C , 24-H ) :   0.9411 B( 15-C , 25-C ) :   0.1181 B( 15-C , 26-H ) :   0.1525
B( 15-C , 35-H ) :   0.1438 B( 15-C , 36-H ) :   0.1755 B( 16-C , 17-C ) :   1.2924
B( 16-C , 18-H ) :   0.1669 B( 16-C , 19-H ) :   0.1245 B( 16-C , 25-C ) :   0.1695
B( 16-C , 28-C ) :   1.0808 B( 16-C , 31-H ) :   0.8096 B( 16-C , 32-H ) :   1.1455
B( 16-C , 33-H ) :   0.1458 B( 16-C , 34-H ) :   0.2624 B( 17-C , 18-H ) :   0.8992
B( 17-C , 19-H ) :   0.9069 B( 17-C , 20-H ) :   0.1940 B( 17-C , 21-H ) :   0.2316
B( 17-C , 32-H ) :   0.1186 B( 20-H , 21-H ) :  -0.1106 B( 22-C , 23-H ) :   0.1165
B( 22-C , 24-H ) :   0.1923 B( 22-C , 25-C ) :   1.1844 B( 22-C , 26-H ) :   0.9402
B( 22-C , 27-H ) :   0.7199 B( 22-C , 29-H ) :   0.1135 B( 22-C , 30-H ) :   0.2337
B( 25-C , 27-H ) :   0.1073 B( 25-C , 28-C ) :   1.1549 B( 25-C , 29-H ) :   0.8183
B( 25-C , 30-H ) :   0.9762 B( 25-C , 33-H ) :   0.2026 B( 25-C , 34-H ) :   0.1577
B( 26-H , 27-H ) :   0.2083 B( 26-H , 31-H ) :   0.1770 B( 26-H , 32-H ) :  -0.1085
B( 28-C , 29-H ) :   0.1025 B( 28-C , 33-H ) :   0.6560 B( 28-C , 34-H ) :   0.6362

Dispersion correction           -0.053607255
FINAL SINGLE POINT ENERGY      -699.968642899420

DIPOLE MOMENT
-------------
                                X             Y             Z
Electronic contribution:     -2.20920       3.57051      16.23571
Nuclear contribution   :      0.32481      -3.64700     -16.75441
                        -----------------------------------------
Total Dipole Moment    :     -1.88439      -0.07649      -0.51870
                        -----------------------------------------
Magnitude (a.u.)       :      1.95597
Magnitude (Debye)      :      4.97169

Rotational constants in cm-1:     0.021629     0.017327     0.011372
Rotational constants in MHz :   648.414821   519.443407   340.925013

                             ****ORCA TERMINATED NORMALLY****
TOTAL RUN TIME: 0 days 0 hours 1 minutes 44 seconds 725 msec
