                         Program Version 5.0.0 -  RELEASE  -
|  1> !PBE D3BJ RIJCOSX def2-SVPD def2/J TightSCF
|  2> *xyz -1 1
|  3> C         -0.96015       -0.52236       -0.48987
|  4> O          0.26170       -0.58031        0.13861
|  5> H         -0.85050       -0.82220       -1.51113
|  6> H         -1.33436        0.47929       -0.45044
|  7> H         -1.64624       -1.17908        0.00297
|  8> *
|  9>
| 10> %MaxCore 64000
| 11>
| 12> %pal nprocs 4
| 13> end
| 14>
| 15> %scf
| 16>   MaxIter 150
| 17> end
| 18>
| 19>
| 20>                          ****END OF INPUT****

CARTESIAN COORDINATES (ANGSTROEM)
---------------------------------
  C     -0.960150   -0.522360   -0.489870
  O      0.261700   -0.580310    0.138610
  H     -0.850500   -0.822200   -1.511130
  H     -1.334360    0.479290   -0.450440
  H     -1.646240   -1.179080    0.002970

 Total Charge           Charge          ....   -1
 Multiplicity           Mult            ....    1
 Number of Electrons    NEL             ....   18
 Basis Dimension        Dim             ....   67

ORBITAL ENERGIES
----------------

  NO   OCC          E(Eh)            E(eV)
   0   2.0000     -18.417798      -501.1738
   1   2.0000      -9.681150      -263.4375
   2   2.0000      -0.567999       -15.4560
   3   2.0000      -0.328088        -8.9277
   4   2.0000      -0.148444        -4.0394
   5   2.0000      -0.148443        -4.0394
   6   2.0000      -0.055847        -1.5197
   7   2.0000       0.092055         2.5049
   8   2.0000       0.092056         2.5050
   9   0.0000       0.182385         4.9630
  10   0.0000       0.251692         6.8489
  11   0.0000       0.251693         6.8489
  12   0.0000       0.258573         7.0361
  13   0.0000       0.294901         8.0247

MULLIKEN ATOMIC CHARGES
-----------------------
   0 C :    0.827625
   1 O :   -1.015785
   2 H :   -0.270591
   3 H :   -0.270626
   4 H :   -0.270622
Sum of atomic charges:   -1.0000000

LOEWDIN ATOMIC CHARGES
----------------------
   0 C :   -0.124024
   1 O :   -0.624121
   2 H :   -0.083950
   3 H :   -0.083952
   4 H :   -0.083953

  Mayer bond orders larger than 0.100000
B(  0-C ,  1-O ) :   1.1401 B(  0-C ,  2-H ) :   0.9138 B(  0-C ,  3-H ) :   0.9138
B(  0-C ,  4-H ) :   0.9138

Dispersion correction           -0.001470704
FINAL SINGLE POINT ENERGY      -114.883219665592

DIPOLE MOMENT
-------------
                                X             Y             Z
Electronic contribution:      1.71022      -0.08111       0.87969
Nuclear contribution   :     -2.56864       0.12183      -1.32123
                        -----------------------------------------
Total Dipole Moment    :     -0.85842       0.04072      -0.44154
                        -----------------------------------------
Magnitude (a.u.)       :      0.96617
Magnitude (Debye)      :      2.45582

Rotational constants in cm-1:     5.477744     0.932677     0.932677
Rotational constants in MHz : 164218.635293 27960.967920 27960.945417

                             ****ORCA TERMINATED NORMALLY****
TOTAL RUN TIME: 0 days 0 hours 0 minutes 2 seconds 229 msec
