                         Program Version 5.0.0 -  RELEASE  -
|  1> !PBE D3BJ RIJCOSX def2-SVPD def2/J TightSCF
|  2> *xyz 1 1
|  3> C          4.36645       -0.13321       -1.41606
|  4> C          3.05650       -0.32080       -0.70738
|  5> N          2.38983        0.71129       -0.24391
|  6> N          2.51600       -1.50772       -0.55023
|  7> H          2.96768       -2.32291       -0.95631
|  8> H          1.54987       -1.49063       -0.24988
|  9> H          2.74307        1.64947       -0.41280
| 10> H          1.44036        0.50278        0.03703
| 11> H          4.74975       -1.08632       -1.71533
| 12> H          5.06373        0.34075       -0.75722
| 13> H          4.21960        0.47966       -2.28077
| 14> *
| 15>
| 16> %MaxCore 64000
| 17>
| 18> %pal nprocs 4
| 19> end
| 20>
| 21> %scf
| 22>   MaxIter 150
| 23> end
| 24>
| 25>
| 26>                          ****END OF INPUT****

CARTESIAN COORDINATES (ANGSTROEM)
---------------------------------
  C      4.366450   -0.133210   -1.416060
  C      3.056500   -0.320800   -0.707380
  N      2.389830    0.711290   -0.243910
  N      2.516000   -1.507720   -0.550230
  H      2.967680   -2.322910   -0.956310
  H      1.549870   -1.490630   -0.249880
  H      2.743070    1.649470   -0.412800
  H      1.440360    0.502780    0.037030
  H      4.749750   -1.086320   -1.715330
  H      5.063730    0.340750   -0.757220
  H      4.219600    0.479660   -2.280770

 Total Charge           Charge          ....    1
 Multiplicity           Mult            ....    1
 Number of Electrons    NEL             ....   32
 Basis Dimension        Dim             ....  136

ORBITAL ENERGIES
----------------

  NO   OCC          E(Eh)            E(eV)
   0   2.0000     -14.254055      -387.8726
   1   2.0000     -14.251752      -387.8099
   2   2.0000     -10.219038      -278.0742
   3   2.0000     -10.097434      -274.7652
   4   2.0000      -1.129966       -30.7480
   5   2.0000      -1.029942       -28.0261
   6   2.0000      -0.884065       -24.0566
   7   2.0000      -0.782203       -21.2848
   8   2.0000      -0.730879       -19.8882
   9   2.0000      -0.722191       -19.6518
  10   2.0000      -0.663744       -18.0614
  11   2.0000      -0.617656       -16.8073
  12   2.0000      -0.578478       -15.7412
  13   2.0000      -0.559023       -15.2118
  14   2.0000      -0.537919       -14.6375
  15   2.0000      -0.463508       -12.6127
  16   0.0000      -0.255465        -6.9516
  17   0.0000      -0.193414        -5.2631
  18   0.0000      -0.148071        -4.0292
  19   0.0000      -0.137191        -3.7332
  20   0.0000      -0.118971        -3.2374

MULLIKEN ATOMIC CHARGES
-----------------------
   0 C :    0.653132
   1 C :    0.235519
   2 N :    0.141781
   3 N :    0.037803
   4 H :    0.013766
   5 H :   -0.056115
   6 H :   -0.001029
   7 H :   -0.104152
   8 H :    0.037146
   9 H :    0.029704
  10 H :    0.012445
Sum of atomic charges:    1.0000000

LOEWDIN ATOMIC CHARGES
----------------------
   0 C :    0.240376
   1 C :   -0.087446
   2 N :    0.289530
   3 N :    0.293766
   4 H :    0.059538
   5 H :    0.043317
   6 H :    0.063724
   7 H :    0.042108
   8 H :    0.007708
   9 H :    0.023328
  10 H :    0.024053

  Mayer bond orders larger than 0.100000
B(  0-C ,  1-C ) :   1.3644 B(  0-C ,  8-H ) :   0.7479 B(  0-C ,  9-H ) :   0.7035
B(  0-C , 10-H ) :   0.7852 B(  1-C ,  2-N ) :   1.1754 B(  1-C ,  3-N ) :   1.0442
B(  1-C ,  5-H ) :  -0.1577 B(  1-C ,  7-H ) :  -0.1249 B(  1-C ,  8-H ) :   0.2812
B(  1-C ,  9-H ) :   0.2222 B(  1-C , 10-H ) :   0.1622 B(  2-N ,  3-N ) :   0.2537
B(  2-N ,  6-H ) :   1.1120 B(  2-N ,  7-H ) :   1.1959 B(  3-N ,  4-H ) :   1.0994
B(  3-N ,  5-H ) :   1.2229 B(  4-H ,  5-H ) :  -0.1543 B(  6-H ,  7-H ) :  -0.1446
B(  8-H ,  9-H ) :   0.1078

Dispersion correction           -0.006936541
FINAL SINGLE POINT ENERGY      -189.351624364337

DIPOLE MOMENT
-------------
                                X             Y             Z
Electronic contribution:     -1.75377      -0.26780       1.11962
Nuclear contribution   :      1.22976       0.25273      -1.15956
                        -----------------------------------------
Total Dipole Moment    :     -0.52401      -0.01506      -0.03994
                        -----------------------------------------
Magnitude (a.u.)       :      0.52575
Magnitude (Debye)      :      1.33634

Rotational constants in cm-1:     0.347067     0.291236     0.163306
Rotational constants in MHz : 10404.811357  8731.035118  4895.793931

                             ****ORCA TERMINATED NORMALLY****
TOTAL RUN TIME: 0 days 0 hours 0 minutes 4 seconds 593 msec
