                         Program Version 5.0.0 -  RELEASE  -
|  1> !PBE D3BJ RIJCOSX def2-SVPD def2/J TightSCF
|  2> *xyz 0 1
|  3> C         -0.96015       -0.52236       -0.48987
|  4> F          0.26170       -0.58031        0.13861
|  5> H         -0.85050       -0.82220       -1.51113
|  6> H         -1.33436        0.47929       -0.45044
|  7> H         -1.64624       -1.17908        0.00297
|  8> *
|  9>
| 10> %MaxCore 64000
| 11>
| 12> %pal nprocs 4
| 13> end
| 14>
| 15> %scf
| 16>   MaxIter 150
| 17> end
| 18>
| 19>
| 20>                          ****END OF INPUT****

CARTESIAN COORDINATES (ANGSTROEM)
---------------------------------
  C     -0.960150   -0.522360   -0.489870
  F      0.261700   -0.580310    0.138610
  H     -0.850500   -0.822200   -1.511130
  H     -1.334360    0.479290   -0.450440
  H     -1.646240   -1.179080    0.002970

 Total Charge           Charge          ....    0
 Multiplicity           Mult            ....    1
 Number of Electrons    NEL             ....   18
 Basis Dimension        Dim             ....   67

ORBITAL ENERGIES
----------------

  NO   OCC          E(Eh)            E(eV)
   0   2.0000     -24.260373      -660.1583
   1   2.0000      -9.964087      -271.1366
   2   2.0000      -1.082074       -29.4447
   3   2.0000      -0.634614       -17.2687
   4   2.0000      -0.447444       -12.1756
   5   2.0000      -0.433727       -11.8023
   6   2.0000      -0.433726       -11.8023
   7   2.0000      -0.298342        -8.1183
   8   2.0000      -0.298340        -8.1183
   9   0.0000       0.009206         0.2505
  10   0.0000       0.032672         0.8890
  11   0.0000       0.082293         2.2393
  12   0.0000       0.082294         2.2393
  13   0.0000       0.128225         3.4892

MULLIKEN ATOMIC CHARGES
-----------------------
   0 C :    0.900571
   1 F :   -0.458137
   2 H :   -0.147461
   3 H :   -0.147504
   4 H :   -0.147469
Sum of atomic charges:    0.0000000

LOEWDIN ATOMIC CHARGES
----------------------
   0 C :    0.256480
   1 F :   -0.232823
   2 H :   -0.007884
   3 H :   -0.007887
   4 H :   -0.007886

  Mayer bond orders larger than 0.100000
B(  0-C ,  1-F ) :   0.8866 B(  0-C ,  2-H ) :   0.9348 B(  0-C ,  3-H ) :   0.9348
B(  0-C ,  4-H ) :   0.9348

Dispersion correction           -0.001294273
FINAL SINGLE POINT ENERGY      -139.489857309857

DIPOLE MOMENT
-------------
                                X             Y             Z
Electronic contribution:      2.64143      -0.12528       1.35867
Nuclear contribution   :     -3.25854       0.15455      -1.67609
                        -----------------------------------------
Total Dipole Moment    :     -0.61710       0.02927      -0.31742
                        -----------------------------------------
Magnitude (a.u.)       :      0.69457
Magnitude (Debye)      :      1.76546

Rotational constants in cm-1:     5.477744     0.868130     0.868129
Rotational constants in MHz : 164218.635293 26025.869915 26025.850419

                             ****ORCA TERMINATED NORMALLY****
TOTAL RUN TIME: 0 days 0 hours 0 minutes 2 seconds 158 msec
