                         Program Version 5.0.0 -  RELEASE  -
|  1> !PBE D3BJ RIJCOSX def2-SVPD def2/J TightSCF
|  2> *xyz 0 1
|  3> C          4.36645       -0.13321       -1.41606
|  4> C          3.05650       -0.32080       -0.70738
|  5> C          2.38983        0.71129       -0.24391
|  6> N          2.51600       -1.50772       -0.55023
|  7> H          2.96768       -2.32291       -0.95631
|  8> H          1.54987       -1.49063       -0.24988
|  9> H          2.74307        1.64947       -0.41280
| 10> H          1.44036        0.50278        0.03703
| 11> H          4.74975       -1.08632       -1.71533
| 12> H          5.06373        0.34075       -0.75722
| 13> H          4.21960        0.47966       -2.28077
| 14> *
| 15>
| 16> %MaxCore 64000
| 17>
| 18> %pal nprocs 4
| 19> end
| 20>
| 21> %scf
| 22>   MaxIter 150
| 23> end
| 24>
| 25>
| 26>                          ****END OF INPUT****

CARTESIAN COORDINATES (ANGSTROEM)
---------------------------------
  C      4.366450   -0.133210   -1.416060
  C      3.056500   -0.320800   -0.707380
  C      2.389830    0.711290   -0.243910
  N      2.516000   -1.507720   -0.550230
  H      2.967680   -2.322910   -0.956310
  H      1.549870   -1.490630   -0.249880
  H      2.743070    1.649470   -0.412800
  H      1.440360    0.502780    0.037030
  H      4.749750   -1.086320   -1.715330
  H      5.063730    0.340750   -0.757220
  H      4.219600    0.479660   -2.280770

 Total Charge           Charge          ....    0
 Multiplicity           Mult            ....    1
 Number of Electrons    NEL             ....   32
 Basis Dimension        Dim             ....  136

ORBITAL ENERGIES
----------------

  NO   OCC          E(Eh)            E(eV)
   0   2.0000     -14.002475      -381.0267
   1   2.0000      -9.911502      -269.7057
   2   2.0000      -9.888809      -269.0882
   3   2.0000      -9.824633      -267.3419
   4   2.0000      -0.846775       -23.0419
   5   2.0000      -0.679228       -18.4827
   6   2.0000      -0.620387       -16.8816
   7   2.0000      -0.508671       -13.8416
   8   2.0000      -0.482143       -13.1198
   9   2.0000      -0.418007       -11.3746
  10   2.0000      -0.385032       -10.4773
  11   2.0000      -0.355822        -9.6824
  12   2.0000      -0.343935        -9.3589
  13   2.0000      -0.315218        -8.5775
  14   2.0000      -0.294043        -8.0013
  15   2.0000      -0.156315        -4.2535
  16   0.0000      -0.001920        -0.0522
  17   0.0000       0.013295         0.3618
  18   0.0000       0.037565         1.0222
  19   0.0000       0.043575         1.1857
  20   0.0000       0.071777         1.9532

MULLIKEN ATOMIC CHARGES
-----------------------
   0 C :    0.826413
   1 C :   -0.505023
   2 C :    0.428802
   3 N :    0.179635
   4 H :   -0.130295
   5 H :   -0.071583
   6 H :   -0.215644
   7 H :   -0.382128
   8 H :   -0.105490
   9 H :    0.002861
  10 H :   -0.027549
Sum of atomic charges:   -0.0000000

LOEWDIN ATOMIC CHARGES
----------------------
   0 C :    0.172184
   1 C :   -0.299650
   2 C :    0.158106
   3 N :    0.173267
   4 H :   -0.000337
   5 H :    0.001664
   6 H :   -0.074157
   7 H :   -0.088879
   8 H :   -0.028147
   9 H :   -0.007091
  10 H :   -0.006960

  Mayer bond orders larger than 0.100000
B(  0-C ,  1-C ) :   1.2109 B(  0-C ,  8-H ) :   0.6808 B(  0-C ,  9-H ) :   0.7103
B(  0-C , 10-H ) :   0.7863 B(  1-C ,  2-C ) :   1.7753 B(  1-C ,  3-N ) :   1.1202
B(  1-C ,  6-H ) :   0.1427 B(  1-C ,  7-H ) :   0.2678 B(  1-C ,  8-H ) :   0.3327
B(  1-C ,  9-H ) :   0.2238 B(  1-C , 10-H ) :   0.1586 B(  2-C ,  3-N ) :   0.3066
B(  2-C ,  6-H ) :   0.8237 B(  2-C ,  7-H ) :   0.7640 B(  3-N ,  4-H ) :   1.1412
B(  3-N ,  5-H ) :   1.1367 B(  4-H ,  5-H ) :  -0.1358

Dispersion correction           -0.007253631
FINAL SINGLE POINT ENERGY      -172.897974388218

DIPOLE MOMENT
-------------
                                X             Y             Z
Electronic contribution:     -1.02079      -1.16523       0.68288
Nuclear contribution   :      1.07959       0.48266      -1.05101
                        -----------------------------------------
Total Dipole Moment    :      0.05880      -0.68257      -0.36813
                        -----------------------------------------
Magnitude (a.u.)       :      0.77774
Magnitude (Debye)      :      1.97687

Rotational constants in cm-1:     0.369235     0.294626     0.169175
Rotational constants in MHz : 11069.394850  8832.653024  5071.734673

                             ****ORCA TERMINATED NORMALLY****
TOTAL RUN TIME: 0 days 0 hours 0 minutes 4 seconds 967 msec
