                         Program Version 5.0.0 -  RELEASE  -
|  1> !PBE D3BJ RIJCOSX def2-SVPD def2/J TightSCF
|  2> *xyz 0 1
|  3> C          4.36645       -0.13321       -1.41606
|  4> C          3.05650       -0.32080       -0.70738
|  5> N          2.38983        0.71129       -0.24391
|  6> C          2.51600       -1.50772       -0.55023
|  7> H          2.96768       -2.32291       -0.95631
|  8> H          1.54987       -1.49063       -0.24988
|  9> H          2.74307        1.64947       -0.41280
| 10> H          1.44036        0.50278        0.03703
| 11> H          4.74975       -1.08632       -1.71533
| 12> H          5.06373        0.34075       -0.75722
| 13> H          4.21960        0.47966       -2.28077
| 14> *
| 15>
| 16> %MaxCore 64000
| 17>
| 18> %pal nprocs 4
| 19> end
| 20>
| 21> %scf
| 22>   MaxIter 150
| 23> end
| 24>
| 25>
| 26>                          ****END OF INPUT****

CARTESIAN COORDINATES (ANGSTROEM)
---------------------------------
  C      4.366450   -0.133210   -1.416060
  C      3.056500   -0.320800   -0.707380
  N      2.389830    0.711290   -0.243910
  C      2.516000   -1.507720   -0.550230
  H      2.967680   -2.322910   -0.956310
  H      1.549870   -1.490630   -0.249880
  H      2.743070    1.649470   -0.412800
  H      1.440360    0.502780    0.037030
  H      4.749750   -1.086320   -1.715330
  H      5.063730    0.340750   -0.757220
  H      4.219600    0.479660   -2.280770

 Total Charge           Charge          ....    0
 Multiplicity           Mult            ....    1
 Number of Electrons    NEL             ....   32
 Basis Dimension        Dim             ....  136

ORBITAL ENERGIES
----------------

  NO   OCC          E(Eh)            E(eV)
   0   2.0000     -14.001197      -380.9919
   1   2.0000      -9.912408      -269.7303
   2   2.0000      -9.888264      -269.0733
   3   2.0000      -9.828679      -267.4520
   4   2.0000      -0.846911       -23.0456
   5   2.0000      -0.678382       -18.4597
   6   2.0000      -0.621927       -16.9235
   7   2.0000      -0.508627       -13.8405
   8   2.0000      -0.482428       -13.1275
   9   2.0000      -0.418243       -11.3810
  10   2.0000      -0.386541       -10.5183
  11   2.0000      -0.353866        -9.6292
  12   2.0000      -0.346402        -9.4261
  13   2.0000      -0.315394        -8.5823
  14   2.0000      -0.292813        -7.9678
  15   2.0000      -0.160027        -4.3546
  16   0.0000      -0.001448        -0.0394
  17   0.0000       0.016141         0.4392
  18   0.0000       0.037481         1.0199
  19   0.0000       0.045333         1.2336
  20   0.0000       0.070817         1.9270

MULLIKEN ATOMIC CHARGES
-----------------------
   0 C :    0.848603
   1 C :   -0.638724
   2 N :    0.288722
   3 C :    0.433785
   4 H :   -0.154812
   5 H :   -0.404190
   6 H :   -0.166676
   7 H :   -0.128975
   8 H :    0.022882
   9 H :   -0.044041
  10 H :   -0.056574
Sum of atomic charges:    0.0000000

LOEWDIN ATOMIC CHARGES
----------------------
   0 C :    0.170322
   1 C :   -0.307227
   2 N :    0.171240
   3 C :    0.168000
   4 H :   -0.078881
   5 H :   -0.086674
   6 H :    0.003987
   7 H :    0.000492
   8 H :   -0.014367
   9 H :   -0.014702
  10 H :   -0.012190

  Mayer bond orders larger than 0.100000
B(  0-C ,  1-C ) :   1.3834 B(  0-C ,  8-H ) :   0.7771 B(  0-C ,  9-H ) :   0.6431
B(  0-C , 10-H ) :   0.6678 B(  1-C ,  2-N ) :   1.2413 B(  1-C ,  3-C ) :   1.7082
B(  1-C ,  5-H ) :   0.2498 B(  1-C ,  8-H ) :   0.2572 B(  1-C ,  9-H ) :   0.2944
B(  1-C , 10-H ) :   0.2952 B(  2-N ,  3-C ) :   0.2987 B(  2-N ,  6-H ) :   1.1556
B(  2-N ,  7-H ) :   1.1227 B(  3-C ,  4-H ) :   0.9233 B(  3-C ,  5-H ) :   0.7386
B(  6-H ,  7-H ) :  -0.1172 B(  8-H , 10-H ) :   0.1088

Dispersion correction           -0.007253597
FINAL SINGLE POINT ENERGY      -172.900867931360

DIPOLE MOMENT
-------------
                                X             Y             Z
Electronic contribution:     -1.15610       0.76431       0.96463
Nuclear contribution   :      1.10788      -0.01499      -1.11971
                        -----------------------------------------
Total Dipole Moment    :     -0.04822       0.74932      -0.15508
                        -----------------------------------------
Magnitude (a.u.)       :      0.76672
Magnitude (Debye)      :      1.94884

Rotational constants in cm-1:     0.367851     0.295709     0.169239
Rotational constants in MHz : 11027.892768  8865.123922  5073.656136

                             ****ORCA TERMINATED NORMALLY****
TOTAL RUN TIME: 0 days 0 hours 0 minutes 4 seconds 868 msec
