                         Program Version 5.0.0 -  RELEASE  -
|  1> !PBE D3BJ RIJCOSX def2-SVPD def2/J TightSCF xyzfile
|  2>
|  3> *xyzfile 0 1 D2.xyz
|  4>
|  5> %MaxCore 64000
|  6>
|  7> %pal nprocs 4
|  8> end
|  9>
| 10> %scf
| 11>   MaxIter 150
| 12> end
| 13>
| 14>
| 15>                          ****END OF INPUT****

CARTESIAN COORDINATES (ANGSTROEM)
---------------------------------
  C      4.366454   -0.133215   -1.416062
  C      4.508292   -0.931872   -2.724249
  H      4.753716   -1.972051   -2.488408
  C      3.294164   -0.918214   -3.656570
  H      5.385637   -0.536236   -3.242640
  H      2.483463   -1.477378   -3.185764
  H      3.553092   -1.478495   -4.560331
  C      2.772335    0.460100   -4.051448
  H      2.608762    1.065107   -3.155194
  C      1.465354    0.410537   -4.853644
  H      3.532940    0.988848   -4.635671
  C      0.326171   -0.375613   -4.192580
  H      1.666704   -0.022269   -5.839323
  H      1.138198    1.439246   -5.035449
  C     -0.017405    0.080588   -2.778406
  H      0.585573   -1.439385   -4.168057
  H     -0.560005   -0.311425   -4.831461
  H      0.902090    0.201296   -2.206729
  C     -0.903495   -0.873945   -1.987388
  H     -0.479549    1.074657   -2.811915
  H     -0.502554   -1.892096   -2.081204
  H     -1.917039   -0.895427   -2.406277
  C     -0.960148   -0.522365   -0.489867
  H     -1.690392   -1.208130   -0.021677
  H     -1.414490    0.486329   -0.406677
  F      0.261703   -0.580307    0.138611
  C      3.056503   -0.320797   -0.707384
  N      2.389825    0.711285   -0.243909
  C      2.515999   -1.507721   -0.550229
  H      2.967683   -2.322915   -0.956305
  H      1.549872   -1.490634   -0.249876
  H      2.743071    1.649471   -0.412802
  H      1.440364    0.502778    0.037031
  H      4.487835    0.932997   -1.611569
  H      5.169672   -0.414432   -0.729817

 Total Charge           Charge          ....    0
 Multiplicity           Mult            ....    1
 Number of Electrons    NEL             ....  104
 Basis Dimension        Dim             ....  439

ORBITAL ENERGIES
----------------

  NO   OCC          E(Eh)            E(eV)
   0   2.0000     -24.296459      -661.1403
   1   2.0000     -13.978713      -380.3801
   2   2.0000      -9.986107      -271.7358
   3   2.0000      -9.907587      -269.5991
   4   2.0000      -9.894080      -269.2316
   5   2.0000      -9.890360      -269.1304
   6   2.0000      -9.889618      -269.1102
   7   2.0000      -9.887844      -269.0619
   8   2.0000      -9.885971      -269.0109
   9   2.0000      -9.885308      -268.9929
  10   2.0000      -9.883000      -268.9301
  11   2.0000      -9.877147      -268.7708
  12   2.0000      -9.803310      -266.7616
  13   2.0000      -1.123628       -30.5755
  14   2.0000      -0.830387       -22.5960
  15   2.0000      -0.739210       -20.1149
  16   2.0000      -0.717917       -19.5355
  17   2.0000      -0.694759       -18.9054
  18   2.0000      -0.655303       -17.8317
  19   2.0000      -0.626320       -17.0430
  20   2.0000      -0.616282       -16.7699
  21   2.0000      -0.574080       -15.6215
  22   2.0000      -0.554008       -15.0753
  23   2.0000      -0.525140       -14.2898
  24   2.0000      -0.498152       -13.5554
  25   2.0000      -0.486416       -13.2360
  26   2.0000      -0.477376       -12.9901
  27   2.0000      -0.468288       -12.7428
  28   2.0000      -0.454351       -12.3635
  29   2.0000      -0.433200       -11.7880
  30   2.0000      -0.425507       -11.5786
  31   2.0000      -0.413651       -11.2560
  32   2.0000      -0.399916       -10.8823
  33   2.0000      -0.389680       -10.6037
  34   2.0000      -0.381926       -10.3927
  35   2.0000      -0.368967       -10.0401
  36   2.0000      -0.351704        -9.5703
  37   2.0000      -0.342879        -9.3302
  38   2.0000      -0.337044        -9.1714
  39   2.0000      -0.324133        -8.8201
  40   2.0000      -0.321564        -8.7502
  41   2.0000      -0.314645        -8.5619
  42   2.0000      -0.309689        -8.4271
  43   2.0000      -0.305123        -8.3028
  44   2.0000      -0.290905        -7.9159
  45   2.0000      -0.286323        -7.7912
  46   2.0000      -0.276399        -7.5212
  47   2.0000      -0.268794        -7.3143
  48   2.0000      -0.268217        -7.2985
  49   2.0000      -0.262363        -7.1393
  50   2.0000      -0.259532        -7.0622
  51   2.0000      -0.142240        -3.8705
  52   0.0000      -0.002097        -0.0571
  53   0.0000       0.006172         0.1680
  54   0.0000       0.012389         0.3371
  55   0.0000       0.014125         0.3844
  56   0.0000       0.022105         0.6015

MULLIKEN ATOMIC CHARGES
-----------------------
   0 C :    0.586965
   1 C :    0.415767
   2 H :    0.106245
   3 C :   -0.093144
   4 H :   -0.207392
   5 H :   -0.004946
   6 H :   -0.204999
   7 C :   -0.067207
   8 H :    0.110894
   9 C :    0.748034
  10 H :   -0.395919
  11 C :    0.029914
  12 H :   -0.028630
  13 H :    0.002285
  14 C :    0.554767
  15 H :    0.176503
  16 H :   -0.441077
  17 H :   -0.788563
  18 C :   -0.005964
  19 H :    0.011205
  20 H :    0.037713
  21 H :   -0.180565
  22 C :    1.107225
  23 H :   -0.124197
  24 H :   -0.044245
  25 F :   -0.780431
  26 C :   -0.589132
  27 N :    0.482260
  28 C :    0.723924
  29 H :   -0.173585
  30 H :   -0.552012
  31 H :   -0.128046
  32 H :   -0.175934
  33 H :    0.210055
  34 H :   -0.317768
Sum of atomic charges:   -0.0000000

LOEWDIN ATOMIC CHARGES
----------------------
   0 C :    0.016901
   1 C :   -0.020254
   2 H :    0.019808
   3 C :   -0.031150
   4 H :    0.018113
   5 H :   -0.009091
   6 H :    0.026999
   7 C :   -0.032153
   8 H :    0.001024
   9 C :   -0.027822
  10 H :    0.024240
  11 C :   -0.034820
  12 H :    0.022097
  13 H :    0.020979
  14 C :   -0.032940
  15 H :    0.014666
  16 H :    0.021463
  17 H :   -0.023559
  18 C :   -0.014397
  19 H :    0.035602
  20 H :    0.032390
  21 H :    0.034413
  22 C :    0.152931
  23 H :    0.035521
  24 H :    0.039602
  25 F :   -0.200135
  26 C :   -0.246715
  27 N :    0.202622
  28 C :    0.193030
  29 H :   -0.072134
  30 H :   -0.133893
  31 H :    0.001939
  32 H :   -0.070119
  33 H :    0.008362
  34 H :    0.026479

  Mayer bond orders larger than 0.100000
B(  0-C ,  1-C ) :   1.1778 B(  0-C ,  3-C ) :   0.1351 B(  0-C ,  4-H ) :   0.1920
B(  0-C , 26-C ) :   1.1920 B(  0-C , 27-N ) :   0.1309 B(  0-C , 29-H ) :  -0.1150
B(  0-C , 33-H ) :   0.5349 B(  0-C , 34-H ) :   0.7277 B(  1-C ,  2-H ) :   0.6058
B(  1-C ,  3-C ) :   1.3068 B(  1-C ,  4-H ) :   0.7770 B(  1-C ,  5-H ) :   0.1688
B(  1-C ,  6-H ) :   0.1083 B(  1-C , 26-C ) :   0.1487 B(  1-C , 28-C ) :   0.1057
B(  1-C , 30-H ) :  -0.1040 B(  1-C , 33-H ) :   0.1309 B(  1-C , 34-H ) :   0.1328
B(  2-H ,  3-C ) :   0.2660 B(  2-H ,  4-H ) :  -0.1878 B(  3-C ,  4-H ) :   0.2430
B(  3-C ,  5-H ) :   0.7947 B(  3-C ,  6-H ) :   0.8231 B(  3-C ,  7-C ) :   1.2885
B(  3-C ,  8-H ) :   0.1174 B(  3-C , 10-H ) :   0.1869 B(  4-H , 29-H ) :  -0.1453
B(  5-H ,  7-C ) :   0.1266 B(  5-H , 15-H ) :   0.1653 B(  5-H , 29-H ) :   0.1416
B(  5-H , 30-H ) :  -0.1178 B(  6-H ,  7-C ) :   0.1789 B(  7-C ,  8-H ) :   0.8164
B(  7-C ,  9-C ) :   1.1355 B(  7-C , 10-H ) :   0.9603 B(  7-C , 11-C ) :   0.1922
B(  7-C , 12-H ) :   0.1318 B(  7-C , 13-H ) :   0.2723 B(  8-H , 17-H ) :   0.2207
B(  9-C , 11-C ) :   1.1469 B(  9-C , 12-H ) :   0.6765 B(  9-C , 13-H ) :   0.6337
B( 11-C , 12-H ) :   0.1974 B( 11-C , 13-H ) :   0.1487 B( 11-C , 14-C ) :   1.1707
B( 11-C , 15-H ) :   0.7863 B( 11-C , 16-H ) :   0.9793 B( 11-C , 17-H ) :   0.2220
B( 11-C , 19-H ) :   0.1200 B( 12-H , 13-H ) :  -0.1246 B( 14-C , 15-H ) :   0.1611
B( 14-C , 16-H ) :   0.2422 B( 14-C , 17-H ) :   0.2713 B( 14-C , 18-C ) :   1.1647
B( 14-C , 19-H ) :   0.6013 B( 14-C , 20-H ) :   0.1434 B( 14-C , 21-H ) :   0.2353
B( 14-C , 22-C ) :   0.1248 B( 14-C , 29-H ) :  -0.1082 B( 17-H , 18-C ) :   0.1822
B( 17-H , 19-H ) :   0.2900 B( 17-H , 29-H ) :   0.1173 B( 18-C , 19-H ) :   0.1154
B( 18-C , 20-H ) :   0.8830 B( 18-C , 21-H ) :   0.8402 B( 18-C , 22-C ) :   1.1493
B( 18-C , 23-H ) :   0.2212 B( 18-C , 24-H ) :   0.1305 B( 18-C , 25-F ) :   0.1340
B( 20-H , 22-C ) :   0.1020 B( 22-C , 23-H ) :   0.6893 B( 22-C , 24-H ) :   0.7684
B( 22-C , 25-F ) :   0.6969 B( 23-H , 25-F ) :   0.1097 B( 24-H , 25-F ) :   0.1683
B( 25-F , 26-C ) :   0.1263 B( 25-F , 30-H ) :   0.2013 B( 26-C , 27-N ) :   1.0247
B( 26-C , 28-C ) :   1.9616 B( 26-C , 29-H ) :   0.1403 B( 26-C , 30-H ) :   0.5439
B( 26-C , 33-H ) :   0.2567 B( 26-C , 34-H ) :   0.3070 B( 27-N , 28-C ) :   0.4133
B( 27-N , 29-H ) :   0.1579 B( 27-N , 31-H ) :   1.0979 B( 27-N , 32-H ) :   1.0221
B( 28-C , 29-H ) :   0.7403 B( 28-C , 30-H ) :   0.1562 B( 29-H , 30-H ) :  -0.2797
B( 31-H , 32-H ) :  -0.1727 B( 33-H , 34-H ) :  -0.1216

Dispersion correction           -0.039694437
FINAL SINGLE POINT ENERGY      -585.828278350003

DIPOLE MOMENT
-------------
                                X             Y             Z
Electronic contribution:     -2.77661       0.00924      10.72223
Nuclear contribution   :      1.85154       0.58682     -11.15333
                        -----------------------------------------
Total Dipole Moment    :     -0.92507       0.59606      -0.43109
                        -----------------------------------------
Magnitude (a.u.)       :      1.18190
Magnitude (Debye)      :      3.00416

Rotational constants in cm-1:     0.028379     0.022321     0.014415
Rotational constants in MHz :   850.785777   669.176075   432.155504

                             ****ORCA TERMINATED NORMALLY****
TOTAL RUN TIME: 0 days 0 hours 0 minutes 46 seconds 480 msec
