                         Program Version 5.0.0 -  RELEASE  -
|  1> !wB97X-D3 RIJCOSX def2-TZVPD def2/J TightSCF
|  2> *xyz -1 1
|  3> C         -0.81136       -2.90878       -4.60763
|  4> C         -1.91658       -2.48508       -3.64367
|  5> H         -2.55452       -1.71243       -4.09199
|  6> C         -1.36353       -1.98134       -2.29361
|  7> H         -2.55345       -3.35567       -3.45881
|  8> O         -0.35039       -2.74969       -1.79601
|  9> H         -2.22622       -1.90839       -1.60204
| 10> H         -1.05135       -0.91567       -2.44333
| 11> H         -1.24783       -3.24801       -5.52377
| 12> H         -0.24047       -3.70079       -4.16978
| 13> H         -0.17107       -2.07453       -4.80501
| 14> *
| 15>
| 16> %MaxCore 64000
| 17> %pal nprocs 18
| 18> end
| 19>
| 20> %scf
| 21>   MaxIter 150
| 22> end
| 23>
| 24>
| 25>                          ****END OF INPUT****

CARTESIAN COORDINATES (ANGSTROEM)
---------------------------------
  C     -0.811360   -2.908780   -4.607630
  C     -1.916580   -2.485080   -3.643670
  H     -2.554520   -1.712430   -4.091990
  C     -1.363530   -1.981340   -2.293610
  H     -2.553450   -3.355670   -3.458810
  O     -0.350390   -2.749690   -1.796010
  H     -2.226220   -1.908390   -1.602040
  H     -1.051350   -0.915670   -2.443330
  H     -1.247830   -3.248010   -5.523770
  H     -0.240470   -3.700790   -4.169780
  H     -0.171070   -2.074530   -4.805010

 Total Charge           Charge          ....   -1
 Multiplicity           Mult            ....    1
 Number of Electrons    NEL             ....   34
 Basis Dimension        Dim             ....  214

ORBITAL ENERGIES
----------------

  NO   OCC          E(Eh)            E(eV)
   0   2.0000     -18.897621      -514.2304
   1   2.0000     -10.090046      -274.5641
   2   2.0000     -10.085298      -274.4349
   3   2.0000     -10.082472      -274.3580
   4   2.0000      -0.800628       -21.7862
   5   2.0000      -0.696635       -18.9564
   6   2.0000      -0.579546       -15.7702
   7   2.0000      -0.470190       -12.7945
   8   2.0000      -0.376516       -10.2455
   9   2.0000      -0.364063        -9.9067
  10   2.0000      -0.309948        -8.4341
  11   2.0000      -0.284804        -7.7499
  12   2.0000      -0.253806        -6.9064
  13   2.0000      -0.242252        -6.5920
  14   2.0000      -0.207885        -5.6568
  15   2.0000      -0.065559        -1.7840
  16   2.0000      -0.061778        -1.6811
  17   0.0000       0.202052         5.4981
  18   0.0000       0.219040         5.9604
  19   0.0000       0.230734         6.2786
  20   0.0000       0.252235         6.8637
  21   0.0000       0.273274         7.4362

MULLIKEN ATOMIC CHARGES
-----------------------
   0 C :   -1.109998
   1 C :   -0.122576
   2 H :    0.233072
   3 C :   -0.481720
   4 H :    0.251096
   5 O :   -0.919695
   6 H :    0.158041
   7 H :    0.156822
   8 H :    0.313258
   9 H :    0.247557
  10 H :    0.274142
Sum of atomic charges:   -1.0000000

LOEWDIN ATOMIC CHARGES
----------------------
   0 C :   -0.156971
   1 C :   -0.298336
   2 H :    0.077932
   3 C :   -0.571758
   4 H :    0.082432
   5 O :   -0.399467
   6 H :    0.059391
   7 H :    0.065678
   8 H :    0.037760
   9 H :    0.049002
  10 H :    0.054338

  Mayer bond orders larger than 0.100000
B(  0-C ,  1-C ) :   0.6483 B(  0-C ,  3-C ) :   0.1945 B(  0-C ,  8-H ) :   0.9154
B(  0-C ,  9-H ) :   1.0534 B(  0-C , 10-H ) :   0.9649 B(  1-C ,  2-H ) :   1.0075
B(  1-C ,  3-C ) :   0.8083 B(  1-C ,  4-H ) :   0.9709 B(  3-C ,  5-O ) :   1.1228
B(  3-C ,  6-H ) :   1.0781 B(  3-C ,  7-H ) :   1.0514

Dispersion correction           -0.001934106
FINAL SINGLE POINT ENERGY      -193.759257063790

DIPOLE MOMENT
-------------
                                X             Y             Z
Electronic contribution:      1.25536      -0.54497       2.51043
Nuclear contribution   :     -2.20255       0.75707      -4.26861
                        -----------------------------------------
Total Dipole Moment    :     -0.94719       0.21210      -1.75818
                        -----------------------------------------
Magnitude (a.u.)       :      2.00832
Magnitude (Debye)      :      5.10476

Rotational constants in cm-1:     0.480704     0.187939     0.150770
Rotational constants in MHz : 14411.155440  5634.276828  4519.982802

                             ****ORCA TERMINATED NORMALLY****
TOTAL RUN TIME: 0 days 0 hours 0 minutes 16 seconds 841 msec
