                         Program Version 5.0.0 -  RELEASE  -
|  1> !wB97X-D3 RIJCOSX def2-TZVPD def2/J TightSCF
|  2> *xyz 1 1
|  3> C          1.64703       -2.34528       -5.02041
|  4> C          0.21763       -1.81402       -4.92439
|  5> C          2.20996       -2.81239       -3.66571
|  6> H          2.30838       -1.58870       -5.45713
|  7> H          1.67429       -3.20348       -5.69739
|  8> C          2.48901       -1.66851       -2.73754
|  9> N          3.59631       -0.94761       -2.95225
| 10> N          1.66394       -1.41369       -1.77781
| 11> H          0.81164       -1.96318       -1.70275
| 12> H          1.84550       -0.63508       -1.15875
| 13> H          4.20535       -1.17600       -3.73383
| 14> H          3.81723       -0.12585       -2.40604
| 15> H          3.14311       -3.36280       -3.81152
| 16> H          1.48768       -3.45893       -3.16521
| 17> H         -0.11459       -1.50684       -5.89401
| 18> H          0.19193       -0.97796       -4.25713
| 19> H         -0.42543       -2.58523       -4.55479
| 20> *
| 21>
| 22> %MaxCore 64000
| 23> %pal nprocs 18
| 24> end
| 25>
| 26> %scf
| 27>   MaxIter 150
| 28> end
| 29>
| 30>
| 31>                          ****END OF INPUT****

CARTESIAN COORDINATES (ANGSTROEM)
---------------------------------
  C      1.647030   -2.345280   -5.020410
  C      0.217630   -1.814020   -4.924390
  C      2.209960   -2.812390   -3.665710
  H      2.308380   -1.588700   -5.457130
  H      1.674290   -3.203480   -5.697390
  C      2.489010   -1.668510   -2.737540
  N      3.596310   -0.947610   -2.952250
  N      1.663940   -1.413690   -1.777810
  H      0.811640   -1.963180   -1.702750
  H      1.845500   -0.635080   -1.158750
  H      4.205350   -1.176000   -3.733830
  H      3.817230   -0.125850   -2.406040
  H      3.143110   -3.362800   -3.811520
  H      1.487680   -3.458930   -3.165210
  H     -0.114590   -1.506840   -5.894010
  H      0.191930   -0.977960   -4.257130
  H     -0.425430   -2.585230   -4.554790

 Total Charge           Charge          ....    1
 Multiplicity           Mult            ....    1
 Number of Electrons    NEL             ....   48
 Basis Dimension        Dim             ....  321

ORBITAL ENERGIES
----------------

  NO   OCC          E(Eh)            E(eV)
   0   2.0000     -14.669106      -399.1667
   1   2.0000     -14.659607      -398.9082
   2   2.0000     -10.596553      -288.3469
   3   2.0000     -10.468309      -284.8572
   4   2.0000     -10.435826      -283.9733
   5   2.0000     -10.398756      -282.9645
   6   2.0000      -1.320317       -35.9277
   7   2.0000      -1.221860       -33.2485
   8   2.0000      -1.089299       -29.6413
   9   2.0000      -1.000708       -27.2307
  10   2.0000      -0.939774       -25.5725
  11   2.0000      -0.891903       -24.2699
  12   2.0000      -0.869702       -23.6658
  13   2.0000      -0.840740       -22.8777
  14   2.0000      -0.799287       -21.7497
  15   2.0000      -0.753691       -20.5090
  16   2.0000      -0.723881       -19.6978
  17   2.0000      -0.696960       -18.9652
  18   2.0000      -0.668362       -18.1871
  19   2.0000      -0.657358       -17.8876
  20   2.0000      -0.598517       -16.2865
  21   2.0000      -0.594404       -16.1746
  22   2.0000      -0.589277       -16.0350
  23   2.0000      -0.577530       -15.7154
  24   0.0000      -0.123951        -3.3729
  25   0.0000      -0.090736        -2.4691
  26   0.0000      -0.054928        -1.4947
  27   0.0000      -0.046847        -1.2748
  28   0.0000      -0.028908        -0.7866

MULLIKEN ATOMIC CHARGES
-----------------------
   0 C :   -0.138428
   1 C :   -1.328726
   2 C :   -0.585028
   3 H :    0.327065
   4 H :    0.299257
   5 C :    0.630901
   6 N :   -0.426976
   7 N :   -0.371682
   8 H :    0.270306
   9 H :    0.211894
  10 H :    0.265544
  11 H :    0.203838
  12 H :    0.287221
  13 H :    0.322834
  14 H :    0.335183
  15 H :    0.343271
  16 H :    0.353526
Sum of atomic charges:    1.0000000

LOEWDIN ATOMIC CHARGES
----------------------
   0 C :   -0.226583
   1 C :   -0.088110
   2 C :   -0.114679
   3 H :    0.113407
   4 H :    0.122002
   5 C :   -0.355626
   6 N :    0.217475
   7 N :    0.236401
   8 H :    0.158523
   9 H :    0.154521
  10 H :    0.149290
  11 H :    0.142926
  12 H :    0.136874
  13 H :    0.129161
  14 H :    0.080909
  15 H :    0.065150
  16 H :    0.078359

  Mayer bond orders larger than 0.100000
B(  0-C ,  1-C ) :   0.6547 B(  0-C ,  2-C ) :   0.7895 B(  0-C ,  3-H ) :   0.8704
B(  0-C ,  4-H ) :   0.9480 B(  0-C ,  5-C ) :   0.1853 B(  1-C ,  2-C ) :   0.1111
B(  1-C ,  5-C ) :   0.1738 B(  1-C , 14-H ) :   0.9472 B(  1-C , 15-H ) :   0.9171
B(  1-C , 16-H ) :   0.9518 B(  2-C ,  5-C ) :   0.7513 B(  2-C , 12-H ) :   1.0049
B(  2-C , 13-H ) :   0.9455 B(  5-C ,  6-N ) :   1.1106 B(  5-C ,  7-N ) :   1.2166
B(  6-N ,  7-N ) :   0.1071 B(  6-N , 10-H ) :   0.9363 B(  6-N , 11-H ) :   1.0404
B(  7-N ,  8-H ) :   0.9283 B(  7-N ,  9-H ) :   1.0343

Dispersion correction           -0.004634589
FINAL SINGLE POINT ENERGY      -268.377514964775

DIPOLE MOMENT
-------------
                                X             Y             Z
Electronic contribution:      3.26401       1.27350       4.37060
Nuclear contribution   :     -2.54148      -0.64126      -3.14660
                        -----------------------------------------
Total Dipole Moment    :      0.72252       0.63224       1.22400
                        -----------------------------------------
Magnitude (a.u.)       :      1.55561
Magnitude (Debye)      :      3.95406

Rotational constants in cm-1:     0.179759     0.078784     0.067518
Rotational constants in MHz :  5389.046501  2361.884510  2024.132984

                             ****ORCA TERMINATED NORMALLY****
TOTAL RUN TIME: 0 days 0 hours 0 minutes 36 seconds 498 msec
