                         Program Version 5.0.0 -  RELEASE  -
|  1> !wB97X-D3 RIJCOSX def2-TZVPD def2/J TightSCF
|  2> *xyz 0 1
|  3> C         -0.81136       -2.90878       -4.60763
|  4> C         -1.91658       -2.48508       -3.64367
|  5> H         -2.55452       -1.71243       -4.09199
|  6> C         -1.36353       -1.98134       -2.29361
|  7> H         -2.55345       -3.35567       -3.45881
|  8> F         -0.35039       -2.74969       -1.79601
|  9> H         -2.22622       -1.90839       -1.60204
| 10> H         -1.05135       -0.91567       -2.44333
| 11> H         -1.24783       -3.24801       -5.52377
| 12> H         -0.24047       -3.70079       -4.16978
| 13> H         -0.17107       -2.07453       -4.80501
| 14> *
| 15>
| 16> %MaxCore 64000
| 17> %pal nprocs 18
| 18> end
| 19>
| 20> %scf
| 21>   MaxIter 150
| 22> end
| 23>
| 24>
| 25>                          ****END OF INPUT****

CARTESIAN COORDINATES (ANGSTROEM)
---------------------------------
  C     -0.811360   -2.908780   -4.607630
  C     -1.916580   -2.485080   -3.643670
  H     -2.554520   -1.712430   -4.091990
  C     -1.363530   -1.981340   -2.293610
  H     -2.553450   -3.355670   -3.458810
  F     -0.350390   -2.749690   -1.796010
  H     -2.226220   -1.908390   -1.602040
  H     -1.051350   -0.915670   -2.443330
  H     -1.247830   -3.248010   -5.523770
  H     -0.240470   -3.700790   -4.169780
  H     -0.171070   -2.074530   -4.805010

 Total Charge           Charge          ....    0
 Multiplicity           Mult            ....    1
 Number of Electrons    NEL             ....   34
 Basis Dimension        Dim             ....  214

ORBITAL ENERGIES
----------------

  NO   OCC          E(Eh)            E(eV)
   0   2.0000     -24.773733      -674.1275
   1   2.0000     -10.352115      -281.6954
   2   2.0000     -10.279935      -279.7312
   3   2.0000     -10.257337      -279.1163
   4   2.0000      -1.317241       -35.8440
   5   2.0000      -0.904721       -24.6187
   6   2.0000      -0.803783       -21.8720
   7   2.0000      -0.704949       -19.1826
   8   2.0000      -0.610870       -16.6226
   9   2.0000      -0.597231       -16.2515
  10   2.0000      -0.574828       -15.6419
  11   2.0000      -0.536035       -14.5862
  12   2.0000      -0.496169       -13.5014
  13   2.0000      -0.469334       -12.7712
  14   2.0000      -0.451525       -12.2866
  15   2.0000      -0.419580       -11.4174
  16   2.0000      -0.414955       -11.2915
  17   0.0000       0.072066         1.9610
  18   0.0000       0.091216         2.4821
  19   0.0000       0.096870         2.6360
  20   0.0000       0.112679         3.0662
  21   0.0000       0.136238         3.7072

MULLIKEN ATOMIC CHARGES
-----------------------
   0 C :   -1.186500
   1 C :   -0.214080
   2 H :    0.275699
   3 C :   -0.271717
   4 H :    0.280286
   5 F :   -0.322033
   6 H :    0.236201
   7 H :    0.254091
   8 H :    0.318635
   9 H :    0.300982
  10 H :    0.328436
Sum of atomic charges:   -0.0000000

LOEWDIN ATOMIC CHARGES
----------------------
   0 C :   -0.115365
   1 C :   -0.241870
   2 H :    0.109421
   3 C :   -0.251246
   4 H :    0.102450
   5 F :   -0.036977
   6 H :    0.113434
   7 H :    0.121275
   8 H :    0.064324
   9 H :    0.065737
  10 H :    0.068817

  Mayer bond orders larger than 0.100000
B(  0-C ,  1-C ) :   0.6728 B(  0-C ,  3-C ) :   0.1527 B(  0-C ,  8-H ) :   0.9581
B(  0-C ,  9-H ) :   0.9860 B(  0-C , 10-H ) :   0.9399 B(  1-C ,  2-H ) :   0.9535
B(  1-C ,  3-C ) :   0.8730 B(  1-C ,  4-H ) :   0.9462 B(  3-C ,  5-F ) :   0.7866
B(  3-C ,  6-H ) :   0.9830 B(  3-C ,  7-H ) :   0.9587

Dispersion correction           -0.001926563
FINAL SINGLE POINT ENERGY      -218.402483936920

DIPOLE MOMENT
-------------
                                X             Y             Z
Electronic contribution:      2.60222      -0.70644       5.49126
Nuclear contribution   :     -3.10989       1.02097      -5.82098
                        -----------------------------------------
Total Dipole Moment    :     -0.50767       0.31453      -0.32971
                        -----------------------------------------
Magnitude (a.u.)       :      0.68218
Magnitude (Debye)      :      1.73396

Rotational constants in cm-1:     0.466172     0.177379     0.142652
Rotational constants in MHz : 13975.492374  5317.681709  4276.599690

                             ****ORCA TERMINATED NORMALLY****
TOTAL RUN TIME: 0 days 0 hours 0 minutes 15 seconds 588 msec
