                         Program Version 5.0.0 -  RELEASE  -
|  1> !wB97X-D3 RIJCOSX def2-TZVPD def2/J TightSCF
|  2> *xyz 0 1
|  3> C          1.64703       -2.34528       -5.02041
|  4> C          0.21763       -1.81402       -4.92439
|  5> C          2.20996       -2.81239       -3.66571
|  6> H          2.30838       -1.58870       -5.45713
|  7> H          1.67429       -3.20348       -5.69739
|  8> C          2.48901       -1.66851       -2.73754
|  9> C          3.59631       -0.94761       -2.95225
| 10> N          1.66394       -1.41369       -1.77781
| 11> H          0.81164       -1.96318       -1.70275
| 12> H          1.84550       -0.63508       -1.15875
| 13> H          4.20535       -1.17600       -3.73383
| 14> H          3.81723       -0.12585       -2.40604
| 15> H          3.14311       -3.36280       -3.81152
| 16> H          1.48768       -3.45893       -3.16521
| 17> H         -0.11459       -1.50684       -5.89401
| 18> H          0.19193       -0.97796       -4.25713
| 19> H         -0.42543       -2.58523       -4.55479
| 20> *
| 21>
| 22> %MaxCore 64000
| 23> %pal nprocs 18
| 24> end
| 25>
| 26> %scf
| 27>   MaxIter 150
| 28> end
| 29>
| 30>
| 31>                          ****END OF INPUT****

CARTESIAN COORDINATES (ANGSTROEM)
---------------------------------
  C      1.647030   -2.345280   -5.020410
  C      0.217630   -1.814020   -4.924390
  C      2.209960   -2.812390   -3.665710
  H      2.308380   -1.588700   -5.457130
  H      1.674290   -3.203480   -5.697390
  C      2.489010   -1.668510   -2.737540
  C      3.596310   -0.947610   -2.952250
  N      1.663940   -1.413690   -1.777810
  H      0.811640   -1.963180   -1.702750
  H      1.845500   -0.635080   -1.158750
  H      4.205350   -1.176000   -3.733830
  H      3.817230   -0.125850   -2.406040
  H      3.143110   -3.362800   -3.811520
  H      1.487680   -3.458930   -3.165210
  H     -0.114590   -1.506840   -5.894010
  H      0.191930   -0.977960   -4.257130
  H     -0.425430   -2.585230   -4.554790

 Total Charge           Charge          ....    0
 Multiplicity           Mult            ....    1
 Number of Electrons    NEL             ....   48
 Basis Dimension        Dim             ....  321

ORBITAL ENERGIES
----------------

  NO   OCC          E(Eh)            E(eV)
   0   2.0000     -14.426238      -392.5579
   1   2.0000     -10.295955      -280.1672
   2   2.0000     -10.272900      -279.5398
   3   2.0000     -10.269705      -279.4529
   4   2.0000     -10.254528      -279.0399
   5   2.0000     -10.200699      -277.5751
   6   2.0000      -1.057281       -28.7701
   7   2.0000      -0.910614       -24.7791
   8   2.0000      -0.845240       -23.0001
   9   2.0000      -0.792121       -21.5547
  10   2.0000      -0.717609       -19.5271
  11   2.0000      -0.668423       -18.1887
  12   2.0000      -0.632425       -17.2092
  13   2.0000      -0.587199       -15.9785
  14   2.0000      -0.554220       -15.0811
  15   2.0000      -0.530266       -14.4293
  16   2.0000      -0.501593       -13.6490
  17   2.0000      -0.487312       -13.2604
  18   2.0000      -0.469610       -12.7787
  19   2.0000      -0.453892       -12.3510
  20   2.0000      -0.432130       -11.7589
  21   2.0000      -0.420781       -11.4500
  22   2.0000      -0.417022       -11.3477
  23   2.0000      -0.270948        -7.3729
  24   0.0000       0.067061         1.8248
  25   0.0000       0.088879         2.4185
  26   0.0000       0.090978         2.4756
  27   0.0000       0.092241         2.5100
  28   0.0000       0.115441         3.1413

MULLIKEN ATOMIC CHARGES
-----------------------
   0 C :   -0.159304
   1 C :   -1.330619
   2 C :   -0.589026
   3 H :    0.321911
   4 H :    0.263983
   5 C :    0.942495
   6 C :   -1.657285
   7 N :   -0.437474
   8 H :    0.224268
   9 H :    0.172257
  10 H :    0.352291
  11 H :    0.334828
  12 H :    0.278442
  13 H :    0.294601
  14 H :    0.328452
  15 H :    0.341369
  16 H :    0.318811
Sum of atomic charges:    0.0000000

LOEWDIN ATOMIC CHARGES
----------------------
   0 C :   -0.248263
   1 C :   -0.108974
   2 C :   -0.162750
   3 H :    0.107714
   4 H :    0.102279
   5 C :   -0.505084
   6 C :    0.013190
   7 N :    0.106588
   8 H :    0.116751
   9 H :    0.121508
  10 H :    0.023305
  11 H :    0.014652
  12 H :    0.117815
  13 H :    0.108666
  14 H :    0.063608
  15 H :    0.063283
  16 H :    0.065711

  Mayer bond orders larger than 0.100000
B(  0-C ,  1-C ) :   0.5995 B(  0-C ,  2-C ) :   0.7413 B(  0-C ,  3-H ) :   0.9164
B(  0-C ,  4-H ) :   0.9467 B(  0-C ,  5-C ) :   0.2390 B(  1-C ,  2-C ) :   0.1793
B(  1-C ,  5-C ) :   0.1298 B(  1-C , 14-H ) :   0.9285 B(  1-C , 15-H ) :   0.9410
B(  1-C , 16-H ) :   0.9715 B(  2-C ,  5-C ) :   0.5657 B(  2-C , 12-H ) :   0.9928
B(  2-C , 13-H ) :   1.0044 B(  5-C ,  6-C ) :   0.8711 B(  5-C ,  7-N ) :   1.0219
B(  5-C , 11-H ) :  -0.1251 B(  6-C ,  7-N ) :   0.1531 B(  6-C , 10-H ) :   0.9214
B(  6-C , 11-H ) :   1.0155 B(  7-N ,  8-H ) :   0.9719 B(  7-N ,  9-H ) :   1.0292

Dispersion correction           -0.004626231
FINAL SINGLE POINT ENERGY      -251.901173078738

DIPOLE MOMENT
-------------
                                X             Y             Z
Electronic contribution:      1.42932       0.27322       3.28683
Nuclear contribution   :     -2.15663      -0.43764      -3.01766
                        -----------------------------------------
Total Dipole Moment    :     -0.72731      -0.16442       0.26917
                        -----------------------------------------
Magnitude (a.u.)       :      0.79276
Magnitude (Debye)      :      2.01504

Rotational constants in cm-1:     0.184410     0.080989     0.069427
Rotational constants in MHz :  5528.462717  2427.993314  2081.376031

                             ****ORCA TERMINATED NORMALLY****
TOTAL RUN TIME: 0 days 0 hours 0 minutes 39 seconds 24 msec
