                         Program Version 5.0.0 -  RELEASE  -
|  1> !wB97X-D3 RIJCOSX def2-TZVPD def2/J TightSCF
|  2> *xyz 0 1
|  3> C          1.64703       -2.34528       -5.02041
|  4> C          0.21763       -1.81402       -4.92439
|  5> C          2.20996       -2.81239       -3.66571
|  6> H          2.30838       -1.58870       -5.45713
|  7> H          1.67429       -3.20348       -5.69739
|  8> C          2.48901       -1.66851       -2.73754
|  9> N          3.59631       -0.94761       -2.95225
| 10> C          1.66394       -1.41369       -1.77781
| 11> H          0.81164       -1.96318       -1.70275
| 12> H          1.84550       -0.63508       -1.15875
| 13> H          4.20535       -1.17600       -3.73383
| 14> H          3.81723       -0.12585       -2.40604
| 15> H          3.14311       -3.36280       -3.81152
| 16> H          1.48768       -3.45893       -3.16521
| 17> H         -0.11459       -1.50684       -5.89401
| 18> H          0.19193       -0.97796       -4.25713
| 19> H         -0.42543       -2.58523       -4.55479
| 20> *
| 21>
| 22> %MaxCore 64000
| 23> %pal nprocs 18
| 24> end
| 25>
| 26> %scf
| 27>   MaxIter 150
| 28> end
| 29>
| 30>
| 31>                          ****END OF INPUT****

CARTESIAN COORDINATES (ANGSTROEM)
---------------------------------
  C      1.647030   -2.345280   -5.020410
  C      0.217630   -1.814020   -4.924390
  C      2.209960   -2.812390   -3.665710
  H      2.308380   -1.588700   -5.457130
  H      1.674290   -3.203480   -5.697390
  C      2.489010   -1.668510   -2.737540
  N      3.596310   -0.947610   -2.952250
  C      1.663940   -1.413690   -1.777810
  H      0.811640   -1.963180   -1.702750
  H      1.845500   -0.635080   -1.158750
  H      4.205350   -1.176000   -3.733830
  H      3.817230   -0.125850   -2.406040
  H      3.143110   -3.362800   -3.811520
  H      1.487680   -3.458930   -3.165210
  H     -0.114590   -1.506840   -5.894010
  H      0.191930   -0.977960   -4.257130
  H     -0.425430   -2.585230   -4.554790

 Total Charge           Charge          ....    0
 Multiplicity           Mult            ....    1
 Number of Electrons    NEL             ....   48
 Basis Dimension        Dim             ....  321

ORBITAL ENERGIES
----------------

  NO   OCC          E(Eh)            E(eV)
   0   2.0000     -14.419438      -392.3729
   1   2.0000     -10.292386      -280.0700
   2   2.0000     -10.271216      -279.4940
   3   2.0000     -10.270753      -279.4814
   4   2.0000     -10.249016      -278.8899
   5   2.0000     -10.203841      -277.6606
   6   2.0000      -1.038229       -28.2516
   7   2.0000      -0.909562       -24.7505
   8   2.0000      -0.852256       -23.1911
   9   2.0000      -0.797107       -21.6904
  10   2.0000      -0.706575       -19.2269
  11   2.0000      -0.669289       -18.2123
  12   2.0000      -0.622932       -16.9508
  13   2.0000      -0.578464       -15.7408
  14   2.0000      -0.548593       -14.9280
  15   2.0000      -0.542288       -14.7564
  16   2.0000      -0.495533       -13.4841
  17   2.0000      -0.487635       -13.2692
  18   2.0000      -0.468841       -12.7578
  19   2.0000      -0.458835       -12.4855
  20   2.0000      -0.430007       -11.7011
  21   2.0000      -0.414835       -11.2882
  22   2.0000      -0.411138       -11.1876
  23   2.0000      -0.283485        -7.7140
  24   0.0000       0.068365         1.8603
  25   0.0000       0.087953         2.3933
  26   0.0000       0.090551         2.4640
  27   0.0000       0.094374         2.5680
  28   0.0000       0.115146         3.1333

MULLIKEN ATOMIC CHARGES
-----------------------
   0 C :   -0.115526
   1 C :   -1.324762
   2 C :   -0.533699
   3 H :    0.305386
   4 H :    0.254297
   5 C :    0.777508
   6 N :   -0.477992
   7 C :   -1.502958
   8 H :    0.356024
   9 H :    0.335299
  10 H :    0.199291
  11 H :    0.163997
  12 H :    0.284054
  13 H :    0.263324
  14 H :    0.328306
  15 H :    0.365143
  16 H :    0.322308
Sum of atomic charges:   -0.0000000

LOEWDIN ATOMIC CHARGES
----------------------
   0 C :   -0.250880
   1 C :   -0.106547
   2 C :   -0.163805
   3 H :    0.102641
   4 H :    0.101638
   5 C :   -0.494962
   6 N :    0.096089
   7 C :    0.012442
   8 H :    0.035334
   9 H :    0.029940
  10 H :    0.106551
  11 H :    0.108544
  12 H :    0.113824
  13 H :    0.113768
  14 H :    0.062628
  15 H :    0.063646
  16 H :    0.069149

  Mayer bond orders larger than 0.100000
B(  0-C ,  1-C ) :   0.6726 B(  0-C ,  2-C ) :   0.7969 B(  0-C ,  3-H ) :   0.8907
B(  0-C ,  4-H ) :   0.9544 B(  0-C ,  5-C ) :   0.1636 B(  1-C ,  2-C ) :   0.1096
B(  1-C ,  5-C ) :   0.1320 B(  1-C , 14-H ) :   0.9234 B(  1-C , 15-H ) :   0.9506
B(  1-C , 16-H ) :   0.9652 B(  2-C ,  5-C ) :   0.7705 B(  2-C ,  6-N ) :   0.1389
B(  2-C , 12-H ) :   1.0141 B(  2-C , 13-H ) :   0.9526 B(  5-C ,  6-N ) :   0.9272
B(  5-C ,  7-C ) :   1.0601 B(  5-C ,  9-H ) :  -0.1091 B(  6-N ,  7-C ) :   0.1054
B(  6-N , 10-H ) :   1.0030 B(  6-N , 11-H ) :   1.0367 B(  7-C ,  8-H ) :   0.9233
B(  7-C ,  9-H ) :   1.0026

Dispersion correction           -0.004618596
FINAL SINGLE POINT ENERGY      -251.905664777745

DIPOLE MOMENT
-------------
                                X             Y             Z
Electronic contribution:      3.11128       0.69554       2.29602
Nuclear contribution   :     -2.61370      -0.54788      -2.73987
                        -----------------------------------------
Total Dipole Moment    :      0.49758       0.14766      -0.44384
                        -----------------------------------------
Magnitude (a.u.)       :      0.68292
Magnitude (Debye)      :      1.73585

Rotational constants in cm-1:     0.186678     0.079942     0.069329
Rotational constants in MHz :  5596.476267  2396.611465  2078.426257

                             ****ORCA TERMINATED NORMALLY****
TOTAL RUN TIME: 0 days 0 hours 0 minutes 25 seconds 907 msec
