                         Program Version 5.0.0 -  RELEASE  -
|  1> !wB97X-D3 RIJCOSX def2-TZVPD def2/J TightSCF xyzfile
|  2>
|  3> *xyzfile 0 1 D1.xyz
|  4>
|  5> %MaxCore 64000
|  6>
|  7> %pal nprocs 18
|  8> end
|  9>
| 10> %scf
| 11>   MaxIter 150
| 12> end
| 13>
| 14>
| 15>                          ****END OF INPUT****

CARTESIAN COORDINATES (ANGSTROEM)
---------------------------------
  C      1.647032   -2.345276   -5.020411
  C      0.217628   -1.814022   -4.924389
  C      2.209964   -2.812388   -3.665708
  C     -0.811356   -2.908780   -4.607625
  C     -1.916579   -2.485081   -3.643665
  H     -2.554525   -1.712428   -4.091993
  C     -1.363531   -1.981337   -2.293608
  H     -2.553448   -3.355667   -3.458815
  F     -0.350395   -2.749689   -1.796006
  H      2.308385   -1.588704   -5.457128
  H      1.674286   -3.203478   -5.697392
  C      2.489007   -1.668510   -2.737538
  C      3.596314   -0.947608   -2.952247
  N      1.663936   -1.413685   -1.777806
  H      0.811642   -1.963178   -1.702755
  H      1.845503   -0.635078   -1.158749
  H      4.205351   -1.176003   -3.733825
  H      3.817230   -0.125845   -2.406041
  H     -1.244829   -3.280884   -5.541040
  H     -0.306331   -3.757746   -4.142734
  H     -0.036244   -1.318555   -5.865303
  H      0.175004   -1.035382   -4.158095
  H      3.143106   -3.362803   -3.811524
  H      1.487683   -3.458935   -3.165211
  H     -2.226220   -1.908386   -1.602039
  H     -1.051353   -0.915671   -2.443331

 Total Charge           Charge          ....    0
 Multiplicity           Mult            ....    1
 Number of Electrons    NEL             ....   80
 Basis Dimension        Dim             ....  517

ORBITAL ENERGIES
----------------

  NO   OCC          E(Eh)            E(eV)
   0   2.0000     -24.820174      -675.3913
   1   2.0000     -14.390110      -391.5748
   2   2.0000     -10.374785      -282.3122
   3   2.0000     -10.293234      -280.0931
   4   2.0000     -10.280395      -279.7438
   5   2.0000     -10.277012      -279.6517
   6   2.0000     -10.268721      -279.4261
   7   2.0000     -10.265699      -279.3439
   8   2.0000     -10.261560      -279.2312
   9   2.0000     -10.185335      -277.1571
  10   2.0000      -1.373121       -37.3645
  11   2.0000      -1.034975       -28.1631
  12   2.0000      -0.939673       -25.5698
  13   2.0000      -0.897171       -24.4133
  14   2.0000      -0.851366       -23.1668
  15   2.0000      -0.806293       -21.9404
  16   2.0000      -0.779763       -21.2184
  17   2.0000      -0.723315       -19.6824
  18   2.0000      -0.697309       -18.9747
  19   2.0000      -0.683527       -18.5997
  20   2.0000      -0.639665       -17.4062
  21   2.0000      -0.636003       -17.3065
  22   2.0000      -0.614866       -16.7313
  23   2.0000      -0.588773       -16.0213
  24   2.0000      -0.568386       -15.4666
  25   2.0000      -0.560555       -15.2535
  26   2.0000      -0.539787       -14.6883
  27   2.0000      -0.518291       -14.1034
  28   2.0000      -0.517409       -14.0794
  29   2.0000      -0.485695       -13.2164
  30   2.0000      -0.466503       -12.6942
  31   2.0000      -0.459080       -12.4922
  32   2.0000      -0.455442       -12.3932
  33   2.0000      -0.450003       -12.2452
  34   2.0000      -0.434537       -11.8244
  35   2.0000      -0.424627       -11.5547
  36   2.0000      -0.412566       -11.2265
  37   2.0000      -0.403400       -10.9771
  38   2.0000      -0.399937       -10.8829
  39   2.0000      -0.253787        -6.9059
  40   0.0000       0.063735         1.7343
  41   0.0000       0.075079         2.0430
  42   0.0000       0.080989         2.2038
  43   0.0000       0.084175         2.2905
  44   0.0000       0.100893         2.7454

MULLIKEN ATOMIC CHARGES
-----------------------
   0 C :   -0.511186
   1 C :   -0.540667
   2 C :   -0.515209
   3 C :   -0.516097
   4 C :   -0.616475
   5 H :    0.284496
   6 C :   -0.340881
   7 H :    0.319442
   8 F :   -0.403375
   9 H :    0.372761
  10 H :    0.265676
  11 C :    0.788277
  12 C :   -1.744552
  13 N :   -0.419582
  14 H :    0.363636
  15 H :    0.107440
  16 H :    0.360580
  17 H :    0.356564
  18 H :    0.309379
  19 H :    0.257441
  20 H :    0.322378
  21 H :    0.266902
  22 H :    0.362586
  23 H :    0.266139
  24 H :    0.302299
  25 H :    0.302026
Sum of atomic charges:    0.0000000

LOEWDIN ATOMIC CHARGES
----------------------
   0 C :   -0.191611
   1 C :   -0.200512
   2 C :   -0.144013
   3 C :   -0.210336
   4 C :   -0.177242
   5 H :    0.121443
   6 C :   -0.208571
   7 H :    0.109223
   8 F :   -0.028111
   9 H :    0.111797
  10 H :    0.110638
  11 C :   -0.488092
  12 C :    0.006448
  13 N :    0.123613
  14 H :    0.019401
  15 H :    0.124651
  16 H :    0.018555
  17 H :    0.011380
  18 H :    0.114630
  19 H :    0.100327
  20 H :    0.111602
  21 H :    0.097624
  22 H :    0.121077
  23 H :    0.096835
  24 H :    0.124735
  25 H :    0.124510

  Mayer bond orders larger than 0.100000
B(  0-C ,  1-C ) :   1.0032 B(  0-C ,  2-C ) :   0.8181 B(  0-C ,  3-C ) :   0.3098
B(  0-C ,  9-H ) :   0.8300 B(  0-C , 10-H ) :   0.9393 B(  0-C , 11-C ) :   0.2863
B(  1-C ,  3-C ) :   0.5950 B(  1-C ,  4-C ) :   0.2446 B(  1-C ,  6-C ) :   0.1149
B(  1-C , 11-C ) :   0.1189 B(  1-C , 20-H ) :   0.8976 B(  1-C , 21-H ) :   0.9928
B(  2-C , 11-C ) :   0.6951 B(  2-C , 22-H ) :   0.9093 B(  2-C , 23-H ) :   0.9678
B(  3-C ,  4-C ) :   0.9067 B(  3-C , 18-H ) :   0.9348 B(  3-C , 19-H ) :   0.9971
B(  4-C ,  5-H ) :   0.9473 B(  4-C ,  6-C ) :   0.9213 B(  4-C ,  7-H ) :   0.9227
B(  4-C ,  8-F ) :   0.1469 B(  6-C ,  8-F ) :   0.7038 B(  6-C , 24-H ) :   0.9050
B(  6-C , 25-H ) :   0.9813 B(  8-F , 14-H ) :   0.1040 B( 11-C , 12-C ) :   0.7823
B( 11-C , 13-N ) :   1.1256 B( 12-C , 13-N ) :   0.1208 B( 12-C , 16-H ) :   0.9440
B( 12-C , 17-H ) :   0.9536 B( 13-N , 14-H ) :   0.7474 B( 13-N , 15-H ) :   1.0630

Dispersion correction           -0.011043733
FINAL SINGLE POINT ENERGY      -469.086404087810

DIPOLE MOMENT
-------------
                                X             Y             Z
Electronic contribution:     -1.31392      -1.75535       6.92113
Nuclear contribution   :     -0.37390       1.73388      -6.94752
                        -----------------------------------------
Total Dipole Moment    :     -1.68783      -0.02147      -0.02640
                        -----------------------------------------
Magnitude (a.u.)       :      1.68817
Magnitude (Debye)      :      4.29099

Rotational constants in cm-1:     0.062220     0.032742     0.024374
Rotational constants in MHz :  1865.297979   981.573941   730.711364

                             ****ORCA TERMINATED NORMALLY****
TOTAL RUN TIME: 0 days 0 hours 1 minutes 21 seconds 517 msec
