                         Program Version 5.0.0 -  RELEASE  -
|  1> !M062X D3Zero RIJCOSX def2-SVPD def2/J TightSCF
|  2> *xyz -1 1
|  3> C         -2.12050        0.88520        1.78951
|  4> C         -0.77894        0.17197        1.80496
|  5> H          0.01569        0.91077        1.93915
|  6> H         -0.74355       -0.50683        2.66542
|  7> C         -0.60249       -0.63071        0.49224
|  8> H          0.31389       -1.24035        0.60350
|  9> H         -0.36383        0.11332       -0.30117
| 10> O         -1.71206       -1.37684        0.20253
| 11> H         -2.16160        1.54956        0.95175
| 12> H         -2.23761        1.44436        2.69423
| 13> H         -2.90702        0.16393        1.71165
| 14> *
| 15> %MaxCore 64000
| 16>
| 17> %pal nprocs 4
| 18> end
| 19> %scf
| 20>   MaxIter 150
| 21> end
| 22>
| 23>                          ****END OF INPUT****

CARTESIAN COORDINATES (ANGSTROEM)
---------------------------------
  C     -2.120500    0.885200    1.789510
  C     -0.778940    0.171970    1.804960
  H      0.015690    0.910770    1.939150
  H     -0.743550   -0.506830    2.665420
  C     -0.602490   -0.630710    0.492240
  H      0.313890   -1.240350    0.603500
  H     -0.363830    0.113320   -0.301170
  O     -1.712060   -1.376840    0.202530
  H     -2.161600    1.549560    0.951750
  H     -2.237610    1.444360    2.694230
  H     -2.907020    0.163930    1.711650

 Total Charge           Charge          ....   -1
 Multiplicity           Mult            ....    1
 Number of Electrons    NEL             ....   34
 Basis Dimension        Dim             ....  139

ORBITAL ENERGIES
----------------

  NO   OCC          E(Eh)            E(eV)
   0   2.0000     -19.303402      -525.2723
   1   2.0000     -10.366246      -282.0799
   2   2.0000     -10.358899      -281.8800
   3   2.0000     -10.355427      -281.7855
   4   2.0000      -0.785321       -21.3697
   5   2.0000      -0.667696       -18.1689
   6   2.0000      -0.542912       -14.7734
   7   2.0000      -0.438949       -11.9444
   8   2.0000      -0.342927        -9.3315
   9   2.0000      -0.331588        -9.0230
  10   2.0000      -0.277278        -7.5451
  11   2.0000      -0.248150        -6.7525
  12   2.0000      -0.217030        -5.9057
  13   2.0000      -0.212415        -5.7801
  14   2.0000      -0.177833        -4.8391
  15   2.0000      -0.037809        -1.0288
  16   2.0000      -0.035325        -0.9612
  17   0.0000       0.187070         5.0904
  18   0.0000       0.211239         5.7481
  19   0.0000       0.228653         6.2220
  20   0.0000       0.260157         7.0792
  21   0.0000       0.279304         7.6002

MULLIKEN ATOMIC CHARGES
-----------------------
   0 C :    0.597061
   1 C :   -0.422739
   2 H :   -0.136675
   3 H :   -0.105161
   4 C :    0.475180
   5 H :   -0.188668
   6 H :   -0.088560
   7 O :   -0.902510
   8 H :   -0.070626
   9 H :   -0.132175
  10 H :   -0.025126
Sum of atomic charges:   -1.0000000

LOEWDIN ATOMIC CHARGES
----------------------
   0 C :    0.076477
   1 C :   -0.116868
   2 H :   -0.013750
   3 H :    0.000706
   4 C :   -0.204755
   5 H :   -0.032514
   6 H :   -0.025353
   7 O :   -0.568450
   8 H :   -0.028621
   9 H :   -0.050378
  10 H :   -0.036494

  Mayer bond orders larger than 0.100000
B(  0-C ,  1-C ) :   1.2866 B(  0-C ,  8-H ) :   0.8107 B(  0-C ,  9-H ) :   0.8198
B(  0-C , 10-H ) :   0.8305 B(  1-C ,  2-H ) :   0.9944 B(  1-C ,  3-H ) :   0.9667
B(  1-C ,  4-C ) :   1.0238 B(  1-C ,  5-H ) :   0.1273 B(  1-C ,  6-H ) :   0.1292
B(  1-C ,  8-H ) :   0.1908 B(  1-C ,  9-H ) :   0.1886 B(  1-C , 10-H ) :   0.2007
B(  4-C ,  5-H ) :   0.9834 B(  4-C ,  6-H ) :   0.9256 B(  4-C ,  7-O ) :   1.1489

Dispersion correction           -0.000073382
FINAL SINGLE POINT ENERGY      -193.501784461535

DIPOLE MOMENT
-------------
                                X             Y             Z
Electronic contribution:     -0.58026      -2.37460      -1.48320
Nuclear contribution   :      1.03476       3.87369       2.65163
                        -----------------------------------------
Total Dipole Moment    :      0.45450       1.49909       1.16843
                        -----------------------------------------
Magnitude (a.u.)       :      1.95424
Magnitude (Debye)      :      4.96729

Rotational constants in cm-1:     0.475803     0.193433     0.155403
Rotational constants in MHz : 14264.216647  5798.988361  4658.874800

                             ****ORCA TERMINATED NORMALLY****
TOTAL RUN TIME: 0 days 0 hours 0 minutes 11 seconds 382 msec
