                         Program Version 5.0.0 -  RELEASE  -
|  1> !M062X D3Zero RIJCOSX def2-SVPD def2/J TightSCF
|  2> *xyz 1 1
|  3> C         -2.12050        0.88520        1.78951
|  4> C         -0.77894        0.17197        1.80496
|  5> H         -2.32419        1.47265        2.68608
|  6> H         -2.18770        1.54127        0.91948
|  7> N         -3.17690       -0.15948        1.61070
|  8> H          0.01569        0.91077        1.93915
|  9> H         -0.74355       -0.50683        2.66542
| 10> C         -0.60249       -0.63071        0.49224
| 11> H         -4.06474        0.23127        1.28675
| 12> H         -3.34407       -0.67151        2.48493
| 13> H         -2.71686       -0.78189        0.93588
| 14> H         -0.63812        0.03805       -0.34226
| 15> H         -1.38918       -1.35085        0.40604
| 16> H          0.34172       -1.13388        0.50602
| 17> *
| 18> %MaxCore 64000
| 19>
| 20> %pal nprocs 4
| 21> end
| 22>
| 23> %scf
| 24>   MaxIter 150
| 25> end
| 26>
| 27>
| 28>                          ****END OF INPUT****

CARTESIAN COORDINATES (ANGSTROEM)
---------------------------------
  C     -2.120500    0.885200    1.789510
  C     -0.778940    0.171970    1.804960
  H     -2.324190    1.472650    2.686080
  H     -2.187700    1.541270    0.919480
  N     -3.176900   -0.159480    1.610700
  H      0.015690    0.910770    1.939150
  H     -0.743550   -0.506830    2.665420
  C     -0.602490   -0.630710    0.492240
  H     -4.064740    0.231270    1.286750
  H     -3.344070   -0.671510    2.484930
  H     -2.716860   -0.781890    0.935880
  H     -0.638120    0.038050   -0.342260
  H     -1.389180   -1.350850    0.406040
  H      0.341720   -1.133880    0.506020

 Total Charge           Charge          ....    1
 Multiplicity           Mult            ....    1
 Number of Electrons    NEL             ....   34
 Basis Dimension        Dim             ....  160

ORBITAL ENERGIES
----------------

  NO   OCC          E(Eh)            E(eV)
   0   2.0000     -15.081272      -410.3823
   1   2.0000     -10.799166      -293.8602
   2   2.0000     -10.736882      -292.1654
   3   2.0000     -10.715524      -291.5842
   4   2.0000      -1.304767       -35.5045
   5   2.0000      -1.067381       -29.0449
   6   2.0000      -0.972713       -26.4689
   7   2.0000      -0.880726       -23.9658
   8   2.0000      -0.873921       -23.7806
   9   2.0000      -0.844431       -22.9781
  10   2.0000      -0.753660       -20.5081
  11   2.0000      -0.709106       -19.2958
  12   2.0000      -0.679516       -18.4906
  13   2.0000      -0.654071       -17.7982
  14   2.0000      -0.603458       -16.4209
  15   2.0000      -0.592402       -16.1201
  16   2.0000      -0.586500       -15.9595
  17   0.0000      -0.156028        -4.2457
  18   0.0000      -0.104073        -2.8320
  19   0.0000      -0.100812        -2.7432
  20   0.0000      -0.090349        -2.4585
  21   0.0000      -0.065235        -1.7751

MULLIKEN ATOMIC CHARGES
-----------------------
   0 C :    0.567856
   1 C :   -0.231791
   2 H :   -0.139298
   3 H :    0.054225
   4 N :   -0.680155
   5 H :   -0.067513
   6 H :    0.039155
   7 C :    0.629425
   8 H :    0.335143
   9 H :    0.426717
  10 H :    0.167145
  11 H :    0.049267
  12 H :   -0.132399
  13 H :   -0.017779
Sum of atomic charges:    1.0000000

LOEWDIN ATOMIC CHARGES
----------------------
   0 C :    0.092987
   1 C :   -0.023620
   2 H :    0.051999
   3 H :    0.055564
   4 N :    0.333140
   5 H :    0.048475
   6 H :    0.039082
   7 C :    0.166828
   8 H :    0.109980
   9 H :    0.114137
  10 H :    0.022041
  11 H :    0.009507
  12 H :   -0.033551
  13 H :    0.013431

  Mayer bond orders larger than 0.100000
B(  0-C ,  1-C ) :   1.1268 B(  0-C ,  2-H ) :   0.9824 B(  0-C ,  3-H ) :   0.8940
B(  0-C ,  4-N ) :   0.7851 B(  1-C ,  5-H ) :   1.0103 B(  1-C ,  6-H ) :   0.9340
B(  1-C ,  7-C ) :   1.2424 B(  1-C , 11-H ) :   0.1582 B(  1-C , 12-H ) :   0.1164
B(  1-C , 13-H ) :   0.1584 B(  2-H ,  4-N ) :   0.1396 B(  4-N ,  8-H ) :   0.7676
B(  4-N ,  9-H ) :   0.7453 B(  4-N , 10-H ) :   0.8639 B(  7-C , 11-H ) :   0.7796
B(  7-C , 12-H ) :   0.8553 B(  7-C , 13-H ) :   0.8527 B( 10-H , 12-H ) :   0.2886

Dispersion correction           -0.000129335
FINAL SINGLE POINT ENERGY      -174.621219085503

DIPOLE MOMENT
-------------
                                X             Y             Z
Electronic contribution:     -1.84327       0.51033       0.93322
Nuclear contribution   :      0.18509      -0.64781      -0.64735
                        -----------------------------------------
Total Dipole Moment    :     -1.65818      -0.13748       0.28587
                        -----------------------------------------
Magnitude (a.u.)       :      1.68825
Magnitude (Debye)      :      4.29118

Rotational constants in cm-1:     0.411855     0.178330     0.145265
Rotational constants in MHz : 12347.103052  5346.196801  4354.936890

                             ****ORCA TERMINATED NORMALLY****
TOTAL RUN TIME: 0 days 0 hours 0 minutes 14 seconds 217 msec
