                         Program Version 5.0.0 -  RELEASE  -
|  1> !M062X D3Zero RIJCOSX def2-SVPD def2/J TightSCF
|  2> *xyz 0 1
|  3> C         -2.12050        0.88520        1.78951
|  4> C         -0.77894        0.17197        1.80496
|  5> H          0.01569        0.91077        1.93915
|  6> H         -0.74355       -0.50683        2.66542
|  7> C         -0.60249       -0.63071        0.49224
|  8> H          0.31389       -1.24035        0.60350
|  9> H         -0.36383        0.11332       -0.30117
| 10> F         -1.71206       -1.37684        0.20253
| 11> H         -2.16160        1.54956        0.95175
| 12> H         -2.23761        1.44436        2.69423
| 13> H         -2.90702        0.16393        1.71165
| 14> *
| 15> %MaxCore 64000
| 16>
| 17> %pal nprocs 4
| 18> end
| 19> %scf
| 20>   MaxIter 150
| 21> end
| 22>
| 23>                          ****END OF INPUT****

CARTESIAN COORDINATES (ANGSTROEM)
---------------------------------
  C     -2.120500    0.885200    1.789510
  C     -0.778940    0.171970    1.804960
  H      0.015690    0.910770    1.939150
  H     -0.743550   -0.506830    2.665420
  C     -0.602490   -0.630710    0.492240
  H      0.313890   -1.240350    0.603500
  H     -0.363830    0.113320   -0.301170
  F     -1.712060   -1.376840    0.202530
  H     -2.161600    1.549560    0.951750
  H     -2.237610    1.444360    2.694230
  H     -2.907020    0.163930    1.711650

 Total Charge           Charge          ....    0
 Multiplicity           Mult            ....    1
 Number of Electrons    NEL             ....   34
 Basis Dimension        Dim             ....  139

ORBITAL ENERGIES
----------------

  NO   OCC          E(Eh)            E(eV)
   0   2.0000     -25.247224      -687.0119
   1   2.0000     -10.630782      -289.2783
   2   2.0000     -10.555447      -287.2283
   3   2.0000     -10.534296      -286.6528
   4   2.0000      -1.322856       -35.9968
   5   2.0000      -0.880420       -23.9574
   6   2.0000      -0.774879       -21.0855
   7   2.0000      -0.676258       -18.4019
   8   2.0000      -0.592611       -16.1258
   9   2.0000      -0.581349       -15.8193
  10   2.0000      -0.557207       -15.1624
  11   2.0000      -0.510703       -13.8969
  12   2.0000      -0.471869       -12.8402
  13   2.0000      -0.443487       -12.0679
  14   2.0000      -0.417149       -11.3512
  15   2.0000      -0.392338       -10.6761
  16   2.0000      -0.388858       -10.5814
  17   0.0000       0.039630         1.0784
  18   0.0000       0.064006         1.7417
  19   0.0000       0.072684         1.9778
  20   0.0000       0.093521         2.5448
  21   0.0000       0.116948         3.1823

MULLIKEN ATOMIC CHARGES
-----------------------
   0 C :    0.542882
   1 C :   -0.474445
   2 H :   -0.073174
   3 H :   -0.059630
   4 C :    0.711684
   5 H :   -0.076845
   6 H :    0.013575
   7 F :   -0.465170
   8 H :   -0.037984
   9 H :   -0.082487
  10 H :    0.001594
Sum of atomic charges:    0.0000000

LOEWDIN ATOMIC CHARGES
----------------------
   0 C :    0.113050
   1 C :   -0.066587
   2 H :    0.024304
   3 H :    0.023259
   4 C :    0.113526
   5 H :    0.028565
   6 H :    0.036606
   7 F :   -0.224245
   8 H :   -0.012771
   9 H :   -0.018286
  10 H :   -0.017422

  Mayer bond orders larger than 0.100000
B(  0-C ,  1-C ) :   1.3116 B(  0-C ,  8-H ) :   0.8242 B(  0-C ,  9-H ) :   0.8589
B(  0-C , 10-H ) :   0.8382 B(  1-C ,  2-H ) :   0.9833 B(  1-C ,  3-H ) :   0.9748
B(  1-C ,  4-C ) :   1.1560 B(  1-C ,  6-H ) :   0.1018 B(  1-C ,  8-H ) :   0.1703
B(  1-C ,  9-H ) :   0.1723 B(  1-C , 10-H ) :   0.1642 B(  4-C ,  5-H ) :   0.9608
B(  4-C ,  6-H ) :   0.9045 B(  4-C ,  7-F ) :   0.6735

Dispersion correction           -0.000080455
FINAL SINGLE POINT ENERGY      -218.111886674289

DIPOLE MOMENT
-------------
                                X             Y             Z
Electronic contribution:     -0.99707      -4.82169      -3.45778
Nuclear contribution   :      1.51874       5.24801       3.69322
                        -----------------------------------------
Total Dipole Moment    :      0.52167       0.42633       0.23545
                        -----------------------------------------
Magnitude (a.u.)       :      0.71367
Magnitude (Debye)      :      1.81400

Rotational constants in cm-1:     0.461913     0.182549     0.147043
Rotational constants in MHz : 13847.794369  5472.673442  4408.246847

                             ****ORCA TERMINATED NORMALLY****
TOTAL RUN TIME: 0 days 0 hours 0 minutes 10 seconds 260 msec
