                         Program Version 5.0.0 -  RELEASE  -
|  1> !M062X D3Zero RIJCOSX def2-SVPD def2/J TightSCF
|  2> *xyz 0 1
|  3> C         -2.12050        0.88520        1.78951
|  4> C         -0.77894        0.17197        1.80496
|  5> H         -2.32419        1.47265        2.68608
|  6> H         -2.18770        1.54127        0.91948
|  7> C         -3.17690       -0.15948        1.61070
|  8> H          0.01569        0.91077        1.93915
|  9> H         -0.74355       -0.50683        2.66542
| 10> C         -0.60249       -0.63071        0.49224
| 11> H         -4.06474        0.23127        1.28675
| 12> H         -3.34407       -0.67151        2.48493
| 13> H         -2.71686       -0.78189        0.93588
| 14> H         -0.63812        0.03805       -0.34226
| 15> H         -1.38918       -1.35085        0.40604
| 16> H          0.34172       -1.13388        0.50602
| 17> *
| 18> %MaxCore 64000
| 19>
| 20> %pal nprocs 4
| 21> end
| 22>
| 23> %scf
| 24>   MaxIter 150
| 25> end
| 26>
| 27>
| 28>                          ****END OF INPUT****

CARTESIAN COORDINATES (ANGSTROEM)
---------------------------------
  C     -2.120500    0.885200    1.789510
  C     -0.778940    0.171970    1.804960
  H     -2.324190    1.472650    2.686080
  H     -2.187700    1.541270    0.919480
  C     -3.176900   -0.159480    1.610700
  H      0.015690    0.910770    1.939150
  H     -0.743550   -0.506830    2.665420
  C     -0.602490   -0.630710    0.492240
  H     -4.064740    0.231270    1.286750
  H     -3.344070   -0.671510    2.484930
  H     -2.716860   -0.781890    0.935880
  H     -0.638120    0.038050   -0.342260
  H     -1.389180   -1.350850    0.406040
  H      0.341720   -1.133880    0.506020

 Total Charge           Charge          ....    0
 Multiplicity           Mult            ....    1
 Number of Electrons    NEL             ....   34
 Basis Dimension        Dim             ....  160

ORBITAL ENERGIES
----------------

  NO   OCC          E(Eh)            E(eV)
   0   2.0000     -10.542366      -286.8724
   1   2.0000     -10.534343      -286.6540
   2   2.0000     -10.532486      -286.6035
   3   2.0000     -10.505944      -285.8813
   4   2.0000      -0.901663       -24.5355
   5   2.0000      -0.806686       -21.9510
   6   2.0000      -0.728927       -19.8351
   7   2.0000      -0.641554       -17.4576
   8   2.0000      -0.552817       -15.0429
   9   2.0000      -0.532228       -14.4827
  10   2.0000      -0.489971       -13.3328
  11   2.0000      -0.455609       -12.3978
  12   2.0000      -0.440456       -11.9854
  13   2.0000      -0.422317       -11.4918
  14   2.0000      -0.386596       -10.5198
  15   2.0000      -0.383650       -10.4396
  16   2.0000      -0.371663       -10.1135
  17   0.0000       0.046359         1.2615
  18   0.0000       0.066216         1.8018
  19   0.0000       0.068018         1.8509
  20   0.0000       0.078791         2.1440
  21   0.0000       0.120439         3.2773

MULLIKEN ATOMIC CHARGES
-----------------------
   0 C :   -0.282375
   1 C :   -0.188497
   2 H :   -0.253740
   3 H :    0.032034
   4 C :    1.579658
   5 H :   -0.167218
   6 H :   -0.001388
   7 C :    0.615824
   8 H :   -0.123576
   9 H :   -0.041844
  10 H :   -1.054549
  11 H :    0.029501
  12 H :   -0.089318
  13 H :   -0.054510
Sum of atomic charges:   -0.0000000

LOEWDIN ATOMIC CHARGES
----------------------
   0 C :   -0.078623
   1 C :   -0.064823
   2 H :    0.018998
   3 H :    0.024733
   4 C :    0.137391
   5 H :    0.014971
   6 H :    0.025658
   7 C :    0.132003
   8 H :   -0.028045
   9 H :   -0.020451
  10 H :   -0.093804
  11 H :   -0.007462
  12 H :   -0.042969
  13 H :   -0.017577

  Mayer bond orders larger than 0.100000
B(  0-C ,  1-C ) :   1.0968 B(  0-C ,  2-H ) :   1.0827 B(  0-C ,  3-H ) :   0.8824
B(  0-C ,  4-C ) :   1.0689 B(  0-C ,  6-H ) :   0.1055 B(  0-C ,  8-H ) :   0.1357
B(  0-C ,  9-H ) :   0.2319 B(  0-C , 10-H ) :   0.4132 B(  1-C ,  5-H ) :   1.0319
B(  1-C ,  6-H ) :   0.9187 B(  1-C ,  7-C ) :   1.2391 B(  1-C , 11-H ) :   0.1902
B(  1-C , 12-H ) :   0.1346 B(  1-C , 13-H ) :   0.1598 B(  4-C ,  8-H ) :   0.5453
B(  4-C ,  9-H ) :   0.4828 B(  4-C , 10-H ) :   0.1644 B(  7-C , 10-H ) :   0.1124
B(  7-C , 11-H ) :   0.7685 B(  7-C , 12-H ) :   0.8112 B(  7-C , 13-H ) :   0.8103
B(  8-H ,  9-H ) :  -0.1431 B(  8-H , 10-H ) :   0.2389 B(  9-H , 10-H ) :   0.2585
B( 10-H , 12-H ) :   0.4312

Dispersion correction           -0.000125417
FINAL SINGLE POINT ENERGY      -158.215948752928

DIPOLE MOMENT
-------------
                                X             Y             Z
Electronic contribution:      0.30732       0.71247       0.58603
Nuclear contribution   :     -0.27446      -0.71220      -0.58629
                        -----------------------------------------
Total Dipole Moment    :      0.03286       0.00027      -0.00025
                        -----------------------------------------
Magnitude (a.u.)       :      0.03286
Magnitude (Debye)      :      0.08352

Rotational constants in cm-1:     0.419751     0.185753     0.151088
Rotational constants in MHz : 12583.819928  5568.732483  4529.512437

                             ****ORCA TERMINATED NORMALLY****
TOTAL RUN TIME: 0 days 0 hours 0 minutes 14 seconds 60 msec
