                         Program Version 5.0.0 -  RELEASE  -
|  1> !TPSS D3BJ RIJCOSX def2-SVP def2/J TightSCF
|  2> *xyz -1 1
|  3> C         -0.05517        1.61942       -3.78858
|  4> C          1.22302        2.46987       -3.75691
|  5> H          1.11470        3.25807       -4.53300
|  6> H          1.23773        3.01124       -2.79216
|  7> O          2.35381        1.71203       -3.93448
|  8> H         -0.10198        1.08015       -4.71156
|  9> H         -0.91014        2.25726       -3.70441
| 10> H         -0.04403        0.92826       -2.97183
| 11> *
| 12>
| 13> %MaxCore 64000
| 14>
| 15> %pal nprocs 4
| 16> end
| 17>
| 18> %scf
| 19>   MaxIter 150
| 20> end
| 21>
| 22>
| 23>                          ****END OF INPUT****

CARTESIAN COORDINATES (ANGSTROEM)
---------------------------------
  C     -0.055170    1.619420   -3.788580
  C      1.223020    2.469870   -3.756910
  H      1.114700    3.258070   -4.533000
  H      1.237730    3.011240   -2.792160
  O      2.353810    1.712030   -3.934480
  H     -0.101980    1.080150   -4.711560
  H     -0.910140    2.257260   -3.704410
  H     -0.044030    0.928260   -2.971830

 Total Charge           Charge          ....   -1
 Multiplicity           Mult            ....    1
 Number of Electrons    NEL             ....   26
 Basis Dimension        Dim             ....   67

ORBITAL ENERGIES
----------------

  NO   OCC          E(Eh)            E(eV)
   0   2.0000     -18.511547      -503.7248
   1   2.0000      -9.787962      -266.3440
   2   2.0000      -9.776851      -266.0416
   3   2.0000      -0.561514       -15.2796
   4   2.0000      -0.442512       -12.0414
   5   2.0000      -0.296651        -8.0723
   6   2.0000      -0.190576        -5.1858
   7   2.0000      -0.168507        -4.5853
   8   2.0000      -0.112440        -3.0596
   9   2.0000      -0.099251        -2.7008
  10   2.0000      -0.025469        -0.6931
  11   2.0000       0.117041         3.1848
  12   2.0000       0.120587         3.2813
  13   0.0000       0.244049         6.6409
  14   0.0000       0.285129         7.7587
  15   0.0000       0.295783         8.0487
  16   0.0000       0.306345         8.3361
  17   0.0000       0.346505         9.4289

MULLIKEN ATOMIC CHARGES
-----------------------
   0 C :    0.086221
   1 C :    0.237097
   2 H :   -0.175134
   3 H :   -0.172387
   4 O :   -0.688242
   5 H :   -0.074141
   6 H :   -0.140515
   7 H :   -0.072899
Sum of atomic charges:   -1.0000000

LOEWDIN ATOMIC CHARGES
----------------------
   0 C :   -0.099627
   1 C :    0.012917
   2 H :   -0.089814
   3 H :   -0.086940
   4 O :   -0.643611
   5 H :   -0.022243
   6 H :   -0.049033
   7 H :   -0.021648

  Mayer bond orders larger than 0.100000
B(  0-C ,  1-C ) :   0.9982 B(  0-C ,  4-O ) :  -0.1029 B(  0-C ,  5-H ) :   0.9503
B(  0-C ,  6-H ) :   0.8940 B(  0-C ,  7-H ) :   0.9532 B(  1-C ,  2-H ) :   0.8528
B(  1-C ,  3-H ) :   0.8556 B(  1-C ,  4-O ) :   1.5069 B(  4-O ,  6-H ) :   0.1037

Dispersion correction           -0.004557862
FINAL SINGLE POINT ENERGY      -154.303344603098

DIPOLE MOMENT
-------------
                                X             Y             Z
Electronic contribution:      3.22684      -0.77601      -0.30259
Nuclear contribution   :     -4.28298       0.81046       0.39340
                        -----------------------------------------
Total Dipole Moment    :     -1.05614       0.03445       0.09082
                        -----------------------------------------
Magnitude (a.u.)       :      1.06060
Magnitude (Debye)      :      2.69583

Rotational constants in cm-1:     1.266793     0.328147     0.288309
Rotational constants in MHz : 37977.512300  9837.594308  8643.275638

                             ****ORCA TERMINATED NORMALLY****
TOTAL RUN TIME: 0 days 0 hours 0 minutes 7 seconds 118 msec
