                         Program Version 5.0.0 -  RELEASE  -
|  1> !TPSS D3BJ RIJCOSX def2-SVP def2/J TightSCF
|  2> *xyz 1 1
|  3> C          1.63556       -1.67040       -5.29211
|  4> C          0.33848       -1.50091       -4.50540
|  5> N          2.48451       -0.50741       -5.14039
|  6> H          1.39834       -1.82924       -6.35259
|  7> H          2.15586       -2.56540       -4.93209
|  8> C          3.45115       -0.14953       -5.95259
|  9> N          3.92267        1.08956       -5.85071
| 10> N          3.96616       -1.00618       -6.86788
| 11> H          3.52139       -1.90647       -6.99527
| 12> H          4.44482       -0.62347       -7.67035
| 13> H          2.25200        0.24080       -4.49879
| 14> H          3.46428        1.64078       -5.13639
| 15> H          4.83447        1.31375       -6.22465
| 16> H         -0.17658       -0.62881       -4.85045
| 17> H          0.56384       -1.39374       -3.46490
| 18> H         -0.28102       -2.36136       -4.64938
| 19> *
| 20>
| 21> %MaxCore 64000
| 22>
| 23> %pal nprocs 4
| 24> end
| 25>
| 26> %scf
| 27>   MaxIter 150
| 28> end
| 29>
| 30>
| 31>                          ****END OF INPUT****

CARTESIAN COORDINATES (ANGSTROEM)
---------------------------------
  C      1.635560   -1.670400   -5.292110
  C      0.338480   -1.500910   -4.505400
  N      2.484510   -0.507410   -5.140390
  H      1.398340   -1.829240   -6.352590
  H      2.155860   -2.565400   -4.932090
  C      3.451150   -0.149530   -5.952590
  N      3.922670    1.089560   -5.850710
  N      3.966160   -1.006180   -6.867880
  H      3.521390   -1.906470   -6.995270
  H      4.444820   -0.623470   -7.670350
  H      2.252000    0.240800   -4.498790
  H      3.464280    1.640780   -5.136390
  H      4.834470    1.313750   -6.224650
  H     -0.176580   -0.628810   -4.850450
  H      0.563840   -1.393740   -3.464900
  H     -0.281020   -2.361360   -4.649380

 Total Charge           Charge          ....    1
 Multiplicity           Mult            ....    1
 Number of Electrons    NEL             ....   48
 Basis Dimension        Dim             ....  134

ORBITAL ENERGIES
----------------

  NO   OCC          E(Eh)            E(eV)
   0   2.0000     -14.339059      -390.1856
   1   2.0000     -14.337565      -390.1450
   2   2.0000     -14.334931      -390.0733
   3   2.0000     -10.318142      -280.7709
   4   2.0000     -10.209298      -277.8091
   5   2.0000     -10.142001      -275.9779
   6   2.0000      -1.140584       -31.0369
   7   2.0000      -1.034005       -28.1367
   8   2.0000      -1.021101       -27.7856
   9   2.0000      -0.872671       -23.7466
  10   2.0000      -0.775508       -21.1026
  11   2.0000      -0.759913       -20.6783
  12   2.0000      -0.726286       -19.7633
  13   2.0000      -0.696124       -18.9425
  14   2.0000      -0.644590       -17.5402
  15   2.0000      -0.639640       -17.4055
  16   2.0000      -0.614946       -16.7335
  17   2.0000      -0.598975       -16.2989
  18   2.0000      -0.557994       -15.1838
  19   2.0000      -0.507129       -13.7997
  20   2.0000      -0.492566       -13.4034
  21   2.0000      -0.482820       -13.1382
  22   2.0000      -0.433785       -11.8039
  23   2.0000      -0.415248       -11.2995
  24   0.0000      -0.186950        -5.0872
  25   0.0000      -0.154138        -4.1943
  26   0.0000      -0.118199        -3.2164
  27   0.0000      -0.100791        -2.7427
  28   0.0000      -0.081836        -2.2269

MULLIKEN ATOMIC CHARGES
-----------------------
   0 C :    0.035599
   1 C :   -0.021640
   2 N :   -0.115884
   3 H :    0.060767
   4 H :    0.074449
   5 C :    0.044086
   6 N :   -0.025007
   7 N :   -0.061773
   8 H :    0.168052
   9 H :    0.172386
  10 H :    0.155566
  11 H :    0.164000
  12 H :    0.179884
  13 H :    0.047600
  14 H :    0.052905
  15 H :    0.069009
Sum of atomic charges:    1.0000000

LOEWDIN ATOMIC CHARGES
----------------------
   0 C :    0.041085
   1 C :   -0.026050
   2 N :    0.042321
   3 H :    0.031632
   4 H :    0.037447
   5 C :    0.124810
   6 N :    0.057327
   7 N :    0.046056
   8 H :    0.105083
   9 H :    0.108752
  10 H :    0.099856
  11 H :    0.105361
  12 H :    0.112903
  13 H :    0.030681
  14 H :    0.033473
  15 H :    0.049262

  Mayer bond orders larger than 0.100000
B(  0-C ,  1-C ) :   1.1084 B(  0-C ,  2-N ) :   0.9201 B(  0-C ,  3-H ) :   0.9441
B(  0-C ,  4-H ) :   0.9431 B(  1-C , 13-H ) :   0.9721 B(  1-C , 14-H ) :   0.9688
B(  1-C , 15-H ) :   0.9582 B(  2-N ,  5-C ) :   1.3923 B(  2-N , 10-H ) :   0.9046
B(  5-C ,  6-N ) :   1.3834 B(  5-C ,  7-N ) :   1.3724 B(  6-N , 11-H ) :   0.9223
B(  6-N , 12-H ) :   0.9247 B(  7-N ,  8-H ) :   0.9257 B(  7-N ,  9-H ) :   0.9286

Dispersion correction           -0.014773120
FINAL SINGLE POINT ENERGY      -284.243563150216

DIPOLE MOMENT
-------------
                                X             Y             Z
Electronic contribution:      4.76090       2.52168      -1.72967
Nuclear contribution   :     -3.96322      -1.85512       1.24891
                        -----------------------------------------
Total Dipole Moment    :      0.79769       0.66657      -0.48077
                        -----------------------------------------
Magnitude (a.u.)       :      1.14532
Magnitude (Debye)      :      2.91116

Rotational constants in cm-1:     0.261404     0.067000     0.054949
Rotational constants in MHz :  7836.702504  2008.609425  1647.329138

                             ****ORCA TERMINATED NORMALLY****
TOTAL RUN TIME: 0 days 0 hours 0 minutes 9 seconds 835 msec
