                         Program Version 5.0.0 -  RELEASE  -
|  1> !TPSS D3BJ RIJCOSX def2-SVP def2/J TightSCF
|  2> *xyz 0 1
|  3> C         -0.05517        1.61942       -3.78858
|  4> C          1.22302        2.46987       -3.75691
|  5> H          1.11470        3.25807       -4.53300
|  6> H          1.23773        3.01124       -2.79216
|  7> F          2.35381        1.71203       -3.93448
|  8> H         -0.10198        1.08015       -4.71156
|  9> H         -0.91014        2.25726       -3.70441
| 10> H         -0.04403        0.92826       -2.97183
| 11> *
| 12>
| 13> %MaxCore 64000
| 14>
| 15> %pal nprocs 4
| 16> end
| 17>
| 18> %scf
| 19>   MaxIter 150
| 20> end
| 21>
| 22>
| 23>                          ****END OF INPUT****

CARTESIAN COORDINATES (ANGSTROEM)
---------------------------------
  C     -0.055170    1.619420   -3.788580
  C      1.223020    2.469870   -3.756910
  H      1.114700    3.258070   -4.533000
  H      1.237730    3.011240   -2.792160
  F      2.353810    1.712030   -3.934480
  H     -0.101980    1.080150   -4.711560
  H     -0.910140    2.257260   -3.704410
  H     -0.044030    0.928260   -2.971830

 Total Charge           Charge          ....    0
 Multiplicity           Mult            ....    1
 Number of Electrons    NEL             ....   26
 Basis Dimension        Dim             ....   67

ORBITAL ENERGIES
----------------

  NO   OCC          E(Eh)            E(eV)
   0   2.0000     -24.390928      -663.7109
   1   2.0000     -10.071740      -274.0660
   2   2.0000      -9.995558      -271.9930
   3   2.0000      -1.087965       -29.6050
   4   2.0000      -0.697736       -18.9864
   5   2.0000      -0.569307       -15.4916
   6   2.0000      -0.447985       -12.1903
   7   2.0000      -0.440346       -11.9824
   8   2.0000      -0.397129       -10.8064
   9   2.0000      -0.357915        -9.7394
  10   2.0000      -0.352769        -9.5993
  11   2.0000      -0.280171        -7.6238
  12   2.0000      -0.279443        -7.6040
  13   0.0000       0.054285         1.4772
  14   0.0000       0.097083         2.6418
  15   0.0000       0.101671         2.7666
  16   0.0000       0.110692         3.0121
  17   0.0000       0.130514         3.5515

MULLIKEN ATOMIC CHARGES
-----------------------
   0 C :   -0.042218
   1 C :    0.214135
   2 H :    0.009640
   3 H :    0.008879
   4 F :   -0.258519
   5 H :    0.027043
   6 H :    0.014770
   7 H :    0.026270
Sum of atomic charges:    0.0000000

LOEWDIN ATOMIC CHARGES
----------------------
   0 C :   -0.062225
   1 C :    0.113079
   2 H :    0.006143
   3 H :    0.005746
   4 F :   -0.131348
   5 H :    0.021884
   6 H :    0.025650
   7 H :    0.021070

  Mayer bond orders larger than 0.100000
B(  0-C ,  1-C ) :   1.0965 B(  0-C ,  5-H ) :   0.9701 B(  0-C ,  6-H ) :   0.9574
B(  0-C ,  7-H ) :   0.9712 B(  1-C ,  2-H ) :   0.9533 B(  1-C ,  3-H ) :   0.9533
B(  1-C ,  4-F ) :   1.0073

Dispersion correction           -0.004203502
FINAL SINGLE POINT ENERGY      -178.945542151925

DIPOLE MOMENT
-------------
                                X             Y             Z
Electronic contribution:      5.10466      -0.77305      -0.44099
Nuclear contribution   :     -5.66833       1.07099       0.52006
                        -----------------------------------------
Total Dipole Moment    :     -0.56367       0.29794       0.07907
                        -----------------------------------------
Magnitude (a.u.)       :      0.64245
Magnitude (Debye)      :      1.63299

Rotational constants in cm-1:     1.245689     0.305293     0.269541
Rotational constants in MHz : 37344.801915  9152.442838  8080.640229

                             ****ORCA TERMINATED NORMALLY****
TOTAL RUN TIME: 0 days 0 hours 0 minutes 6 seconds 196 msec
