                         Program Version 5.0.0 -  RELEASE  -
|  1> !TPSS D3BJ RIJCOSX def2-SVP def2/J TightSCF
|  2> *xyz 0 1
|  3> C          1.63556       -1.67040       -5.29211
|  4> C          0.33848       -1.50091       -4.50540
|  5> C          2.48451       -0.50741       -5.14039
|  6> H          1.39834       -1.82924       -6.35259
|  7> H          2.15586       -2.56540       -4.93209
|  8> C          3.45115       -0.14953       -5.95259
|  9> N          3.92267        1.08956       -5.85071
| 10> N          3.96616       -1.00618       -6.86788
| 11> H          3.52139       -1.90647       -6.99527
| 12> H          4.44482       -0.62347       -7.67035
| 13> H          2.25200        0.24080       -4.49879
| 14> H          3.46428        1.64078       -5.13639
| 15> H          4.83447        1.31375       -6.22465
| 16> H         -0.17658       -0.62881       -4.85045
| 17> H          0.56384       -1.39374       -3.46490
| 18> H         -0.28102       -2.36136       -4.64938
| 19> *
| 20>
| 21> %MaxCore 64000
| 22>
| 23> %pal nprocs 4
| 24> end
| 25>
| 26> %scf
| 27>   MaxIter 150
| 28> end
| 29>
| 30>
| 31>                          ****END OF INPUT****

CARTESIAN COORDINATES (ANGSTROEM)
---------------------------------
  C      1.635560   -1.670400   -5.292110
  C      0.338480   -1.500910   -4.505400
  C      2.484510   -0.507410   -5.140390
  H      1.398340   -1.829240   -6.352590
  H      2.155860   -2.565400   -4.932090
  C      3.451150   -0.149530   -5.952590
  N      3.922670    1.089560   -5.850710
  N      3.966160   -1.006180   -6.867880
  H      3.521390   -1.906470   -6.995270
  H      4.444820   -0.623470   -7.670350
  H      2.252000    0.240800   -4.498790
  H      3.464280    1.640780   -5.136390
  H      4.834470    1.313750   -6.224650
  H     -0.176580   -0.628810   -4.850450
  H      0.563840   -1.393740   -3.464900
  H     -0.281020   -2.361360   -4.649380

 Total Charge           Charge          ....    0
 Multiplicity           Mult            ....    1
 Number of Electrons    NEL             ....   48
 Basis Dimension        Dim             ....  134

ORBITAL ENERGIES
----------------

  NO   OCC          E(Eh)            E(eV)
   0   2.0000     -14.108634      -383.9154
   1   2.0000     -14.104478      -383.8024
   2   2.0000     -10.022920      -272.7375
   3   2.0000      -9.971985      -271.3515
   4   2.0000      -9.967138      -271.2196
   5   2.0000      -9.910999      -269.6920
   6   2.0000      -0.873714       -23.7750
   7   2.0000      -0.792272       -21.5588
   8   2.0000      -0.703147       -19.1336
   9   2.0000      -0.628843       -17.1117
  10   2.0000      -0.549782       -14.9603
  11   2.0000      -0.522189       -14.2095
  12   2.0000      -0.479674       -13.0526
  13   2.0000      -0.458753       -12.4833
  14   2.0000      -0.416320       -11.3286
  15   2.0000      -0.391273       -10.6471
  16   2.0000      -0.378065       -10.2877
  17   2.0000      -0.345259        -9.3950
  18   2.0000      -0.328191        -8.9305
  19   2.0000      -0.297153        -8.0859
  20   2.0000      -0.286842        -7.8054
  21   2.0000      -0.285696        -7.7742
  22   2.0000      -0.211275        -5.7491
  23   2.0000      -0.121236        -3.2990
  24   0.0000       0.036743         0.9998
  25   0.0000       0.065129         1.7722
  26   0.0000       0.074462         2.0262
  27   0.0000       0.082481         2.2444
  28   0.0000       0.092906         2.5281

MULLIKEN ATOMIC CHARGES
-----------------------
   0 C :    0.032770
   1 C :    0.024576
   2 C :   -0.122522
   3 H :   -0.012184
   4 H :   -0.001938
   5 C :   -0.097831
   6 N :   -0.056799
   7 N :   -0.099772
   8 H :    0.116664
   9 H :    0.099448
  10 H :   -0.106060
  11 H :    0.117818
  12 H :    0.101402
  13 H :    0.003182
  14 H :    0.007430
  15 H :   -0.006185
Sum of atomic charges:   -0.0000000

LOEWDIN ATOMIC CHARGES
----------------------
   0 C :   -0.036166
   1 C :   -0.034502
   2 C :   -0.216806
   3 H :    0.003440
   4 H :    0.007277
   5 C :    0.013431
   6 N :   -0.017824
   7 N :   -0.024855
   8 H :    0.075951
   9 H :    0.060047
  10 H :   -0.013235
  11 H :    0.080649
  12 H :    0.061516
  13 H :    0.013742
  14 H :    0.015666
  15 H :    0.011667

  Mayer bond orders larger than 0.100000
B(  0-C ,  1-C ) :   1.1099 B(  0-C ,  2-C ) :   1.0499 B(  0-C ,  3-H ) :   0.9334
B(  0-C ,  4-H ) :   0.9199 B(  1-C , 13-H ) :   0.9731 B(  1-C , 14-H ) :   0.9680
B(  1-C , 15-H ) :   0.9626 B(  2-C ,  5-C ) :   1.6589 B(  2-C , 10-H ) :   0.9317
B(  5-C ,  6-N ) :   1.2478 B(  5-C ,  7-N ) :   1.2470 B(  6-N , 11-H ) :   0.9302
B(  6-N , 12-H ) :   0.9424 B(  7-N ,  8-H ) :   0.9380 B(  7-N ,  9-H ) :   0.9446

Dispersion correction           -0.015386113
FINAL SINGLE POINT ENERGY      -267.765034920080

DIPOLE MOMENT
-------------
                                X             Y             Z
Electronic contribution:      4.66508       2.23729      -1.98587
Nuclear contribution   :     -3.99655      -1.83277       1.34879
                        -----------------------------------------
Total Dipole Moment    :      0.66853       0.40452      -0.63708
                        -----------------------------------------
Magnitude (a.u.)       :      1.00819
Magnitude (Debye)      :      2.56261

Rotational constants in cm-1:     0.262971     0.067064     0.055026
Rotational constants in MHz :  7883.664566  2010.513309  1649.636654

                             ****ORCA TERMINATED NORMALLY****
TOTAL RUN TIME: 0 days 0 hours 0 minutes 11 seconds 245 msec
