                         Program Version 5.0.0 -  RELEASE  -
|  1> !TPSS D3BJ RIJCOSX def2-SVP def2/J TightSCF
|  2> *xyz 0 1
|  3> C          1.63556       -1.67040       -5.29211
|  4> C          0.33848       -1.50091       -4.50540
|  5> N          2.48451       -0.50741       -5.14039
|  6> H          1.39834       -1.82924       -6.35259
|  7> H          2.15586       -2.56540       -4.93209
|  8> C          3.45115       -0.14953       -5.95259
|  9> C          3.92267        1.08956       -5.85071
| 10> N          3.96616       -1.00618       -6.86788
| 11> H          3.52139       -1.90647       -6.99527
| 12> H          4.44482       -0.62347       -7.67035
| 13> H          2.25200        0.24080       -4.49879
| 14> H          3.46428        1.64078       -5.13639
| 15> H          4.83447        1.31375       -6.22465
| 16> H         -0.17658       -0.62881       -4.85045
| 17> H          0.56384       -1.39374       -3.46490
| 18> H         -0.28102       -2.36136       -4.64938
| 19> *
| 20>
| 21> %MaxCore 64000
| 22>
| 23> %pal nprocs 4
| 24> end
| 25>
| 26> %scf
| 27>   MaxIter 150
| 28> end
| 29>
| 30>
| 31>                          ****END OF INPUT****

CARTESIAN COORDINATES (ANGSTROEM)
---------------------------------
  C      1.635560   -1.670400   -5.292110
  C      0.338480   -1.500910   -4.505400
  N      2.484510   -0.507410   -5.140390
  H      1.398340   -1.829240   -6.352590
  H      2.155860   -2.565400   -4.932090
  C      3.451150   -0.149530   -5.952590
  C      3.922670    1.089560   -5.850710
  N      3.966160   -1.006180   -6.867880
  H      3.521390   -1.906470   -6.995270
  H      4.444820   -0.623470   -7.670350
  H      2.252000    0.240800   -4.498790
  H      3.464280    1.640780   -5.136390
  H      4.834470    1.313750   -6.224650
  H     -0.176580   -0.628810   -4.850450
  H      0.563840   -1.393740   -3.464900
  H     -0.281020   -2.361360   -4.649380

 Total Charge           Charge          ....    0
 Multiplicity           Mult            ....    1
 Number of Electrons    NEL             ....   48
 Basis Dimension        Dim             ....  134

ORBITAL ENERGIES
----------------

  NO   OCC          E(Eh)            E(eV)
   0   2.0000     -14.107613      -383.8877
   1   2.0000     -14.106831      -383.8664
   2   2.0000     -10.039831      -273.1977
   3   2.0000     -10.026141      -272.8252
   4   2.0000     -10.002505      -272.1820
   5   2.0000      -9.903145      -269.4783
   6   2.0000      -0.886947       -24.1351
   7   2.0000      -0.805302       -21.9134
   8   2.0000      -0.711036       -19.3483
   9   2.0000      -0.634874       -17.2758
  10   2.0000      -0.570101       -15.5132
  11   2.0000      -0.537807       -14.6345
  12   2.0000      -0.480529       -13.0759
  13   2.0000      -0.446753       -12.1568
  14   2.0000      -0.433759       -11.8032
  15   2.0000      -0.415423       -11.3042
  16   2.0000      -0.374136       -10.1808
  17   2.0000      -0.351350        -9.5607
  18   2.0000      -0.336856        -9.1663
  19   2.0000      -0.331849        -9.0301
  20   2.0000      -0.330179        -8.9846
  21   2.0000      -0.303425        -8.2566
  22   2.0000      -0.208206        -5.6656
  23   2.0000      -0.119156        -3.2424
  24   0.0000       0.038399         1.0449
  25   0.0000       0.058305         1.5866
  26   0.0000       0.063990         1.7413
  27   0.0000       0.072066         1.9610
  28   0.0000       0.098336         2.6759

MULLIKEN ATOMIC CHARGES
-----------------------
   0 C :    0.087562
   1 C :   -0.017126
   2 N :   -0.139593
   3 H :    0.010552
   4 H :    0.015301
   5 C :   -0.060150
   6 C :   -0.084225
   7 N :   -0.109684
   8 H :    0.098986
   9 H :    0.123480
  10 H :    0.122180
  11 H :   -0.068473
  12 H :   -0.047577
  13 H :    0.024786
  14 H :    0.023492
  15 H :    0.020487
Sum of atomic charges:   -0.0000000

LOEWDIN ATOMIC CHARGES
----------------------
   0 C :    0.034987
   1 C :   -0.040883
   2 N :   -0.022941
   3 H :    0.008611
   4 H :    0.008677
   5 C :    0.022652
   6 C :   -0.250789
   7 N :   -0.023045
   8 H :    0.059940
   9 H :    0.079512
  10 H :    0.082281
  11 H :   -0.015001
  12 H :   -0.010983
  13 H :    0.020722
  14 H :    0.020529
  15 H :    0.025732

  Mayer bond orders larger than 0.100000
B(  0-C ,  1-C ) :   1.1123 B(  0-C ,  2-N ) :   0.9964 B(  0-C ,  3-H ) :   0.9371
B(  0-C ,  4-H ) :   0.9408 B(  1-C , 13-H ) :   0.9716 B(  1-C , 14-H ) :   0.9694
B(  1-C , 15-H ) :   0.9630 B(  2-N ,  5-C ) :   1.2344 B(  2-N , 10-H ) :   0.9158
B(  5-C ,  6-C ) :   1.7120 B(  5-C ,  7-N ) :   1.2136 B(  6-C , 11-H ) :   0.9205
B(  6-C , 12-H ) :   0.9484 B(  7-N ,  8-H ) :   0.9511 B(  7-N ,  9-H ) :   0.9481

Dispersion correction           -0.015236663
FINAL SINGLE POINT ENERGY      -267.757585415036

DIPOLE MOMENT
-------------
                                X             Y             Z
Electronic contribution:      2.98942       0.53886      -1.32656
Nuclear contribution   :     -3.69145      -1.49398       1.19810
                        -----------------------------------------
Total Dipole Moment    :     -0.70203      -0.95513      -0.12846
                        -----------------------------------------
Magnitude (a.u.)       :      1.19232
Magnitude (Debye)      :      3.03063

Rotational constants in cm-1:     0.270790     0.068966     0.056679
Rotational constants in MHz :  8118.084803  2067.559423  1699.196934

                             ****ORCA TERMINATED NORMALLY****
TOTAL RUN TIME: 0 days 0 hours 0 minutes 10 seconds 444 msec
