                         Program Version 5.0.0 -  RELEASE  -
|  1> !TPSS D3BJ RIJCOSX def2-SVP def2/J TightSCF
|  2> *xyz 0 1
|  3> C          1.63556       -1.67040       -5.29211
|  4> C          0.33848       -1.50091       -4.50540
|  5> N          2.48451       -0.50741       -5.14039
|  6> H          1.39834       -1.82924       -6.35259
|  7> H          2.15586       -2.56540       -4.93209
|  8> C          3.45115       -0.14953       -5.95259
|  9> N          3.92267        1.08956       -5.85071
| 10> C          3.96616       -1.00618       -6.86788
| 11> H          3.52139       -1.90647       -6.99527
| 12> H          4.44482       -0.62347       -7.67035
| 13> H          2.25200        0.24080       -4.49879
| 14> H          3.46428        1.64078       -5.13639
| 15> H          4.83447        1.31375       -6.22465
| 16> H         -0.17658       -0.62881       -4.85045
| 17> H          0.56384       -1.39374       -3.46490
| 18> H         -0.28102       -2.36136       -4.64938
| 19> *
| 20>
| 21> %MaxCore 64000
| 22>
| 23> %pal nprocs 4
| 24> end
| 25>
| 26> %scf
| 27>   MaxIter 150
| 28> end
| 29>
| 30>
| 31>                          ****END OF INPUT****

CARTESIAN COORDINATES (ANGSTROEM)
---------------------------------
  C      1.635560   -1.670400   -5.292110
  C      0.338480   -1.500910   -4.505400
  N      2.484510   -0.507410   -5.140390
  H      1.398340   -1.829240   -6.352590
  H      2.155860   -2.565400   -4.932090
  C      3.451150   -0.149530   -5.952590
  N      3.922670    1.089560   -5.850710
  C      3.966160   -1.006180   -6.867880
  H      3.521390   -1.906470   -6.995270
  H      4.444820   -0.623470   -7.670350
  H      2.252000    0.240800   -4.498790
  H      3.464280    1.640780   -5.136390
  H      4.834470    1.313750   -6.224650
  H     -0.176580   -0.628810   -4.850450
  H      0.563840   -1.393740   -3.464900
  H     -0.281020   -2.361360   -4.649380

 Total Charge           Charge          ....    0
 Multiplicity           Mult            ....    1
 Number of Electrons    NEL             ....   48
 Basis Dimension        Dim             ....  134

ORBITAL ENERGIES
----------------

  NO   OCC          E(Eh)            E(eV)
   0   2.0000     -14.113209      -384.0399
   1   2.0000     -14.109580      -383.9412
   2   2.0000     -10.032061      -272.9863
   3   2.0000     -10.027593      -272.8647
   4   2.0000      -9.998278      -272.0670
   5   2.0000      -9.903165      -269.4788
   6   2.0000      -0.894862       -24.3504
   7   2.0000      -0.810177       -22.0460
   8   2.0000      -0.698192       -18.9988
   9   2.0000      -0.632374       -17.2078
  10   2.0000      -0.586211       -15.9516
  11   2.0000      -0.511668       -13.9232
  12   2.0000      -0.481026       -13.0894
  13   2.0000      -0.471805       -12.8385
  14   2.0000      -0.426873       -11.6158
  15   2.0000      -0.420534       -11.4433
  16   2.0000      -0.356452        -9.6995
  17   2.0000      -0.350706        -9.5432
  18   2.0000      -0.344474        -9.3736
  19   2.0000      -0.325240        -8.8502
  20   2.0000      -0.317545        -8.6408
  21   2.0000      -0.304883        -8.2963
  22   2.0000      -0.204049        -5.5525
  23   2.0000      -0.121670        -3.3108
  24   0.0000       0.028242         0.7685
  25   0.0000       0.055957         1.5227
  26   0.0000       0.069428         1.8892
  27   0.0000       0.081012         2.2044
  28   0.0000       0.105454         2.8696

MULLIKEN ATOMIC CHARGES
-----------------------
   0 C :    0.110933
   1 C :   -0.015705
   2 N :   -0.159284
   3 H :    0.026194
   4 H :    0.020864
   5 C :   -0.048942
   6 N :   -0.079353
   7 C :   -0.127224
   8 H :   -0.047470
   9 H :   -0.050306
  10 H :    0.090577
  11 H :    0.092795
  12 H :    0.130194
  13 H :    0.017175
  14 H :    0.016837
  15 H :    0.022716
Sum of atomic charges:    0.0000000

LOEWDIN ATOMIC CHARGES
----------------------
   0 C :    0.051138
   1 C :   -0.044267
   2 N :   -0.018603
   3 H :    0.018324
   4 H :    0.014601
   5 C :    0.015828
   6 N :   -0.012761
   7 C :   -0.261317
   8 H :   -0.013223
   9 H :   -0.012630
  10 H :    0.058886
  11 H :    0.058352
  12 H :    0.084116
  13 H :    0.017255
  14 H :    0.017269
  15 H :    0.027030

  Mayer bond orders larger than 0.100000
B(  0-C ,  1-C ) :   1.1023 B(  0-C ,  2-N ) :   0.9932 B(  0-C ,  3-H ) :   0.9356
B(  0-C ,  4-H ) :   0.9441 B(  1-C , 13-H ) :   0.9704 B(  1-C , 14-H ) :   0.9686
B(  1-C , 15-H ) :   0.9637 B(  2-N ,  5-C ) :   1.2078 B(  2-N , 10-H ) :   0.9278
B(  5-C ,  6-N ) :   1.2308 B(  5-C ,  7-C ) :   1.7038 B(  6-N , 11-H ) :   0.9483
B(  6-N , 12-H ) :   0.9426 B(  7-C ,  8-H ) :   0.9388 B(  7-C ,  9-H ) :   0.9443

Dispersion correction           -0.015294532
FINAL SINGLE POINT ENERGY      -267.757274142817

DIPOLE MOMENT
-------------
                                X             Y             Z
Electronic contribution:      3.07038       2.72098      -0.15639
Nuclear contribution   :     -3.68222      -1.93858       0.98231
                        -----------------------------------------
Total Dipole Moment    :     -0.61185       0.78240       0.82592
                        -----------------------------------------
Magnitude (a.u.)       :      1.29176
Magnitude (Debye)      :      3.28340

Rotational constants in cm-1:     0.275407     0.068040     0.056255
Rotational constants in MHz :  8256.498401  2039.796466  1686.484500

                             ****ORCA TERMINATED NORMALLY****
TOTAL RUN TIME: 0 days 0 hours 0 minutes 10 seconds 862 msec
