                         Program Version 5.0.0 -  RELEASE  -
|  1> !TPSS D3BJ RIJCOSX def2-TZVP def2/J TightSCF xyzfile
|  2>
|  3> *xyzfile 0 1 D1.xyz
|  4>
|  5> %MaxCore 64000
|  6>
|  7> %pal nprocs 18
|  8> end
|  9>
| 10> %scf
| 11>   MaxIter 150
| 12> end
| 13>
| 14>
| 15>                          ****END OF INPUT****

CARTESIAN COORDINATES (ANGSTROEM)
---------------------------------
  C      1.635557   -1.670396   -5.292109
  C      0.338484   -1.500907   -4.505398
  C      2.484511   -0.507410   -5.140392
  C     -0.684873   -0.528026   -5.099889
  C     -0.290406    0.951335   -5.153423
  H      0.607991    1.070692   -5.764412
  C     -0.055168    1.619420   -3.788577
  H     -1.080912    1.483775   -5.689436
  H      0.045006    0.862302   -3.003015
  H     -0.922936    2.230329   -3.517028
  C      1.223022    2.469865   -3.756911
  H      1.114701    3.258074   -4.532999
  H      1.237732    3.011242   -2.792157
  F      2.353815    1.712032   -3.934477
  H      1.398337   -1.829239   -6.352591
  H      2.155864   -2.565398   -4.932091
  C      3.451149   -0.149530   -5.952589
  N      3.922667    1.089559   -5.850711
  N      3.966162   -1.006183   -6.867880
  H      3.521391   -1.906467   -6.995270
  H      4.444824   -0.623472   -7.670348
  H      2.251995    0.240804   -4.498792
  H      3.464277    1.640782   -5.136392
  H      4.834470    1.313745   -6.224653
  H     -0.937999   -0.869056   -6.110838
  H     -1.604638   -0.622496   -4.513132
  H      0.594887   -1.211578   -3.482312
  H     -0.126530   -2.487656   -4.434176

 Total Charge           Charge          ....    0
 Multiplicity           Mult            ....    1
 Number of Electrons    NEL             ....   88
 Basis Dimension        Dim             ....  443

ORBITAL ENERGIES
----------------

  NO   OCC          E(Eh)            E(eV)
   0   2.0000     -24.422529      -664.5708
   1   2.0000     -14.085718      -383.2919
   2   2.0000     -14.070724      -382.8839
   3   2.0000     -10.070137      -274.0224
   4   2.0000      -9.996956      -272.0310
   5   2.0000      -9.990086      -271.8441
   6   2.0000      -9.973037      -271.3801
   7   2.0000      -9.970092      -271.3000
   8   2.0000      -9.960383      -271.0358
   9   2.0000      -9.950270      -270.7606
  10   2.0000      -9.876993      -268.7666
  11   2.0000      -1.156407       -31.4674
  12   2.0000      -0.873654       -23.7733
  13   2.0000      -0.793296       -21.5867
  14   2.0000      -0.748861       -20.3775
  15   2.0000      -0.716556       -19.4985
  16   2.0000      -0.669542       -18.2192
  17   2.0000      -0.635698       -17.2982
  18   2.0000      -0.587462       -15.9856
  19   2.0000      -0.556292       -15.1375
  20   2.0000      -0.527741       -14.3606
  21   2.0000      -0.506578       -13.7847
  22   2.0000      -0.484276       -13.1778
  23   2.0000      -0.474278       -12.9057
  24   2.0000      -0.456215       -12.4142
  25   2.0000      -0.453267       -12.3340
  26   2.0000      -0.435031       -11.8378
  27   2.0000      -0.413422       -11.2498
  28   2.0000      -0.395556       -10.7636
  29   2.0000      -0.394774       -10.7424
  30   2.0000      -0.373108       -10.1528
  31   2.0000      -0.358197        -9.7470
  32   2.0000      -0.346413        -9.4264
  33   2.0000      -0.334410        -9.0998
  34   2.0000      -0.320627        -8.7247
  35   2.0000      -0.315815        -8.5938
  36   2.0000      -0.310125        -8.4389
  37   2.0000      -0.296618        -8.0714
  38   2.0000      -0.280492        -7.6326
  39   2.0000      -0.272567        -7.4169
  40   2.0000      -0.265063        -7.2127
  41   2.0000      -0.252562        -6.8726
  42   2.0000      -0.205630        -5.5955
  43   2.0000      -0.114379        -3.1124
  44   0.0000       0.022214         0.6045
  45   0.0000       0.029608         0.8057
  46   0.0000       0.040985         1.1152
  47   0.0000       0.052690         1.4338
  48   0.0000       0.056992         1.5508

MULLIKEN ATOMIC CHARGES
-----------------------
   0 C :   -0.114478
   1 C :   -0.189815
   2 C :   -0.397269
   3 C :   -0.139177
   4 C :   -0.232259
   5 H :    0.149279
   6 C :   -0.168798
   7 H :    0.078385
   8 H :    0.098792
   9 H :    0.102689
  10 C :    0.001138
  11 H :    0.094134
  12 H :    0.103261
  13 F :   -0.210236
  14 H :    0.043341
  15 H :    0.066901
  16 C :    0.295671
  17 N :   -0.492950
  18 N :   -0.500552
  19 H :    0.240811
  20 H :    0.212148
  21 H :    0.182811
  22 H :    0.247206
  23 H :    0.208849
  24 H :    0.076283
  25 H :    0.079882
  26 H :    0.084981
  27 H :    0.078970
Sum of atomic charges:   -0.0000000

LOEWDIN ATOMIC CHARGES
----------------------
   0 C :   -0.281317
   1 C :   -0.258461
   2 C :   -0.285665
   3 C :   -0.261467
   4 C :   -0.266259
   5 H :    0.144285
   6 C :   -0.265292
   7 H :    0.128897
   8 H :    0.138255
   9 H :    0.139058
  10 C :   -0.342816
  11 H :    0.122790
  12 H :    0.121120
  13 F :    0.154295
  14 H :    0.125818
  15 H :    0.128647
  16 C :   -0.470798
  17 N :   -0.023089
  18 N :   -0.026019
  19 H :    0.169602
  20 H :    0.152685
  21 H :    0.116673
  22 H :    0.159405
  23 H :    0.152718
  24 H :    0.134021
  25 H :    0.131953
  26 H :    0.130893
  27 H :    0.130066

  Mayer bond orders larger than 0.100000
B(  0-C ,  1-C ) :   1.0375 B(  0-C ,  2-C ) :   1.0180 B(  0-C , 14-H ) :   0.9304
B(  0-C , 15-H ) :   0.9313 B(  1-C ,  3-C ) :   1.0431 B(  1-C , 26-H ) :   0.9608
B(  1-C , 27-H ) :   0.9476 B(  2-C , 16-C ) :   1.6299 B(  2-C , 21-H ) :   0.9805
B(  3-C ,  4-C ) :   1.0079 B(  3-C , 24-H ) :   0.9382 B(  3-C , 25-H ) :   0.9482
B(  4-C ,  5-H ) :   0.9696 B(  4-C ,  6-C ) :   0.9930 B(  4-C ,  7-H ) :   0.9423
B(  6-C ,  8-H ) :   0.9475 B(  6-C ,  9-H ) :   0.9334 B(  6-C , 10-C ) :   1.0286
B( 10-C , 11-H ) :   0.9628 B( 10-C , 12-H ) :   0.9529 B( 10-C , 13-F ) :   0.9512
B( 16-C , 17-N ) :   1.2025 B( 16-C , 18-N ) :   1.1492 B( 17-N , 22-H ) :   0.8756
B( 17-N , 23-H ) :   0.9186 B( 18-N , 19-H ) :   0.9165 B( 18-N , 20-H ) :   0.9158

Dispersion correction           -0.036033147
FINAL SINGLE POINT ENERGY      -524.665503717489

DIPOLE MOMENT
-------------
                                X             Y             Z
Electronic contribution:      7.94208       3.84691       1.09473
Nuclear contribution   :     -8.11591      -2.99033      -1.35383
                        -----------------------------------------
Total Dipole Moment    :     -0.17382       0.85659      -0.25910
                        -----------------------------------------
Magnitude (a.u.)       :      0.91164
Magnitude (Debye)      :      2.31721

Rotational constants in cm-1:     0.043530     0.028984     0.019589
Rotational constants in MHz :  1305.007140   868.923804   587.262638

                             ****ORCA TERMINATED NORMALLY****
TOTAL RUN TIME: 0 days 0 hours 0 minutes 20 seconds 486 msec
