                         Program Version 5.0.0 -  RELEASE  -
|  1> !TPSS D3BJ RIJCOSX def2-TZVP def2/J TightSCF xyzfile
|  2>
|  3> *xyzfile 0 1 D3.xyz
|  4>
|  5> %MaxCore 64000
|  6>
|  7> %pal nprocs 18
|  8> end
|  9>
| 10> %scf
| 11>   MaxIter 150
| 12> end
| 13>
| 14>
| 15>                          ****END OF INPUT****

CARTESIAN COORDINATES (ANGSTROEM)
---------------------------------
  C      1.635557   -1.670396   -5.292109
  C      0.338484   -1.500907   -4.505398
  N      2.484511   -0.507410   -5.140392
  C     -0.684873   -0.528026   -5.099889
  C     -0.290406    0.951335   -5.153423
  H      0.607991    1.070692   -5.764412
  C     -0.055168    1.619420   -3.788577
  H     -1.080912    1.483775   -5.689436
  H      0.045006    0.862302   -3.003015
  H     -0.922936    2.230329   -3.517028
  C      1.223022    2.469865   -3.756911
  H      1.114701    3.258074   -4.532999
  H      1.237732    3.011242   -2.792157
  F      2.353815    1.712032   -3.934477
  H      1.398337   -1.829239   -6.352591
  H      2.155864   -2.565398   -4.932091
  C      3.451149   -0.149530   -5.952589
  N      3.922667    1.089559   -5.850711
  C      3.966162   -1.006183   -6.867880
  H      3.521391   -1.906467   -6.995270
  H      4.444824   -0.623472   -7.670348
  H      2.251995    0.240804   -4.498792
  H      3.464277    1.640782   -5.136392
  H      4.834470    1.313745   -6.224653
  H     -0.937999   -0.869056   -6.110838
  H     -1.604638   -0.622496   -4.513132
  H      0.594887   -1.211578   -3.482312
  H     -0.126530   -2.487656   -4.434176

 Total Charge           Charge          ....    0
 Multiplicity           Mult            ....    1
 Number of Electrons    NEL             ....   88
 Basis Dimension        Dim             ....  443

ORBITAL ENERGIES
----------------

  NO   OCC          E(Eh)            E(eV)
   0   2.0000     -24.452797      -665.3944
   1   2.0000     -14.076860      -383.0508
   2   2.0000     -14.073121      -382.9491
   3   2.0000     -10.089664      -274.5537
   4   2.0000     -10.009218      -272.3647
   5   2.0000     -10.006781      -272.2983
   6   2.0000     -10.000747      -272.1342
   7   2.0000      -9.992489      -271.9094
   8   2.0000      -9.989348      -271.8240
   9   2.0000      -9.986362      -271.7427
  10   2.0000      -9.877107      -268.7698
  11   2.0000      -1.185139       -32.2493
  12   2.0000      -0.890237       -24.2246
  13   2.0000      -0.807602       -21.9760
  14   2.0000      -0.765283       -20.8244
  15   2.0000      -0.723732       -19.6937
  16   2.0000      -0.674957       -18.3665
  17   2.0000      -0.637547       -17.3485
  18   2.0000      -0.608449       -16.5567
  19   2.0000      -0.584271       -15.8988
  20   2.0000      -0.532070       -14.4784
  21   2.0000      -0.519960       -14.1488
  22   2.0000      -0.509158       -13.8549
  23   2.0000      -0.481227       -13.0949
  24   2.0000      -0.479396       -13.0450
  25   2.0000      -0.450631       -12.2623
  26   2.0000      -0.444560       -12.0971
  27   2.0000      -0.430897       -11.7253
  28   2.0000      -0.420233       -11.4351
  29   2.0000      -0.394195       -10.7266
  30   2.0000      -0.385560       -10.4916
  31   2.0000      -0.374900       -10.2016
  32   2.0000      -0.360551        -9.8111
  33   2.0000      -0.338917        -9.2224
  34   2.0000      -0.336014        -9.1434
  35   2.0000      -0.324348        -8.8260
  36   2.0000      -0.319867        -8.7040
  37   2.0000      -0.313894        -8.5415
  38   2.0000      -0.304501        -8.2859
  39   2.0000      -0.297127        -8.0852
  40   2.0000      -0.289067        -7.8659
  41   2.0000      -0.283813        -7.7229
  42   2.0000      -0.191616        -5.2141
  43   2.0000      -0.116705        -3.1757
  44   0.0000       0.012169         0.3311
  45   0.0000       0.027826         0.7572
  46   0.0000       0.031692         0.8624
  47   0.0000       0.039683         1.0798
  48   0.0000       0.048161         1.3105

MULLIKEN ATOMIC CHARGES
-----------------------
   0 C :   -0.053150
   1 C :   -0.206328
   2 N :   -0.302268
   3 C :   -0.135996
   4 C :   -0.261840
   5 H :    0.144126
   6 C :   -0.184126
   7 H :    0.093007
   8 H :    0.106443
   9 H :    0.112160
  10 C :    0.006082
  11 H :    0.107954
  12 H :    0.113910
  13 F :   -0.226516
  14 H :    0.087229
  15 H :    0.100162
  16 C :    0.312342
  17 N :   -0.500015
  18 C :   -0.558830
  19 H :    0.089684
  20 H :    0.089566
  21 H :    0.219320
  22 H :    0.234913
  23 H :    0.238769
  24 H :    0.089379
  25 H :    0.088545
  26 H :    0.095232
  27 H :    0.100247
Sum of atomic charges:   -0.0000000

LOEWDIN ATOMIC CHARGES
----------------------
   0 C :   -0.272288
   1 C :   -0.267235
   2 N :    0.125389
   3 C :   -0.262180
   4 C :   -0.268716
   5 H :    0.141523
   6 C :   -0.266782
   7 H :    0.133626
   8 H :    0.138326
   9 H :    0.142801
  10 C :   -0.338568
  11 H :    0.127213
  12 H :    0.125228
  13 F :    0.149147
  14 H :    0.132103
  15 H :    0.127555
  16 C :   -0.483862
  17 N :   -0.017981
  18 C :   -0.366524
  19 H :    0.091863
  20 H :    0.089943
  21 H :    0.159486
  22 H :    0.146026
  23 H :    0.171284
  24 H :    0.138002
  25 H :    0.134816
  26 H :    0.130134
  27 H :    0.139672

  Mayer bond orders larger than 0.100000
B(  0-C ,  1-C ) :   1.0162 B(  0-C ,  2-N ) :   0.9704 B(  0-C , 14-H ) :   0.9423
B(  0-C , 15-H ) :   0.9498 B(  1-C ,  3-C ) :   1.0306 B(  1-C , 26-H ) :   0.9599
B(  1-C , 27-H ) :   0.9458 B(  2-N , 16-C ) :   1.2012 B(  2-N , 21-H ) :   0.8811
B(  3-C ,  4-C ) :   1.0155 B(  3-C , 24-H ) :   0.9389 B(  3-C , 25-H ) :   0.9470
B(  4-C ,  5-H ) :   0.9637 B(  4-C ,  6-C ) :   0.9822 B(  4-C ,  7-H ) :   0.9423
B(  6-C ,  8-H ) :   0.9528 B(  6-C ,  9-H ) :   0.9328 B(  6-C , 10-C ) :   1.0274
B( 10-C , 11-H ) :   0.9648 B( 10-C , 12-H ) :   0.9540 B( 10-C , 13-F ) :   0.9146
B( 16-C , 17-N ) :   1.1577 B( 16-C , 18-C ) :   1.6256 B( 17-N , 22-H ) :   0.8835
B( 17-N , 23-H ) :   0.9157 B( 18-C , 19-H ) :   0.9942 B( 18-C , 20-H ) :   0.9883

Dispersion correction           -0.035699327
FINAL SINGLE POINT ENERGY      -524.670225092979

DIPOLE MOMENT
-------------
                                X             Y             Z
Electronic contribution:      6.31380       4.45909       2.80539
Nuclear contribution   :     -7.84660      -3.08098      -1.66782
                        -----------------------------------------
Total Dipole Moment    :     -1.53281       1.37810       1.13756
                        -----------------------------------------
Magnitude (a.u.)       :      2.35430
Magnitude (Debye)      :      5.98415

Rotational constants in cm-1:     0.043547     0.029898     0.020008
Rotational constants in MHz :  1305.520367   896.323854   599.829375

                             ****ORCA TERMINATED NORMALLY****
TOTAL RUN TIME: 0 days 0 hours 0 minutes 19 seconds 779 msec
