                         Program Version 5.0.0 -  RELEASE  -
|  1> !TPSS D3BJ RIJCOSX def2-SVP def2/J TightSCF
|  2> *xyz -1 1
|  3> C         -5.57236       -5.80780       -0.81644
|  4> S         -6.90318       -4.61903       -0.52846
|  5> O         -8.11485       -5.25093       -0.95701
|  6> O         -6.53271       -3.42684       -1.31485
|  7> O         -6.86563       -4.29496        0.91412
|  8> C         -4.45780       -5.94187        0.22919
|  9> H         -5.17735       -5.54257       -1.79771
| 10> H         -6.07420       -6.76889       -0.92127
| 11> H         -3.75515       -6.68239       -0.09144
| 12> H         -4.88182       -6.23486        1.16689
| 13> H         -3.95908       -5.00189        0.34143
| 14> *
| 15> %MaxCore 64000
| 16>
| 17> %pal nprocs 4
| 18> end
| 19>
| 20> %scf
| 21>   MaxIter 150
| 22> end
| 23>
| 24>                          ****END OF INPUT****

CARTESIAN COORDINATES (ANGSTROEM)
---------------------------------
  C     -5.572360   -5.807800   -0.816440
  S     -6.903180   -4.619030   -0.528460
  O     -8.114850   -5.250930   -0.957010
  O     -6.532710   -3.426840   -1.314850
  O     -6.865630   -4.294960    0.914120
  C     -4.457800   -5.941870    0.229190
  H     -5.177350   -5.542570   -1.797710
  H     -6.074200   -6.768890   -0.921270
  H     -3.755150   -6.682390   -0.091440
  H     -4.881820   -6.234860    1.166890
  H     -3.959080   -5.001890    0.341430

 Total Charge           Charge          ....   -1
 Multiplicity           Mult            ....    1
 Number of Electrons    NEL             ....   58
 Basis Dimension        Dim             ....  113

ORBITAL ENERGIES
----------------

  NO   OCC          E(Eh)            E(eV)
   0   2.0000     -88.322747     -2403.3841
   1   2.0000     -18.644112      -507.3321
   2   2.0000     -18.630110      -506.9511
   3   2.0000     -18.627534      -506.8810
   4   2.0000      -9.854192      -268.1462
   5   2.0000      -9.842735      -267.8344
   6   2.0000      -7.689752      -209.2488
   7   2.0000      -5.675188      -154.4297
   8   2.0000      -5.674988      -154.4243
   9   2.0000      -5.674705      -154.4166
  10   2.0000      -0.818945       -22.2846
  11   2.0000      -0.684739       -18.6327
  12   2.0000      -0.660759       -17.9802
  13   2.0000      -0.556781       -15.1508
  14   2.0000      -0.440575       -11.9886
  15   2.0000      -0.308580        -8.3969
  16   2.0000      -0.264952        -7.2097
  17   2.0000      -0.245851        -6.6900
  18   2.0000      -0.213741        -5.8162
  19   2.0000      -0.192918        -5.2496
  20   2.0000      -0.187549        -5.1035
  21   2.0000      -0.165869        -4.5135
  22   2.0000      -0.163033        -4.4364
  23   2.0000      -0.068762        -1.8711
  24   2.0000      -0.067467        -1.8359
  25   2.0000      -0.042551        -1.1579
  26   2.0000      -0.031085        -0.8459
  27   2.0000      -0.021593        -0.5876
  28   2.0000       0.015042         0.4093
  29   0.0000       0.190198         5.1756
  30   0.0000       0.244543         6.6543
  31   0.0000       0.246510         6.7079
  32   0.0000       0.252707         6.8765
  33   0.0000       0.272841         7.4244

MULLIKEN ATOMIC CHARGES
-----------------------
   0 C :   -0.099081
   1 S :    0.814499
   2 O :   -0.543690
   3 O :   -0.592475
   4 O :   -0.585726
   5 C :    0.045574
   6 H :    0.000204
   7 H :   -0.007362
   8 H :   -0.037814
   9 H :    0.002317
  10 H :    0.003555
Sum of atomic charges:   -1.0000000

LOEWDIN ATOMIC CHARGES
----------------------
   0 C :   -0.188017
   1 S :    1.059499
   2 O :   -0.579895
   3 O :   -0.629645
   4 O :   -0.626552
   5 C :   -0.058710
   6 H :    0.003471
   7 H :   -0.000049
   8 H :   -0.003411
   9 H :    0.011134
  10 H :    0.012174

  Mayer bond orders larger than 0.100000
B(  0-C ,  1-S ) :   0.8505 B(  0-C ,  5-C ) :   1.0771 B(  0-C ,  6-H ) :   0.9395
B(  0-C ,  7-H ) :   0.9395 B(  1-S ,  2-O ) :   1.6453 B(  1-S ,  3-O ) :   1.5958
B(  1-S ,  4-O ) :   1.6029 B(  5-C ,  8-H ) :   0.9529 B(  5-C ,  9-H ) :   0.9646
B(  5-C , 10-H ) :   0.9672

Dispersion correction           -0.011938165
FINAL SINGLE POINT ENERGY      -702.788210067858

DIPOLE MOMENT
-------------
                                X             Y             Z
Electronic contribution:     -6.87556       4.48011      -0.90130
Nuclear contribution   :      8.13140      -5.68016       0.80206
                        -----------------------------------------
Total Dipole Moment    :      1.25584      -1.20005      -0.09924
                        -----------------------------------------
Magnitude (a.u.)       :      1.73986
Magnitude (Debye)      :      4.42237

Rotational constants in cm-1:     0.162101     0.080498     0.079099
Rotational constants in MHz :  4859.669771  2413.267251  2371.338602

                             ****ORCA TERMINATED NORMALLY****
TOTAL RUN TIME: 0 days 0 hours 0 minutes 9 seconds 53 msec
