                         Program Version 5.0.0 -  RELEASE  -
|  1> !TPSS D3BJ RIJCOSX def2-SVP def2/J TightSCF
|  2> *xyz 1 1
|  3> C         -4.38262       -1.67089        1.21620
|  4> N         -5.76354       -1.91517        0.70501
|  5> C         -3.28173       -2.19127        0.29436
|  6> H         -5.84081       -2.11520       -0.30065
|  7> H         -6.40882       -1.14866        0.93612
|  8> H         -6.17478       -2.79061        1.05143
|  9> H         -4.32862       -2.13922        2.19810
| 10> H         -4.26158       -0.59740        1.35725
| 11> H         -3.36057       -1.71407       -0.66008
| 12> H         -3.38775       -3.24919        0.17403
| 13> H         -2.32559       -1.97514        0.72329
| 14> *
| 15> %MaxCore 64000
| 16>
| 17> %pal nprocs 4
| 18> end
| 19>
| 20> %scf
| 21>   MaxIter 150
| 22> end
| 23>
| 24>                          ****END OF INPUT****

CARTESIAN COORDINATES (ANGSTROEM)
---------------------------------
  C     -4.382620   -1.670890    1.216200
  N     -5.763540   -1.915170    0.705010
  C     -3.281730   -2.191270    0.294360
  H     -5.840810   -2.115200   -0.300650
  H     -6.408820   -1.148660    0.936120
  H     -6.174780   -2.790610    1.051430
  H     -4.328620   -2.139220    2.198100
  H     -4.261580   -0.597400    1.357250
  H     -3.360570   -1.714070   -0.660080
  H     -3.387750   -3.249190    0.174030
  H     -2.325590   -1.975140    0.723290

 Total Charge           Charge          ....    1
 Multiplicity           Mult            ....    1
 Number of Electrons    NEL             ....   26
 Basis Dimension        Dim             ....   82

ORBITAL ENERGIES
----------------

  NO   OCC          E(Eh)            E(eV)
   0   2.0000     -14.455327      -393.3494
   1   2.0000     -10.254842      -279.0484
   2   2.0000     -10.178409      -276.9686
   3   2.0000      -1.148381       -31.2490
   4   2.0000      -0.906906       -24.6782
   5   2.0000      -0.797716       -21.7069
   6   2.0000      -0.753931       -20.5155
   7   2.0000      -0.733317       -19.9546
   8   2.0000      -0.662024       -18.0146
   9   2.0000      -0.600833       -16.3495
  10   2.0000      -0.545265       -14.8374
  11   2.0000      -0.529349       -14.4043
  12   2.0000      -0.512962       -13.9584
  13   0.0000      -0.197700        -5.3797
  14   0.0000      -0.147591        -4.0161
  15   0.0000      -0.141660        -3.8548
  16   0.0000      -0.105028        -2.8580
  17   0.0000      -0.066243        -1.8026

MULLIKEN ATOMIC CHARGES
-----------------------
   0 C :   -0.031238
   1 N :    0.028510
   2 C :   -0.024443
   3 H :    0.194813
   4 H :    0.214663
   5 H :    0.201620
   6 H :    0.099745
   7 H :    0.100249
   8 H :    0.062798
   9 H :    0.059205
  10 H :    0.094077
Sum of atomic charges:    1.0000000

LOEWDIN ATOMIC CHARGES
----------------------
   0 C :    0.057504
   1 N :    0.295208
   2 C :   -0.026281
   3 H :    0.140726
   4 H :    0.147566
   5 H :    0.144654
   6 H :    0.052545
   7 H :    0.052935
   8 H :    0.037391
   9 H :    0.036093
  10 H :    0.061661

  Mayer bond orders larger than 0.100000
B(  0-C ,  1-N ) :   0.9092 B(  0-C ,  2-C ) :   1.1069 B(  0-C ,  6-H ) :   0.9522
B(  0-C ,  7-H ) :   0.9541 B(  1-N ,  3-H ) :   0.9356 B(  1-N ,  4-H ) :   0.9349
B(  1-N ,  5-H ) :   0.9380 B(  2-C ,  8-H ) :   0.9658 B(  2-C ,  9-H ) :   0.9703
B(  2-C , 10-H ) :   0.9554

Dispersion correction           -0.007377888
FINAL SINGLE POINT ENERGY      -135.459633326504

DIPOLE MOMENT
-------------
                                X             Y             Z
Electronic contribution:     -1.84643       0.23970       0.30076
Nuclear contribution   :      0.19437      -0.25358      -0.32106
                        -----------------------------------------
Total Dipole Moment    :     -1.65207      -0.01388      -0.02031
                        -----------------------------------------
Magnitude (a.u.)       :      1.65225
Magnitude (Debye)      :      4.19968

Rotational constants in cm-1:     1.030014     0.272489     0.242697
Rotational constants in MHz : 30879.030706  8169.007780  7275.865152

                             ****ORCA TERMINATED NORMALLY****
TOTAL RUN TIME: 0 days 0 hours 0 minutes 7 seconds 317 msec
