                         Program Version 5.0.0 -  RELEASE  -
|  1> !TPSS D3BJ RIJCOSX def2-TZVP def2/J TightSCF xyzfile
|  2>
|  3> *xyzfile 0 1 B.xyz
|  4>
|  5> %MaxCore 64000
|  6>
|  7> %pal nprocs 18
|  8> end
|  9>
| 10> %scf
| 11>   MaxIter 150
| 12> end
| 13>
| 14>
| 15>                          ****END OF INPUT****

CARTESIAN COORDINATES (ANGSTROEM)
---------------------------------
  C     -4.382623   -1.670889    1.216201
  N     -5.763539   -1.915170    0.705012
  C     -3.281728   -2.191272    0.294361
  C     -5.572364   -5.807798   -0.816445
  S     -6.903179   -4.619033   -0.528458
  H     -5.840812   -2.115205   -0.300646
  H     -6.408823   -1.148656    0.936124
  H     -6.174781   -2.790606    1.051433
  O     -8.114853   -5.250932   -0.957007
  O     -6.532715   -3.426838   -1.314848
  H     -4.328618   -2.139223    2.198103
  H     -4.261583   -0.597399    1.357248
  O     -6.865632   -4.294957    0.914118
  C     -3.474641   -3.605898   -0.259608
  H     -2.354548   -2.127602    0.871433
  H     -3.166611   -1.499693   -0.545037
  C     -3.827078   -4.661097    0.786174
  H     -2.560559   -3.889391   -0.788050
  H     -4.255932   -3.570040   -1.019300
  C     -4.457800   -5.941875    0.229195
  H     -5.177347   -5.542575   -1.797714
  H     -6.074202   -6.768894   -0.921272
  H     -4.530506   -4.253640    1.511979
  H     -2.933400   -4.932302    1.356825
  H     -3.681064   -6.562236   -0.229885
  H     -4.843942   -6.512728    1.075805

 Total Charge           Charge          ....    0
 Multiplicity           Mult            ....    1
 Number of Electrons    NEL             ....   98
 Basis Dimension        Dim             ....  437

ORBITAL ENERGIES
----------------

  NO   OCC          E(Eh)            E(eV)
   0   2.0000     -88.493985     -2408.0438
   1   2.0000     -18.835663      -512.5444
   2   2.0000     -18.831824      -512.4400
   3   2.0000     -18.819594      -512.1072
   4   2.0000     -14.204684      -386.5291
   5   2.0000     -10.071707      -274.0651
   6   2.0000     -10.019340      -272.6401
   7   2.0000      -9.993646      -271.9409
   8   2.0000      -9.987739      -271.7802
   9   2.0000      -9.987424      -271.7716
  10   2.0000      -9.987305      -271.7684
  11   2.0000      -7.843263      -213.4260
  12   2.0000      -5.823036      -158.4529
  13   2.0000      -5.822150      -158.4288
  14   2.0000      -5.821081      -158.3997
  15   2.0000      -1.018434       -27.7130
  16   2.0000      -0.944275       -25.6950
  17   2.0000      -0.888724       -24.1834
  18   2.0000      -0.885742       -24.1023
  19   2.0000      -0.773158       -21.0387
  20   2.0000      -0.733806       -19.9679
  21   2.0000      -0.686502       -18.6807
  22   2.0000      -0.638033       -17.3618
  23   2.0000      -0.586829       -15.9684
  24   2.0000      -0.553950       -15.0738
  25   2.0000      -0.538776       -14.6608
  26   2.0000      -0.527683       -14.3590
  27   2.0000      -0.489520       -13.3205
  28   2.0000      -0.467705       -12.7269
  29   2.0000      -0.445618       -12.1259
  30   2.0000      -0.440464       -11.9856
  31   2.0000      -0.423319       -11.5191
  32   2.0000      -0.404502       -11.0071
  33   2.0000      -0.392481       -10.6799
  34   2.0000      -0.387078       -10.5329
  35   2.0000      -0.380415       -10.3516
  36   2.0000      -0.368979       -10.0404
  37   2.0000      -0.349355        -9.5064
  38   2.0000      -0.338508        -9.2113
  39   2.0000      -0.334039        -9.0896
  40   2.0000      -0.307700        -8.3729
  41   2.0000      -0.302834        -8.2405
  42   2.0000      -0.294239        -8.0066
  43   2.0000      -0.278570        -7.5803
  44   2.0000      -0.269575        -7.3355
  45   2.0000      -0.235919        -6.4197
  46   2.0000      -0.232429        -6.3247
  47   2.0000      -0.225955        -6.1486
  48   2.0000      -0.200211        -5.4480
  49   0.0000      -0.025366        -0.6902
  50   0.0000       0.015654         0.4260
  51   0.0000       0.026321         0.7162
  52   0.0000       0.029194         0.7944
  53   0.0000       0.043279         1.1777

MULLIKEN ATOMIC CHARGES
-----------------------
   0 C :   -0.211786
   1 N :   -0.256573
   2 C :   -0.126462
   3 C :   -0.306840
   4 S :    0.815781
   5 H :    0.290234
   6 H :    0.266792
   7 H :    0.282819
   8 O :   -0.453776
   9 O :   -0.568421
  10 H :    0.159206
  11 H :    0.138528
  12 O :   -0.556004
  13 C :   -0.269288
  14 H :    0.100541
  15 H :    0.112628
  16 C :   -0.240394
  17 H :    0.091833
  18 H :    0.159947
  19 C :   -0.085261
  20 H :    0.132686
  21 H :    0.136370
  22 H :    0.118656
  23 H :    0.083839
  24 H :    0.085090
  25 H :    0.099852
Sum of atomic charges:   -0.0000000

LOEWDIN ATOMIC CHARGES
----------------------
   0 C :   -0.272339
   1 N :    0.139813
   2 C :   -0.263230
   3 C :   -0.382759
   4 S :    0.422360
   5 H :    0.180648
   6 H :    0.193614
   7 H :    0.160457
   8 O :   -0.281930
   9 O :   -0.370518
  10 H :    0.137972
  11 H :    0.133643
  12 O :   -0.352668
  13 C :   -0.267153
  14 H :    0.144868
  15 H :    0.139659
  16 C :   -0.272148
  17 H :    0.137319
  18 H :    0.141578
  19 C :   -0.276574
  20 H :    0.130970
  21 H :    0.136158
  22 H :    0.131261
  23 H :    0.132063
  24 H :    0.136302
  25 H :    0.140633

  Mayer bond orders larger than 0.100000
B(  0-C ,  1-N ) :   0.9158 B(  0-C ,  2-C ) :   1.0215 B(  0-C , 10-H ) :   0.9629
B(  0-C , 11-H ) :   0.9522 B(  1-N ,  5-H ) :   0.8185 B(  1-N ,  6-H ) :   0.8991
B(  1-N ,  7-H ) :   0.7842 B(  2-C , 13-C ) :   1.0123 B(  2-C , 14-H ) :   0.9445
B(  2-C , 15-H ) :   0.9481 B(  3-C ,  4-S ) :   0.8973 B(  3-C , 19-C ) :   0.9997
B(  3-C , 20-H ) :   0.9481 B(  3-C , 21-H ) :   0.9363 B(  4-S ,  8-O ) :   1.9436
B(  4-S ,  9-O ) :   1.5913 B(  4-S , 12-O ) :   1.5568 B(  5-H ,  9-O ) :   0.1168
B(  7-H , 12-O ) :   0.1863 B( 13-C , 16-C ) :   1.0005 B( 13-C , 17-H ) :   0.9461
B( 13-C , 18-H ) :   0.9527 B( 16-C , 19-C ) :   1.0148 B( 16-C , 22-H ) :   0.9507
B( 16-C , 23-H ) :   0.9351 B( 19-C , 24-H ) :   0.9360 B( 19-C , 25-H ) :   0.9458

Dispersion correction           -0.038992160
FINAL SINGLE POINT ENERGY      -916.638241013649

DIPOLE MOMENT
-------------
                                X             Y             Z
Electronic contribution:    -13.66513      -2.93216      -3.70058
Nuclear contribution   :     16.18863       5.15617       4.97370
                        -----------------------------------------
Total Dipole Moment    :      2.52350       2.22401       1.27312
                        -----------------------------------------
Magnitude (a.u.)       :      3.59654
Magnitude (Debye)      :      9.14169

Rotational constants in cm-1:     0.048546     0.025588     0.020102
Rotational constants in MHz :  1455.374030   767.095631   602.645620

                             ****ORCA TERMINATED NORMALLY****
TOTAL RUN TIME: 0 days 0 hours 0 minutes 19 seconds 927 msec
