                         Program Version 5.0.0 -  RELEASE  -
|  1> !TPSS D3BJ RIJCOSX def2-SVP def2/J TightSCF
|  2> *xyz 0 1
|  3> C         -5.57236       -5.80780       -0.81644
|  4> S         -6.90318       -4.61903       -0.52846
|  5> F         -8.11485       -5.25093       -0.95701
|  6> O         -6.53271       -3.42684       -1.31485
|  7> O         -6.86563       -4.29496        0.91412
|  8> C         -4.45780       -5.94187        0.22919
|  9> H         -5.17735       -5.54257       -1.79771
| 10> H         -6.07420       -6.76889       -0.92127
| 11> H         -3.75515       -6.68239       -0.09144
| 12> H         -4.88182       -6.23486        1.16689
| 13> H         -3.95908       -5.00189        0.34143
| 14> *
| 15> %MaxCore 64000
| 16>
| 17> %pal nprocs 4
| 18> end
| 19>
| 20> %scf
| 21>   MaxIter 150
| 22> end
| 23>
| 24>                          ****END OF INPUT****

CARTESIAN COORDINATES (ANGSTROEM)
---------------------------------
  C     -5.572360   -5.807800   -0.816440
  S     -6.903180   -4.619030   -0.528460
  F     -8.114850   -5.250930   -0.957010
  O     -6.532710   -3.426840   -1.314850
  O     -6.865630   -4.294960    0.914120
  C     -4.457800   -5.941870    0.229190
  H     -5.177350   -5.542570   -1.797710
  H     -6.074200   -6.768890   -0.921270
  H     -3.755150   -6.682390   -0.091440
  H     -4.881820   -6.234860    1.166890
  H     -3.959080   -5.001890    0.341430

 Total Charge           Charge          ....    0
 Multiplicity           Mult            ....    1
 Number of Electrons    NEL             ....   58
 Basis Dimension        Dim             ....  113

ORBITAL ENERGIES
----------------

  NO   OCC          E(Eh)            E(eV)
   0   2.0000     -88.594514     -2410.7793
   1   2.0000     -24.528057      -667.4424
   2   2.0000     -18.881666      -513.7962
   3   2.0000     -18.880746      -513.7712
   4   2.0000     -10.055520      -273.6246
   5   2.0000     -10.022458      -272.7249
   6   2.0000      -7.964244      -216.7181
   7   2.0000      -5.954067      -162.0184
   8   2.0000      -5.947100      -161.8288
   9   2.0000      -5.945722      -161.7913
  10   2.0000      -1.290336       -35.1118
  11   2.0000      -1.007949       -27.4277
  12   2.0000      -0.909677       -24.7536
  13   2.0000      -0.754621       -20.5343
  14   2.0000      -0.671309       -18.2672
  15   2.0000      -0.618111       -16.8197
  16   2.0000      -0.529289       -14.4027
  17   2.0000      -0.522212       -14.2101
  18   2.0000      -0.493524       -13.4295
  19   2.0000      -0.447107       -12.1664
  20   2.0000      -0.423110       -11.5134
  21   2.0000      -0.391634       -10.6569
  22   2.0000      -0.376289       -10.2394
  23   2.0000      -0.363391        -9.8884
  24   2.0000      -0.350458        -9.5364
  25   2.0000      -0.321359        -8.7446
  26   2.0000      -0.270024        -7.3477
  27   2.0000      -0.264514        -7.1978
  28   2.0000      -0.240718        -6.5503
  29   0.0000       0.004572         0.1244
  30   0.0000       0.025884         0.7043
  31   0.0000       0.051869         1.4114
  32   0.0000       0.059119         1.6087
  33   0.0000       0.082041         2.2324

MULLIKEN ATOMIC CHARGES
-----------------------
   0 C :   -0.140509
   1 S :    0.888442
   2 F :   -0.144752
   3 O :   -0.448834
   4 O :   -0.447141
   5 C :    0.038896
   6 H :    0.076510
   7 H :    0.050825
   8 H :    0.035270
   9 H :    0.042149
  10 H :    0.049145
Sum of atomic charges:   -0.0000000

LOEWDIN ATOMIC CHARGES
----------------------
   0 C :   -0.150431
   1 S :    1.112242
   2 F :   -0.097950
   3 O :   -0.493807
   4 O :   -0.494735
   5 C :   -0.031501
   6 H :    0.037294
   7 H :    0.023991
   8 H :    0.032871
   9 H :    0.029646
  10 H :    0.032380

  Mayer bond orders larger than 0.100000
B(  0-C ,  1-S ) :   0.8839 B(  0-C ,  5-C ) :   1.0842 B(  0-C ,  6-H ) :   0.9315
B(  0-C ,  7-H ) :   0.9306 B(  1-S ,  2-F ) :   1.0404 B(  1-S ,  3-O ) :   1.7456
B(  1-S ,  4-O ) :   1.7510 B(  5-C ,  8-H ) :   0.9567 B(  5-C ,  9-H ) :   0.9669
B(  5-C , 10-H ) :   0.9714

Dispersion correction           -0.011411662
FINAL SINGLE POINT ENERGY      -727.291987676489

DIPOLE MOMENT
-------------
                                X             Y             Z
Electronic contribution:     -9.47438       3.67483      -1.83650
Nuclear contribution   :      9.80704      -5.24335       1.35017
                        -----------------------------------------
Total Dipole Moment    :      0.33266      -1.56852      -0.48633
                        -----------------------------------------
Magnitude (a.u.)       :      1.67554
Magnitude (Debye)      :      4.25889

Rotational constants in cm-1:     0.156316     0.078308     0.076228
Rotational constants in MHz :  4686.224999  2347.601204  2285.245115

                             ****ORCA TERMINATED NORMALLY****
TOTAL RUN TIME: 0 days 0 hours 0 minutes 10 seconds 191 msec
