                         Program Version 5.0.0 -  RELEASE  -
|  1> !TPSS D3BJ RIJCOSX def2-SVP def2/J TightSCF
|  2> *xyz 0 1
|  3> C         -4.38262       -1.67089        1.21620
|  4> C         -5.76354       -1.91517        0.70501
|  5> C         -3.28173       -2.19127        0.29436
|  6> H         -5.84081       -2.11520       -0.30065
|  7> H         -6.40882       -1.14866        0.93612
|  8> H         -6.17478       -2.79061        1.05143
|  9> H         -4.32862       -2.13922        2.19810
| 10> H         -4.26158       -0.59740        1.35725
| 11> H         -3.36057       -1.71407       -0.66008
| 12> H         -3.38775       -3.24919        0.17403
| 13> H         -2.32559       -1.97514        0.72329
| 14> *
| 15> %MaxCore 64000
| 16>
| 17> %pal nprocs 4
| 18> end
| 19>
| 20> %scf
| 21>   MaxIter 150
| 22> end
| 23>
| 24>                          ****END OF INPUT****

CARTESIAN COORDINATES (ANGSTROEM)
---------------------------------
  C     -4.382620   -1.670890    1.216200
  C     -5.763540   -1.915170    0.705010
  C     -3.281730   -2.191270    0.294360
  H     -5.840810   -2.115200   -0.300650
  H     -6.408820   -1.148660    0.936120
  H     -6.174780   -2.790610    1.051430
  H     -4.328620   -2.139220    2.198100
  H     -4.261580   -0.597400    1.357250
  H     -3.360570   -1.714070   -0.660080
  H     -3.387750   -3.249190    0.174030
  H     -2.325590   -1.975140    0.723290

 Total Charge           Charge          ....    0
 Multiplicity           Mult            ....    1
 Number of Electrons    NEL             ....   26
 Basis Dimension        Dim             ....   82

ORBITAL ENERGIES
----------------

  NO   OCC          E(Eh)            E(eV)
   0   2.0000      -9.986891      -271.7571
   1   2.0000      -9.981435      -271.6087
   2   2.0000      -9.963542      -271.1218
   3   2.0000      -0.721872       -19.6431
   4   2.0000      -0.631564       -17.1857
   5   2.0000      -0.535572       -14.5736
   6   2.0000      -0.418172       -11.3790
   7   2.0000      -0.397780       -10.8242
   8   2.0000      -0.368249       -10.0206
   9   2.0000      -0.345229        -9.3942
  10   2.0000      -0.302263        -8.2250
  11   2.0000      -0.295083        -8.0296
  12   2.0000      -0.285103        -7.7580
  13   0.0000       0.054668         1.4876
  14   0.0000       0.097959         2.6656
  15   0.0000       0.101525         2.7626
  16   0.0000       0.103663         2.8208
  17   0.0000       0.135886         3.6976

MULLIKEN ATOMIC CHARGES
-----------------------
   0 C :   -0.086981
   1 C :    0.079991
   2 C :    0.009788
   3 H :   -0.025566
   4 H :   -0.007980
   5 H :   -0.019881
   6 H :    0.010365
   7 H :    0.008421
   8 H :    0.012570
   9 H :    0.010031
  10 H :    0.009241
Sum of atomic charges:   -0.0000000

LOEWDIN ATOMIC CHARGES
----------------------
   0 C :   -0.036404
   1 C :   -0.042450
   2 C :   -0.040722
   3 H :    0.010596
   4 H :    0.013517
   5 H :    0.013021
   6 H :    0.017799
   7 H :    0.016330
   8 H :    0.016285
   9 H :    0.015289
  10 H :    0.016739

  Mayer bond orders larger than 0.100000
B(  0-C ,  1-C ) :   1.1023 B(  0-C ,  2-C ) :   1.1093 B(  0-C ,  6-H ) :   0.9563
B(  0-C ,  7-H ) :   0.9597 B(  1-C ,  3-H ) :   0.9634 B(  1-C ,  4-H ) :   0.9660
B(  1-C ,  5-H ) :   0.9602 B(  2-C ,  8-H ) :   0.9712 B(  2-C ,  9-H ) :   0.9747
B(  2-C , 10-H ) :   0.9684

Dispersion correction           -0.007403613
FINAL SINGLE POINT ENERGY      -119.061931158433

DIPOLE MOMENT
-------------
                                X             Y             Z
Electronic contribution:      0.18719       0.23588       0.33156
Nuclear contribution   :     -0.21528      -0.24783      -0.32864
                        -----------------------------------------
Total Dipole Moment    :     -0.02809      -0.01195       0.00292
                        -----------------------------------------
Magnitude (a.u.)       :      0.03066
Magnitude (Debye)      :      0.07794

Rotational constants in cm-1:     1.037566     0.286459     0.254172
Rotational constants in MHz : 31105.431429  8587.814531  7619.871198

                             ****ORCA TERMINATED NORMALLY****
TOTAL RUN TIME: 0 days 0 hours 0 minutes 7 seconds 172 msec
