                         Program Version 5.0.0 -  RELEASE  -
|  1> !TPSS D3BJ RIJCOSX def2-SVP def2/J TightSCF
|  2> *xyz 0 1
|  3> C         -5.57236       -5.80780       -0.81644
|  4> S         -6.90318       -4.61903       -0.52846
|  5> O         -8.11485       -5.25093       -0.95701
|  6> F         -6.53271       -3.42684       -1.31485
|  7> O         -6.86563       -4.29496        0.91412
|  8> C         -4.45780       -5.94187        0.22919
|  9> H         -5.17735       -5.54257       -1.79771
| 10> H         -6.07420       -6.76889       -0.92127
| 11> H         -3.75515       -6.68239       -0.09144
| 12> H         -4.88182       -6.23486        1.16689
| 13> H         -3.95908       -5.00189        0.34143
| 14> *
| 15> %MaxCore 64000
| 16>
| 17> %pal nprocs 4
| 18> end
| 19>
| 20> %scf
| 21>   MaxIter 150
| 22> end
| 23>
| 24>                          ****END OF INPUT****

CARTESIAN COORDINATES (ANGSTROEM)
---------------------------------
  C     -5.572360   -5.807800   -0.816440
  S     -6.903180   -4.619030   -0.528460
  O     -8.114850   -5.250930   -0.957010
  F     -6.532710   -3.426840   -1.314850
  O     -6.865630   -4.294960    0.914120
  C     -4.457800   -5.941870    0.229190
  H     -5.177350   -5.542570   -1.797710
  H     -6.074200   -6.768890   -0.921270
  H     -3.755150   -6.682390   -0.091440
  H     -4.881820   -6.234860    1.166890
  H     -3.959080   -5.001890    0.341430

 Total Charge           Charge          ....    0
 Multiplicity           Mult            ....    1
 Number of Electrons    NEL             ....   58
 Basis Dimension        Dim             ....  113

ORBITAL ENERGIES
----------------

  NO   OCC          E(Eh)            E(eV)
   0   2.0000     -88.593178     -2410.7429
   1   2.0000     -24.506234      -666.8485
   2   2.0000     -18.896512      -514.2002
   3   2.0000     -18.882299      -513.8135
   4   2.0000     -10.054925      -273.6084
   5   2.0000     -10.021962      -272.7114
   6   2.0000      -7.962867      -216.6806
   7   2.0000      -5.952384      -161.9726
   8   2.0000      -5.946044      -161.8001
   9   2.0000      -5.944561      -161.7597
  10   2.0000      -1.253362       -34.1057
  11   2.0000      -1.025461       -27.9042
  12   2.0000      -0.926222       -25.2038
  13   2.0000      -0.754594       -20.5335
  14   2.0000      -0.659678       -17.9508
  15   2.0000      -0.609319       -16.5804
  16   2.0000      -0.517922       -14.0934
  17   2.0000      -0.496039       -13.4979
  18   2.0000      -0.486952       -13.2506
  19   2.0000      -0.444461       -12.0944
  20   2.0000      -0.424799       -11.5594
  21   2.0000      -0.398487       -10.8434
  22   2.0000      -0.380454       -10.3527
  23   2.0000      -0.361133        -9.8269
  24   2.0000      -0.355823        -9.6824
  25   2.0000      -0.329613        -8.9692
  26   2.0000      -0.284026        -7.7287
  27   2.0000      -0.270386        -7.3576
  28   2.0000      -0.254533        -6.9262
  29   0.0000       0.006827         0.1858
  30   0.0000       0.026804         0.7294
  31   0.0000       0.056581         1.5396
  32   0.0000       0.058992         1.6053
  33   0.0000       0.082555         2.2464

MULLIKEN ATOMIC CHARGES
-----------------------
   0 C :   -0.147894
   1 S :    0.899954
   2 O :   -0.407018
   3 F :   -0.188821
   4 O :   -0.451868
   5 C :    0.034978
   6 H :    0.059207
   7 H :    0.083820
   8 H :    0.033442
   9 H :    0.050385
  10 H :    0.033816
Sum of atomic charges:    0.0000000

LOEWDIN ATOMIC CHARGES
----------------------
   0 C :   -0.152005
   1 S :    1.119929
   2 O :   -0.450172
   3 F :   -0.142972
   4 O :   -0.497696
   5 C :   -0.038096
   6 H :    0.027577
   7 H :    0.043529
   8 H :    0.031749
   9 H :    0.031986
  10 H :    0.026171

  Mayer bond orders larger than 0.100000
B(  0-C ,  1-S ) :   0.8829 B(  0-C ,  5-C ) :   1.0733 B(  0-C ,  6-H ) :   0.9310
B(  0-C ,  7-H ) :   0.9372 B(  1-S ,  2-O ) :   1.7963 B(  1-S ,  3-F ) :   0.9903
B(  1-S ,  4-O ) :   1.7574 B(  5-C ,  8-H ) :   0.9560 B(  5-C ,  9-H ) :   0.9685
B(  5-C , 10-H ) :   0.9715

Dispersion correction           -0.011392294
FINAL SINGLE POINT ENERGY      -727.311763447986

DIPOLE MOMENT
-------------
                                X             Y             Z
Electronic contribution:     -6.83235       6.73581      -2.45364
Nuclear contribution   :      8.15840      -7.14411       1.72305
                        -----------------------------------------
Total Dipole Moment    :      1.32605      -0.40830      -0.73059
                        -----------------------------------------
Magnitude (a.u.)       :      1.56808
Magnitude (Debye)      :      3.98574

Rotational constants in cm-1:     0.153926     0.078297     0.077402
Rotational constants in MHz :  4614.585804  2347.272644  2320.438903

                             ****ORCA TERMINATED NORMALLY****
TOTAL RUN TIME: 0 days 0 hours 0 minutes 9 seconds 656 msec
