                         Program Version 5.0.0 -  RELEASE  -
|  1> !TPSS D3BJ RIJCOSX def2-SVP def2/J TightSCF
|  2> *xyz 0 1
|  3> C         -5.57236       -5.80780       -0.81644
|  4> S         -6.90318       -4.61903       -0.52846
|  5> O         -8.11485       -5.25093       -0.95701
|  6> O         -6.53271       -3.42684       -1.31485
|  7> F         -6.86563       -4.29496        0.91412
|  8> C         -4.45780       -5.94187        0.22919
|  9> H         -5.17735       -5.54257       -1.79771
| 10> H         -6.07420       -6.76889       -0.92127
| 11> H         -3.75515       -6.68239       -0.09144
| 12> H         -4.88182       -6.23486        1.16689
| 13> H         -3.95908       -5.00189        0.34143
| 14> *
| 15> %MaxCore 64000
| 16>
| 17> %pal nprocs 4
| 18> end
| 19>
| 20> %scf
| 21>   MaxIter 150
| 22> end
| 23>
| 24>                          ****END OF INPUT****

CARTESIAN COORDINATES (ANGSTROEM)
---------------------------------
  C     -5.572360   -5.807800   -0.816440
  S     -6.903180   -4.619030   -0.528460
  O     -8.114850   -5.250930   -0.957010
  O     -6.532710   -3.426840   -1.314850
  F     -6.865630   -4.294960    0.914120
  C     -4.457800   -5.941870    0.229190
  H     -5.177350   -5.542570   -1.797710
  H     -6.074200   -6.768890   -0.921270
  H     -3.755150   -6.682390   -0.091440
  H     -4.881820   -6.234860    1.166890
  H     -3.959080   -5.001890    0.341430

 Total Charge           Charge          ....    0
 Multiplicity           Mult            ....    1
 Number of Electrons    NEL             ....   58
 Basis Dimension        Dim             ....  113

ORBITAL ENERGIES
----------------

  NO   OCC          E(Eh)            E(eV)
   0   2.0000     -88.592276     -2410.7184
   1   2.0000     -24.505891      -666.8392
   2   2.0000     -18.896000      -514.1863
   3   2.0000     -18.880217      -513.7568
   4   2.0000     -10.054159      -273.5876
   5   2.0000     -10.028839      -272.8986
   6   2.0000      -7.962030      -216.6579
   7   2.0000      -5.951613      -161.9516
   8   2.0000      -5.945227      -161.7779
   9   2.0000      -5.943647      -161.7348
  10   2.0000      -1.251118       -34.0447
  11   2.0000      -1.025620       -27.9085
  12   2.0000      -0.926127       -25.2012
  13   2.0000      -0.757514       -20.6130
  14   2.0000      -0.657142       -17.8817
  15   2.0000      -0.614099       -16.7105
  16   2.0000      -0.522732       -14.2243
  17   2.0000      -0.495923       -13.4947
  18   2.0000      -0.478386       -13.0176
  19   2.0000      -0.449894       -12.2422
  20   2.0000      -0.419478       -11.4146
  21   2.0000      -0.402080       -10.9412
  22   2.0000      -0.385622       -10.4933
  23   2.0000      -0.369701       -10.0601
  24   2.0000      -0.356236        -9.6937
  25   2.0000      -0.330296        -8.9878
  26   2.0000      -0.284273        -7.7355
  27   2.0000      -0.267887        -7.2896
  28   2.0000      -0.253424        -6.8960
  29   0.0000      -0.000847        -0.0230
  30   0.0000       0.040753         1.1089
  31   0.0000       0.057778         1.5722
  32   0.0000       0.059476         1.6184
  33   0.0000       0.079302         2.1579

MULLIKEN ATOMIC CHARGES
-----------------------
   0 C :   -0.136495
   1 S :    0.899918
   2 O :   -0.406606
   3 O :   -0.454788
   4 F :   -0.189735
   5 C :    0.007329
   6 H :    0.089966
   7 H :    0.071539
   8 H :    0.041759
   9 H :    0.034470
  10 H :    0.042644
Sum of atomic charges:    0.0000000

LOEWDIN ATOMIC CHARGES
----------------------
   0 C :   -0.147251
   1 S :    1.120585
   2 O :   -0.450191
   3 O :   -0.499326
   4 F :   -0.144360
   5 C :   -0.045813
   6 H :    0.046210
   7 H :    0.034687
   8 H :    0.034710
   9 H :    0.023887
  10 H :    0.026863

  Mayer bond orders larger than 0.100000
B(  0-C ,  1-S ) :   0.8946 B(  0-C ,  5-C ) :   1.0668 B(  0-C ,  6-H ) :   0.9338
B(  0-C ,  7-H ) :   0.9358 B(  1-S ,  2-O ) :   1.7950 B(  1-S ,  3-O ) :   1.7516
B(  1-S ,  4-F ) :   0.9905 B(  5-C ,  8-H ) :   0.9595 B(  5-C ,  9-H ) :   0.9724
B(  5-C , 10-H ) :   0.9715

Dispersion correction           -0.011341550
FINAL SINGLE POINT ENERGY      -727.311456203831

DIPOLE MOMENT
-------------
                                X             Y             Z
Electronic contribution:     -7.36340       5.25778       1.28114
Nuclear contribution   :      8.50531      -6.23950      -0.59960
                        -----------------------------------------
Total Dipole Moment    :      1.14191      -0.98172       0.68154
                        -----------------------------------------
Magnitude (a.u.)       :      1.65294
Magnitude (Debye)      :      4.20145

Rotational constants in cm-1:     0.152799     0.080212     0.076962
Rotational constants in MHz :  4580.804531  2404.707790  2307.252710

                             ****ORCA TERMINATED NORMALLY****
TOTAL RUN TIME: 0 days 0 hours 0 minutes 9 seconds 456 msec
