                         Program Version 5.0.0 -  RELEASE  -
|  1> !TPSS D3BJ RIJCOSX def2-TZVP def2/J TightSCF xyzfile
|  2>
|  3> *xyzfile 0 1 D2.xyz
|  4>
|  5> %MaxCore 64000
|  6>
|  7> %pal nprocs 18
|  8> end
|  9>
| 10> %scf
| 11>   MaxIter 150
| 12> end
| 13>
| 14>
| 15>                          ****END OF INPUT****

CARTESIAN COORDINATES (ANGSTROEM)
---------------------------------
  C     -4.382623   -1.670889    1.216201
  C     -5.763539   -1.915170    0.705012
  C     -3.281728   -2.191272    0.294361
  C     -5.572364   -5.807798   -0.816445
  S     -6.903179   -4.619033   -0.528458
  H     -5.840812   -2.115205   -0.300646
  H     -6.408823   -1.148656    0.936124
  H     -6.174781   -2.790606    1.051433
  O     -8.114853   -5.250932   -0.957007
  F     -6.532715   -3.426838   -1.314848
  H     -4.328618   -2.139223    2.198103
  H     -4.261583   -0.597399    1.357248
  O     -6.865632   -4.294957    0.914118
  C     -3.474641   -3.605898   -0.259608
  H     -2.354548   -2.127602    0.871433
  H     -3.166611   -1.499693   -0.545037
  C     -3.827078   -4.661097    0.786174
  H     -2.560559   -3.889391   -0.788050
  H     -4.255932   -3.570040   -1.019300
  C     -4.457800   -5.941875    0.229195
  H     -5.177347   -5.542575   -1.797714
  H     -6.074202   -6.768894   -0.921272
  H     -4.530506   -4.253640    1.511979
  H     -2.933400   -4.932302    1.356825
  H     -3.681064   -6.562236   -0.229885
  H     -4.843942   -6.512728    1.075805

 Total Charge           Charge          ....    0
 Multiplicity           Mult            ....    1
 Number of Electrons    NEL             ....   98
 Basis Dimension        Dim             ....  437

ORBITAL ENERGIES
----------------

  NO   OCC          E(Eh)            E(eV)
   0   2.0000     -88.585997     -2410.5475
   1   2.0000     -24.512188      -667.0105
   2   2.0000     -18.901041      -514.3235
   3   2.0000     -18.888860      -513.9920
   4   2.0000     -10.044996      -273.3382
   5   2.0000     -10.011796      -272.4348
   6   2.0000      -9.987725      -271.7798
   7   2.0000      -9.986166      -271.7374
   8   2.0000      -9.975685      -271.4522
   9   2.0000      -9.963048      -271.1083
  10   2.0000      -9.914654      -269.7915
  11   2.0000      -7.935686      -215.9410
  12   2.0000      -5.918908      -161.0617
  13   2.0000      -5.912279      -160.8813
  14   2.0000      -5.911761      -160.8672
  15   2.0000      -1.279822       -34.8257
  16   2.0000      -1.040354       -28.3095
  17   2.0000      -0.950944       -25.8765
  18   2.0000      -0.777722       -21.1629
  19   2.0000      -0.745147       -20.2765
  20   2.0000      -0.699315       -19.0293
  21   2.0000      -0.672917       -18.3110
  22   2.0000      -0.637383       -17.3441
  23   2.0000      -0.604515       -16.4497
  24   2.0000      -0.564843       -15.3702
  25   2.0000      -0.525410       -14.2971
  26   2.0000      -0.514297       -13.9947
  27   2.0000      -0.506617       -13.7857
  28   2.0000      -0.503048       -13.6886
  29   2.0000      -0.452949       -12.3254
  30   2.0000      -0.445380       -12.1194
  31   2.0000      -0.424184       -11.5426
  32   2.0000      -0.415783       -11.3140
  33   2.0000      -0.413598       -11.2546
  34   2.0000      -0.394097       -10.7239
  35   2.0000      -0.383294       -10.4300
  36   2.0000      -0.362032        -9.8514
  37   2.0000      -0.355669        -9.6783
  38   2.0000      -0.351842        -9.5741
  39   2.0000      -0.345973        -9.4144
  40   2.0000      -0.319926        -8.7056
  41   2.0000      -0.315896        -8.5960
  42   2.0000      -0.312987        -8.5168
  43   2.0000      -0.294646        -8.0177
  44   2.0000      -0.290745        -7.9116
  45   2.0000      -0.282100        -7.6763
  46   2.0000      -0.276414        -7.5216
  47   2.0000      -0.273940        -7.4543
  48   2.0000      -0.239114        -6.5066
  49   0.0000      -0.008469        -0.2304
  50   0.0000       0.003695         0.1005
  51   0.0000       0.021471         0.5843
  52   0.0000       0.034363         0.9351
  53   0.0000       0.038731         1.0539

MULLIKEN ATOMIC CHARGES
-----------------------
   0 C :   -0.155216
   1 C :   -0.428302
   2 C :   -0.134932
   3 C :   -0.324023
   4 S :    0.812759
   5 H :    0.091929
   6 H :    0.104021
   7 H :    0.175004
   8 O :   -0.379170
   9 F :   -0.093284
  10 H :    0.092372
  11 H :    0.082121
  12 O :   -0.409994
  13 C :   -0.185129
  14 H :    0.076010
  15 H :    0.084618
  16 C :   -0.268429
  17 H :    0.086696
  18 H :    0.086217
  19 C :   -0.082963
  20 H :    0.151532
  21 H :    0.166491
  22 H :    0.153410
  23 H :    0.089437
  24 H :    0.096793
  25 H :    0.112031
Sum of atomic charges:   -0.0000000

LOEWDIN ATOMIC CHARGES
----------------------
   0 C :   -0.297337
   1 C :   -0.329571
   2 C :   -0.262436
   3 C :   -0.367406
   4 S :    0.522711
   5 H :    0.094042
   6 H :    0.103091
   7 H :    0.094991
   8 O :   -0.228863
   9 F :    0.081774
  10 H :    0.130788
  11 H :    0.131464
  12 O :   -0.247976
  13 C :   -0.266525
  14 H :    0.132211
  15 H :    0.133565
  16 C :   -0.263729
  17 H :    0.133039
  18 H :    0.125683
  19 C :   -0.269892
  20 H :    0.135593
  21 H :    0.147979
  22 H :    0.144503
  23 H :    0.135963
  24 H :    0.142814
  25 H :    0.143522

  Mayer bond orders larger than 0.100000
B(  0-C ,  1-C ) :   0.9752 B(  0-C ,  2-C ) :   1.0349 B(  0-C , 10-H ) :   0.9660
B(  0-C , 11-H ) :   0.9425 B(  1-C ,  5-H ) :   0.9880 B(  1-C ,  6-H ) :   0.9501
B(  1-C ,  7-H ) :   0.9697 B(  2-C , 13-C ) :   1.0254 B(  2-C , 14-H ) :   0.9509
B(  2-C , 15-H ) :   0.9461 B(  3-C ,  4-S ) :   0.9145 B(  3-C , 19-C ) :   0.9882
B(  3-C , 20-H ) :   0.9371 B(  3-C , 21-H ) :   0.9288 B(  4-S ,  8-O ) :   1.9882
B(  4-S ,  9-F ) :   1.1050 B(  4-S , 12-O ) :   1.8165 B( 13-C , 16-C ) :   1.0146
B( 13-C , 17-H ) :   0.9465 B( 13-C , 18-H ) :   0.9556 B( 16-C , 19-C ) :   1.0060
B( 16-C , 22-H ) :   0.9597 B( 16-C , 23-H ) :   0.9370 B( 19-C , 24-H ) :   0.9280
B( 19-C , 25-H ) :   0.9474

Dispersion correction           -0.038105237
FINAL SINGLE POINT ENERGY      -924.538001801304

DIPOLE MOMENT
-------------
                                X             Y             Z
Electronic contribution:    -16.06291      -5.34311      -7.18945
Nuclear contribution   :     17.25367       4.78608       6.55647
                        -----------------------------------------
Total Dipole Moment    :      1.19076      -0.55703      -0.63298
                        -----------------------------------------
Magnitude (a.u.)       :      1.45906
Magnitude (Debye)      :      3.70864

Rotational constants in cm-1:     0.048508     0.025517     0.020225
Rotational constants in MHz :  1454.219007   764.979652   606.316599

                             ****ORCA TERMINATED NORMALLY****
TOTAL RUN TIME: 0 days 0 hours 0 minutes 17 seconds 973 msec
