                         Program Version 5.0.0 -  RELEASE  -
|  1> !TPSS D3BJ RIJCOSX def2-TZVP def2/J TightSCF xyzfile
|  2>
|  3> *xyzfile 0 1 D3.xyz
|  4>
|  5> %MaxCore 64000
|  6>
|  7> %pal nprocs 18
|  8> end
|  9>
| 10> %scf
| 11>   MaxIter 150
| 12> end
| 13>
| 14>
| 15>                          ****END OF INPUT****

CARTESIAN COORDINATES (ANGSTROEM)
---------------------------------
  C     -4.382623   -1.670889    1.216201
  C     -5.763539   -1.915170    0.705012
  C     -3.281728   -2.191272    0.294361
  C     -5.572364   -5.807798   -0.816445
  S     -6.903179   -4.619033   -0.528458
  H     -5.840812   -2.115205   -0.300646
  H     -6.408823   -1.148656    0.936124
  H     -6.174781   -2.790606    1.051433
  O     -8.114853   -5.250932   -0.957007
  O     -6.532715   -3.426838   -1.314848
  H     -4.328618   -2.139223    2.198103
  H     -4.261583   -0.597399    1.357248
  F     -6.865632   -4.294957    0.914118
  C     -3.474641   -3.605898   -0.259608
  H     -2.354548   -2.127602    0.871433
  H     -3.166611   -1.499693   -0.545037
  C     -3.827078   -4.661097    0.786174
  H     -2.560559   -3.889391   -0.788050
  H     -4.255932   -3.570040   -1.019300
  C     -4.457800   -5.941875    0.229195
  H     -5.177347   -5.542575   -1.797714
  H     -6.074202   -6.768894   -0.921272
  H     -4.530506   -4.253640    1.511979
  H     -2.933400   -4.932302    1.356825
  H     -3.681064   -6.562236   -0.229885
  H     -4.843942   -6.512728    1.075805

 Total Charge           Charge          ....    0
 Multiplicity           Mult            ....    1
 Number of Electrons    NEL             ....   98
 Basis Dimension        Dim             ....  437

ORBITAL ENERGIES
----------------

  NO   OCC          E(Eh)            E(eV)
   0   2.0000     -88.585307     -2410.5288
   1   2.0000     -24.512314      -667.0140
   2   2.0000     -18.900704      -514.3143
   3   2.0000     -18.887157      -513.9457
   4   2.0000     -10.044323      -273.3199
   5   2.0000     -10.016137      -272.5529
   6   2.0000      -9.994083      -271.9528
   7   2.0000      -9.979767      -271.5633
   8   2.0000      -9.973012      -271.3795
   9   2.0000      -9.963415      -271.1183
  10   2.0000      -9.916452      -269.8404
  11   2.0000      -7.935067      -215.9242
  12   2.0000      -5.918426      -161.0486
  13   2.0000      -5.911499      -160.8601
  14   2.0000      -5.911157      -160.8508
  15   2.0000      -1.279537       -34.8180
  16   2.0000      -1.040444       -28.3119
  17   2.0000      -0.949768       -25.8445
  18   2.0000      -0.780382       -21.2353
  19   2.0000      -0.744094       -20.2478
  20   2.0000      -0.699311       -19.0292
  21   2.0000      -0.672257       -18.2930
  22   2.0000      -0.638512       -17.3748
  23   2.0000      -0.604464       -16.4483
  24   2.0000      -0.568671       -15.4743
  25   2.0000      -0.527846       -14.3634
  26   2.0000      -0.522024       -14.2050
  27   2.0000      -0.503658       -13.7052
  28   2.0000      -0.494686       -13.4611
  29   2.0000      -0.452710       -12.3189
  30   2.0000      -0.445509       -12.1229
  31   2.0000      -0.425665       -11.5829
  32   2.0000      -0.412542       -11.2258
  33   2.0000      -0.409049       -11.1308
  34   2.0000      -0.402871       -10.9627
  35   2.0000      -0.384989       -10.4761
  36   2.0000      -0.361927        -9.8485
  37   2.0000      -0.355485        -9.6732
  38   2.0000      -0.351169        -9.5558
  39   2.0000      -0.347160        -9.4467
  40   2.0000      -0.320603        -8.7240
  41   2.0000      -0.315812        -8.5937
  42   2.0000      -0.308166        -8.3856
  43   2.0000      -0.294398        -8.0110
  44   2.0000      -0.292344        -7.9551
  45   2.0000      -0.284206        -7.7336
  46   2.0000      -0.270558        -7.3622
  47   2.0000      -0.268524        -7.3069
  48   2.0000      -0.249100        -6.7783
  49   0.0000      -0.016655        -0.4532
  50   0.0000       0.014730         0.4008
  51   0.0000       0.027657         0.7526
  52   0.0000       0.030283         0.8240
  53   0.0000       0.039032         1.0621

MULLIKEN ATOMIC CHARGES
-----------------------
   0 C :   -0.159446
   1 C :   -0.423228
   2 C :   -0.128457
   3 C :   -0.298602
   4 S :    0.810778
   5 H :    0.169677
   6 H :    0.106125
   7 H :    0.091876
   8 O :   -0.378223
   9 O :   -0.413632
  10 H :    0.085093
  11 H :    0.084605
  12 F :   -0.094939
  13 C :   -0.192716
  14 H :    0.072741
  15 H :    0.085810
  16 C :   -0.260302
  17 H :    0.081055
  18 H :    0.134246
  19 C :   -0.131979
  20 H :    0.169959
  21 H :    0.157930
  22 H :    0.121637
  23 H :    0.095490
  24 H :    0.100897
  25 H :    0.113605
Sum of atomic charges:    0.0000000

LOEWDIN ATOMIC CHARGES
----------------------
   0 C :   -0.298959
   1 C :   -0.330106
   2 C :   -0.261459
   3 C :   -0.361148
   4 S :    0.522603
   5 H :    0.108290
   6 H :    0.103430
   7 H :    0.087142
   8 O :   -0.229002
   9 O :   -0.257031
  10 H :    0.127256
  11 H :    0.132554
  12 F :    0.084338
  13 C :   -0.266230
  14 H :    0.130554
  15 H :    0.135562
  16 C :   -0.265935
  17 H :    0.132069
  18 H :    0.137548
  19 C :   -0.278667
  20 H :    0.148511
  21 H :    0.142444
  22 H :    0.135885
  23 H :    0.137288
  24 H :    0.144135
  25 H :    0.138930

  Mayer bond orders larger than 0.100000
B(  0-C ,  1-C ) :   0.9743 B(  0-C ,  2-C ) :   1.0393 B(  0-C , 10-H ) :   0.9639
B(  0-C , 11-H ) :   0.9425 B(  1-C ,  5-H ) :   0.9758 B(  1-C ,  6-H ) :   0.9512
B(  1-C ,  7-H ) :   0.9926 B(  2-C , 13-C ) :   1.0266 B(  2-C , 14-H ) :   0.9526
B(  2-C , 15-H ) :   0.9435 B(  3-C ,  4-S ) :   0.9167 B(  3-C , 19-C ) :   0.9982
B(  3-C , 20-H ) :   0.9332 B(  3-C , 21-H ) :   0.9294 B(  4-S ,  8-O ) :   1.9887
B(  4-S ,  9-O ) :   1.8354 B(  4-S , 12-F ) :   1.0961 B( 13-C , 16-C ) :   0.9949
B( 13-C , 17-H ) :   0.9429 B( 13-C , 18-H ) :   0.9496 B( 16-C , 19-C ) :   0.9992
B( 16-C , 22-H ) :   0.9721 B( 16-C , 23-H ) :   0.9394 B( 19-C , 24-H ) :   0.9296
B( 19-C , 25-H ) :   0.9578

Dispersion correction           -0.038063473
FINAL SINGLE POINT ENERGY      -924.537338369649

DIPOLE MOMENT
-------------
                                X             Y             Z
Electronic contribution:    -16.61472      -6.80369      -3.47651
Nuclear contribution   :     17.63907       5.79106       3.97609
                        -----------------------------------------
Total Dipole Moment    :      1.02435      -1.01262       0.49959
                        -----------------------------------------
Magnitude (a.u.)       :      1.52456
Magnitude (Debye)      :      3.87513

Rotational constants in cm-1:     0.048663     0.025472     0.020259
Rotational constants in MHz :  1458.892793   763.621130   607.350055

                             ****ORCA TERMINATED NORMALLY****
TOTAL RUN TIME: 0 days 0 hours 0 minutes 14 seconds 924 msec
