                         Program Version 5.0.0 -  RELEASE  -
|  1> !DLPNO-CCSD(T) aug-cc-pVTZ aug-cc-pVTZ/C TightSCF TightPNO RIJCOSX def2/J
|  2> *xyz -1 1
|  3> C          0.96805        1.63064       -3.71575
|  4> C         -0.50835        1.72268       -4.12430
|  5> S         -1.32861        0.14674       -4.43578
|  6> H         -0.59151        2.29496       -5.04722
|  7> H         -1.11411        2.23561       -3.37436
|  8> O         -2.57135        0.47573       -5.06834
|  9> O         -1.51496       -0.40051       -3.06342
| 10> O         -0.37793       -0.62756       -5.20114
| 11> H          1.51840        1.12197       -4.47946
| 12> H          1.05062        1.08971       -2.79625
| 13> H          1.36450        2.61606       -3.58668
| 14> *
| 15> %MaxCore 64000
| 16>
| 17> %pal nprocs 18
| 18> end
| 19>
| 20> %scf
| 21>   MaxIter 150
| 22> end
| 23>
| 24>
| 25>                          ****END OF INPUT****

CARTESIAN COORDINATES (ANGSTROEM)
---------------------------------
  C      0.968050    1.630640   -3.715750
  C     -0.508350    1.722680   -4.124300
  S     -1.328610    0.146740   -4.435780
  H     -0.591510    2.294960   -5.047220
  H     -1.114110    2.235610   -3.374360
  O     -2.571350    0.475730   -5.068340
  O     -1.514960   -0.400510   -3.063420
  O     -0.377930   -0.627560   -5.201140
  H      1.518400    1.121970   -4.479460
  H      1.050620    1.089710   -2.796250
  H      1.364500    2.616060   -3.586680

 Total Charge           Charge          ....   -1
 Multiplicity           Mult            ....    1
 Number of Electrons    NEL             ....   58
 Basis Dimension        Dim             ....  395

ORBITAL ENERGIES
----------------

  NO   OCC          E(Eh)            E(eV)
   0   2.0000     -91.982255     -2502.9644
   1   2.0000     -20.337350      -553.4074
   2   2.0000     -20.333459      -553.3015
   3   2.0000     -20.317222      -552.8597
   4   2.0000     -11.090074      -301.7763
   5   2.0000     -11.081136      -301.5330
   6   2.0000      -8.945717      -243.4253
   7   2.0000      -6.631934      -180.4641
   8   2.0000      -6.630588      -180.4275
   9   2.0000      -6.630529      -180.4259
  10   2.0000      -1.275899       -34.7190
  11   2.0000      -1.137522       -30.9535
  12   2.0000      -1.103136       -30.0179
  13   2.0000      -0.900919       -24.5152
  14   2.0000      -0.743919       -20.2431
  15   2.0000      -0.595463       -16.2034
  16   2.0000      -0.501158       -13.6372
  17   2.0000      -0.488350       -13.2887
  18   2.0000      -0.460300       -12.5254
  19   2.0000      -0.447360       -12.1733
  20   2.0000      -0.423918       -11.5354
  21   2.0000      -0.379260       -10.3202
  22   2.0000      -0.366814        -9.9815
  23   2.0000      -0.325336        -8.8528
  24   2.0000      -0.322325        -8.7709
  25   2.0000      -0.283808        -7.7228
  26   2.0000      -0.266172        -7.2429
  27   2.0000      -0.244662        -6.6576
  28   2.0000      -0.230639        -6.2760
  29   0.0000       0.113816         3.0971
  30   0.0000       0.132901         3.6164
  31   0.0000       0.134866         3.6699
  32   0.0000       0.145973         3.9721
  33   0.0000       0.155112         4.2208

MULLIKEN ATOMIC CHARGES
-----------------------
   0 C :   -0.968577
   1 C :   -0.578216
   2 S :    2.189131
   3 H :    0.260008
   4 H :    0.269363
   5 O :   -1.030198
   6 O :   -1.034248
   7 O :   -1.035998
   8 H :    0.332034
   9 H :    0.326669
  10 H :    0.270033
Sum of atomic charges:   -1.0000000

LOEWDIN ATOMIC CHARGES
----------------------
   0 C :    0.534098
   1 C :    0.114561
   2 S :   -0.410391
   3 H :   -0.221207
   4 H :   -0.211214
   5 O :   -0.049553
   6 O :   -0.086271
   7 O :   -0.047671
   8 H :   -0.212305
   9 H :   -0.201367
  10 H :   -0.208682

  Mayer bond orders larger than 0.100000
B(  0-C ,  1-C ) :   0.8926 B(  0-C ,  8-H ) :   0.9073 B(  0-C ,  9-H ) :   0.9012
B(  0-C , 10-H ) :   0.9758 B(  1-C ,  2-S ) :   0.7560 B(  1-C ,  3-H ) :   0.9421
B(  1-C ,  4-H ) :   0.9298 B(  2-S ,  5-O ) :   1.3539 B(  2-S ,  6-O ) :   1.3205
B(  2-S ,  7-O ) :   1.3758

E(0)                                       ...   -700.924512435
E(0)                                       ...   -700.924512435
E(CORR)(strong-pairs)                      ...     -1.301763876
E(CORR)(weak-pairs)                        ...     -0.001277603
E(CORR)(corrected)                         ...     -1.303041479
E(TOT)                                     ...   -702.227553914
E(CCSD(T))                                 ...   -702.283074415
FINAL SINGLE POINT ENERGY      -702.283074415111

DIPOLE MOMENT
-------------
                                X             Y             Z
Electronic contribution:     -5.48226      -5.13885      -1.91790
Nuclear contribution   :      6.64523       6.80157       2.07300
                        -----------------------------------------
Total Dipole Moment    :      1.16296       1.66272       0.15510
                        -----------------------------------------
Magnitude (a.u.)       :      2.03499
Magnitude (Debye)      :      5.17254

Rotational constants in cm-1:     0.163070     0.082807     0.081541
Rotational constants in MHz :  4888.719902  2482.497026  2444.541148

                             ****ORCA TERMINATED NORMALLY****
TOTAL RUN TIME: 0 days 0 hours 6 minutes 13 seconds 907 msec
