                         Program Version 5.0.0 -  RELEASE  -
|  1> !DLPNO-CCSD(T) aug-cc-pVTZ aug-cc-pVTZ/C TightSCF TightPNO RIJCOSX def2/J
|  2> *xyz 1 1
|  3> C          1.36401        0.46874       -2.81376
|  4> N          0.42884        0.32140       -1.65531
|  5> C          0.96805        1.63064       -3.71575
|  6> H          0.74858       -0.40054       -1.00134
|  7> H         -0.46105        0.02333       -2.07773
|  8> H          0.31026        1.20137       -1.13495
|  9> H          1.29485       -0.46874       -3.36468
| 10> H          2.37622        0.59740       -2.43149
| 11> H          1.65923        1.70213       -4.52942
| 12> H          0.98421        2.54058       -3.15304
| 13> H         -0.01744        1.46536       -4.09838
| 14> *
| 15> %MaxCore 64000
| 16>
| 17> %pal nprocs 18
| 18> end
| 19>
| 20> %scf
| 21>   MaxIter 150
| 22> end
| 23>
| 24>
| 25>                          ****END OF INPUT****

CARTESIAN COORDINATES (ANGSTROEM)
---------------------------------
  C      1.364010    0.468740   -2.813760
  N      0.428840    0.321400   -1.655310
  C      0.968050    1.630640   -3.715750
  H      0.748580   -0.400540   -1.001340
  H     -0.461050    0.023330   -2.077730
  H      0.310260    1.201370   -1.134950
  H      1.294850   -0.468740   -3.364680
  H      2.376220    0.597400   -2.431490
  H      1.659230    1.702130   -4.529420
  H      0.984210    2.540580   -3.153040
  H     -0.017440    1.465360   -4.098380

 Total Charge           Charge          ....    1
 Multiplicity           Mult            ....    1
 Number of Electrons    NEL             ....   26
 Basis Dimension        Dim             ....  322

ORBITAL ENERGIES
----------------

  NO   OCC          E(Eh)            E(eV)
   0   2.0000     -15.901472      -432.7011
   1   2.0000     -11.481895      -312.4382
   2   2.0000     -11.398062      -310.1570
   3   2.0000      -1.519495       -41.3476
   4   2.0000      -1.225878       -33.3578
   5   2.0000      -1.065365       -28.9901
   6   2.0000      -0.984965       -26.8023
   7   2.0000      -0.968013       -26.3410
   8   2.0000      -0.855664       -23.2838
   9   2.0000      -0.808150       -21.9909
  10   2.0000      -0.735371       -20.0105
  11   2.0000      -0.713920       -19.4268
  12   2.0000      -0.702274       -19.1099
  13   0.0000      -0.119005        -3.2383
  14   0.0000      -0.083431        -2.2703
  15   0.0000      -0.082204        -2.2369
  16   0.0000      -0.074732        -2.0336
  17   0.0000      -0.048191        -1.3114

MULLIKEN ATOMIC CHARGES
-----------------------
   0 C :   -0.350475
   1 N :    0.089770
   2 C :   -0.950384
   3 H :    0.144659
   4 H :    0.185804
   5 H :    0.154788
   6 H :    0.336295
   7 H :    0.379256
   8 H :    0.379725
   9 H :    0.303035
  10 H :    0.327528
Sum of atomic charges:    1.0000000

LOEWDIN ATOMIC CHARGES
----------------------
   0 C :    0.327445
   1 N :    1.102531
   2 C :    0.664717
   3 H :   -0.125000
   4 H :   -0.135337
   5 H :   -0.122806
   6 H :   -0.113539
   7 H :   -0.110294
   8 H :   -0.152138
   9 H :   -0.167998
  10 H :   -0.167582

  Mayer bond orders larger than 0.100000
B(  0-C ,  1-N ) :   0.7859 B(  0-C ,  2-C ) :   0.8776 B(  0-C ,  6-H ) :   0.8974
B(  0-C ,  7-H ) :   0.8472 B(  1-N ,  3-H ) :   1.0251 B(  1-N ,  4-H ) :   0.9722
B(  1-N ,  5-H ) :   0.9845 B(  2-C ,  8-H ) :   0.8751 B(  2-C ,  9-H ) :   0.9335
B(  2-C , 10-H ) :   0.9070

E(0)                                       ...   -134.671615979
E(0)                                       ...   -134.671615979
E(CORR)(strong-pairs)                      ...     -0.615561835
E(CORR)(weak-pairs)                        ...     -0.000453108
E(CORR)(corrected)                         ...     -0.616014943
E(TOT)                                     ...   -135.287630922
E(CCSD(T))                                 ...   -135.308559591
FINAL SINGLE POINT ENERGY      -135.308559590516

DIPOLE MOMENT
-------------
                                X             Y             Z
Electronic contribution:     -0.34322      -0.95410       1.57769
Nuclear contribution   :     -0.20470       0.31427      -0.31587
                        -----------------------------------------
Total Dipole Moment    :     -0.54791      -0.63983       1.26183
                        -----------------------------------------
Magnitude (a.u.)       :      1.51717
Magnitude (Debye)      :      3.85634

Rotational constants in cm-1:     1.011480     0.279280     0.248378
Rotational constants in MHz : 30323.408050  8372.602834  7446.185305

                             ****ORCA TERMINATED NORMALLY****
TOTAL RUN TIME: 0 days 0 hours 1 minutes 54 seconds 56 msec
