                         Program Version 5.0.0 -  RELEASE  -
|  1> !DLPNO-CCSD(T) aug-cc-pVTZ aug-cc-pVTZ/C TightSCF TightPNO RIJCOSX def2/J
|  2> *xyz 0 1
|  3> C          0.96805        1.63064       -3.71575
|  4> C         -0.50835        1.72268       -4.12430
|  5> S         -1.32861        0.14674       -4.43578
|  6> H         -0.59151        2.29496       -5.04722
|  7> H         -1.11411        2.23561       -3.37436
|  8> F         -2.57135        0.47573       -5.06834
|  9> O         -1.51496       -0.40051       -3.06342
| 10> O         -0.37793       -0.62756       -5.20114
| 11> H          1.51840        1.12197       -4.47946
| 12> H          1.05062        1.08971       -2.79625
| 13> H          1.36450        2.61606       -3.58668
| 14> *
| 15> %MaxCore 64000
| 16>
| 17> %pal nprocs 18
| 18> end
| 19>
| 20> %scf
| 21>   MaxIter 150
| 22> end
| 23>
| 24>
| 25>                          ****END OF INPUT****

CARTESIAN COORDINATES (ANGSTROEM)
---------------------------------
  C      0.968050    1.630640   -3.715750
  C     -0.508350    1.722680   -4.124300
  S     -1.328610    0.146740   -4.435780
  H     -0.591510    2.294960   -5.047220
  H     -1.114110    2.235610   -3.374360
  F     -2.571350    0.475730   -5.068340
  O     -1.514960   -0.400510   -3.063420
  O     -0.377930   -0.627560   -5.201140
  H      1.518400    1.121970   -4.479460
  H      1.050620    1.089710   -2.796250
  H      1.364500    2.616060   -3.586680

 Total Charge           Charge          ....    0
 Multiplicity           Mult            ....    1
 Number of Electrons    NEL             ....   58
 Basis Dimension        Dim             ....  395

ORBITAL ENERGIES
----------------

  NO   OCC          E(Eh)            E(eV)
   0   2.0000     -92.251616     -2510.2941
   1   2.0000     -26.441049      -719.4975
   2   2.0000     -20.570485      -559.7513
   3   2.0000     -20.553795      -559.2972
   4   2.0000     -11.293908      -307.3229
   5   2.0000     -11.244466      -305.9775
   6   2.0000      -9.215258      -250.7599
   7   2.0000      -6.902715      -187.8324
   8   2.0000      -6.898957      -187.7302
   9   2.0000      -6.898000      -187.7041
  10   2.0000      -1.812878       -49.3309
  11   2.0000      -1.450795       -39.4781
  12   2.0000      -1.337999       -36.4088
  13   2.0000      -1.093904       -29.7666
  14   2.0000      -0.996217       -27.1084
  15   2.0000      -0.914415       -24.8825
  16   2.0000      -0.838387       -22.8137
  17   2.0000      -0.828561       -22.5463
  18   2.0000      -0.765501       -20.8303
  19   2.0000      -0.668880       -18.2011
  20   2.0000      -0.668337       -18.1864
  21   2.0000      -0.622682       -16.9440
  22   2.0000      -0.593726       -16.1561
  23   2.0000      -0.563785       -15.3414
  24   2.0000      -0.549061       -14.9407
  25   2.0000      -0.541645       -14.7389
  26   2.0000      -0.498823       -13.5737
  27   2.0000      -0.474202       -12.9037
  28   2.0000      -0.470280       -12.7970
  29   0.0000       0.023242         0.6324
  30   0.0000       0.037277         1.0143
  31   0.0000       0.040114         1.0916
  32   0.0000       0.050356         1.3702
  33   0.0000       0.064379         1.7518

MULLIKEN ATOMIC CHARGES
-----------------------
   0 C :   -0.932188
   1 C :   -0.529931
   2 S :    2.119494
   3 H :    0.295711
   4 H :    0.304831
   5 F :   -0.493664
   6 O :   -0.876383
   7 O :   -0.881018
   8 H :    0.344661
   9 H :    0.340913
  10 H :    0.307574
Sum of atomic charges:   -0.0000000

LOEWDIN ATOMIC CHARGES
----------------------
   0 C :    0.583993
   1 C :    0.169073
   2 S :   -0.118914
   3 H :   -0.205200
   4 H :   -0.194789
   5 F :    0.293606
   6 O :    0.000527
   7 O :    0.033165
   8 H :   -0.196067
   9 H :   -0.185460
  10 H :   -0.179934

  Mayer bond orders larger than 0.100000
B(  0-C ,  1-C ) :   0.8972 B(  0-C ,  8-H ) :   0.8973 B(  0-C ,  9-H ) :   0.8919
B(  0-C , 10-H ) :   0.9432 B(  1-C ,  2-S ) :   0.8522 B(  1-C ,  3-H ) :   0.9012
B(  1-C ,  4-H ) :   0.9021 B(  2-S ,  5-F ) :   0.5577 B(  2-S ,  6-O ) :   1.5232
B(  2-S ,  7-O ) :   1.5795

E(0)                                       ...   -725.416249932
E(0)                                       ...   -725.416249932
E(CORR)(strong-pairs)                      ...     -1.307185326
E(CORR)(weak-pairs)                        ...     -0.001260621
E(CORR)(corrected)                         ...     -1.308445946
E(TOT)                                     ...   -726.724695878
E(CCSD(T))                                 ...   -726.777926019
FINAL SINGLE POINT ENERGY      -726.777926018660

DIPOLE MOMENT
-------------
                                X             Y             Z
Electronic contribution:     -8.33308      -4.96716      -3.27906
Nuclear contribution   :      8.31000       6.74109       2.87442
                        -----------------------------------------
Total Dipole Moment    :     -0.02307       1.77393      -0.40464
                        -----------------------------------------
Magnitude (a.u.)       :      1.81964
Magnitude (Debye)      :      4.62517

Rotational constants in cm-1:     0.158705     0.080192     0.078179
Rotational constants in MHz :  4757.865601  2404.095079  2343.752507

                             ****ORCA TERMINATED NORMALLY****
TOTAL RUN TIME: 0 days 0 hours 5 minutes 53 seconds 219 msec
