                         Program Version 5.0.0 -  RELEASE  -
|  1> !DLPNO-CCSD(T) aug-cc-pVTZ aug-cc-pVTZ/C TightSCF TightPNO RIJCOSX def2/J
|  2> *xyz 0 1
|  3> C          1.36401        0.46874       -2.81376
|  4> C          0.42884        0.32140       -1.65531
|  5> C          0.96805        1.63064       -3.71575
|  6> H          0.74858       -0.40054       -1.00134
|  7> H         -0.46105        0.02333       -2.07773
|  8> H          0.31026        1.20137       -1.13495
|  9> H          1.29485       -0.46874       -3.36468
| 10> H          2.37622        0.59740       -2.43149
| 11> H          1.65923        1.70213       -4.52942
| 12> H          0.98421        2.54058       -3.15304
| 13> H         -0.01744        1.46536       -4.09838
| 14> *
| 15> %MaxCore 64000
| 16>
| 17> %pal nprocs 18
| 18> end
| 19>
| 20> %scf
| 21>   MaxIter 150
| 22> end
| 23>
| 24>
| 25>                          ****END OF INPUT****

CARTESIAN COORDINATES (ANGSTROEM)
---------------------------------
  C      1.364010    0.468740   -2.813760
  C      0.428840    0.321400   -1.655310
  C      0.968050    1.630640   -3.715750
  H      0.748580   -0.400540   -1.001340
  H     -0.461050    0.023330   -2.077730
  H      0.310260    1.201370   -1.134950
  H      1.294850   -0.468740   -3.364680
  H      2.376220    0.597400   -2.431490
  H      1.659230    1.702130   -4.529420
  H      0.984210    2.540580   -3.153040
  H     -0.017440    1.465360   -4.098380

 Total Charge           Charge          ....    0
 Multiplicity           Mult            ....    1
 Number of Electrons    NEL             ....   26
 Basis Dimension        Dim             ....  322

ORBITAL ENERGIES
----------------

  NO   OCC          E(Eh)            E(eV)
   0   2.0000     -11.207894      -304.9823
   1   2.0000     -11.199574      -304.7559
   2   2.0000     -11.179518      -304.2101
   3   2.0000      -1.066459       -29.0198
   4   2.0000      -0.939091       -25.5540
   5   2.0000      -0.801825       -21.8188
   6   2.0000      -0.641249       -17.4493
   7   2.0000      -0.609245       -16.5784
   8   2.0000      -0.557815       -15.1789
   9   2.0000      -0.545965       -14.8565
  10   2.0000      -0.476517       -12.9667
  11   2.0000      -0.473720       -12.8906
  12   2.0000      -0.469762       -12.7829
  13   0.0000       0.033226         0.9041
  14   0.0000       0.040615         1.1052
  15   0.0000       0.042118         1.1461
  16   0.0000       0.042661         1.1609
  17   0.0000       0.063913         1.7392

MULLIKEN ATOMIC CHARGES
-----------------------
   0 C :   -0.408703
   1 C :   -0.997258
   2 C :   -0.968468
   3 H :    0.327891
   4 H :    0.329938
   5 H :    0.284672
   6 H :    0.231023
   7 H :    0.291702
   8 H :    0.305758
   9 H :    0.283051
  10 H :    0.320396
Sum of atomic charges:   -0.0000000

LOEWDIN ATOMIC CHARGES
----------------------
   0 C :    0.251727
   1 C :    0.610973
   2 C :    0.599831
   3 H :   -0.206889
   4 H :   -0.211756
   5 H :   -0.201657
   6 H :   -0.147348
   7 H :   -0.145144
   8 H :   -0.185464
   9 H :   -0.182850
  10 H :   -0.181423

  Mayer bond orders larger than 0.100000
B(  0-C ,  1-C ) :   0.7765 B(  0-C ,  2-C ) :   0.8405 B(  0-C ,  6-H ) :   0.9802
B(  0-C ,  7-H ) :   0.9227 B(  1-C ,  3-H ) :   0.9271 B(  1-C ,  4-H ) :   0.9246
B(  1-C ,  5-H ) :   0.9503 B(  2-C ,  8-H ) :   0.9484 B(  2-C ,  9-H ) :   0.9436
B(  2-C , 10-H ) :   0.9087

E(0)                                       ...   -118.297572126
E(0)                                       ...   -118.297572126
E(CORR)(strong-pairs)                      ...     -0.590264483
E(CORR)(weak-pairs)                        ...     -0.000447916
E(CORR)(corrected)                         ...     -0.590712399
E(TOT)                                     ...   -118.888284525
E(CCSD(T))                                 ...   -118.908803730
FINAL SINGLE POINT ENERGY      -118.908803729748

DIPOLE MOMENT
-------------
                                X             Y             Z
Electronic contribution:      0.36274      -0.17979      -0.01326
Nuclear contribution   :     -0.35842       0.15752       0.02695
                        -----------------------------------------
Total Dipole Moment    :      0.00432      -0.02227       0.01369
                        -----------------------------------------
Magnitude (a.u.)       :      0.02650
Magnitude (Debye)      :      0.06735

Rotational constants in cm-1:     1.019891     0.293671     0.260247
Rotational constants in MHz : 30575.551403  8804.039097  7802.009261

                             ****ORCA TERMINATED NORMALLY****
TOTAL RUN TIME: 0 days 0 hours 2 minutes 0 seconds 725 msec
