                         Program Version 5.0.0 -  RELEASE  -
|  1> !DLPNO-CCSD(T) aug-cc-pVTZ aug-cc-pVTZ/C TightSCF TightPNO RIJCOSX def2/J
|  2> *xyz 0 1
|  3> C          0.96805        1.63064       -3.71575
|  4> C         -0.50835        1.72268       -4.12430
|  5> S         -1.32861        0.14674       -4.43578
|  6> H         -0.59151        2.29496       -5.04722
|  7> H         -1.11411        2.23561       -3.37436
|  8> O         -2.57135        0.47573       -5.06834
|  9> F         -1.51496       -0.40051       -3.06342
| 10> O         -0.37793       -0.62756       -5.20114
| 11> H          1.51840        1.12197       -4.47946
| 12> H          1.05062        1.08971       -2.79625
| 13> H          1.36450        2.61606       -3.58668
| 14> *
| 15> %MaxCore 64000
| 16>
| 17> %pal nprocs 18
| 18> end
| 19>
| 20> %scf
| 21>   MaxIter 150
| 22> end
| 23>
| 24>
| 25>                          ****END OF INPUT****

CARTESIAN COORDINATES (ANGSTROEM)
---------------------------------
  C      0.968050    1.630640   -3.715750
  C     -0.508350    1.722680   -4.124300
  S     -1.328610    0.146740   -4.435780
  H     -0.591510    2.294960   -5.047220
  H     -1.114110    2.235610   -3.374360
  O     -2.571350    0.475730   -5.068340
  F     -1.514960   -0.400510   -3.063420
  O     -0.377930   -0.627560   -5.201140
  H      1.518400    1.121970   -4.479460
  H      1.050620    1.089710   -2.796250
  H      1.364500    2.616060   -3.586680

 Total Charge           Charge          ....    0
 Multiplicity           Mult            ....    1
 Number of Electrons    NEL             ....   58
 Basis Dimension        Dim             ....  395

ORBITAL ENERGIES
----------------

  NO   OCC          E(Eh)            E(eV)
   0   2.0000     -92.249953     -2510.2488
   1   2.0000     -26.410252      -718.6595
   2   2.0000     -20.573994      -559.8468
   3   2.0000     -20.569954      -559.7369
   4   2.0000     -11.292914      -307.2958
   5   2.0000     -11.246606      -306.0357
   6   2.0000      -9.213223      -250.7046
   7   2.0000      -6.900912      -187.7834
   8   2.0000      -6.896966      -187.6760
   9   2.0000      -6.896013      -187.6500
  10   2.0000      -1.761337       -47.9284
  11   2.0000      -1.469385       -39.9840
  12   2.0000      -1.367729       -37.2178
  13   2.0000      -1.095720       -29.8161
  14   2.0000      -0.971891       -26.4465
  15   2.0000      -0.904065       -24.6009
  16   2.0000      -0.805736       -21.9252
  17   2.0000      -0.800812       -21.7912
  18   2.0000      -0.759938       -20.6790
  19   2.0000      -0.678036       -18.4503
  20   2.0000      -0.658533       -17.9196
  21   2.0000      -0.647897       -17.6302
  22   2.0000      -0.600091       -16.3293
  23   2.0000      -0.574714       -15.6388
  24   2.0000      -0.557874       -15.1805
  25   2.0000      -0.540868       -14.7178
  26   2.0000      -0.511478       -13.9180
  27   2.0000      -0.493128       -13.4187
  28   2.0000      -0.482265       -13.1231
  29   0.0000       0.023407         0.6369
  30   0.0000       0.038148         1.0381
  31   0.0000       0.038643         1.0515
  32   0.0000       0.048475         1.3191
  33   0.0000       0.062403         1.6981

MULLIKEN ATOMIC CHARGES
-----------------------
   0 C :   -0.952264
   1 C :   -0.531604
   2 S :    2.180386
   3 H :    0.313688
   4 H :    0.297262
   5 O :   -0.888127
   6 F :   -0.509808
   7 O :   -0.885445
   8 H :    0.346944
   9 H :    0.323243
  10 H :    0.305726
Sum of atomic charges:   -0.0000000

LOEWDIN ATOMIC CHARGES
----------------------
   0 C :    0.573187
   1 C :    0.175118
   2 S :   -0.115930
   3 H :   -0.187775
   4 H :   -0.194242
   5 O :    0.034332
   6 F :    0.250479
   7 O :    0.035361
   8 H :   -0.197798
   9 H :   -0.190958
  10 H :   -0.181773

  Mayer bond orders larger than 0.100000
B(  0-C ,  1-C ) :   0.9006 B(  0-C ,  8-H ) :   0.8956 B(  0-C ,  9-H ) :   0.9042
B(  0-C , 10-H ) :   0.9535 B(  1-C ,  2-S ) :   0.8598 B(  1-C ,  3-H ) :   0.8975
B(  1-C ,  4-H ) :   0.9039 B(  2-S ,  5-O ) :   1.5439 B(  2-S ,  6-F ) :   0.5763
B(  2-S ,  7-O ) :   1.5651

E(0)                                       ...   -725.441120761
E(0)                                       ...   -725.441120761
E(CORR)(strong-pairs)                      ...     -1.305840015
E(CORR)(weak-pairs)                        ...     -0.001261317
E(CORR)(corrected)                         ...     -1.307101332
E(TOT)                                     ...   -726.748222093
E(CCSD(T))                                 ...   -726.801045754
FINAL SINGLE POINT ENERGY      -726.801045753935

DIPOLE MOMENT
-------------
                                X             Y             Z
Electronic contribution:     -6.46929      -6.52172       0.29256
Nuclear contribution   :      7.20921       7.65416       0.78523
                        -----------------------------------------
Total Dipole Moment    :      0.73993       1.13243       1.07779
                        -----------------------------------------
Magnitude (a.u.)       :      1.72961
Magnitude (Debye)      :      4.39631

Rotational constants in cm-1:     0.153780     0.081282     0.079816
Rotational constants in MHz :  4610.199589  2436.778679  2392.820729

                             ****ORCA TERMINATED NORMALLY****
TOTAL RUN TIME: 0 days 0 hours 6 minutes 27 seconds 987 msec
