                         Program Version 5.0.0 -  RELEASE  -
|  1> !DLPNO-CCSD(T) aug-cc-pVTZ aug-cc-pVTZ/C TightSCF TightPNO RIJCOSX def2/J
|  2> *xyz 0 1
|  3> C          0.96805        1.63064       -3.71575
|  4> C         -0.50835        1.72268       -4.12430
|  5> S         -1.32861        0.14674       -4.43578
|  6> H         -0.59151        2.29496       -5.04722
|  7> H         -1.11411        2.23561       -3.37436
|  8> O         -2.57135        0.47573       -5.06834
|  9> O         -1.51496       -0.40051       -3.06342
| 10> F         -0.37793       -0.62756       -5.20114
| 11> H          1.51840        1.12197       -4.47946
| 12> H          1.05062        1.08971       -2.79625
| 13> H          1.36450        2.61606       -3.58668
| 14> *
| 15> %MaxCore 64000
| 16>
| 17> %pal nprocs 18
| 18> end
| 19>
| 20> %scf
| 21>   MaxIter 150
| 22> end
| 23>
| 24>
| 25>                          ****END OF INPUT****

CARTESIAN COORDINATES (ANGSTROEM)
---------------------------------
  C      0.968050    1.630640   -3.715750
  C     -0.508350    1.722680   -4.124300
  S     -1.328610    0.146740   -4.435780
  H     -0.591510    2.294960   -5.047220
  H     -1.114110    2.235610   -3.374360
  O     -2.571350    0.475730   -5.068340
  O     -1.514960   -0.400510   -3.063420
  F     -0.377930   -0.627560   -5.201140
  H      1.518400    1.121970   -4.479460
  H      1.050620    1.089710   -2.796250
  H      1.364500    2.616060   -3.586680

 Total Charge           Charge          ....    0
 Multiplicity           Mult            ....    1
 Number of Electrons    NEL             ....   58
 Basis Dimension        Dim             ....  395

ORBITAL ENERGIES
----------------

  NO   OCC          E(Eh)            E(eV)
   0   2.0000     -92.251013     -2510.2777
   1   2.0000     -26.434078      -719.3078
   2   2.0000     -20.574571      -559.8625
   3   2.0000     -20.553711      -559.2949
   4   2.0000     -11.293760      -307.3188
   5   2.0000     -11.250607      -306.1446
   6   2.0000      -9.214606      -250.7422
   7   2.0000      -6.902224      -187.8191
   8   2.0000      -6.898165      -187.7086
   9   2.0000      -6.897361      -187.6867
  10   2.0000      -1.801288       -49.0156
  11   2.0000      -1.457804       -39.6689
  12   2.0000      -1.341063       -36.4922
  13   2.0000      -1.098574       -29.8937
  14   2.0000      -0.987951       -26.8835
  15   2.0000      -0.916039       -24.9267
  16   2.0000      -0.833660       -22.6850
  17   2.0000      -0.828945       -22.5568
  18   2.0000      -0.757406       -20.6101
  19   2.0000      -0.672253       -18.2929
  20   2.0000      -0.661752       -18.0072
  21   2.0000      -0.632902       -17.2221
  22   2.0000      -0.605239       -16.4694
  23   2.0000      -0.573843       -15.6151
  24   2.0000      -0.552810       -15.0427
  25   2.0000      -0.543988       -14.8027
  26   2.0000      -0.498794       -13.5729
  27   2.0000      -0.477215       -12.9857
  28   2.0000      -0.472290       -12.8517
  29   0.0000       0.022402         0.6096
  30   0.0000       0.036555         0.9947
  31   0.0000       0.038963         1.0602
  32   0.0000       0.048084         1.3084
  33   0.0000       0.061958         1.6860

MULLIKEN ATOMIC CHARGES
-----------------------
   0 C :   -0.951064
   1 C :   -0.513064
   2 S :    2.139998
   3 H :    0.295007
   4 H :    0.318336
   5 O :   -0.876693
   6 O :   -0.876803
   7 F :   -0.507652
   8 H :    0.324823
   9 H :    0.338642
  10 H :    0.308471
Sum of atomic charges:   -0.0000000

LOEWDIN ATOMIC CHARGES
----------------------
   0 C :    0.574380
   1 C :    0.172388
   2 S :   -0.121127
   3 H :   -0.202750
   4 H :   -0.177740
   5 O :    0.033945
   6 O :    0.001313
   7 F :    0.287492
   8 H :   -0.197705
   9 H :   -0.189846
  10 H :   -0.180349

  Mayer bond orders larger than 0.100000
B(  0-C ,  1-C ) :   0.8933 B(  0-C ,  8-H ) :   0.9108 B(  0-C ,  9-H ) :   0.8876
B(  0-C , 10-H ) :   0.9576 B(  1-C ,  2-S ) :   0.8686 B(  1-C ,  3-H ) :   0.9173
B(  1-C ,  4-H ) :   0.8875 B(  2-S ,  5-O ) :   1.5488 B(  2-S ,  6-O ) :   1.5131
B(  2-S ,  7-F ) :   0.5934

E(0)                                       ...   -725.421323278
E(0)                                       ...   -725.421323278
E(CORR)(strong-pairs)                      ...     -1.306714649
E(CORR)(weak-pairs)                        ...     -0.001255908
E(CORR)(corrected)                         ...     -1.307970557
E(TOT)                                     ...   -726.729293835
E(CCSD(T))                                 ...   -726.782364272
FINAL SINGLE POINT ENERGY      -726.782364272197

DIPOLE MOMENT
-------------
                                X             Y             Z
Electronic contribution:     -4.45348      -6.89451      -3.49780
Nuclear contribution   :      6.02439       7.89075       3.01280
                        -----------------------------------------
Total Dipole Moment    :      1.57092       0.99624      -0.48499
                        -----------------------------------------
Magnitude (a.u.)       :      1.92237
Magnitude (Debye)      :      4.88627

Rotational constants in cm-1:     0.153652     0.082400     0.079295
Rotational constants in MHz :  4606.361242  2470.285703  2377.214112

                             ****ORCA TERMINATED NORMALLY****
TOTAL RUN TIME: 0 days 0 hours 6 minutes 36 seconds 246 msec
