                         Program Version 5.0.0 -  RELEASE  -
|  1> !DLPNO-CCSD(T) aug-cc-pVTZ aug-cc-pVTZ/C TightSCF TightPNO RIJCOSX def2/J
|  2>
|  3> *xyzfile 0 1 D1.xyz
|  4>
|  5> %MaxCore 64000
|  6>
|  7> %pal nprocs 18
|  8> end
|  9>
| 10> %scf
| 11>   MaxIter 150
| 12> end
| 13>
| 14>
| 15>                          ****END OF INPUT****

CARTESIAN COORDINATES (ANGSTROEM)
---------------------------------
  C      1.364014    0.468742   -2.813764
  C      0.428844    0.321402   -1.655312
  C      0.968045    1.630639   -3.715749
  C     -0.508347    1.722679   -4.124300
  S     -1.328608    0.146737   -4.435781
  H     -0.591511    2.294958   -5.047219
  H     -1.114114    2.235610   -3.374362
  H      0.748578   -0.400542   -1.001345
  H     -0.461053    0.023332   -2.077731
  H      0.310258    1.201375   -1.134948
  F     -2.571347    0.475733   -5.068341
  O     -1.514963   -0.400512   -3.063420
  H      1.294847   -0.468742   -3.364684
  H      2.376216    0.597400   -2.431495
  H      1.578688    1.520652   -4.612733
  H      1.266653    2.575988   -3.250448
  O     -0.377928   -0.627558   -5.201141

 Total Charge           Charge          ....    0
 Multiplicity           Mult            ....    1
 Number of Electrons    NEL             ....   74
 Basis Dimension        Dim             ....  579

ORBITAL ENERGIES
----------------

  NO   OCC          E(Eh)            E(eV)
   0   2.0000     -92.258231     -2510.4741
   1   2.0000     -26.444996      -719.6049
   2   2.0000     -20.575468      -559.8869
   3   2.0000     -20.559634      -559.4561
   4   2.0000     -11.294362      -307.3352
   5   2.0000     -11.247635      -306.0637
   6   2.0000     -11.206313      -304.9393
   7   2.0000     -11.142231      -303.1955
   8   2.0000      -9.221979      -250.9428
   9   2.0000      -6.909441      -188.0154
  10   2.0000      -6.905593      -187.9107
  11   2.0000      -6.904829      -187.8900
  12   2.0000      -1.817120       -49.4464
  13   2.0000      -1.461080       -39.7580
  14   2.0000      -1.353855       -36.8403
  15   2.0000      -1.111025       -30.2325
  16   2.0000      -1.043165       -28.3860
  17   2.0000      -0.977663       -26.6036
  18   2.0000      -0.918767       -25.0009
  19   2.0000      -0.845430       -23.0053
  20   2.0000      -0.840731       -22.8775
  21   2.0000      -0.802353       -21.8331
  22   2.0000      -0.755730       -20.5645
  23   2.0000      -0.692947       -18.8561
  24   2.0000      -0.671944       -18.2845
  25   2.0000      -0.642492       -17.4831
  26   2.0000      -0.634149       -17.2561
  27   2.0000      -0.585373       -15.9288
  28   2.0000      -0.566251       -15.4085
  29   2.0000      -0.559667       -15.2293
  30   2.0000      -0.549638       -14.9564
  31   2.0000      -0.514403       -13.9976
  32   2.0000      -0.498087       -13.5536
  33   2.0000      -0.484650       -13.1880
  34   2.0000      -0.461087       -12.5468
  35   2.0000      -0.459133       -12.4936
  36   2.0000      -0.421619       -11.4728
  37   0.0000       0.023326         0.6347
  38   0.0000       0.036307         0.9880
  39   0.0000       0.038299         1.0422
  40   0.0000       0.044668         1.2155
  41   0.0000       0.055407         1.5077

MULLIKEN ATOMIC CHARGES
-----------------------
   0 C :   -0.376712
   1 C :   -1.006775
   2 C :   -0.450500
   3 C :   -0.477527
   4 S :    2.112684
   5 H :    0.257175
   6 H :    0.268101
   7 H :    0.168817
   8 H :    0.489547
   9 H :    0.234980
  10 F :   -0.513529
  11 O :   -0.850532
  12 H :    0.218975
  13 H :    0.344339
  14 H :    0.241914
  15 H :    0.269135
  16 O :   -0.930092
Sum of atomic charges:   -0.0000000

LOEWDIN ATOMIC CHARGES
----------------------
   0 C :    0.266024
   1 C :    0.587878
   2 C :    0.272055
   3 C :    0.220154
   4 S :    0.028733
   5 H :   -0.194306
   6 H :   -0.181607
   7 H :   -0.189355
   8 H :   -0.641746
   9 H :   -0.190440
  10 F :    0.305253
  11 O :    0.245387
  12 H :   -0.173118
  13 H :   -0.134821
  14 H :   -0.155457
  15 H :   -0.133296
  16 O :    0.068662

  Mayer bond orders larger than 0.100000
B(  0-C ,  1-C ) :   0.7300 B(  0-C ,  2-C ) :   0.8538 B(  0-C , 12-H ) :   1.0361
B(  0-C , 13-H ) :   0.9158 B(  1-C ,  7-H ) :   1.1190 B(  1-C ,  8-H ) :   0.7661
B(  1-C ,  9-H ) :   1.0274 B(  2-C ,  3-C ) :   0.9074 B(  2-C ,  4-S ) :   0.1158
B(  2-C , 14-H ) :   0.9768 B(  2-C , 15-H ) :   0.9453 B(  3-C ,  4-S ) :   0.8379
B(  3-C ,  5-H ) :   0.9369 B(  3-C ,  6-H ) :   0.9313 B(  4-S , 10-F ) :   0.4170
B(  4-S , 11-O ) :   1.5194 B(  4-S , 16-O ) :   1.5524 B(  7-H ,  9-H ) :   0.1104

E(0)                                       ...   -803.457123409
E(0)                                       ...   -803.457123409
E(CORR)(strong-pairs)                      ...     -1.690166069
E(CORR)(weak-pairs)                        ...     -0.002104405
E(CORR)(corrected)                         ...     -1.692270474
E(TOT)                                     ...   -805.149393883
E(CCSD(T))                                 ...   -805.218861028
FINAL SINGLE POINT ENERGY      -805.218861027869

DIPOLE MOMENT
-------------
                                X             Y             Z
Electronic contribution:    -12.51848      -3.92767      -9.77340
Nuclear contribution   :     12.25227       5.48563       9.26621
                        -----------------------------------------
Total Dipole Moment    :     -0.26621       1.55796      -0.50720
                        -----------------------------------------
Magnitude (a.u.)       :      1.65993
Magnitude (Debye)      :      4.21920

Rotational constants in cm-1:     0.103176     0.044975     0.040960
Rotational constants in MHz :  3093.138469  1348.317425  1227.945122

                             ****ORCA TERMINATED NORMALLY****
TOTAL RUN TIME: 0 days 0 hours 44 minutes 57 seconds 977 msec
