                         Program Version 5.0.0 -  RELEASE  -
|  1> !wB97X-D3 RIJCOSX def2-SVPD def2/J TightSCF
|  2> *xyz -1 1
|  3> C         -0.77894        0.17197        1.80496
|  4> C         -0.60249       -0.63071        0.49224
|  5> H          0.31389       -1.24035        0.60350
|  6> H         -0.36383        0.11332       -0.30117
|  7> O         -1.71206       -1.37684        0.20253
|  8> H         -1.65864        0.77733        1.73736
|  9> H          0.07466        0.79896        1.95712
| 10> H         -0.87474       -0.50584        2.62734
| 11> *
| 12> %MaxCore 64000
| 13>
| 14> %pal nprocs 18
| 15> end
| 16>
| 17> %scf
| 18>   MaxIter 150
| 19> end
| 20>
| 21>
| 22>                          ****END OF INPUT****

CARTESIAN COORDINATES (ANGSTROEM)
---------------------------------
  C     -0.778940    0.171970    1.804960
  C     -0.602490   -0.630710    0.492240
  H      0.313890   -1.240350    0.603500
  H     -0.363830    0.113320   -0.301170
  O     -1.712060   -1.376840    0.202530
  H     -1.658640    0.777330    1.737360
  H      0.074660    0.798960    1.957120
  H     -0.874740   -0.505840    2.627340

 Total Charge           Charge          ....   -1
 Multiplicity           Mult            ....    1
 Number of Electrons    NEL             ....   26
 Basis Dimension        Dim             ....  103

ORBITAL ENERGIES
----------------

  NO   OCC          E(Eh)            E(eV)
   0   2.0000     -18.907638      -514.5030
   1   2.0000     -10.104028      -274.9446
   2   2.0000     -10.080019      -274.2913
   3   2.0000      -0.782398       -21.2901
   4   2.0000      -0.630814       -17.1653
   5   2.0000      -0.475446       -12.9376
   6   2.0000      -0.350495        -9.5374
   7   2.0000      -0.325201        -8.8492
   8   2.0000      -0.268346        -7.3021
   9   2.0000      -0.252840        -6.8801
  10   2.0000      -0.206316        -5.6141
  11   2.0000      -0.058656        -1.5961
  12   2.0000      -0.057963        -1.5772
  13   0.0000       0.246303         6.7023
  14   0.0000       0.277435         7.5494
  15   0.0000       0.316475         8.6117
  16   0.0000       0.328812         8.9474
  17   0.0000       0.344617         9.3775

MULLIKEN ATOMIC CHARGES
-----------------------
   0 C :    0.287251
   1 C :    0.174194
   2 H :   -0.165100
   3 H :   -0.143206
   4 O :   -0.916939
   5 H :   -0.088165
   6 H :   -0.060868
   7 H :   -0.087165
Sum of atomic charges:   -1.0000000

LOEWDIN ATOMIC CHARGES
----------------------
   0 C :    0.059941
   1 C :   -0.255651
   2 H :   -0.032738
   3 H :   -0.030801
   4 O :   -0.596410
   5 H :   -0.041647
   6 H :   -0.059432
   7 H :   -0.043262

  Mayer bond orders larger than 0.100000
B(  0-C ,  1-C ) :   1.1669 B(  0-C ,  2-H ) :   0.1051 B(  0-C ,  3-H ) :   0.1076
B(  0-C ,  4-O ) :   0.1081 B(  0-C ,  5-H ) :   0.9125 B(  0-C ,  6-H ) :   0.8963
B(  0-C ,  7-H ) :   0.9134 B(  1-C ,  2-H ) :   0.9831 B(  1-C ,  3-H ) :   0.9732
B(  1-C ,  4-O ) :   1.1793 B(  1-C ,  5-H ) :   0.1643 B(  1-C ,  6-H ) :   0.1108
B(  1-C ,  7-H ) :   0.1523

Dispersion correction           -0.000861350
FINAL SINGLE POINT ENERGY      -154.273653309252

DIPOLE MOMENT
-------------
                                X             Y             Z
Electronic contribution:     -1.52440      -1.75658      -1.44018
Nuclear contribution   :      2.47835       2.80827       2.30058
                        -----------------------------------------
Total Dipole Moment    :      0.95395       1.05169       0.86040
                        -----------------------------------------
Magnitude (a.u.)       :      1.66023
Magnitude (Debye)      :      4.21996

Rotational constants in cm-1:     1.255775     0.327783     0.287473
Rotational constants in MHz : 37647.186859  9826.677683  8618.224821

                             ****ORCA TERMINATED NORMALLY****
TOTAL RUN TIME: 0 days 0 hours 0 minutes 4 seconds 694 msec
