                         Program Version 5.0.0 -  RELEASE  -
|  1> !wB97X-D3 RIJCOSX def2-SVPD def2/J TightSCF
|  2> *xyz 1 1
|  3> C         -2.12050        0.88520        1.78951
|  4> C         -0.77894        0.17197        1.80496
|  5> H         -2.32419        1.47265        2.68608
|  6> H         -2.18770        1.54127        0.91948
|  7> N         -3.17690       -0.15948        1.61070
|  8> H         -4.06474        0.23127        1.28675
|  9> H         -3.34407       -0.67151        2.48493
| 10> H         -2.71686       -0.78189        0.93588
| 11> H         -0.65708       -0.37837        0.89547
| 12> H         -0.74207       -0.50050        2.63642
| 13> H          0.00707        0.89251        1.89389
| 14> *
| 15> %MaxCore 64000
| 16>
| 17> %pal nprocs 18
| 18> end
| 19>
| 20> %scf
| 21>   MaxIter 150
| 22> end
| 23>
| 24>
| 25>                          ****END OF INPUT****

CARTESIAN COORDINATES (ANGSTROEM)
---------------------------------
  C     -2.120500    0.885200    1.789510
  C     -0.778940    0.171970    1.804960
  H     -2.324190    1.472650    2.686080
  H     -2.187700    1.541270    0.919480
  N     -3.176900   -0.159480    1.610700
  H     -4.064740    0.231270    1.286750
  H     -3.344070   -0.671510    2.484930
  H     -2.716860   -0.781890    0.935880
  H     -0.657080   -0.378370    0.895470
  H     -0.742070   -0.500500    2.636420
  H      0.007070    0.892510    1.893890

 Total Charge           Charge          ....    1
 Multiplicity           Mult            ....    1
 Number of Electrons    NEL             ....   26
 Basis Dimension        Dim             ....  124

ORBITAL ENERGIES
----------------

  NO   OCC          E(Eh)            E(eV)
   0   2.0000     -14.772594      -401.9827
   1   2.0000     -10.546634      -286.9885
   2   2.0000     -10.470338      -284.9124
   3   2.0000      -1.326601       -36.0986
   4   2.0000      -1.078081       -29.3361
   5   2.0000      -0.952853       -25.9284
   6   2.0000      -0.909025       -24.7358
   7   2.0000      -0.897958       -24.4347
   8   2.0000      -0.792784       -21.5728
   9   2.0000      -0.744982       -20.2720
  10   2.0000      -0.682257       -18.5652
  11   2.0000      -0.674526       -18.3548
  12   2.0000      -0.652181       -17.7467
  13   0.0000      -0.110781        -3.0145
  14   0.0000      -0.051755        -1.4083
  15   0.0000      -0.049491        -1.3467
  16   0.0000      -0.044082        -1.1995
  17   0.0000      -0.013796        -0.3754

MULLIKEN ATOMIC CHARGES
-----------------------
   0 C :    0.145427
   1 C :    0.434384
   2 H :   -0.064786
   3 H :    0.010291
   4 N :   -0.783339
   5 H :    0.347528
   6 H :    0.387126
   7 H :    0.460322
   8 H :    0.006790
   9 H :    0.061793
  10 H :   -0.005537
Sum of atomic charges:    1.0000000

LOEWDIN ATOMIC CHARGES
----------------------
   0 C :    0.060134
   1 C :    0.163691
   2 H :    0.054749
   3 H :    0.055441
   4 N :    0.328800
   5 H :    0.108277
   6 H :    0.111684
   7 H :    0.090403
   8 H :    0.002056
   9 H :    0.006561
  10 H :    0.018203

  Mayer bond orders larger than 0.100000
B(  0-C ,  1-C ) :   1.2562 B(  0-C ,  2-H ) :   0.9954 B(  0-C ,  3-H ) :   0.9399
B(  0-C ,  4-N ) :   0.7987 B(  0-C ,  8-H ) :   0.1178 B(  0-C ,  9-H ) :   0.1059
B(  0-C , 10-H ) :   0.1549 B(  1-C ,  8-H ) :   0.8714 B(  1-C ,  9-H ) :   0.8468
B(  1-C , 10-H ) :   0.8977 B(  4-N ,  5-H ) :   0.7964 B(  4-N ,  6-H ) :   0.7885
B(  4-N ,  7-H ) :   0.6413

Dispersion correction           -0.001457138
FINAL SINGLE POINT ENERGY      -135.405903254677

DIPOLE MOMENT
-------------
                                X             Y             Z
Electronic contribution:     -1.83332      -0.15998      -0.05962
Nuclear contribution   :      0.50278      -0.30871      -0.06979
                        -----------------------------------------
Total Dipole Moment    :     -1.33054      -0.46870      -0.12941
                        -----------------------------------------
Magnitude (a.u.)       :      1.41660
Magnitude (Debye)      :      3.60072

Rotational constants in cm-1:     0.963746     0.295157     0.256910
Rotational constants in MHz : 28892.375247  8848.576767  7701.963879

                             ****ORCA TERMINATED NORMALLY****
TOTAL RUN TIME: 0 days 0 hours 0 minutes 5 seconds 386 msec
