                         Program Version 5.0.0 -  RELEASE  -
|  1> !wB97X-D3 RIJCOSX def2-SVPD def2/J TightSCF
|  2> *xyz 0 1
|  3> C         -0.77894        0.17197        1.80496
|  4> C         -0.60249       -0.63071        0.49224
|  5> H          0.31389       -1.24035        0.60350
|  6> H         -0.36383        0.11332       -0.30117
|  7> F         -1.71206       -1.37684        0.20253
|  8> H         -1.65864        0.77733        1.73736
|  9> H          0.07466        0.79896        1.95712
| 10> H         -0.87474       -0.50584        2.62734
| 11> *
| 12> %MaxCore 64000
| 13>
| 14> %pal nprocs 18
| 15> end
| 16>
| 17> %scf
| 18>   MaxIter 150
| 19> end
| 20>
| 21>
| 22>                          ****END OF INPUT****

CARTESIAN COORDINATES (ANGSTROEM)
---------------------------------
  C     -0.778940    0.171970    1.804960
  C     -0.602490   -0.630710    0.492240
  H      0.313890   -1.240350    0.603500
  H     -0.363830    0.113320   -0.301170
  F     -1.712060   -1.376840    0.202530
  H     -1.658640    0.777330    1.737360
  H      0.074660    0.798960    1.957120
  H     -0.874740   -0.505840    2.627340

 Total Charge           Charge          ....    0
 Multiplicity           Mult            ....    1
 Number of Electrons    NEL             ....   26
 Basis Dimension        Dim             ....  103

ORBITAL ENERGIES
----------------

  NO   OCC          E(Eh)            E(eV)
   0   2.0000     -24.791130      -674.6009
   1   2.0000     -10.372724      -282.2562
   2   2.0000     -10.286278      -279.9038
   3   2.0000      -1.301252       -35.4089
   4   2.0000      -0.873105       -23.7584
   5   2.0000      -0.738881       -20.1060
   6   2.0000      -0.614630       -16.7249
   7   2.0000      -0.602164       -16.3857
   8   2.0000      -0.563184       -15.3250
   9   2.0000      -0.506079       -13.7711
  10   2.0000      -0.499120       -13.5817
  11   2.0000      -0.433319       -11.7912
  12   2.0000      -0.429846       -11.6967
  13   0.0000       0.094021         2.5584
  14   0.0000       0.124468         3.3870
  15   0.0000       0.154601         4.2069
  16   0.0000       0.159985         4.3534
  17   0.0000       0.187342         5.0978

MULLIKEN ATOMIC CHARGES
-----------------------
   0 C :    0.216351
   1 C :    0.381542
   2 H :   -0.039492
   3 H :   -0.018655
   4 F :   -0.459628
   5 H :   -0.035094
   6 H :   -0.012990
   7 H :   -0.032034
Sum of atomic charges:   -0.0000000

LOEWDIN ATOMIC CHARGES
----------------------
   0 C :    0.131462
   1 C :    0.071999
   2 H :    0.029717
   3 H :    0.032758
   4 F :   -0.223228
   5 H :   -0.013813
   6 H :   -0.013774
   7 H :   -0.015122

  Mayer bond orders larger than 0.100000
B(  0-C ,  1-C ) :   1.3068 B(  0-C ,  5-H ) :   0.9137 B(  0-C ,  6-H ) :   0.8839
B(  0-C ,  7-H ) :   0.9160 B(  1-C ,  2-H ) :   0.9623 B(  1-C ,  3-H ) :   0.9535
B(  1-C ,  4-F ) :   0.7370 B(  1-C ,  5-H ) :   0.1217 B(  1-C ,  7-H ) :   0.1116

Dispersion correction           -0.000877435
FINAL SINGLE POINT ENERGY      -178.887937268799

DIPOLE MOMENT
-------------
                                X             Y             Z
Electronic contribution:     -2.71228      -3.27471      -2.81830
Nuclear contribution   :      3.27800       3.70743       3.04146
                        -----------------------------------------
Total Dipole Moment    :      0.56573       0.43272       0.22316
                        -----------------------------------------
Magnitude (a.u.)       :      0.74639
Magnitude (Debye)      :      1.89717

Rotational constants in cm-1:     1.234437     0.305084     0.268865
Rotational constants in MHz : 37007.496448  9146.194083  8060.380630

                             ****ORCA TERMINATED NORMALLY****
TOTAL RUN TIME: 0 days 0 hours 0 minutes 4 seconds 809 msec
