                         Program Version 5.0.0 -  RELEASE  -
|  1> !wB97X-D3 RIJCOSX def2-SVPD def2/J TightSCF
|  2> *xyz 0 1
|  3> C         -2.12050        0.88520        1.78951
|  4> C         -0.77894        0.17197        1.80496
|  5> H         -2.32419        1.47265        2.68608
|  6> H         -2.18770        1.54127        0.91948
|  7> C         -3.17690       -0.15948        1.61070
|  8> H         -4.06474        0.23127        1.28675
|  9> H         -3.34407       -0.67151        2.48493
| 10> H         -2.71686       -0.78189        0.93588
| 11> H         -0.65708       -0.37837        0.89547
| 12> H         -0.74207       -0.50050        2.63642
| 13> H          0.00707        0.89251        1.89389
| 14> *
| 15> %MaxCore 64000
| 16>
| 17> %pal nprocs 18
| 18> end
| 19>
| 20> %scf
| 21>   MaxIter 150
| 22> end
| 23>
| 24>
| 25>                          ****END OF INPUT****

CARTESIAN COORDINATES (ANGSTROEM)
---------------------------------
  C     -2.120500    0.885200    1.789510
  C     -0.778940    0.171970    1.804960
  H     -2.324190    1.472650    2.686080
  H     -2.187700    1.541270    0.919480
  C     -3.176900   -0.159480    1.610700
  H     -4.064740    0.231270    1.286750
  H     -3.344070   -0.671510    2.484930
  H     -2.716860   -0.781890    0.935880
  H     -0.657080   -0.378370    0.895470
  H     -0.742070   -0.500500    2.636420
  H      0.007070    0.892510    1.893890

 Total Charge           Charge          ....    0
 Multiplicity           Mult            ....    1
 Number of Electrons    NEL             ....   26
 Basis Dimension        Dim             ....  124

ORBITAL ENERGIES
----------------

  NO   OCC          E(Eh)            E(eV)
   0   2.0000     -10.276242      -279.6308
   1   2.0000     -10.268472      -279.4193
   2   2.0000     -10.248746      -278.8825
   3   2.0000      -0.907148       -24.6848
   4   2.0000      -0.793525       -21.5929
   5   2.0000      -0.690466       -18.7885
   6   2.0000      -0.574396       -15.6301
   7   2.0000      -0.554667       -15.0933
   8   2.0000      -0.497840       -13.5469
   9   2.0000      -0.481703       -13.1078
  10   2.0000      -0.434771       -11.8307
  11   2.0000      -0.425898       -11.5893
  12   2.0000      -0.421450       -11.4682
  13   0.0000       0.098716         2.6862
  14   0.0000       0.124189         3.3794
  15   0.0000       0.130962         3.5637
  16   0.0000       0.162708         4.4275
  17   0.0000       0.180409         4.9092

MULLIKEN ATOMIC CHARGES
-----------------------
   0 C :   -0.570069
   1 C :    0.502725
   2 H :   -0.134042
   3 H :   -0.024580
   4 C :    0.900981
   5 H :   -0.231062
   6 H :   -0.145211
   7 H :   -0.170140
   8 H :   -0.007472
   9 H :   -0.013961
  10 H :   -0.107168
Sum of atomic charges:   -0.0000000

LOEWDIN ATOMIC CHARGES
----------------------
   0 C :   -0.117589
   1 C :    0.104915
   2 H :    0.020496
   3 H :    0.022781
   4 C :    0.114537
   5 H :   -0.032614
   6 H :   -0.026123
   7 H :   -0.040629
   8 H :   -0.015227
   9 H :   -0.010025
  10 H :   -0.020520

  Mayer bond orders larger than 0.100000
B(  0-C ,  1-C ) :   1.2050 B(  0-C ,  2-H ) :   1.0250 B(  0-C ,  3-H ) :   0.9376
B(  0-C ,  4-C ) :   1.1900 B(  0-C ,  5-H ) :   0.1650 B(  0-C ,  6-H ) :   0.1900
B(  0-C ,  7-H ) :   0.2401 B(  0-C ,  8-H ) :   0.1304 B(  0-C ,  9-H ) :   0.1443
B(  0-C , 10-H ) :   0.1589 B(  1-C ,  8-H ) :   0.8667 B(  1-C ,  9-H ) :   0.8505
B(  1-C , 10-H ) :   0.8886 B(  4-C ,  5-H ) :   0.8029 B(  4-C ,  6-H ) :   0.7396
B(  4-C ,  7-H ) :   0.7658

Dispersion correction           -0.001406904
FINAL SINGLE POINT ENERGY      -119.007966465770

DIPOLE MOMENT
-------------
                                X             Y             Z
Electronic contribution:     -0.14343       0.46989       0.11224
Nuclear contribution   :      0.13334      -0.45108      -0.10852
                        -----------------------------------------
Total Dipole Moment    :     -0.01009       0.01881       0.00373
                        -----------------------------------------
Magnitude (a.u.)       :      0.02167
Magnitude (Debye)      :      0.05507

Rotational constants in cm-1:     0.972269     0.310387     0.269029
Rotational constants in MHz : 29147.878530  9305.178981  8065.286472

                             ****ORCA TERMINATED NORMALLY****
TOTAL RUN TIME: 0 days 0 hours 0 minutes 5 seconds 532 msec
