                         Program Version 5.0.0 -  RELEASE  -
|  1> !M062X D3Zero RIJCOSX def2-TZVP def2/J TightSCF
|  2> *xyz -1 1
|  3> C         -0.91495        0.61511        2.50554
|  4> C         -0.05915        1.50352        3.41058
|  5> H          0.36536        2.34431        2.86116
|  6> H         -0.69226        1.92021        4.19898
|  7> C          1.08303        0.74964        4.08571
|  8> O          2.22817        1.26348        4.01983
|  9> O          0.81003       -0.34541        4.63627
| 10> H         -0.30401        0.20228        1.73015
| 11> H         -1.69811        1.19946        2.06954
| 12> H         -1.34124       -0.17772        3.08397
| 13> *
| 14>
| 15> %MaxCore 64000
| 16>
| 17> %pal nprocs 4
| 18> end
| 19>
| 20> %scf
| 21>   MaxIter 150
| 22> end
| 23>
| 24>
| 25>                          ****END OF INPUT****

CARTESIAN COORDINATES (ANGSTROEM)
---------------------------------
  C     -0.914950    0.615110    2.505540
  C     -0.059150    1.503520    3.410580
  H      0.365360    2.344310    2.861160
  H     -0.692260    1.920210    4.198980
  C      1.083030    0.749640    4.085710
  O      2.228170    1.263480    4.019830
  O      0.810030   -0.345410    4.636270
  H     -0.304010    0.202280    1.730150
  H     -1.698110    1.199460    2.069540
  H     -1.341240   -0.177720    3.083970

 Total Charge           Charge          ....   -1
 Multiplicity           Mult            ....    1
 Number of Electrons    NEL             ....   40
 Basis Dimension        Dim             ....  185

ORBITAL ENERGIES
----------------

  NO   OCC          E(Eh)            E(eV)
   0   2.0000     -19.350471      -526.5531
   1   2.0000     -19.349551      -526.5280
   2   2.0000     -10.413783      -283.3734
   3   2.0000     -10.366730      -282.0931
   4   2.0000     -10.355177      -281.7787
   5   2.0000      -0.935055       -25.4441
   6   2.0000      -0.836429       -22.7604
   7   2.0000      -0.699280       -19.0284
   8   2.0000      -0.559253       -15.2180
   9   2.0000      -0.394259       -10.7283
  10   2.0000      -0.360017        -9.7966
  11   2.0000      -0.333028        -9.0622
  12   2.0000      -0.296616        -8.0713
  13   2.0000      -0.280221        -7.6252
  14   2.0000      -0.274574        -7.4715
  15   2.0000      -0.241131        -6.5615
  16   2.0000      -0.224144        -6.0993
  17   2.0000      -0.106046        -2.8857
  18   2.0000      -0.104662        -2.8480
  19   2.0000      -0.097722        -2.6591
  20   0.0000       0.216402         5.8886
  21   0.0000       0.258142         7.0244
  22   0.0000       0.278745         7.5850
  23   0.0000       0.280891         7.6434
  24   0.0000       0.297311         8.0903

MULLIKEN ATOMIC CHARGES
-----------------------
   0 C :   -0.393393
   1 C :   -0.240686
   2 H :    0.083186
   3 H :    0.078024
   4 C :    0.274870
   5 O :   -0.559556
   6 O :   -0.561956
   7 H :    0.113319
   8 H :    0.081218
   9 H :    0.124975
Sum of atomic charges:   -1.0000000

LOEWDIN ATOMIC CHARGES
----------------------
   0 C :   -0.328024
   1 C :   -0.293345
   2 H :    0.121591
   3 H :    0.125020
   4 C :   -0.693419
   5 O :   -0.125934
   6 O :   -0.123384
   7 H :    0.109656
   8 H :    0.094271
   9 H :    0.113567

  Mayer bond orders larger than 0.100000
B(  0-C ,  1-C ) :   0.9266 B(  0-C ,  7-H ) :   0.9811 B(  0-C ,  8-H ) :   0.9759
B(  0-C ,  9-H ) :   0.9717 B(  1-C ,  2-H ) :   0.9703 B(  1-C ,  3-H ) :   0.9678
B(  1-C ,  4-C ) :   0.9423 B(  4-C ,  5-O ) :   1.8466 B(  4-C ,  6-O ) :   1.8129

Dispersion correction           -0.000087324
FINAL SINGLE POINT ENERGY      -267.827234476827

DIPOLE MOMENT
-------------
                                X             Y             Z
Electronic contribution:      4.75936      -1.00474       3.37468
Nuclear contribution   :     -6.38408       1.63097      -4.40540
                        -----------------------------------------
Total Dipole Moment    :     -1.62472       0.62623      -1.03072
                        -----------------------------------------
Magnitude (a.u.)       :      2.02342
Magnitude (Debye)      :      5.14314

Rotational constants in cm-1:     0.319732     0.134414     0.104753
Rotational constants in MHz :  9585.336550  4029.633034  3140.404334

                             ****ORCA TERMINATED NORMALLY****
TOTAL RUN TIME: 0 days 0 hours 0 minutes 20 seconds 823 msec
