                         Program Version 5.0.0 -  RELEASE  -
|  1> !M062X D3Zero RIJCOSX def2-TZVP def2/J TightSCF
|  2> *xyz 1 1
|  3> C          4.60295       -2.44010        2.63478
|  4> C          3.86085       -1.59157        3.62289
|  5> N          2.75650       -2.04616        4.16633
|  6> N          4.25433       -0.36291        3.86046
|  7> H          3.56526        0.31099        4.16898
|  8> H          5.05429       -0.01606        3.33784
|  9> H          2.43970       -2.97389        3.89740
| 10> H          2.06687       -1.41253        4.54981
| 11> C          3.74469       -2.58056        1.36188
| 12> H          5.56156       -1.97135        2.40708
| 13> H          4.81050       -3.42255        3.06310
| 14> H          4.26314       -3.18477        0.64702
| 15> H          3.56325       -1.61180        0.94535
| 16> H          2.81197       -3.04259        1.60980
| 17> *
| 18>
| 19> %MaxCore 64000
| 20>
| 21> %pal nprocs 4
| 22> end
| 23>
| 24> %scf
| 25>   MaxIter 150
| 26> end
| 27>
| 28>
| 29>                          ****END OF INPUT****

CARTESIAN COORDINATES (ANGSTROEM)
---------------------------------
  C      4.602950   -2.440100    2.634780
  C      3.860850   -1.591570    3.622890
  N      2.756500   -2.046160    4.166330
  N      4.254330   -0.362910    3.860460
  H      3.565260    0.310990    4.168980
  H      5.054290   -0.016060    3.337840
  H      2.439700   -2.973890    3.897400
  H      2.066870   -1.412530    4.549810
  C      3.744690   -2.580560    1.361880
  H      5.561560   -1.971350    2.407080
  H      4.810500   -3.422550    3.063100
  H      4.263140   -3.184770    0.647020
  H      3.563250   -1.611800    0.945350
  H      2.811970   -3.042590    1.609800

 Total Charge           Charge          ....    1
 Multiplicity           Mult            ....    1
 Number of Electrons    NEL             ....   40
 Basis Dimension        Dim             ....  209

ORBITAL ENERGIES
----------------

  NO   OCC          E(Eh)            E(eV)
   0   2.0000     -14.994474      -408.0204
   1   2.0000     -14.993505      -407.9940
   2   2.0000     -10.863876      -295.6211
   3   2.0000     -10.738420      -292.2073
   4   2.0000     -10.696375      -291.0632
   5   2.0000      -1.321944       -35.9719
   6   2.0000      -1.216875       -33.1129
   7   2.0000      -1.070476       -29.1291
   8   2.0000      -0.950793       -25.8724
   9   2.0000      -0.900604       -24.5067
  10   2.0000      -0.848177       -23.0801
  11   2.0000      -0.832215       -22.6457
  12   2.0000      -0.767746       -20.8914
  13   2.0000      -0.738253       -20.0889
  14   2.0000      -0.696286       -18.9469
  15   2.0000      -0.670785       -18.2530
  16   2.0000      -0.613190       -16.6858
  17   2.0000      -0.607512       -16.5312
  18   2.0000      -0.595637       -16.2081
  19   2.0000      -0.559690       -15.2299
  20   0.0000      -0.174961        -4.7609
  21   0.0000      -0.130082        -3.5397
  22   0.0000      -0.086264        -2.3474
  23   0.0000      -0.085022        -2.3136
  24   0.0000      -0.050022        -1.3612

MULLIKEN ATOMIC CHARGES
-----------------------
   0 C :   -0.358570
   1 C :    0.445586
   2 N :   -0.404759
   3 N :   -0.394666
   4 H :    0.289835
   5 H :    0.309319
   6 H :    0.312045
   7 H :    0.294261
   8 C :   -0.376572
   9 H :    0.172614
  10 H :    0.213102
  11 H :    0.190527
  12 H :    0.161757
  13 H :    0.145521
Sum of atomic charges:    1.0000000

LOEWDIN ATOMIC CHARGES
----------------------
   0 C :   -0.218555
   1 C :   -0.294448
   2 N :    0.109986
   3 N :    0.109133
   4 H :    0.202850
   5 H :    0.212627
   6 H :    0.212333
   7 H :    0.202474
   8 C :   -0.256851
   9 H :    0.159327
  10 H :    0.168142
  11 H :    0.140266
  12 H :    0.130086
  13 H :    0.122629

  Mayer bond orders larger than 0.100000
B(  0-C ,  1-C ) :   0.9646 B(  0-C ,  8-C ) :   0.9075 B(  0-C ,  9-H ) :   0.9714
B(  0-C , 10-H ) :   0.9508 B(  1-C ,  2-N ) :   1.3905 B(  1-C ,  3-N ) :   1.4060
B(  2-N ,  6-H ) :   0.8900 B(  2-N ,  7-H ) :   0.8931 B(  3-N ,  4-H ) :   0.8942
B(  3-N ,  5-H ) :   0.8868 B(  8-C , 11-H ) :   0.9647 B(  8-C , 12-H ) :   0.9540
B(  8-C , 13-H ) :   0.9691

Dispersion correction           -0.000189502
FINAL SINGLE POINT ENERGY      -228.999955622717

DIPOLE MOMENT
-------------
                                X             Y             Z
Electronic contribution:     -0.23541       1.78988       3.71566
Nuclear contribution   :     -0.22400      -1.16268      -3.30447
                        -----------------------------------------
Total Dipole Moment    :     -0.45941       0.62721       0.41118
                        -----------------------------------------
Magnitude (a.u.)       :      0.87950
Magnitude (Debye)      :      2.23551

Rotational constants in cm-1:     0.258103     0.130571     0.102508
Rotational constants in MHz :  7737.732062  3914.431392  3073.119154

                             ****ORCA TERMINATED NORMALLY****
TOTAL RUN TIME: 0 days 0 hours 0 minutes 27 seconds 703 msec
