                         Program Version 5.0.0 -  RELEASE  -
|  1> !M062X D3Zero RIJCOSX def2-TZVP def2/J TightSCF xyzfile
|  2>
|  3> *xyzfile 0 1 B.xyz
|  4>
|  5> %MaxCore 64000
|  6>
|  7> %pal nprocs 18
|  8> end
|  9>
| 10> %scf
| 11>   MaxIter 150
| 12> end
| 13>
| 14>
| 15>                          ****END OF INPUT****

CARTESIAN COORDINATES (ANGSTROEM)
---------------------------------
  C      4.602954   -2.440100    2.634780
  C     -0.914947    0.615112    2.505538
  C     -0.059146    1.503524    3.410578
  H      0.365364    2.344315    2.861161
  H     -0.692261    1.920207    4.198985
  C      1.083027    0.749640    4.085705
  C      3.860851   -1.591565    3.622893
  N      2.756502   -2.046159    4.166333
  N      4.254325   -0.362905    3.860455
  H      3.565256    0.310994    4.168983
  H      5.054292   -0.016059    3.337838
  H      2.439696   -2.973894    3.897395
  H      2.066869   -1.412532    4.549813
  O      2.228167    1.263475    4.019826
  O      0.810034   -0.345411    4.636269
  C      3.744685   -2.580557    1.361882
  C      0.772139    0.636882    0.562129
  C     -0.130740   -0.193985    1.470763
  H     -0.840563   -0.760165    0.856377
  H      0.466691   -0.938942    2.006959
  H     -1.647961    1.245963    1.991076
  H     -1.478180   -0.081046    3.130424
  C      3.203721   -1.256004    0.826211
  H      2.898939   -3.239289    1.583074
  H      4.334962   -3.095523    0.600188
  C      2.107815   -1.442385   -0.216865
  H      2.786775   -0.672760    1.650711
  H      4.021008   -0.652993    0.414046
  C      1.390662   -0.145912   -0.602422
  H      1.372179   -2.152184    0.176151
  H      2.523302   -1.906787   -1.117115
  H      1.561361    1.100094    1.161831
  H      0.195516    1.468325    0.142758
  H      0.602893   -0.398214   -1.319716
  H      2.087247    0.508272   -1.137335
  H      5.561557   -1.971347    2.407084
  H      4.810498   -3.422552    3.063099

 Total Charge           Charge          ....    0
 Multiplicity           Mult            ....    1
 Number of Electrons    NEL             ....  118
 Basis Dimension        Dim             ....  597

ORBITAL ENERGIES
----------------

  NO   OCC          E(Eh)            E(eV)
   0   2.0000     -19.548607      -531.9446
   1   2.0000     -19.546082      -531.8759
   2   2.0000     -14.790488      -402.4696
   3   2.0000     -14.790140      -402.4602
   4   2.0000     -10.677859      -290.5593
   5   2.0000     -10.602660      -288.5130
   6   2.0000     -10.587607      -288.1034
   7   2.0000     -10.568399      -287.5808
   8   2.0000     -10.544083      -286.9191
   9   2.0000     -10.534890      -286.6689
  10   2.0000     -10.526693      -286.4459
  11   2.0000     -10.515943      -286.1534
  12   2.0000     -10.512733      -286.0660
  13   2.0000     -10.508581      -285.9530
  14   2.0000     -10.499663      -285.7103
  15   2.0000      -1.140686       -31.0396
  16   2.0000      -1.124764       -30.6064
  17   2.0000      -1.041548       -28.3420
  18   2.0000      -1.018516       -27.7152
  19   2.0000      -0.938629       -25.5414
  20   2.0000      -0.903183       -24.5769
  21   2.0000      -0.871677       -23.7195
  22   2.0000      -0.828672       -22.5493
  23   2.0000      -0.788262       -21.4497
  24   2.0000      -0.746792       -20.3213
  25   2.0000      -0.728482       -19.8230
  26   2.0000      -0.702985       -19.1292
  27   2.0000      -0.668841       -18.2001
  28   2.0000      -0.657780       -17.8991
  29   2.0000      -0.649356       -17.6699
  30   2.0000      -0.626450       -17.0466
  31   2.0000      -0.586502       -15.9595
  32   2.0000      -0.578291       -15.7361
  33   2.0000      -0.557629       -15.1739
  34   2.0000      -0.552634       -15.0379
  35   2.0000      -0.535610       -14.5747
  36   2.0000      -0.527794       -14.3620
  37   2.0000      -0.511568       -13.9205
  38   2.0000      -0.501329       -13.6419
  39   2.0000      -0.491455       -13.3732
  40   2.0000      -0.484303       -13.1785
  41   2.0000      -0.475138       -12.9292
  42   2.0000      -0.472699       -12.8628
  43   2.0000      -0.464693       -12.6449
  44   2.0000      -0.442674       -12.0458
  45   2.0000      -0.437645       -11.9089
  46   2.0000      -0.429798       -11.6954
  47   2.0000      -0.425840       -11.5877
  48   2.0000      -0.414144       -11.2694
  49   2.0000      -0.395415       -10.7598
  50   2.0000      -0.392086       -10.6692
  51   2.0000      -0.383976       -10.4485
  52   2.0000      -0.369410       -10.0522
  53   2.0000      -0.364139        -9.9087
  54   2.0000      -0.359801        -9.7907
  55   2.0000      -0.352850        -9.6015
  56   2.0000      -0.302827        -8.2403
  57   2.0000      -0.297436        -8.0936
  58   2.0000      -0.292791        -7.9672
  59   0.0000       0.004791         0.1304
  60   0.0000       0.028451         0.7742
  61   0.0000       0.049286         1.3411
  62   0.0000       0.066445         1.8081
  63   0.0000       0.078502         2.1361

MULLIKEN ATOMIC CHARGES
-----------------------
   0 C :   -0.387996
   1 C :   -0.256275
   2 C :   -0.302244
   3 H :    0.152540
   4 H :    0.143819
   5 C :    0.374876
   6 C :    0.354825
   7 N :   -0.401413
   8 N :   -0.395558
   9 H :    0.321161
  10 H :    0.259502
  11 H :    0.261620
  12 H :    0.326420
  13 O :   -0.571039
  14 O :   -0.562537
  15 C :   -0.303788
  16 C :   -0.352105
  17 C :   -0.294947
  18 H :    0.146591
  19 H :    0.137951
  20 H :    0.135035
  21 H :    0.146588
  22 C :   -0.308191
  23 H :    0.170196
  24 H :    0.160608
  25 C :   -0.296532
  26 H :    0.164647
  27 H :    0.155316
  28 C :   -0.283287
  29 H :    0.160825
  30 H :    0.146662
  31 H :    0.191813
  32 H :    0.150303
  33 H :    0.148713
  34 H :    0.145799
  35 H :    0.170092
  36 H :    0.190010
Sum of atomic charges:   -0.0000000

LOEWDIN ATOMIC CHARGES
----------------------
   0 C :   -0.214813
   1 C :   -0.269414
   2 C :   -0.241755
   3 H :    0.139495
   4 H :    0.147189
   5 C :   -0.630309
   6 C :   -0.333553
   7 N :    0.100613
   8 N :    0.095879
   9 H :    0.162912
  10 H :    0.187774
  11 H :    0.189324
  12 H :    0.163690
  13 O :   -0.069933
  14 O :   -0.064784
  15 C :   -0.254307
  16 C :   -0.275197
  17 C :   -0.276437
  18 H :    0.136523
  19 H :    0.134787
  20 H :    0.134726
  21 H :    0.142205
  22 C :   -0.268923
  23 H :    0.140415
  24 H :    0.144052
  25 C :   -0.273204
  26 H :    0.147340
  27 H :    0.140000
  28 C :   -0.271755
  29 H :    0.139379
  30 H :    0.136957
  31 H :    0.141169
  32 H :    0.139978
  33 H :    0.139009
  34 H :    0.136964
  35 H :    0.149421
  36 H :    0.154584

  Mayer bond orders larger than 0.100000
B(  0-C ,  6-C ) :   0.9421 B(  0-C , 15-C ) :   0.8809 B(  0-C , 35-H ) :   0.9862
B(  0-C , 36-H ) :   0.9841 B(  1-C ,  2-C ) :   0.9051 B(  1-C , 17-C ) :   0.9461
B(  1-C , 20-H ) :   0.9845 B(  1-C , 21-H ) :   0.9782 B(  2-C ,  3-H ) :   0.9835
B(  2-C ,  4-H ) :   0.9639 B(  2-C ,  5-C ) :   0.9384 B(  5-C , 13-O ) :   1.6289
B(  5-C , 14-O ) :   1.6465 B(  6-C ,  7-N ) :   1.4241 B(  6-C ,  8-N ) :   1.4262
B(  7-N , 11-H ) :   0.9145 B(  7-N , 12-H ) :   0.7511 B(  8-N ,  9-H ) :   0.7604
B(  8-N , 10-H ) :   0.9122 B(  9-H , 13-O ) :   0.1767 B( 12-H , 14-O ) :   0.1821
B( 15-C , 22-C ) :   0.8542 B( 15-C , 23-H ) :   0.9954 B( 15-C , 24-H ) :   0.9787
B( 16-C , 17-C ) :   0.8438 B( 16-C , 28-C ) :   0.9172 B( 16-C , 31-H ) :   0.9773
B( 16-C , 32-H ) :   0.9798 B( 17-C , 18-H ) :   0.9815 B( 17-C , 19-H ) :   0.9749
B( 22-C , 25-C ) :   0.9093 B( 22-C , 26-H ) :   0.9607 B( 22-C , 27-H ) :   0.9666
B( 25-C , 28-C ) :   0.9273 B( 25-C , 29-H ) :   0.9873 B( 25-C , 30-H ) :   0.9819
B( 28-C , 33-H ) :   0.9897 B( 28-C , 34-H ) :   0.9943

Dispersion correction           -0.002562175
FINAL SINGLE POINT ENERGY      -692.375893068280

DIPOLE MOMENT
-------------
                                X             Y             Z
Electronic contribution:      3.45375       1.59391      12.97453
Nuclear contribution   :     -1.50655      -3.48027     -14.35034
                        -----------------------------------------
Total Dipole Moment    :      1.94720      -1.88637      -1.37581
                        -----------------------------------------
Magnitude (a.u.)       :      3.04020
Magnitude (Debye)      :      7.72757

Rotational constants in cm-1:     0.021781     0.017296     0.011403
Rotational constants in MHz :   652.971749   518.510612   341.853154

                             ****ORCA TERMINATED NORMALLY****
TOTAL RUN TIME: 0 days 0 hours 1 minutes 32 seconds 58 msec
