                         Program Version 5.0.0 -  RELEASE  -
|  1> !M062X D3Zero RIJCOSX def2-TZVP def2/J TightSCF
|  2> *xyz 0 1
|  3> C         -0.91495        0.61511        2.50554
|  4> C         -0.05915        1.50352        3.41058
|  5> H          0.36536        2.34431        2.86116
|  6> H         -0.69226        1.92021        4.19898
|  7> C          1.08303        0.74964        4.08571
|  8> F          2.22817        1.26348        4.01983
|  9> O          0.81003       -0.34541        4.63627
| 10> H         -0.30401        0.20228        1.73015
| 11> H         -1.69811        1.19946        2.06954
| 12> H         -1.34124       -0.17772        3.08397
| 13> *
| 14>
| 15> %MaxCore 64000
| 16>
| 17> %pal nprocs 4
| 18> end
| 19>
| 20> %scf
| 21>   MaxIter 150
| 22> end
| 23>
| 24>
| 25>                          ****END OF INPUT****

CARTESIAN COORDINATES (ANGSTROEM)
---------------------------------
  C     -0.914950    0.615110    2.505540
  C     -0.059150    1.503520    3.410580
  H      0.365360    2.344310    2.861160
  H     -0.692260    1.920210    4.198980
  C      1.083030    0.749640    4.085710
  F      2.228170    1.263480    4.019830
  O      0.810030   -0.345410    4.636270
  H     -0.304010    0.202280    1.730150
  H     -1.698110    1.199460    2.069540
  H     -1.341240   -0.177720    3.083970

 Total Charge           Charge          ....    0
 Multiplicity           Mult            ....    1
 Number of Electrons    NEL             ....   40
 Basis Dimension        Dim             ....  185

ORBITAL ENERGIES
----------------

  NO   OCC          E(Eh)            E(eV)
   0   2.0000     -25.314076      -688.8310
   1   2.0000     -19.633492      -534.2545
   2   2.0000     -10.719792      -291.7004
   3   2.0000     -10.567793      -287.5643
   4   2.0000     -10.538158      -286.7579
   5   2.0000      -1.463348       -39.8197
   6   2.0000      -1.155795       -31.4508
   7   2.0000      -0.900537       -24.5049
   8   2.0000      -0.788547       -21.4575
   9   2.0000      -0.730092       -19.8668
  10   2.0000      -0.643221       -17.5029
  11   2.0000      -0.630253       -17.1501
  12   2.0000      -0.594578       -16.1793
  13   2.0000      -0.538571       -14.6553
  14   2.0000      -0.510493       -13.8912
  15   2.0000      -0.465017       -12.6537
  16   2.0000      -0.447205       -12.1691
  17   2.0000      -0.440361       -11.9828
  18   2.0000      -0.414099       -11.2682
  19   2.0000      -0.371378       -10.1057
  20   0.0000       0.015360         0.4180
  21   0.0000       0.065827         1.7912
  22   0.0000       0.104507         2.8438
  23   0.0000       0.120481         3.2784
  24   0.0000       0.130020         3.5380

MULLIKEN ATOMIC CHARGES
-----------------------
   0 C :   -0.401735
   1 C :   -0.287184
   2 H :    0.141143
   3 H :    0.156898
   4 C :    0.414021
   5 F :   -0.114557
   6 O :   -0.349934
   7 H :    0.140802
   8 H :    0.140056
   9 H :    0.160491
Sum of atomic charges:    0.0000000

LOEWDIN ATOMIC CHARGES
----------------------
   0 C :   -0.287012
   1 C :   -0.262073
   2 H :    0.140916
   3 H :    0.157219
   4 C :   -0.488249
   5 F :    0.313454
   6 O :    0.057803
   7 H :    0.121305
   8 H :    0.119799
   9 H :    0.126838

  Mayer bond orders larger than 0.100000
B(  0-C ,  1-C ) :   0.9459 B(  0-C ,  7-H ) :   0.9736 B(  0-C ,  8-H ) :   0.9720
B(  0-C ,  9-H ) :   0.9651 B(  1-C ,  2-H ) :   0.9670 B(  1-C ,  3-H ) :   0.9431
B(  1-C ,  4-C ) :   0.9851 B(  4-C ,  5-F ) :   1.1420 B(  4-C ,  6-O ) :   2.0366

Dispersion correction           -0.000089237
FINAL SINGLE POINT ENERGY      -292.393532284162

DIPOLE MOMENT
-------------
                                X             Y             Z
Electronic contribution:      7.71560      -0.15869       4.08321
Nuclear contribution   :     -8.12386       1.06915      -4.71960
                        -----------------------------------------
Total Dipole Moment    :     -0.40826       0.91045      -0.63638
                        -----------------------------------------
Magnitude (a.u.)       :      1.18346
Magnitude (Debye)      :      3.00812

Rotational constants in cm-1:     0.309513     0.127560     0.099675
Rotational constants in MHz :  9278.979128  3824.146597  2988.174827

                             ****ORCA TERMINATED NORMALLY****
TOTAL RUN TIME: 0 days 0 hours 0 minutes 23 seconds 385 msec
