                         Program Version 5.0.0 -  RELEASE  -
|  1> !M062X D3Zero RIJCOSX def2-TZVP def2/J TightSCF
|  2> *xyz 0 1
|  3> C          4.60295       -2.44010        2.63478
|  4> C          3.86085       -1.59157        3.62289
|  5> C          2.75650       -2.04616        4.16633
|  6> N          4.25433       -0.36291        3.86046
|  7> H          3.56526        0.31099        4.16898
|  8> H          5.05429       -0.01606        3.33784
|  9> H          2.43970       -2.97389        3.89740
| 10> H          2.06687       -1.41253        4.54981
| 11> C          3.74469       -2.58056        1.36188
| 12> H          5.56156       -1.97135        2.40708
| 13> H          4.81050       -3.42255        3.06310
| 14> H          4.26314       -3.18477        0.64702
| 15> H          3.56325       -1.61180        0.94535
| 16> H          2.81197       -3.04259        1.60980
| 17> *
| 18>
| 19> %MaxCore 64000
| 20>
| 21> %pal nprocs 4
| 22> end
| 23>
| 24> %scf
| 25>   MaxIter 150
| 26> end
| 27>
| 28>
| 29>                          ****END OF INPUT****

CARTESIAN COORDINATES (ANGSTROEM)
---------------------------------
  C      4.602950   -2.440100    2.634780
  C      3.860850   -1.591570    3.622890
  C      2.756500   -2.046160    4.166330
  N      4.254330   -0.362910    3.860460
  H      3.565260    0.310990    4.168980
  H      5.054290   -0.016060    3.337840
  H      2.439700   -2.973890    3.897400
  H      2.066870   -1.412530    4.549810
  C      3.744690   -2.580560    1.361880
  H      5.561560   -1.971350    2.407080
  H      4.810500   -3.422550    3.063100
  H      4.263140   -3.184770    0.647020
  H      3.563250   -1.611800    0.945350
  H      2.811970   -3.042590    1.609800

 Total Charge           Charge          ....    0
 Multiplicity           Mult            ....    1
 Number of Electrons    NEL             ....   40
 Basis Dimension        Dim             ....  209

ORBITAL ENERGIES
----------------

  NO   OCC          E(Eh)            E(eV)
   0   2.0000     -14.746768      -401.2800
   1   2.0000     -10.554117      -287.1921
   2   2.0000     -10.536852      -286.7223
   3   2.0000     -10.519170      -286.2412
   4   2.0000     -10.463332      -284.7217
   5   2.0000      -1.042463       -28.3669
   6   2.0000      -0.880241       -23.9526
   7   2.0000      -0.806571       -21.9479
   8   2.0000      -0.727342       -19.7920
   9   2.0000      -0.640876       -17.4391
  10   2.0000      -0.598248       -16.2791
  11   2.0000      -0.554187       -15.0802
  12   2.0000      -0.517475       -14.0812
  13   2.0000      -0.479448       -13.0464
  14   2.0000      -0.454126       -12.3574
  15   2.0000      -0.443191       -12.0598
  16   2.0000      -0.415122       -11.2960
  17   2.0000      -0.404327       -11.0023
  18   2.0000      -0.392238       -10.6733
  19   2.0000      -0.243609        -6.6289
  20   0.0000       0.057045         1.5523
  21   0.0000       0.073542         2.0012
  22   0.0000       0.101903         2.7729
  23   0.0000       0.105732         2.8771
  24   0.0000       0.120099         3.2680

MULLIKEN ATOMIC CHARGES
-----------------------
   0 C :   -0.341209
   1 C :    0.321679
   2 C :   -0.438508
   3 N :   -0.525877
   4 H :    0.244301
   5 H :    0.238899
   6 H :    0.093936
   7 H :    0.095908
   8 C :   -0.371395
   9 H :    0.118744
  10 H :    0.159823
  11 H :    0.130631
  12 H :    0.133211
  13 H :    0.139855
Sum of atomic charges:   -0.0000000

LOEWDIN ATOMIC CHARGES
----------------------
   0 C :   -0.238374
   1 C :   -0.376116
   2 C :   -0.273130
   3 N :   -0.006888
   4 H :    0.176050
   5 H :    0.170570
   6 H :    0.106761
   7 H :    0.098807
   8 C :   -0.288327
   9 H :    0.132708
  10 H :    0.147780
  11 H :    0.112989
  12 H :    0.117880
  13 H :    0.119291

  Mayer bond orders larger than 0.100000
B(  0-C ,  1-C ) :   0.9048 B(  0-C ,  8-C ) :   0.9230 B(  0-C ,  9-H ) :   0.9922
B(  0-C , 10-H ) :   0.9938 B(  1-C ,  2-C ) :   1.7465 B(  1-C ,  3-N ) :   1.0854
B(  2-C ,  6-H ) :   1.0103 B(  2-C ,  7-H ) :   0.9960 B(  3-N ,  4-H ) :   0.9235
B(  3-N ,  5-H ) :   0.9292 B(  8-C , 11-H ) :   0.9784 B(  8-C , 12-H ) :   0.9712
B(  8-C , 13-H ) :   0.9755

Dispersion correction           -0.000186517
FINAL SINGLE POINT ENERGY      -212.530642895718

DIPOLE MOMENT
-------------
                                X             Y             Z
Electronic contribution:      0.81129       1.77824       2.53429
Nuclear contribution   :     -0.47010      -1.22282      -3.06417
                        -----------------------------------------
Total Dipole Moment    :      0.34119       0.55542      -0.52988
                        -----------------------------------------
Magnitude (a.u.)       :      0.84004
Magnitude (Debye)      :      2.13522

Rotational constants in cm-1:     0.271862     0.131962     0.105499
Rotational constants in MHz :  8150.219120  3956.123671  3162.785522

                             ****ORCA TERMINATED NORMALLY****
TOTAL RUN TIME: 0 days 0 hours 0 minutes 29 seconds 54 msec
