                         Program Version 5.0.0 -  RELEASE  -
|  1> !M062X D3Zero RIJCOSX def2-TZVP def2/J TightSCF
|  2> *xyz 0 1
|  3> C         -0.91495        0.61511        2.50554
|  4> C         -0.05915        1.50352        3.41058
|  5> H          0.36536        2.34431        2.86116
|  6> H         -0.69226        1.92021        4.19898
|  7> C          1.08303        0.74964        4.08571
|  8> O          2.22817        1.26348        4.01983
|  9> F          0.81003       -0.34541        4.63627
| 10> H         -0.30401        0.20228        1.73015
| 11> H         -1.69811        1.19946        2.06954
| 12> H         -1.34124       -0.17772        3.08397
| 13> *
| 14>
| 15> %MaxCore 64000
| 16>
| 17> %pal nprocs 4
| 18> end
| 19>
| 20> %scf
| 21>   MaxIter 150
| 22> end
| 23>
| 24>
| 25>                          ****END OF INPUT****

CARTESIAN COORDINATES (ANGSTROEM)
---------------------------------
  C     -0.914950    0.615110    2.505540
  C     -0.059150    1.503520    3.410580
  H      0.365360    2.344310    2.861160
  H     -0.692260    1.920210    4.198980
  C      1.083030    0.749640    4.085710
  O      2.228170    1.263480    4.019830
  F      0.810030   -0.345410    4.636270
  H     -0.304010    0.202280    1.730150
  H     -1.698110    1.199460    2.069540
  H     -1.341240   -0.177720    3.083970

 Total Charge           Charge          ....    0
 Multiplicity           Mult            ....    1
 Number of Electrons    NEL             ....   40
 Basis Dimension        Dim             ....  185

ORBITAL ENERGIES
----------------

  NO   OCC          E(Eh)            E(eV)
   0   2.0000     -25.315373      -688.8663
   1   2.0000     -19.632333      -534.2229
   2   2.0000     -10.718972      -291.6780
   3   2.0000     -10.567268      -287.5500
   4   2.0000     -10.543491      -286.9030
   5   2.0000      -1.464911       -39.8623
   6   2.0000      -1.153827       -31.3972
   7   2.0000      -0.904822       -24.6214
   8   2.0000      -0.784236       -21.3401
   9   2.0000      -0.737073       -20.0568
  10   2.0000      -0.645835       -17.5741
  11   2.0000      -0.637794       -17.3553
  12   2.0000      -0.584427       -15.9031
  13   2.0000      -0.539981       -14.6936
  14   2.0000      -0.510035       -13.8788
  15   2.0000      -0.471690       -12.8353
  16   2.0000      -0.454691       -12.3728
  17   2.0000      -0.443479       -12.0677
  18   2.0000      -0.415885       -11.3168
  19   2.0000      -0.365584        -9.9481
  20   0.0000       0.019102         0.5198
  21   0.0000       0.060955         1.6587
  22   0.0000       0.103581         2.8186
  23   0.0000       0.121881         3.3166
  24   0.0000       0.132026         3.5926

MULLIKEN ATOMIC CHARGES
-----------------------
   0 C :   -0.405192
   1 C :   -0.284659
   2 H :    0.161008
   3 H :    0.149886
   4 C :    0.406790
   5 O :   -0.347469
   6 F :   -0.116394
   7 H :    0.147591
   8 H :    0.144713
   9 H :    0.143725
Sum of atomic charges:    0.0000000

LOEWDIN ATOMIC CHARGES
----------------------
   0 C :   -0.295552
   1 C :   -0.257305
   2 H :    0.153441
   3 H :    0.152106
   4 C :   -0.490401
   5 O :    0.054404
   6 F :    0.318190
   7 H :    0.122368
   8 H :    0.121910
   9 H :    0.120840

  Mayer bond orders larger than 0.100000
B(  0-C ,  1-C ) :   0.9332 B(  0-C ,  7-H ) :   0.9707 B(  0-C ,  8-H ) :   0.9722
B(  0-C ,  9-H ) :   0.9669 B(  1-C ,  2-H ) :   0.9694 B(  1-C ,  3-H ) :   0.9452
B(  1-C ,  4-C ) :   1.0018 B(  4-C ,  5-O ) :   2.0499 B(  4-C ,  6-F ) :   1.1351

Dispersion correction           -0.000093554
FINAL SINGLE POINT ENERGY      -292.392500327283

DIPOLE MOMENT
-------------
                                X             Y             Z
Electronic contribution:      5.33428      -2.82494       5.09334
Nuclear contribution   :     -6.57765       2.82334      -5.39171
                        -----------------------------------------
Total Dipole Moment    :     -1.24337      -0.00161      -0.29837
                        -----------------------------------------
Magnitude (a.u.)       :      1.27867
Magnitude (Debye)      :      3.25011

Rotational constants in cm-1:     0.294245     0.132994     0.101060
Rotational constants in MHz :  8821.228602  3987.049251  3029.696815

                             ****ORCA TERMINATED NORMALLY****
TOTAL RUN TIME: 0 days 0 hours 0 minutes 22 seconds 220 msec
