                         Program Version 5.0.0 -  RELEASE  -
|  1> !M062X D3Zero RIJCOSX def2-TZVP def2/J TightSCF
|  2> *xyz 0 1
|  3> C          4.60295       -2.44010        2.63478
|  4> C          3.86085       -1.59157        3.62289
|  5> N          2.75650       -2.04616        4.16633
|  6> C          4.25433       -0.36291        3.86046
|  7> H          3.56526        0.31099        4.16898
|  8> H          5.05429       -0.01606        3.33784
|  9> H          2.43970       -2.97389        3.89740
| 10> H          2.06687       -1.41253        4.54981
| 11> C          3.74469       -2.58056        1.36188
| 12> H          5.56156       -1.97135        2.40708
| 13> H          4.81050       -3.42255        3.06310
| 14> H          4.26314       -3.18477        0.64702
| 15> H          3.56325       -1.61180        0.94535
| 16> H          2.81197       -3.04259        1.60980
| 17> *
| 18>
| 19> %MaxCore 64000
| 20>
| 21> %pal nprocs 4
| 22> end
| 23>
| 24> %scf
| 25>   MaxIter 150
| 26> end
| 27>
| 28>
| 29>                          ****END OF INPUT****

CARTESIAN COORDINATES (ANGSTROEM)
---------------------------------
  C      4.602950   -2.440100    2.634780
  C      3.860850   -1.591570    3.622890
  N      2.756500   -2.046160    4.166330
  C      4.254330   -0.362910    3.860460
  H      3.565260    0.310990    4.168980
  H      5.054290   -0.016060    3.337840
  H      2.439700   -2.973890    3.897400
  H      2.066870   -1.412530    4.549810
  C      3.744690   -2.580560    1.361880
  H      5.561560   -1.971350    2.407080
  H      4.810500   -3.422550    3.063100
  H      4.263140   -3.184770    0.647020
  H      3.563250   -1.611800    0.945350
  H      2.811970   -3.042590    1.609800

 Total Charge           Charge          ....    0
 Multiplicity           Mult            ....    1
 Number of Electrons    NEL             ....   40
 Basis Dimension        Dim             ....  209

ORBITAL ENERGIES
----------------

  NO   OCC          E(Eh)            E(eV)
   0   2.0000     -14.746920      -401.2841
   1   2.0000     -10.555265      -287.2234
   2   2.0000     -10.536390      -286.7098
   3   2.0000     -10.522791      -286.3397
   4   2.0000     -10.464829      -284.7625
   5   2.0000      -1.042357       -28.3640
   6   2.0000      -0.878211       -23.8973
   7   2.0000      -0.814943       -22.1757
   8   2.0000      -0.722632       -19.6638
   9   2.0000      -0.647791       -17.6273
  10   2.0000      -0.600053       -16.3283
  11   2.0000      -0.549154       -14.9432
  12   2.0000      -0.507276       -13.8037
  13   2.0000      -0.497696       -13.5430
  14   2.0000      -0.453835       -12.3495
  15   2.0000      -0.445510       -12.1229
  16   2.0000      -0.418934       -11.3998
  17   2.0000      -0.402104       -10.9418
  18   2.0000      -0.388056       -10.5595
  19   2.0000      -0.246396        -6.7048
  20   0.0000       0.054525         1.4837
  21   0.0000       0.077081         2.0975
  22   0.0000       0.104533         2.8445
  23   0.0000       0.106275         2.8919
  24   0.0000       0.115801         3.1511

MULLIKEN ATOMIC CHARGES
-----------------------
   0 C :   -0.341151
   1 C :    0.305244
   2 N :   -0.532881
   3 C :   -0.408148
   4 H :    0.089680
   5 H :    0.090004
   6 H :    0.243057
   7 H :    0.245409
   8 C :   -0.374391
   9 H :    0.141285
  10 H :    0.144006
  11 H :    0.137635
  12 H :    0.143449
  13 H :    0.116801
Sum of atomic charges:   -0.0000000

LOEWDIN ATOMIC CHARGES
----------------------
   0 C :   -0.238758
   1 C :   -0.377001
   2 N :   -0.003390
   3 C :   -0.273379
   4 H :    0.099744
   5 H :    0.106396
   6 H :    0.171687
   7 H :    0.175247
   8 C :   -0.292344
   9 H :    0.146782
  10 H :    0.136613
  11 H :    0.115951
  12 H :    0.121305
  13 H :    0.111149

  Mayer bond orders larger than 0.100000
B(  0-C ,  1-C ) :   0.9366 B(  0-C ,  8-C ) :   0.9110 B(  0-C ,  9-H ) :   0.9924
B(  0-C , 10-H ) :   0.9832 B(  1-C ,  2-N ) :   1.0830 B(  1-C ,  3-C ) :   1.7716
B(  2-N ,  6-H ) :   0.9329 B(  2-N ,  7-H ) :   0.9240 B(  3-C ,  4-H ) :   0.9980
B(  3-C ,  5-H ) :   1.0037 B(  8-C , 11-H ) :   0.9785 B(  8-C , 12-H ) :   0.9704
B(  8-C , 13-H ) :   0.9748

Dispersion correction           -0.000186100
FINAL SINGLE POINT ENERGY      -212.531333441142

DIPOLE MOMENT
-------------
                                X             Y             Z
Electronic contribution:     -0.49108       0.31171       2.82007
Nuclear contribution   :     -0.12319      -0.83296      -3.13501
                        -----------------------------------------
Total Dipole Moment    :     -0.61427      -0.52125      -0.31494
                        -----------------------------------------
Magnitude (a.u.)       :      0.86499
Magnitude (Debye)      :      2.19864

Rotational constants in cm-1:     0.266453     0.134423     0.106086
Rotational constants in MHz :  7988.053142  4029.892766  3180.375228

                             ****ORCA TERMINATED NORMALLY****
TOTAL RUN TIME: 0 days 0 hours 0 minutes 27 seconds 604 msec
