                         Program Version 5.0.0 -  RELEASE  -
|  1> !M062X D3Zero RIJCOSX def2-TZVP def2/J TightSCF xyzfile
|  2>
|  3> *xyzfile 0 1 D2.xyz
|  4>
|  5> %MaxCore 64000
|  6>
|  7> %pal nprocs 18
|  8> end
|  9>
| 10> %scf
| 11>   MaxIter 150
| 12> end
| 13>
| 14>
| 15>                          ****END OF INPUT****

CARTESIAN COORDINATES (ANGSTROEM)
---------------------------------
  C      4.602954   -2.440100    2.634780
  C     -0.914947    0.615112    2.505538
  C     -0.059146    1.503524    3.410578
  H      0.365364    2.344315    2.861161
  H     -0.692261    1.920207    4.198985
  C      1.083027    0.749640    4.085705
  C      3.860851   -1.591565    3.622893
  N      2.756502   -2.046159    4.166333
  C      4.254325   -0.362905    3.860455
  H      3.565256    0.310994    4.168983
  H      5.054292   -0.016059    3.337838
  H      2.439696   -2.973894    3.897395
  H      2.066869   -1.412532    4.549813
  F      2.228167    1.263475    4.019826
  O      0.810034   -0.345411    4.636269
  C      3.744685   -2.580557    1.361882
  C      0.772139    0.636882    0.562129
  C     -0.130740   -0.193985    1.470763
  H     -0.840563   -0.760165    0.856377
  H      0.466691   -0.938942    2.006959
  H     -1.647961    1.245963    1.991076
  H     -1.478180   -0.081046    3.130424
  C      3.203721   -1.256004    0.826211
  H      2.898939   -3.239289    1.583074
  H      4.334962   -3.095523    0.600188
  C      2.107815   -1.442385   -0.216865
  H      2.786775   -0.672760    1.650711
  H      4.021008   -0.652993    0.414046
  C      1.390662   -0.145912   -0.602422
  H      1.372179   -2.152184    0.176151
  H      2.523302   -1.906787   -1.117115
  H      1.561361    1.100094    1.161831
  H      0.195516    1.468325    0.142758
  H      0.602893   -0.398214   -1.319716
  H      2.087247    0.508272   -1.137335
  H      5.561557   -1.971347    2.407084
  H      4.810498   -3.422552    3.063099

 Total Charge           Charge          ....    0
 Multiplicity           Mult            ....    1
 Number of Electrons    NEL             ....  118
 Basis Dimension        Dim             ....  597

ORBITAL ENERGIES
----------------

  NO   OCC          E(Eh)            E(eV)
   0   2.0000     -25.330893      -689.2886
   1   2.0000     -19.658498      -534.9349
   2   2.0000     -14.712958      -400.3599
   3   2.0000     -10.743442      -292.3439
   4   2.0000     -10.576225      -287.7937
   5   2.0000     -10.554922      -287.2140
   6   2.0000     -10.539313      -286.7893
   7   2.0000     -10.536272      -286.7065
   8   2.0000     -10.535819      -286.6942
   9   2.0000     -10.530805      -286.5578
  10   2.0000     -10.525677      -286.4182
  11   2.0000     -10.524407      -286.3837
  12   2.0000     -10.521455      -286.3034
  13   2.0000     -10.518412      -286.2205
  14   2.0000     -10.440424      -284.0984
  15   2.0000      -1.484932       -40.4070
  16   2.0000      -1.186844       -32.2957
  17   2.0000      -1.017934       -27.6994
  18   2.0000      -0.935264       -25.4498
  19   2.0000      -0.906889       -24.6777
  20   2.0000      -0.879055       -23.9203
  21   2.0000      -0.843505       -22.9529
  22   2.0000      -0.811466       -22.0811
  23   2.0000      -0.798057       -21.7162
  24   2.0000      -0.764950       -20.8153
  25   2.0000      -0.737463       -20.0674
  26   2.0000      -0.700531       -19.0624
  27   2.0000      -0.670405       -18.2427
  28   2.0000      -0.662932       -18.0393
  29   2.0000      -0.654260       -17.8033
  30   2.0000      -0.643134       -17.5006
  31   2.0000      -0.630763       -17.1639
  32   2.0000      -0.607309       -16.5257
  33   2.0000      -0.574400       -15.6302
  34   2.0000      -0.558378       -15.1942
  35   2.0000      -0.551329       -15.0024
  36   2.0000      -0.535705       -14.5773
  37   2.0000      -0.525413       -14.2972
  38   2.0000      -0.516269       -14.0484
  39   2.0000      -0.503174       -13.6921
  40   2.0000      -0.491506       -13.3746
  41   2.0000      -0.479196       -13.0396
  42   2.0000      -0.475752       -12.9459
  43   2.0000      -0.463420       -12.6103
  44   2.0000      -0.446889       -12.1605
  45   2.0000      -0.438023       -11.9192
  46   2.0000      -0.437077       -11.8935
  47   2.0000      -0.431492       -11.7415
  48   2.0000      -0.417444       -11.3592
  49   2.0000      -0.411373       -11.1940
  50   2.0000      -0.405852       -11.0438
  51   2.0000      -0.395513       -10.7625
  52   2.0000      -0.384456       -10.4616
  53   2.0000      -0.381654       -10.3853
  54   2.0000      -0.377934       -10.2841
  55   2.0000      -0.371914       -10.1203
  56   2.0000      -0.361868        -9.8469
  57   2.0000      -0.354786        -9.6542
  58   2.0000      -0.225053        -6.1240
  59   0.0000      -0.007966        -0.2168
  60   0.0000       0.051905         1.4124
  61   0.0000       0.064072         1.7435
  62   0.0000       0.075036         2.0418
  63   0.0000       0.078263         2.1297

MULLIKEN ATOMIC CHARGES
-----------------------
   0 C :   -0.392552
   1 C :   -0.268218
   2 C :   -0.336096
   3 H :    0.182903
   4 H :    0.181293
   5 C :    0.436544
   6 C :    0.262530
   7 N :   -0.527797
   8 C :   -0.397621
   9 H :    0.075157
  10 H :    0.091276
  11 H :    0.230385
  12 H :    0.290246
  13 F :   -0.100454
  14 O :   -0.385319
  15 C :   -0.280164
  16 C :   -0.333012
  17 C :   -0.333531
  18 H :    0.161143
  19 H :    0.170339
  20 H :    0.156530
  21 H :    0.167909
  22 C :   -0.263437
  23 H :    0.146107
  24 H :    0.142569
  25 C :   -0.293124
  26 H :    0.109211
  27 H :    0.149731
  28 C :   -0.284138
  29 H :    0.157140
  30 H :    0.146272
  31 H :    0.171314
  32 H :    0.154005
  33 H :    0.149037
  34 H :    0.149416
  35 H :    0.156150
  36 H :    0.158256
Sum of atomic charges:    0.0000000

LOEWDIN ATOMIC CHARGES
----------------------
   0 C :   -0.217676
   1 C :   -0.258874
   2 C :   -0.230959
   3 H :    0.148211
   4 H :    0.162680
   5 C :   -0.465881
   6 C :   -0.387941
   7 N :    0.000724
   8 C :   -0.293238
   9 H :    0.090720
  10 H :    0.102417
  11 H :    0.166874
  12 H :    0.153341
  13 F :    0.340513
  14 O :    0.074884
  15 C :   -0.262219
  16 C :   -0.277199
  17 C :   -0.273997
  18 H :    0.143675
  19 H :    0.140901
  20 H :    0.143949
  21 H :    0.147574
  22 C :   -0.266856
  23 H :    0.133631
  24 H :    0.136624
  25 C :   -0.275804
  26 H :    0.141993
  27 H :    0.139517
  28 C :   -0.270351
  29 H :    0.137062
  30 H :    0.137264
  31 H :    0.135011
  32 H :    0.139201
  33 H :    0.138545
  34 H :    0.138857
  35 H :    0.147782
  36 H :    0.139048

  Mayer bond orders larger than 0.100000
B(  0-C ,  6-C ) :   0.9020 B(  0-C , 15-C ) :   0.8902 B(  0-C , 35-H ) :   0.9963
B(  0-C , 36-H ) :   0.9996 B(  1-C ,  2-C ) :   0.9027 B(  1-C , 17-C ) :   0.9331
B(  1-C , 20-H ) :   0.9800 B(  1-C , 21-H ) :   0.9788 B(  2-C ,  3-H ) :   0.9701
B(  2-C ,  4-H ) :   0.9509 B(  2-C ,  5-C ) :   0.9662 B(  5-C , 13-F ) :   1.1222
B(  5-C , 14-O ) :   1.9158 B(  6-C ,  7-N ) :   1.1044 B(  6-C ,  8-C ) :   1.7419
B(  7-N , 11-H ) :   0.9379 B(  7-N , 12-H ) :   0.8524 B(  8-C ,  9-H ) :   1.0118
B(  8-C , 10-H ) :   1.0091 B( 15-C , 22-C ) :   0.8928 B( 15-C , 23-H ) :   0.9985
B( 15-C , 24-H ) :   0.9791 B( 16-C , 17-C ) :   0.8438 B( 16-C , 28-C ) :   0.9297
B( 16-C , 31-H ) :   0.9766 B( 16-C , 32-H ) :   0.9796 B( 17-C , 18-H ) :   0.9791
B( 17-C , 19-H ) :   0.9726 B( 22-C , 25-C ) :   0.8972 B( 22-C , 26-H ) :   0.9950
B( 22-C , 27-H ) :   0.9710 B( 25-C , 28-C ) :   0.9197 B( 25-C , 29-H ) :   0.9893
B( 25-C , 30-H ) :   0.9847 B( 28-C , 33-H ) :   0.9910 B( 28-C , 34-H ) :   0.9921

Dispersion correction           -0.002525604
FINAL SINGLE POINT ENERGY      -700.253327063580

DIPOLE MOMENT
-------------
                                X             Y             Z
Electronic contribution:      0.06737       6.24363      15.11322
Nuclear contribution   :     -1.39991      -5.60370     -16.00470
                        -----------------------------------------
Total Dipole Moment    :     -1.33254       0.63992      -0.89148
                        -----------------------------------------
Magnitude (a.u.)       :      1.72624
Magnitude (Debye)      :      4.38775

Rotational constants in cm-1:     0.021622     0.017313     0.011402
Rotational constants in MHz :   648.226014   519.043632   341.814105

                             ****ORCA TERMINATED NORMALLY****
TOTAL RUN TIME: 0 days 0 hours 1 minutes 44 seconds 623 msec
