                         Program Version 5.0.0 -  RELEASE  -
|  1> !M062X D3Zero RIJCOSX def2-TZVP def2/J TightSCF xyzfile
|  2>
|  3> *xyzfile 0 1 D3.xyz
|  4>
|  5> %MaxCore 64000
|  6>
|  7> %pal nprocs 18
|  8> end
|  9>
| 10> %scf
| 11>   MaxIter 150
| 12> end
| 13>
| 14>
| 15>                          ****END OF INPUT****

CARTESIAN COORDINATES (ANGSTROEM)
---------------------------------
  C      4.602954   -2.440100    2.634780
  C     -0.914947    0.615112    2.505538
  C     -0.059146    1.503524    3.410578
  H      0.365364    2.344315    2.861161
  H     -0.692261    1.920207    4.198985
  C      1.083027    0.749640    4.085705
  C      3.860851   -1.591565    3.622893
  C      2.756502   -2.046159    4.166333
  N      4.254325   -0.362905    3.860455
  H      3.565256    0.310994    4.168983
  H      5.054292   -0.016059    3.337838
  H      2.439696   -2.973894    3.897395
  H      2.066869   -1.412532    4.549813
  O      2.228167    1.263475    4.019826
  F      0.810034   -0.345411    4.636269
  C      3.744685   -2.580557    1.361882
  C      0.772139    0.636882    0.562129
  C     -0.130740   -0.193985    1.470763
  H     -0.840563   -0.760165    0.856377
  H      0.466691   -0.938942    2.006959
  H     -1.647961    1.245963    1.991076
  H     -1.478180   -0.081046    3.130424
  C      3.203721   -1.256004    0.826211
  H      2.898939   -3.239289    1.583074
  H      4.334962   -3.095523    0.600188
  C      2.107815   -1.442385   -0.216865
  H      2.786775   -0.672760    1.650711
  H      4.021008   -0.652993    0.414046
  C      1.390662   -0.145912   -0.602422
  H      1.372179   -2.152184    0.176151
  H      2.523302   -1.906787   -1.117115
  H      1.561361    1.100094    1.161831
  H      0.195516    1.468325    0.142758
  H      0.602893   -0.398214   -1.319716
  H      2.087247    0.508272   -1.137335
  H      5.561557   -1.971347    2.407084
  H      4.810498   -3.422552    3.063099

 Total Charge           Charge          ....    0
 Multiplicity           Mult            ....    1
 Number of Electrons    NEL             ....  118
 Basis Dimension        Dim             ....  597

ORBITAL ENERGIES
----------------

  NO   OCC          E(Eh)            E(eV)
   0   2.0000     -25.330086      -689.2667
   1   2.0000     -19.657279      -534.9018
   2   2.0000     -14.710417      -400.2908
   3   2.0000     -10.741919      -292.3025
   4   2.0000     -10.574496      -287.7467
   5   2.0000     -10.556170      -287.2480
   6   2.0000     -10.540105      -286.8108
   7   2.0000     -10.535992      -286.6989
   8   2.0000     -10.533395      -286.6282
   9   2.0000     -10.529090      -286.5111
  10   2.0000     -10.523049      -286.3467
  11   2.0000     -10.522111      -286.3212
  12   2.0000     -10.521632      -286.3082
  13   2.0000     -10.517377      -286.1924
  14   2.0000     -10.440121      -284.0901
  15   2.0000      -1.484622       -40.3986
  16   2.0000      -1.184140       -32.2221
  17   2.0000      -1.016577       -27.6625
  18   2.0000      -0.936274       -25.4773
  19   2.0000      -0.906327       -24.6624
  20   2.0000      -0.878537       -23.9062
  21   2.0000      -0.842011       -22.9123
  22   2.0000      -0.808253       -21.9937
  23   2.0000      -0.790960       -21.5231
  24   2.0000      -0.765570       -20.8322
  25   2.0000      -0.737523       -20.0690
  26   2.0000      -0.701691       -19.0940
  27   2.0000      -0.674113       -18.3435
  28   2.0000      -0.665085       -18.0979
  29   2.0000      -0.660735       -17.9795
  30   2.0000      -0.639390       -17.3987
  31   2.0000      -0.622986       -16.9523
  32   2.0000      -0.600928       -16.3521
  33   2.0000      -0.568053       -15.4575
  34   2.0000      -0.556574       -15.1451
  35   2.0000      -0.550768       -14.9872
  36   2.0000      -0.541387       -14.7319
  37   2.0000      -0.519035       -14.1236
  38   2.0000      -0.516029       -14.0419
  39   2.0000      -0.502667       -13.6783
  40   2.0000      -0.491188       -13.3659
  41   2.0000      -0.479751       -13.0547
  42   2.0000      -0.474956       -12.9242
  43   2.0000      -0.459540       -12.5047
  44   2.0000      -0.451927       -12.2976
  45   2.0000      -0.441448       -12.0124
  46   2.0000      -0.436372       -11.8743
  47   2.0000      -0.429062       -11.6754
  48   2.0000      -0.416392       -11.3306
  49   2.0000      -0.407128       -11.0785
  50   2.0000      -0.404560       -11.0086
  51   2.0000      -0.396741       -10.7959
  52   2.0000      -0.384709       -10.4685
  53   2.0000      -0.378910       -10.3107
  54   2.0000      -0.373080       -10.1520
  55   2.0000      -0.370565       -10.0836
  56   2.0000      -0.361111        -9.8263
  57   2.0000      -0.354768        -9.6537
  58   2.0000      -0.223663        -6.0862
  59   0.0000      -0.002472        -0.0673
  60   0.0000       0.051244         1.3944
  61   0.0000       0.072077         1.9613
  62   0.0000       0.074073         2.0156
  63   0.0000       0.077995         2.1224

MULLIKEN ATOMIC CHARGES
-----------------------
   0 C :   -0.397423
   1 C :   -0.292890
   2 C :   -0.328070
   3 H :    0.191570
   4 H :    0.177649
   5 C :    0.433407
   6 C :    0.291407
   7 C :   -0.450832
   8 N :   -0.511809
   9 H :    0.282165
  10 H :    0.227312
  11 H :    0.096294
  12 H :    0.086962
  13 O :   -0.389709
  14 F :   -0.101942
  15 C :   -0.244182
  16 C :   -0.341646
  17 C :   -0.324131
  18 H :    0.161841
  19 H :    0.178298
  20 H :    0.158492
  21 H :    0.165460
  22 C :   -0.291989
  23 H :    0.148211
  24 H :    0.134944
  25 C :   -0.296984
  26 H :    0.126557
  27 H :    0.144719
  28 C :   -0.284362
  29 H :    0.158273
  30 H :    0.145834
  31 H :    0.187362
  32 H :    0.152430
  33 H :    0.148265
  34 H :    0.148360
  35 H :    0.145178
  36 H :    0.164978
Sum of atomic charges:    0.0000000

LOEWDIN ATOMIC CHARGES
----------------------
   0 C :   -0.216643
   1 C :   -0.267239
   2 C :   -0.227251
   3 H :    0.157841
   4 H :    0.158214
   5 C :   -0.466816
   6 C :   -0.384706
   7 C :   -0.299351
   8 N :    0.000029
   9 H :    0.152732
  10 H :    0.164565
  11 H :    0.104006
  12 H :    0.090961
  13 O :    0.071372
  14 F :    0.343404
  15 C :   -0.255819
  16 C :   -0.276468
  17 C :   -0.273983
  18 H :    0.143865
  19 H :    0.142331
  20 H :    0.144668
  21 H :    0.143652
  22 C :   -0.270320
  23 H :    0.139224
  24 H :    0.133507
  25 C :   -0.274705
  26 H :    0.142947
  27 H :    0.136214
  28 C :   -0.270859
  29 H :    0.138010
  30 H :    0.137289
  31 H :    0.139291
  32 H :    0.138839
  33 H :    0.138021
  34 H :    0.138600
  35 H :    0.135669
  36 H :    0.148908

  Mayer bond orders larger than 0.100000
B(  0-C ,  6-C ) :   0.8824 B(  0-C , 15-C ) :   0.9110 B(  0-C , 35-H ) :   1.0009
B(  0-C , 36-H ) :   0.9960 B(  1-C ,  2-C ) :   0.8923 B(  1-C , 17-C ) :   0.9149
B(  1-C , 20-H ) :   0.9775 B(  1-C , 21-H ) :   0.9866 B(  2-C ,  3-H ) :   0.9739
B(  2-C ,  4-H ) :   0.9540 B(  2-C ,  5-C ) :   0.9731 B(  5-C , 13-O ) :   1.9053
B(  5-C , 14-F ) :   1.1216 B(  6-C ,  7-C ) :   1.7111 B(  6-C ,  8-N ) :   1.1128
B(  7-C , 11-H ) :   1.0103 B(  7-C , 12-H ) :   1.0203 B(  8-N ,  9-H ) :   0.8633
B(  8-N , 10-H ) :   0.9360 B( 15-C , 22-C ) :   0.9085 B( 15-C , 23-H ) :   0.9855
B( 15-C , 24-H ) :   0.9828 B( 16-C , 17-C ) :   0.8401 B( 16-C , 28-C ) :   0.9270
B( 16-C , 31-H ) :   0.9735 B( 16-C , 32-H ) :   0.9797 B( 17-C , 18-H ) :   0.9792
B( 17-C , 19-H ) :   0.9745 B( 22-C , 25-C ) :   0.9050 B( 22-C , 26-H ) :   0.9806
B( 22-C , 27-H ) :   0.9713 B( 25-C , 28-C ) :   0.9193 B( 25-C , 29-H ) :   0.9894
B( 25-C , 30-H ) :   0.9840 B( 28-C , 33-H ) :   0.9923 B( 28-C , 34-H ) :   0.9922

Dispersion correction           -0.002528124
FINAL SINGLE POINT ENERGY      -700.254890466598

DIPOLE MOMENT
-------------
                                X             Y             Z
Electronic contribution:     -1.21951       4.75167      15.94674
Nuclear contribution   :      0.05905      -3.94566     -16.70013
                        -----------------------------------------
Total Dipole Moment    :     -1.16046       0.80601      -0.75339
                        -----------------------------------------
Magnitude (a.u.)       :      1.60123
Magnitude (Debye)      :      4.07000

Rotational constants in cm-1:     0.021602     0.017295     0.011353
Rotational constants in MHz :   647.614981   518.478934   340.359556

                             ****ORCA TERMINATED NORMALLY****
TOTAL RUN TIME: 0 days 0 hours 1 minutes 15 seconds 20 msec
