                         Program Version 5.0.0 -  RELEASE  -
|  1> !CAM-B3LYP RIJCOSX def2-SVP def2/J TightSCF
|  2> *xyz -1 1
|  3> C         -0.91495        0.61511        2.50554
|  4> C         -0.05915        1.50352        3.41058
|  5> H          0.36536        2.34431        2.86116
|  6> H         -0.69226        1.92021        4.19898
|  7> C          1.08303        0.74964        4.08571
|  8> O          2.22817        1.26348        4.01983
|  9> O          0.81003       -0.34541        4.63627
| 10> H         -0.30401        0.20228        1.73015
| 11> H         -1.69811        1.19946        2.06954
| 12> H         -1.34124       -0.17772        3.08397
| 13> *
| 14>
| 15> %MaxCore 64000
| 16>
| 17> %pal nprocs 4
| 18> end
| 19>
| 20> %scf
| 21>   MaxIter 150
| 22> end
| 23>
| 24>
| 25>                          ****END OF INPUT****

CARTESIAN COORDINATES (ANGSTROEM)
---------------------------------
  C     -0.914950    0.615110    2.505540
  C     -0.059150    1.503520    3.410580
  H      0.365360    2.344310    2.861160
  H     -0.692260    1.920210    4.198980
  C      1.083030    0.749640    4.085710
  O      2.228170    1.263480    4.019830
  O      0.810030   -0.345410    4.636270
  H     -0.304010    0.202280    1.730150
  H     -1.698110    1.199460    2.069540
  H     -1.341240   -0.177720    3.083970

 Total Charge           Charge          ....   -1
 Multiplicity           Mult            ....    1
 Number of Electrons    NEL             ....   40
 Basis Dimension        Dim             ....   95

ORBITAL ENERGIES
----------------

  NO   OCC          E(Eh)            E(eV)
   0   2.0000     -18.905564      -514.4465
   1   2.0000     -18.903602      -514.3932
   2   2.0000     -10.111399      -275.1452
   3   2.0000     -10.086795      -274.4756
   4   2.0000     -10.066305      -273.9181
   5   2.0000      -0.855053       -23.2672
   6   2.0000      -0.758563       -20.6415
   7   2.0000      -0.667403       -18.1609
   8   2.0000      -0.532237       -14.4829
   9   2.0000      -0.371211       -10.1012
  10   2.0000      -0.350353        -9.5336
  11   2.0000      -0.305601        -8.3158
  12   2.0000      -0.278328        -7.5737
  13   2.0000      -0.263365        -7.1665
  14   2.0000      -0.249941        -6.8012
  15   2.0000      -0.217338        -5.9141
  16   2.0000      -0.202244        -5.5033
  17   2.0000      -0.073902        -2.0110
  18   2.0000      -0.072839        -1.9820
  19   2.0000      -0.057608        -1.5676
  20   0.0000       0.257021         6.9939
  21   0.0000       0.308184         8.3861
  22   0.0000       0.323645         8.8068
  23   0.0000       0.326500         8.8845
  24   0.0000       0.335739         9.1359

MULLIKEN ATOMIC CHARGES
-----------------------
   0 C :    0.038820
   1 C :    0.027926
   2 H :   -0.061912
   3 H :   -0.048295
   4 C :   -0.006480
   5 O :   -0.424537
   6 O :   -0.430752
   7 H :   -0.022404
   8 H :   -0.060507
   9 H :   -0.011859
Sum of atomic charges:   -1.0000000

LOEWDIN ATOMIC CHARGES
----------------------
   0 C :   -0.061222
   1 C :   -0.088815
   2 H :   -0.005047
   3 H :    0.003578
   4 C :   -0.054497
   5 O :   -0.399645
   6 O :   -0.403479
   7 H :    0.008671
   8 H :   -0.009428
   9 H :    0.009885

  Mayer bond orders larger than 0.100000
B(  0-C ,  1-C ) :   1.0878 B(  0-C ,  7-H ) :   0.9737 B(  0-C ,  8-H ) :   0.9607
B(  0-C ,  9-H ) :   0.9607 B(  1-C ,  2-H ) :   0.9359 B(  1-C ,  3-H ) :   0.9331
B(  1-C ,  4-C ) :   0.9217 B(  4-C ,  5-O ) :   1.8901 B(  4-C ,  6-O ) :   1.8534
B(  5-O ,  6-O ) :   0.1103

FINAL SINGLE POINT ENERGY      -267.498250764699

DIPOLE MOMENT
-------------
                                X             Y             Z
Electronic contribution:      4.88764      -1.07708       3.45885
Nuclear contribution   :     -6.38408       1.63097      -4.40540
                        -----------------------------------------
Total Dipole Moment    :     -1.49644       0.55389      -0.94656
                        -----------------------------------------
Magnitude (a.u.)       :      1.85529
Magnitude (Debye)      :      4.71576

Rotational constants in cm-1:     0.319732     0.134414     0.104753
Rotational constants in MHz :  9585.336550  4029.633034  3140.404334

                             ****ORCA TERMINATED NORMALLY****
TOTAL RUN TIME: 0 days 0 hours 0 minutes 14 seconds 17 msec
