                         Program Version 5.0.0 -  RELEASE  -
|  1> !CAM-B3LYP RIJCOSX def2-SVP def2/J TightSCF
|  2> *xyz 1 1
|  3> C          4.60295       -2.44010        2.63478
|  4> C          3.86085       -1.59157        3.62289
|  5> N          2.75650       -2.04616        4.16633
|  6> N          4.25433       -0.36291        3.86046
|  7> H          3.56526        0.31099        4.16898
|  8> H          5.05429       -0.01606        3.33784
|  9> H          2.43970       -2.97389        3.89740
| 10> H          2.06687       -1.41253        4.54981
| 11> C          3.74469       -2.58056        1.36188
| 12> H          5.56156       -1.97135        2.40708
| 13> H          4.81050       -3.42255        3.06310
| 14> H          4.26314       -3.18477        0.64702
| 15> H          3.56325       -1.61180        0.94535
| 16> H          2.81197       -3.04259        1.60980
| 17> *
| 18>
| 19> %MaxCore 64000
| 20>
| 21> %pal nprocs 4
| 22> end
| 23>
| 24> %scf
| 25>   MaxIter 150
| 26> end
| 27>
| 28>
| 29>                          ****END OF INPUT****

CARTESIAN COORDINATES (ANGSTROEM)
---------------------------------
  C      4.602950   -2.440100    2.634780
  C      3.860850   -1.591570    3.622890
  N      2.756500   -2.046160    4.166330
  N      4.254330   -0.362910    3.860460
  H      3.565260    0.310990    4.168980
  H      5.054290   -0.016060    3.337840
  H      2.439700   -2.973890    3.897400
  H      2.066870   -1.412530    4.549810
  C      3.744690   -2.580560    1.361880
  H      5.561560   -1.971350    2.407080
  H      4.810500   -3.422550    3.063100
  H      4.263140   -3.184770    0.647020
  H      3.563250   -1.611800    0.945350
  H      2.811970   -3.042590    1.609800

 Total Charge           Charge          ....    1
 Multiplicity           Mult            ....    1
 Number of Electrons    NEL             ....   40
 Basis Dimension        Dim             ....  115

ORBITAL ENERGIES
----------------

  NO   OCC          E(Eh)            E(eV)
   0   2.0000     -14.650735      -398.6668
   1   2.0000     -14.650171      -398.6514
   2   2.0000     -10.583899      -288.0025
   3   2.0000     -10.459973      -284.6303
   4   2.0000     -10.421086      -283.5722
   5   2.0000      -1.284890       -34.9636
   6   2.0000      -1.183703       -32.2102
   7   2.0000      -1.048672       -28.5358
   8   2.0000      -0.933950       -25.4141
   9   2.0000      -0.890255       -24.2251
  10   2.0000      -0.845850       -23.0168
  11   2.0000      -0.824011       -22.4225
  12   2.0000      -0.767797       -20.8928
  13   2.0000      -0.736245       -20.0342
  14   2.0000      -0.695697       -18.9309
  15   2.0000      -0.671235       -18.2652
  16   2.0000      -0.615844       -16.7580
  17   2.0000      -0.609931       -16.5971
  18   2.0000      -0.597018       -16.2457
  19   2.0000      -0.559041       -15.2123
  20   0.0000      -0.160883        -4.3778
  21   0.0000      -0.103550        -2.8177
  22   0.0000      -0.057713        -1.5704
  23   0.0000      -0.056675        -1.5422
  24   0.0000      -0.024313        -0.6616

MULLIKEN ATOMIC CHARGES
-----------------------
   0 C :    0.019805
   1 C :   -0.103851
   2 N :    0.026399
   3 N :    0.032054
   4 H :    0.173439
   5 H :    0.184743
   6 H :    0.182505
   7 H :    0.175191
   8 C :    0.016634
   9 H :    0.053544
  10 H :    0.086161
  11 H :    0.080013
  12 H :    0.042566
  13 H :    0.030798
Sum of atomic charges:    1.0000000

LOEWDIN ATOMIC CHARGES
----------------------
   0 C :   -0.028944
   1 C :    0.154378
   2 N :    0.095288
   3 N :    0.096566
   4 H :    0.113505
   5 H :    0.121880
   6 H :    0.120363
   7 H :    0.114174
   8 C :   -0.021127
   9 H :    0.052135
  10 H :    0.063276
  11 H :    0.054372
  12 H :    0.036238
  13 H :    0.027895

  Mayer bond orders larger than 0.100000
B(  0-C ,  1-C ) :   1.0339 B(  0-C ,  8-C ) :   1.0663 B(  0-C ,  9-H ) :   0.9238
B(  0-C , 10-H ) :   0.9216 B(  1-C ,  2-N ) :   1.5122 B(  1-C ,  3-N ) :   1.5186
B(  2-N ,  6-H ) :   0.9246 B(  2-N ,  7-H ) :   0.9306 B(  3-N ,  4-H ) :   0.9304
B(  3-N ,  5-H ) :   0.9207 B(  8-C , 11-H ) :   0.9628 B(  8-C , 12-H ) :   0.9681
B(  8-C , 13-H ) :   0.9743

FINAL SINGLE POINT ENERGY      -228.734465442144

DIPOLE MOMENT
-------------
                                X             Y             Z
Electronic contribution:     -0.26552       1.83014       3.76203
Nuclear contribution   :     -0.22400      -1.16268      -3.30447
                        -----------------------------------------
Total Dipole Moment    :     -0.48953       0.66747       0.45756
                        -----------------------------------------
Magnitude (a.u.)       :      0.94578
Magnitude (Debye)      :      2.40399

Rotational constants in cm-1:     0.258103     0.130571     0.102508
Rotational constants in MHz :  7737.732062  3914.431392  3073.119154

                             ****ORCA TERMINATED NORMALLY****
TOTAL RUN TIME: 0 days 0 hours 0 minutes 20 seconds 807 msec
