                         Program Version 5.0.0 -  RELEASE  -
|  1> !CAM-B3LYP RIJCOSX def2-TZVP def2/J TightSCF xyzfile
|  2>
|  3> *xyzfile 0 1 B.xyz
|  4>
|  5> %MaxCore 64000
|  6>
|  7> %pal nprocs 18
|  8> end
|  9>
| 10> %scf
| 11>   MaxIter 150
| 12> end
| 13>
| 14>
| 15>                          ****END OF INPUT****

CARTESIAN COORDINATES (ANGSTROEM)
---------------------------------
  C      4.602954   -2.440100    2.634780
  C     -0.914947    0.615112    2.505538
  C     -0.059146    1.503524    3.410578
  H      0.365364    2.344315    2.861161
  H     -0.692261    1.920207    4.198985
  C      1.083027    0.749640    4.085705
  C      3.860851   -1.591565    3.622893
  N      2.756502   -2.046159    4.166333
  N      4.254325   -0.362905    3.860455
  H      3.565256    0.310994    4.168983
  H      5.054292   -0.016059    3.337838
  H      2.439696   -2.973894    3.897395
  H      2.066869   -1.412532    4.549813
  O      2.228167    1.263475    4.019826
  O      0.810034   -0.345411    4.636269
  C      3.744685   -2.580557    1.361882
  C      0.772139    0.636882    0.562129
  C     -0.130740   -0.193985    1.470763
  H     -0.840563   -0.760165    0.856377
  H      0.466691   -0.938942    2.006959
  H     -1.647961    1.245963    1.991076
  H     -1.478180   -0.081046    3.130424
  C      3.203721   -1.256004    0.826211
  H      2.898939   -3.239289    1.583074
  H      4.334962   -3.095523    0.600188
  C      2.107815   -1.442385   -0.216865
  H      2.786775   -0.672760    1.650711
  H      4.021008   -0.652993    0.414046
  C      1.390662   -0.145912   -0.602422
  H      1.372179   -2.152184    0.176151
  H      2.523302   -1.906787   -1.117115
  H      1.561361    1.100094    1.161831
  H      0.195516    1.468325    0.142758
  H      0.602893   -0.398214   -1.319716
  H      2.087247    0.508272   -1.137335
  H      5.561557   -1.971347    2.407084
  H      4.810498   -3.422552    3.063099

 Total Charge           Charge          ....    0
 Multiplicity           Mult            ....    1
 Number of Electrons    NEL             ....  118
 Basis Dimension        Dim             ....  597

ORBITAL ENERGIES
----------------

  NO   OCC          E(Eh)            E(eV)
   0   2.0000     -19.118960      -520.2533
   1   2.0000     -19.117022      -520.2006
   2   2.0000     -14.430032      -392.6611
   3   2.0000     -14.429896      -392.6574
   4   2.0000     -10.383938      -282.5613
   5   2.0000     -10.307951      -280.4936
   6   2.0000     -10.295525      -280.1555
   7   2.0000     -10.275969      -279.6233
   8   2.0000     -10.251708      -278.9632
   9   2.0000     -10.242714      -278.7184
  10   2.0000     -10.234642      -278.4988
  11   2.0000     -10.223747      -278.2023
  12   2.0000     -10.220411      -278.1115
  13   2.0000     -10.216319      -278.0002
  14   2.0000     -10.207776      -277.7677
  15   2.0000      -1.105451       -30.0809
  16   2.0000      -1.089118       -29.6364
  17   2.0000      -1.007334       -27.4109
  18   2.0000      -0.990788       -26.9607
  19   2.0000      -0.922447       -25.1011
  20   2.0000      -0.887504       -24.1502
  21   2.0000      -0.856633       -23.3102
  22   2.0000      -0.815534       -22.1918
  23   2.0000      -0.776223       -21.1221
  24   2.0000      -0.737127       -20.0582
  25   2.0000      -0.720071       -19.5941
  26   2.0000      -0.696589       -18.9551
  27   2.0000      -0.662282       -18.0216
  28   2.0000      -0.653389       -17.7796
  29   2.0000      -0.644616       -17.5409
  30   2.0000      -0.621447       -16.9104
  31   2.0000      -0.585298       -15.9268
  32   2.0000      -0.577736       -15.7210
  33   2.0000      -0.556497       -15.1430
  34   2.0000      -0.546181       -14.8623
  35   2.0000      -0.534301       -14.5391
  36   2.0000      -0.526990       -14.3401
  37   2.0000      -0.512331       -13.9412
  38   2.0000      -0.501151       -13.6370
  39   2.0000      -0.488447       -13.2913
  40   2.0000      -0.482806       -13.1378
  41   2.0000      -0.473656       -12.8888
  42   2.0000      -0.469566       -12.7775
  43   2.0000      -0.463632       -12.6161
  44   2.0000      -0.442039       -12.0285
  45   2.0000      -0.439019       -11.9463
  46   2.0000      -0.432869       -11.7790
  47   2.0000      -0.427602       -11.6356
  48   2.0000      -0.416426       -11.3315
  49   2.0000      -0.399153       -10.8615
  50   2.0000      -0.395680       -10.7670
  51   2.0000      -0.387377       -10.5411
  52   2.0000      -0.372129       -10.1261
  53   2.0000      -0.366843        -9.9823
  54   2.0000      -0.364811        -9.9270
  55   2.0000      -0.357744        -9.7347
  56   2.0000      -0.299342        -8.1455
  57   2.0000      -0.289458        -7.8766
  58   2.0000      -0.286017        -7.7829
  59   0.0000       0.013311         0.3622
  60   0.0000       0.037841         1.0297
  61   0.0000       0.057870         1.5747
  62   0.0000       0.073732         2.0064
  63   0.0000       0.086651         2.3579

MULLIKEN ATOMIC CHARGES
-----------------------
   0 C :   -0.240019
   1 C :   -0.158815
   2 C :   -0.185381
   3 H :    0.104867
   4 H :    0.104982
   5 C :    0.297206
   6 C :    0.200320
   7 N :   -0.299264
   8 N :   -0.296063
   9 H :    0.284440
  10 H :    0.239153
  11 H :    0.240103
  12 H :    0.287454
  13 O :   -0.532536
  14 O :   -0.519633
  15 C :   -0.244939
  16 C :   -0.276874
  17 C :   -0.229651
  18 H :    0.096445
  19 H :    0.103505
  20 H :    0.091578
  21 H :    0.101007
  22 C :   -0.255580
  23 H :    0.124979
  24 H :    0.124759
  25 C :   -0.207526
  26 H :    0.163135
  27 H :    0.099674
  28 C :   -0.175647
  29 H :    0.114781
  30 H :    0.105111
  31 H :    0.146751
  32 H :    0.104029
  33 H :    0.106137
  34 H :    0.100257
  35 H :    0.126361
  36 H :    0.154892
Sum of atomic charges:   -0.0000000

LOEWDIN ATOMIC CHARGES
----------------------
   0 C :   -0.211195
   1 C :   -0.265456
   2 C :   -0.239444
   3 H :    0.136979
   4 H :    0.144498
   5 C :   -0.628982
   6 C :   -0.329135
   7 N :    0.103978
   8 N :    0.098756
   9 H :    0.157100
  10 H :    0.185114
  11 H :    0.186485
  12 H :    0.157753
  13 O :   -0.064067
  14 O :   -0.058076
  15 C :   -0.250706
  16 C :   -0.270605
  17 C :   -0.271698
  18 H :    0.133198
  19 H :    0.133345
  20 H :    0.131672
  21 H :    0.139406
  22 C :   -0.264212
  23 H :    0.137739
  24 H :    0.141438
  25 C :   -0.268419
  26 H :    0.148008
  27 H :    0.135952
  28 C :   -0.266810
  29 H :    0.136923
  30 H :    0.134073
  31 H :    0.139208
  32 H :    0.136912
  33 H :    0.136267
  34 H :    0.134144
  35 H :    0.147264
  36 H :    0.152592

  Mayer bond orders larger than 0.100000
B(  0-C ,  6-C ) :   0.9597 B(  0-C , 15-C ) :   0.9163 B(  0-C , 35-H ) :   0.9823
B(  0-C , 36-H ) :   0.9809 B(  1-C ,  2-C ) :   0.9378 B(  1-C , 17-C ) :   0.9728
B(  1-C , 20-H ) :   0.9770 B(  1-C , 21-H ) :   0.9711 B(  2-C ,  3-H ) :   0.9791
B(  2-C ,  4-H ) :   0.9601 B(  2-C ,  5-C ) :   0.9463 B(  5-C , 13-O ) :   1.6820
B(  5-C , 14-O ) :   1.6970 B(  6-C ,  7-N ) :   1.4786 B(  6-C ,  8-N ) :   1.4859
B(  7-N , 11-H ) :   0.9188 B(  7-N , 12-H ) :   0.7563 B(  8-N ,  9-H ) :   0.7637
B(  8-N , 10-H ) :   0.9156 B(  9-H , 13-O ) :   0.1998 B( 12-H , 14-O ) :   0.2074
B( 15-C , 22-C ) :   0.8908 B( 15-C , 23-H ) :   0.9929 B( 15-C , 24-H ) :   0.9761
B( 16-C , 17-C ) :   0.9000 B( 16-C , 28-C ) :   0.9502 B( 16-C , 31-H ) :   0.9816
B( 16-C , 32-H ) :   0.9779 B( 17-C , 18-H ) :   0.9780 B( 17-C , 19-H ) :   0.9792
B( 22-C , 25-C ) :   0.9392 B( 22-C , 26-H ) :   0.9725 B( 22-C , 27-H ) :   0.9672
B( 25-C , 28-C ) :   0.9560 B( 25-C , 29-H ) :   0.9815 B( 25-C , 30-H ) :   0.9800
B( 28-C , 33-H ) :   0.9823 B( 28-C , 34-H ) :   0.9889

FINAL SINGLE POINT ENERGY      -692.334450932405

DIPOLE MOMENT
-------------
                                X             Y             Z
Electronic contribution:      3.46121       1.59256      12.99001
Nuclear contribution   :     -1.50655      -3.48027     -14.35034
                        -----------------------------------------
Total Dipole Moment    :      1.95466      -1.88772      -1.36033
                        -----------------------------------------
Magnitude (a.u.)       :      3.03886
Magnitude (Debye)      :      7.72417

Rotational constants in cm-1:     0.021781     0.017296     0.011403
Rotational constants in MHz :   652.971749   518.510612   341.853154

                             ****ORCA TERMINATED NORMALLY****
TOTAL RUN TIME: 0 days 0 hours 2 minutes 16 seconds 491 msec
