                         Program Version 5.0.0 -  RELEASE  -
|  1> !CAM-B3LYP RIJCOSX def2-SVP def2/J TightSCF
|  2> *xyz 0 1
|  3> C         -0.91495        0.61511        2.50554
|  4> C         -0.05915        1.50352        3.41058
|  5> H          0.36536        2.34431        2.86116
|  6> H         -0.69226        1.92021        4.19898
|  7> C          1.08303        0.74964        4.08571
|  8> F          2.22817        1.26348        4.01983
|  9> O          0.81003       -0.34541        4.63627
| 10> H         -0.30401        0.20228        1.73015
| 11> H         -1.69811        1.19946        2.06954
| 12> H         -1.34124       -0.17772        3.08397
| 13> *
| 14>
| 15> %MaxCore 64000
| 16>
| 17> %pal nprocs 4
| 18> end
| 19>
| 20> %scf
| 21>   MaxIter 150
| 22> end
| 23>
| 24>
| 25>                          ****END OF INPUT****

CARTESIAN COORDINATES (ANGSTROEM)
---------------------------------
  C     -0.914950    0.615110    2.505540
  C     -0.059150    1.503520    3.410580
  H      0.365360    2.344310    2.861160
  H     -0.692260    1.920210    4.198980
  C      1.083030    0.749640    4.085710
  F      2.228170    1.263480    4.019830
  O      0.810030   -0.345410    4.636270
  H     -0.304010    0.202280    1.730150
  H     -1.698110    1.199460    2.069540
  H     -1.341240   -0.177720    3.083970

 Total Charge           Charge          ....    0
 Multiplicity           Mult            ....    1
 Number of Electrons    NEL             ....   40
 Basis Dimension        Dim             ....   95

ORBITAL ENERGIES
----------------

  NO   OCC          E(Eh)            E(eV)
   0   2.0000     -24.827232      -675.5833
   1   2.0000     -19.208873      -522.7000
   2   2.0000     -10.432703      -283.8883
   3   2.0000     -10.286828      -279.9188
   4   2.0000     -10.261683      -279.2346
   5   2.0000      -1.376024       -37.4435
   6   2.0000      -1.096851       -29.8468
   7   2.0000      -0.873736       -23.7756
   8   2.0000      -0.758757       -20.6468
   9   2.0000      -0.704659       -19.1748
  10   2.0000      -0.617261       -16.7965
  11   2.0000      -0.602555       -16.3963
  12   2.0000      -0.571773       -15.5587
  13   2.0000      -0.532772       -14.4975
  14   2.0000      -0.498038       -13.5523
  15   2.0000      -0.461796       -12.5661
  16   2.0000      -0.440937       -11.9985
  17   2.0000      -0.437869       -11.9150
  18   2.0000      -0.406458       -11.0603
  19   2.0000      -0.353897        -9.6300
  20   0.0000       0.030505         0.8301
  21   0.0000       0.102648         2.7932
  22   0.0000       0.146682         3.9914
  23   0.0000       0.153865         4.1869
  24   0.0000       0.171819         4.6754

MULLIKEN ATOMIC CHARGES
-----------------------
   0 C :    0.021691
   1 C :   -0.059168
   2 H :    0.018780
   3 H :    0.053410
   4 C :    0.207071
   5 F :   -0.068293
   6 O :   -0.248422
   7 H :    0.018566
   8 H :    0.016985
   9 H :    0.039380
Sum of atomic charges:    0.0000000

LOEWDIN ATOMIC CHARGES
----------------------
   0 C :   -0.036924
   1 C :   -0.071027
   2 H :    0.027138
   3 H :    0.050465
   4 C :    0.102213
   5 F :    0.042455
   6 O :   -0.197930
   7 H :    0.025522
   8 H :    0.026625
   9 H :    0.031462

  Mayer bond orders larger than 0.100000
B(  0-C ,  1-C ) :   1.0940 B(  0-C ,  7-H ) :   0.9789 B(  0-C ,  8-H ) :   0.9681
B(  0-C ,  9-H ) :   0.9695 B(  1-C ,  2-H ) :   0.9408 B(  1-C ,  3-H ) :   0.9294
B(  1-C ,  4-C ) :   0.9957 B(  4-C ,  5-F ) :   1.2152 B(  4-C ,  6-O ) :   2.0919

FINAL SINGLE POINT ENERGY      -292.056088827508

DIPOLE MOMENT
-------------
                                X             Y             Z
Electronic contribution:      7.77092      -0.20714       4.14261
Nuclear contribution   :     -8.12386       1.06915      -4.71960
                        -----------------------------------------
Total Dipole Moment    :     -0.35295       0.86200      -0.57699
                        -----------------------------------------
Magnitude (a.u.)       :      1.09569
Magnitude (Debye)      :      2.78503

Rotational constants in cm-1:     0.309513     0.127560     0.099675
Rotational constants in MHz :  9278.979128  3824.146597  2988.174827

                             ****ORCA TERMINATED NORMALLY****
TOTAL RUN TIME: 0 days 0 hours 0 minutes 14 seconds 741 msec
