                         Program Version 5.0.0 -  RELEASE  -
|  1> !CAM-B3LYP RIJCOSX def2-SVP def2/J TightSCF
|  2> *xyz 0 1
|  3> C          4.60295       -2.44010        2.63478
|  4> C          3.86085       -1.59157        3.62289
|  5> C          2.75650       -2.04616        4.16633
|  6> N          4.25433       -0.36291        3.86046
|  7> H          3.56526        0.31099        4.16898
|  8> H          5.05429       -0.01606        3.33784
|  9> H          2.43970       -2.97389        3.89740
| 10> H          2.06687       -1.41253        4.54981
| 11> C          3.74469       -2.58056        1.36188
| 12> H          5.56156       -1.97135        2.40708
| 13> H          4.81050       -3.42255        3.06310
| 14> H          4.26314       -3.18477        0.64702
| 15> H          3.56325       -1.61180        0.94535
| 16> H          2.81197       -3.04259        1.60980
| 17> *
| 18>
| 19> %MaxCore 64000
| 20>
| 21> %pal nprocs 4
| 22> end
| 23>
| 24> %scf
| 25>   MaxIter 150
| 26> end
| 27>
| 28>
| 29>                          ****END OF INPUT****

CARTESIAN COORDINATES (ANGSTROEM)
---------------------------------
  C      4.602950   -2.440100    2.634780
  C      3.860850   -1.591570    3.622890
  C      2.756500   -2.046160    4.166330
  N      4.254330   -0.362910    3.860460
  H      3.565260    0.310990    4.168980
  H      5.054290   -0.016060    3.337840
  H      2.439700   -2.973890    3.897400
  H      2.066870   -1.412530    4.549810
  C      3.744690   -2.580560    1.361880
  H      5.561560   -1.971350    2.407080
  H      4.810500   -3.422550    3.063100
  H      4.263140   -3.184770    0.647020
  H      3.563250   -1.611800    0.945350
  H      2.811970   -3.042590    1.609800

 Total Charge           Charge          ....    0
 Multiplicity           Mult            ....    1
 Number of Electrons    NEL             ....   40
 Basis Dimension        Dim             ....  115

ORBITAL ENERGIES
----------------

  NO   OCC          E(Eh)            E(eV)
   0   2.0000     -14.397200      -391.7677
   1   2.0000     -10.271206      -279.4937
   2   2.0000     -10.257482      -279.1203
   3   2.0000     -10.243629      -278.7433
   4   2.0000     -10.182440      -277.0783
   5   2.0000      -1.000743       -27.2316
   6   2.0000      -0.853941       -23.2369
   7   2.0000      -0.780548       -21.2398
   8   2.0000      -0.709416       -19.3042
   9   2.0000      -0.627822       -17.0839
  10   2.0000      -0.588875       -16.0241
  11   2.0000      -0.547910       -14.9094
  12   2.0000      -0.514623       -14.0036
  13   2.0000      -0.477424       -12.9914
  14   2.0000      -0.451695       -12.2912
  15   2.0000      -0.440641       -11.9904
  16   2.0000      -0.415615       -11.3095
  17   2.0000      -0.404508       -11.0072
  18   2.0000      -0.389067       -10.5870
  19   2.0000      -0.240324        -6.5396
  20   0.0000       0.091820         2.4986
  21   0.0000       0.101773         2.7694
  22   0.0000       0.138781         3.7764
  23   0.0000       0.145337         3.9548
  24   0.0000       0.162464         4.4209

MULLIKEN ATOMIC CHARGES
-----------------------
   0 C :    0.066486
   1 C :   -0.153578
   2 C :   -0.036793
   3 N :   -0.050614
   4 H :    0.112760
   5 H :    0.102192
   6 H :   -0.044740
   7 H :   -0.056595
   8 C :    0.039835
   9 H :   -0.020687
  10 H :    0.020571
  11 H :    0.003664
  12 H :    0.002708
  13 H :    0.014791
Sum of atomic charges:   -0.0000000

LOEWDIN ATOMIC CHARGES
----------------------
   0 C :   -0.026827
   1 C :    0.006819
   2 C :   -0.178415
   3 N :   -0.006056
   4 H :    0.077121
   5 H :    0.067945
   6 H :   -0.003486
   7 H :   -0.007896
   8 C :   -0.039069
   9 H :    0.014818
  10 H :    0.034614
  11 H :    0.017568
  12 H :    0.019575
  13 H :    0.023289

  Mayer bond orders larger than 0.100000
B(  0-C ,  1-C ) :   1.0159 B(  0-C ,  8-C ) :   1.0972 B(  0-C ,  9-H ) :   0.9327
B(  0-C , 10-H ) :   0.9353 B(  1-C ,  2-C ) :   1.8823 B(  1-C ,  3-N ) :   1.2662
B(  2-C ,  6-H ) :   0.9428 B(  2-C ,  7-H ) :   0.9547 B(  3-N ,  4-H ) :   0.9507
B(  3-N ,  5-H ) :   0.9510 B(  8-C , 11-H ) :   0.9667 B(  8-C , 12-H ) :   0.9685
B(  8-C , 13-H ) :   0.9750

FINAL SINGLE POINT ENERGY      -212.270852031713

DIPOLE MOMENT
-------------
                                X             Y             Z
Electronic contribution:      0.84824       1.83338       2.55457
Nuclear contribution   :     -0.47010      -1.22282      -3.06417
                        -----------------------------------------
Total Dipole Moment    :      0.37814       0.61057      -0.50959
                        -----------------------------------------
Magnitude (a.u.)       :      0.88060
Magnitude (Debye)      :      2.23832

Rotational constants in cm-1:     0.271862     0.131962     0.105499
Rotational constants in MHz :  8150.219120  3956.123671  3162.785522

                             ****ORCA TERMINATED NORMALLY****
TOTAL RUN TIME: 0 days 0 hours 0 minutes 19 seconds 998 msec
