                         Program Version 5.0.0 -  RELEASE  -
|  1> !CAM-B3LYP RIJCOSX def2-SVP def2/J TightSCF
|  2> *xyz 0 1
|  3> C         -0.91495        0.61511        2.50554
|  4> C         -0.05915        1.50352        3.41058
|  5> H          0.36536        2.34431        2.86116
|  6> H         -0.69226        1.92021        4.19898
|  7> C          1.08303        0.74964        4.08571
|  8> O          2.22817        1.26348        4.01983
|  9> F          0.81003       -0.34541        4.63627
| 10> H         -0.30401        0.20228        1.73015
| 11> H         -1.69811        1.19946        2.06954
| 12> H         -1.34124       -0.17772        3.08397
| 13> *
| 14>
| 15> %MaxCore 64000
| 16>
| 17> %pal nprocs 4
| 18> end
| 19>
| 20> %scf
| 21>   MaxIter 150
| 22> end
| 23>
| 24>
| 25>                          ****END OF INPUT****

CARTESIAN COORDINATES (ANGSTROEM)
---------------------------------
  C     -0.914950    0.615110    2.505540
  C     -0.059150    1.503520    3.410580
  H      0.365360    2.344310    2.861160
  H     -0.692260    1.920210    4.198980
  C      1.083030    0.749640    4.085710
  O      2.228170    1.263480    4.019830
  F      0.810030   -0.345410    4.636270
  H     -0.304010    0.202280    1.730150
  H     -1.698110    1.199460    2.069540
  H     -1.341240   -0.177720    3.083970

 Total Charge           Charge          ....    0
 Multiplicity           Mult            ....    1
 Number of Electrons    NEL             ....   40
 Basis Dimension        Dim             ....   95

ORBITAL ENERGIES
----------------

  NO   OCC          E(Eh)            E(eV)
   0   2.0000     -24.829215      -675.6373
   1   2.0000     -19.207040      -522.6501
   2   2.0000     -10.431612      -283.8586
   3   2.0000     -10.285872      -279.8928
   4   2.0000     -10.267090      -279.3817
   5   2.0000      -1.378027       -37.4980
   6   2.0000      -1.094218       -29.7752
   7   2.0000      -0.878013       -23.8920
   8   2.0000      -0.754479       -20.5304
   9   2.0000      -0.711646       -19.3649
  10   2.0000      -0.620327       -16.8799
  11   2.0000      -0.609634       -16.5890
  12   2.0000      -0.562505       -15.3065
  13   2.0000      -0.533072       -14.5056
  14   2.0000      -0.499867       -13.6021
  15   2.0000      -0.466262       -12.6876
  16   2.0000      -0.447461       -12.1760
  17   2.0000      -0.441526       -12.0145
  18   2.0000      -0.407457       -11.0875
  19   2.0000      -0.348259        -9.4766
  20   0.0000       0.033898         0.9224
  21   0.0000       0.097555         2.6546
  22   0.0000       0.144073         3.9204
  23   0.0000       0.154989         4.2175
  24   0.0000       0.172648         4.6980

MULLIKEN ATOMIC CHARGES
-----------------------
   0 C :   -0.002134
   1 C :   -0.051482
   2 H :    0.045527
   3 H :    0.042226
   4 C :    0.204354
   5 O :   -0.242158
   6 F :   -0.070989
   7 H :    0.026772
   8 H :    0.023939
   9 H :    0.023945
Sum of atomic charges:    0.0000000

LOEWDIN ATOMIC CHARGES
----------------------
   0 C :   -0.047856
   1 C :   -0.066659
   2 H :    0.043776
   3 H :    0.042770
   4 C :    0.100228
   5 O :   -0.195290
   6 F :    0.042571
   7 H :    0.026724
   8 H :    0.029643
   9 H :    0.024094

  Mayer bond orders larger than 0.100000
B(  0-C ,  1-C ) :   1.0726 B(  0-C ,  7-H ) :   0.9790 B(  0-C ,  8-H ) :   0.9678
B(  0-C ,  9-H ) :   0.9729 B(  1-C ,  2-H ) :   0.9511 B(  1-C ,  3-H ) :   0.9309
B(  1-C ,  4-C ) :   1.0057 B(  4-C ,  5-O ) :   2.1103 B(  4-C ,  6-F ) :   1.2033

FINAL SINGLE POINT ENERGY      -292.054821047645

DIPOLE MOMENT
-------------
                                X             Y             Z
Electronic contribution:      5.42334      -2.85224       5.14111
Nuclear contribution   :     -6.57765       2.82334      -5.39171
                        -----------------------------------------
Total Dipole Moment    :     -1.15430      -0.02890      -0.25060
                        -----------------------------------------
Magnitude (a.u.)       :      1.18155
Magnitude (Debye)      :      3.00325

Rotational constants in cm-1:     0.294245     0.132994     0.101060
Rotational constants in MHz :  8821.228602  3987.049251  3029.696815

                             ****ORCA TERMINATED NORMALLY****
TOTAL RUN TIME: 0 days 0 hours 0 minutes 14 seconds 640 msec
