                         Program Version 5.0.0 -  RELEASE  -
|  1> !CAM-B3LYP RIJCOSX def2-SVP def2/J TightSCF
|  2> *xyz 0 1
|  3> C          4.60295       -2.44010        2.63478
|  4> C          3.86085       -1.59157        3.62289
|  5> N          2.75650       -2.04616        4.16633
|  6> C          4.25433       -0.36291        3.86046
|  7> H          3.56526        0.31099        4.16898
|  8> H          5.05429       -0.01606        3.33784
|  9> H          2.43970       -2.97389        3.89740
| 10> H          2.06687       -1.41253        4.54981
| 11> C          3.74469       -2.58056        1.36188
| 12> H          5.56156       -1.97135        2.40708
| 13> H          4.81050       -3.42255        3.06310
| 14> H          4.26314       -3.18477        0.64702
| 15> H          3.56325       -1.61180        0.94535
| 16> H          2.81197       -3.04259        1.60980
| 17> *
| 18>
| 19> %MaxCore 64000
| 20>
| 21> %pal nprocs 4
| 22> end
| 23>
| 24> %scf
| 25>   MaxIter 150
| 26> end
| 27>
| 28>
| 29>                          ****END OF INPUT****

CARTESIAN COORDINATES (ANGSTROEM)
---------------------------------
  C      4.602950   -2.440100    2.634780
  C      3.860850   -1.591570    3.622890
  N      2.756500   -2.046160    4.166330
  C      4.254330   -0.362910    3.860460
  H      3.565260    0.310990    4.168980
  H      5.054290   -0.016060    3.337840
  H      2.439700   -2.973890    3.897400
  H      2.066870   -1.412530    4.549810
  C      3.744690   -2.580560    1.361880
  H      5.561560   -1.971350    2.407080
  H      4.810500   -3.422550    3.063100
  H      4.263140   -3.184770    0.647020
  H      3.563250   -1.611800    0.945350
  H      2.811970   -3.042590    1.609800

 Total Charge           Charge          ....    0
 Multiplicity           Mult            ....    1
 Number of Electrons    NEL             ....   40
 Basis Dimension        Dim             ....  115

ORBITAL ENERGIES
----------------

  NO   OCC          E(Eh)            E(eV)
   0   2.0000     -14.397996      -391.7894
   1   2.0000     -10.272310      -279.5238
   2   2.0000     -10.256948      -279.1057
   3   2.0000     -10.247929      -278.8603
   4   2.0000     -10.183923      -277.1186
   5   2.0000      -1.000922       -27.2365
   6   2.0000      -0.852150       -23.1882
   7   2.0000      -0.789031       -21.4706
   8   2.0000      -0.704665       -19.1749
   9   2.0000      -0.635279       -17.2868
  10   2.0000      -0.590677       -16.0731
  11   2.0000      -0.543396       -14.7866
  12   2.0000      -0.505360       -13.7516
  13   2.0000      -0.494670       -13.4607
  14   2.0000      -0.450801       -12.2669
  15   2.0000      -0.444068       -12.0837
  16   2.0000      -0.419745       -11.4218
  17   2.0000      -0.401856       -10.9351
  18   2.0000      -0.385771       -10.4974
  19   2.0000      -0.243147        -6.6164
  20   0.0000       0.088693         2.4135
  21   0.0000       0.104702         2.8491
  22   0.0000       0.142080         3.8662
  23   0.0000       0.144675         3.9368
  24   0.0000       0.157690         4.2910

MULLIKEN ATOMIC CHARGES
-----------------------
   0 C :    0.067163
   1 C :   -0.148877
   2 N :   -0.052583
   3 C :   -0.029531
   4 H :   -0.056982
   5 H :   -0.047432
   6 H :    0.102393
   7 H :    0.113657
   8 C :    0.037255
   9 H :    0.004168
  10 H :   -0.001202
  11 H :    0.010898
  12 H :    0.010838
  13 H :   -0.009764
Sum of atomic charges:    0.0000000

LOEWDIN ATOMIC CHARGES
----------------------
   0 C :   -0.025159
   1 C :    0.009140
   2 N :   -0.005743
   3 C :   -0.179466
   4 H :   -0.007988
   5 H :   -0.002704
   6 H :    0.067882
   7 H :    0.077467
   8 C :   -0.044265
   9 H :    0.032657
  10 H :    0.019290
  11 H :    0.021841
  12 H :    0.024690
  13 H :    0.012360

  Mayer bond orders larger than 0.100000
B(  0-C ,  1-C ) :   1.0406 B(  0-C ,  8-C ) :   1.0887 B(  0-C ,  9-H ) :   0.9312
B(  0-C , 10-H ) :   0.9302 B(  1-C ,  2-N ) :   1.2655 B(  1-C ,  3-C ) :   1.8835
B(  2-N ,  6-H ) :   0.9552 B(  2-N ,  7-H ) :   0.9504 B(  3-C ,  4-H ) :   0.9538
B(  3-C ,  5-H ) :   0.9369 B(  8-C , 11-H ) :   0.9687 B(  8-C , 12-H ) :   0.9683
B(  8-C , 13-H ) :   0.9712

FINAL SINGLE POINT ENERGY      -212.271833953440

DIPOLE MOMENT
-------------
                                X             Y             Z
Electronic contribution:     -0.54062       0.27329       2.85564
Nuclear contribution   :     -0.12319      -0.83296      -3.13501
                        -----------------------------------------
Total Dipole Moment    :     -0.66381      -0.55968      -0.27937
                        -----------------------------------------
Magnitude (a.u.)       :      0.91210
Magnitude (Debye)      :      2.31838

Rotational constants in cm-1:     0.266453     0.134423     0.106086
Rotational constants in MHz :  7988.053142  4029.892766  3180.375228

                             ****ORCA TERMINATED NORMALLY****
TOTAL RUN TIME: 0 days 0 hours 0 minutes 19 seconds 952 msec
