                         Program Version 5.0.0 -  RELEASE  -
|  1> !CAM-B3LYP RIJCOSX def2-TZVP def2/J TightSCF xyzfile
|  2>
|  3> *xyzfile 0 1 D3.xyz
|  4>
|  5> %MaxCore 64000
|  6>
|  7> %pal nprocs 18
|  8> end
|  9>
| 10> %scf
| 11>   MaxIter 150
| 12> end
| 13>
| 14>
| 15>                          ****END OF INPUT****

CARTESIAN COORDINATES (ANGSTROEM)
---------------------------------
  C      4.602954   -2.440100    2.634780
  C     -0.914947    0.615112    2.505538
  C     -0.059146    1.503524    3.410578
  H      0.365364    2.344315    2.861161
  H     -0.692261    1.920207    4.198985
  C      1.083027    0.749640    4.085705
  C      3.860851   -1.591565    3.622893
  C      2.756502   -2.046159    4.166333
  N      4.254325   -0.362905    3.860455
  H      3.565256    0.310994    4.168983
  H      5.054292   -0.016059    3.337838
  H      2.439696   -2.973894    3.897395
  H      2.066869   -1.412532    4.549813
  O      2.228167    1.263475    4.019826
  F      0.810034   -0.345411    4.636269
  C      3.744685   -2.580557    1.361882
  C      0.772139    0.636882    0.562129
  C     -0.130740   -0.193985    1.470763
  H     -0.840563   -0.760165    0.856377
  H      0.466691   -0.938942    2.006959
  H     -1.647961    1.245963    1.991076
  H     -1.478180   -0.081046    3.130424
  C      3.203721   -1.256004    0.826211
  H      2.898939   -3.239289    1.583074
  H      4.334962   -3.095523    0.600188
  C      2.107815   -1.442385   -0.216865
  H      2.786775   -0.672760    1.650711
  H      4.021008   -0.652993    0.414046
  C      1.390662   -0.145912   -0.602422
  H      1.372179   -2.152184    0.176151
  H      2.523302   -1.906787   -1.117115
  H      1.561361    1.100094    1.161831
  H      0.195516    1.468325    0.142758
  H      0.602893   -0.398214   -1.319716
  H      2.087247    0.508272   -1.137335
  H      5.561557   -1.971347    2.407084
  H      4.810498   -3.422552    3.063099

 Total Charge           Charge          ....    0
 Multiplicity           Mult            ....    1
 Number of Electrons    NEL             ....  118
 Basis Dimension        Dim             ....  597

ORBITAL ENERGIES
----------------

  NO   OCC          E(Eh)            E(eV)
   0   2.0000     -24.842563      -676.0005
   1   2.0000     -19.227889      -523.2175
   2   2.0000     -14.349810      -390.4782
   3   2.0000     -10.447774      -284.2984
   4   2.0000     -10.282858      -279.8108
   5   2.0000     -10.264093      -279.3002
   6   2.0000     -10.247875      -278.8589
   7   2.0000     -10.242656      -278.7168
   8   2.0000     -10.241410      -278.6829
   9   2.0000     -10.237168      -278.5675
  10   2.0000     -10.231004      -278.3998
  11   2.0000     -10.229676      -278.3636
  12   2.0000     -10.229393      -278.3559
  13   2.0000     -10.225229      -278.2426
  14   2.0000     -10.144776      -276.0534
  15   2.0000      -1.422988       -38.7215
  16   2.0000      -1.143568       -31.1181
  17   2.0000      -0.989831       -26.9347
  18   2.0000      -0.919781       -25.0285
  19   2.0000      -0.890179       -24.2230
  20   2.0000      -0.862968       -23.4826
  21   2.0000      -0.827014       -22.5042
  22   2.0000      -0.793747       -21.5989
  23   2.0000      -0.775587       -21.1048
  24   2.0000      -0.749689       -20.4001
  25   2.0000      -0.728360       -19.8197
  26   2.0000      -0.692603       -18.8467
  27   2.0000      -0.667001       -18.1500
  28   2.0000      -0.647108       -17.6087
  29   2.0000      -0.643566       -17.5123
  30   2.0000      -0.631136       -17.1741
  31   2.0000      -0.616904       -16.7868
  32   2.0000      -0.594091       -16.1660
  33   2.0000      -0.564723       -15.3669
  34   2.0000      -0.556665       -15.1476
  35   2.0000      -0.550719       -14.9858
  36   2.0000      -0.538801       -14.6615
  37   2.0000      -0.518831       -14.1181
  38   2.0000      -0.514744       -14.0069
  39   2.0000      -0.500901       -13.6302
  40   2.0000      -0.492693       -13.4069
  41   2.0000      -0.478887       -13.0312
  42   2.0000      -0.476732       -12.9725
  43   2.0000      -0.459298       -12.4981
  44   2.0000      -0.453323       -12.3355
  45   2.0000      -0.443073       -12.0566
  46   2.0000      -0.438651       -11.9363
  47   2.0000      -0.431387       -11.7386
  48   2.0000      -0.418954       -11.4003
  49   2.0000      -0.408563       -11.1176
  50   2.0000      -0.405605       -11.0371
  51   2.0000      -0.399521       -10.8715
  52   2.0000      -0.387574       -10.5464
  53   2.0000      -0.383279       -10.4296
  54   2.0000      -0.375872       -10.2280
  55   2.0000      -0.373119       -10.1531
  56   2.0000      -0.364927        -9.9302
  57   2.0000      -0.357284        -9.7222
  58   2.0000      -0.227010        -6.1773
  59   0.0000       0.002881         0.0784
  60   0.0000       0.059152         1.6096
  61   0.0000       0.078653         2.1403
  62   0.0000       0.082420         2.2428
  63   0.0000       0.085332         2.3220

MULLIKEN ATOMIC CHARGES
-----------------------
   0 C :   -0.218778
   1 C :   -0.208600
   2 C :   -0.233613
   3 H :    0.152856
   4 H :    0.145438
   5 C :    0.410667
   6 C :    0.135021
   7 C :   -0.418311
   8 N :   -0.394971
   9 H :    0.244536
  10 H :    0.203758
  11 H :    0.075975
  12 H :    0.086162
  13 O :   -0.366605
  14 F :   -0.094299
  15 C :   -0.187268
  16 C :   -0.269948
  17 C :   -0.261753
  18 H :    0.114569
  19 H :    0.147079
  20 H :    0.119229
  21 H :    0.125996
  22 C :   -0.232204
  23 H :    0.103650
  24 H :    0.095188
  25 C :   -0.206942
  26 H :    0.129608
  27 H :    0.087482
  28 C :   -0.175525
  29 H :    0.110700
  30 H :    0.104145
  31 H :    0.142260
  32 H :    0.106617
  33 H :    0.105636
  34 H :    0.103122
  35 H :    0.094848
  36 H :    0.124276
Sum of atomic charges:   -0.0000000

LOEWDIN ATOMIC CHARGES
----------------------
   0 C :   -0.212387
   1 C :   -0.263618
   2 C :   -0.225413
   3 H :    0.156107
   4 H :    0.156340
   5 C :   -0.467928
   6 C :   -0.380687
   7 C :   -0.302775
   8 N :    0.004633
   9 H :    0.147322
  10 H :    0.161597
  11 H :    0.102372
  12 H :    0.089306
  13 O :    0.075051
  14 F :    0.352113
  15 C :   -0.251957
  16 C :   -0.271816
  17 C :   -0.269549
  18 H :    0.140838
  19 H :    0.141329
  20 H :    0.142081
  21 H :    0.141201
  22 C :   -0.264832
  23 H :    0.136793
  24 H :    0.130519
  25 C :   -0.269690
  26 H :    0.143346
  27 H :    0.132051
  28 C :   -0.265899
  29 H :    0.135471
  30 H :    0.134407
  31 H :    0.137314
  32 H :    0.135816
  33 H :    0.135300
  34 H :    0.135818
  35 H :    0.132791
  36 H :    0.146633

  Mayer bond orders larger than 0.100000
B(  0-C ,  6-C ) :   0.9116 B(  0-C , 15-C ) :   0.9464 B(  0-C , 35-H ) :   0.9927
B(  0-C , 36-H ) :   0.9900 B(  1-C ,  2-C ) :   0.9189 B(  1-C , 17-C ) :   0.9428
B(  1-C , 20-H ) :   0.9730 B(  1-C , 21-H ) :   0.9849 B(  2-C ,  3-H ) :   0.9737
B(  2-C ,  4-H ) :   0.9524 B(  2-C ,  5-C ) :   0.9774 B(  5-C , 13-O ) :   1.9306
B(  5-C , 14-F ) :   1.1423 B(  6-C ,  7-C ) :   1.7306 B(  6-C ,  8-N ) :   1.1971
B(  7-C , 11-H ) :   1.0036 B(  7-C , 12-H ) :   1.0048 B(  8-N ,  9-H ) :   0.8691
B(  8-N , 10-H ) :   0.9372 B(  9-H , 13-O ) :   0.1059 B( 15-C , 22-C ) :   0.9409
B( 15-C , 23-H ) :   0.9802 B( 15-C , 24-H ) :   0.9765 B( 16-C , 17-C ) :   0.8948
B( 16-C , 28-C ) :   0.9594 B( 16-C , 31-H ) :   0.9779 B( 16-C , 32-H ) :   0.9773
B( 17-C , 18-H ) :   0.9775 B( 17-C , 19-H ) :   0.9806 B( 22-C , 25-C ) :   0.9354
B( 22-C , 26-H ) :   0.9862 B( 22-C , 27-H ) :   0.9713 B( 25-C , 28-C ) :   0.9488
B( 25-C , 29-H ) :   0.9839 B( 25-C , 30-H ) :   0.9816 B( 28-C , 33-H ) :   0.9850
B( 28-C , 34-H ) :   0.9869

FINAL SINGLE POINT ENERGY      -700.212938236610

DIPOLE MOMENT
-------------
                                X             Y             Z
Electronic contribution:     -1.22559       4.76965      15.95153
Nuclear contribution   :      0.05905      -3.94566     -16.70013
                        -----------------------------------------
Total Dipole Moment    :     -1.16655       0.82399      -0.74860
                        -----------------------------------------
Magnitude (a.u.)       :      1.61251
Magnitude (Debye)      :      4.09868

Rotational constants in cm-1:     0.021602     0.017295     0.011353
Rotational constants in MHz :   647.614981   518.478934   340.359556

                             ****ORCA TERMINATED NORMALLY****
TOTAL RUN TIME: 0 days 0 hours 1 minutes 45 seconds 41 msec
