                         Program Version 5.0.0 -  RELEASE  -
|  1> !LC-BLYP RIJCOSX def2-TZVPD def2/J TightSCF
|  2> *xyz -1 1
|  3> C         -0.90349       -0.87394       -1.98739
|  4> C         -0.96015       -0.52236       -0.48987
|  5> H         -1.69039       -1.20813       -0.02168
|  6> H         -1.41449        0.48633       -0.40668
|  7> O          0.26170       -0.58031        0.13861
|  8> H         -1.88568       -0.80774       -2.40670
|  9> H         -0.53143       -1.87013       -2.10605
| 10> H         -0.25399       -0.18836       -2.49039
| 11> *
| 12>
| 13> %MaxCore 64000
| 14>
| 15> %pal nprocs 4
| 16> end
| 17>
| 18> %scf
| 19>   MaxIter 150
| 20> end
| 21>
| 22>
| 23>                          ****END OF INPUT****

CARTESIAN COORDINATES (ANGSTROEM)
---------------------------------
  C     -0.903490   -0.873940   -1.987390
  C     -0.960150   -0.522360   -0.489870
  H     -1.690390   -1.208130   -0.021680
  H     -1.414490    0.486330   -0.406680
  O      0.261700   -0.580310    0.138610
  H     -1.885680   -0.807740   -2.406700
  H     -0.531430   -1.870130   -2.106050
  H     -0.253990   -0.188360   -2.490390

 Total Charge           Charge          ....   -1
 Multiplicity           Mult            ....    1
 Number of Electrons    NEL             ....   26
 Basis Dimension        Dim             ....  159

ORBITAL ENERGIES
----------------

  NO   OCC          E(Eh)            E(eV)
   0   2.0000     -18.605597      -506.2840
   1   2.0000      -9.883622      -268.9470
   2   2.0000      -9.860536      -268.3188
   3   2.0000      -0.775009       -21.0891
   4   2.0000      -0.636019       -17.3070
   5   2.0000      -0.481280       -13.0963
   6   2.0000      -0.359178        -9.7737
   7   2.0000      -0.333866        -9.0850
   8   2.0000      -0.276804        -7.5322
   9   2.0000      -0.258811        -7.0426
  10   2.0000      -0.211618        -5.7584
  11   2.0000      -0.067408        -1.8343
  12   2.0000      -0.064731        -1.7614
  13   0.0000       0.197813         5.3828
  14   0.0000       0.219183         5.9643
  15   0.0000       0.249687         6.7943
  16   0.0000       0.249840         6.7985
  17   0.0000       0.273024         7.4293

MULLIKEN ATOMIC CHARGES
-----------------------
   0 C :   -1.173738
   1 C :   -0.519335
   2 H :    0.293165
   3 H :    0.292761
   4 O :   -0.911349
   5 H :    0.390500
   6 H :    0.313950
   7 H :    0.314047
Sum of atomic charges:   -1.0000000

LOEWDIN ATOMIC CHARGES
----------------------
   0 C :   -0.182750
   1 C :   -0.641546
   2 H :    0.061599
   3 H :    0.063022
   4 O :   -0.421605
   5 H :    0.033739
   6 H :    0.043791
   7 H :    0.043751

  Mayer bond orders larger than 0.100000
B(  0-C ,  1-C ) :   0.6402 B(  0-C ,  4-O ) :   0.2621 B(  0-C ,  5-H ) :   0.9143
B(  0-C ,  6-H ) :   0.9613 B(  0-C ,  7-H ) :   0.9610 B(  1-C ,  2-H ) :   1.0037
B(  1-C ,  3-H ) :   1.0015 B(  1-C ,  4-O ) :   0.9427

FINAL SINGLE POINT ENERGY      -154.111220481550

DIPOLE MOMENT
-------------
                                X             Y             Z
Electronic contribution:      1.77908       0.17767       2.07902
Nuclear contribution   :     -2.90669      -0.27617      -3.31210
                        -----------------------------------------
Total Dipole Moment    :     -1.12762      -0.09850      -1.23308
                        -----------------------------------------
Magnitude (a.u.)       :      1.67383
Magnitude (Debye)      :      4.25455

Rotational constants in cm-1:     1.291883     0.321656     0.284469
Rotational constants in MHz : 38729.676116  9643.011620  8528.167295

                             ****ORCA TERMINATED NORMALLY****
TOTAL RUN TIME: 0 days 0 hours 0 minutes 18 seconds 463 msec
