                         Program Version 5.0.0 -  RELEASE  -
|  1> !LC-BLYP RIJCOSX def2-TZVPD def2/J TightSCF
|  2> *xyz 1 1
|  3> C          4.36645       -0.13321       -1.41606
|  4> C          4.50829       -0.93187       -2.72425
|  5> C          3.05650       -0.32080       -0.70738
|  6> N          2.38983        0.71129       -0.24391
|  7> N          2.51600       -1.50772       -0.55023
|  8> H          2.96768       -2.32291       -0.95631
|  9> H          1.54987       -1.49063       -0.24988
| 10> H          2.74307        1.64947       -0.41280
| 11> H          1.44036        0.50278        0.03703
| 12> H          4.48784        0.93300       -1.61157
| 13> H          5.16967       -0.41443       -0.72982
| 14> H          5.46700       -0.73824       -3.15818
| 15> H          3.74074       -0.63528       -3.40821
| 16> H          4.41574       -1.97727       -2.51573
| 17> *
| 18>
| 19> %MaxCore 64000
| 20>
| 21> %pal nprocs 4
| 22> end
| 23>
| 24> %scf
| 25>   MaxIter 150
| 26> end
| 27>
| 28>
| 29>                          ****END OF INPUT****

CARTESIAN COORDINATES (ANGSTROEM)
---------------------------------
  C      4.366450   -0.133210   -1.416060
  C      4.508290   -0.931870   -2.724250
  C      3.056500   -0.320800   -0.707380
  N      2.389830    0.711290   -0.243910
  N      2.516000   -1.507720   -0.550230
  H      2.967680   -2.322910   -0.956310
  H      1.549870   -1.490630   -0.249880
  H      2.743070    1.649470   -0.412800
  H      1.440360    0.502780    0.037030
  H      4.487840    0.933000   -1.611570
  H      5.169670   -0.414430   -0.729820
  H      5.467000   -0.738240   -3.158180
  H      3.740740   -0.635280   -3.408210
  H      4.415740   -1.977270   -2.515730

 Total Charge           Charge          ....    1
 Multiplicity           Mult            ....    1
 Number of Electrons    NEL             ....   40
 Basis Dimension        Dim             ....  266

ORBITAL ENERGIES
----------------

  NO   OCC          E(Eh)            E(eV)
   0   2.0000     -14.416357      -392.2890
   1   2.0000     -14.415012      -392.2524
   2   2.0000     -10.393602      -282.8243
   3   2.0000     -10.270520      -279.4751
   4   2.0000     -10.226244      -278.2702
   5   2.0000      -1.314587       -35.7717
   6   2.0000      -1.207911       -32.8689
   7   2.0000      -1.081232       -29.4218
   8   2.0000      -0.968335       -26.3497
   9   2.0000      -0.925753       -25.1910
  10   2.0000      -0.874956       -23.8088
  11   2.0000      -0.860514       -23.4158
  12   2.0000      -0.804138       -21.8817
  13   2.0000      -0.771837       -21.0027
  14   2.0000      -0.731977       -19.9181
  15   2.0000      -0.707531       -19.2529
  16   2.0000      -0.655415       -17.8348
  17   2.0000      -0.641132       -17.4461
  18   2.0000      -0.625647       -17.0247
  19   2.0000      -0.593120       -16.1396
  20   0.0000      -0.134845        -3.6693
  21   0.0000      -0.113960        -3.1010
  22   0.0000      -0.074315        -2.0222
  23   0.0000      -0.070589        -1.9208
  24   0.0000      -0.043409        -1.1812

MULLIKEN ATOMIC CHARGES
-----------------------
   0 C :   -0.656869
   1 C :   -1.391307
   2 C :    0.669499
   3 N :   -0.299893
   4 N :   -0.287106
   5 H :    0.238082
   6 H :    0.196763
   7 H :    0.252786
   8 H :    0.207257
   9 H :    0.392880
  10 H :    0.403513
  11 H :    0.418576
  12 H :    0.403869
  13 H :    0.451951
Sum of atomic charges:    1.0000000

LOEWDIN ATOMIC CHARGES
----------------------
   0 C :   -0.150351
   1 C :   -0.068160
   2 C :   -0.370386
   3 N :    0.229956
   4 N :    0.234738
   5 H :    0.146913
   6 H :    0.146551
   7 H :    0.154287
   8 H :    0.145038
   9 H :    0.129369
  10 H :    0.146695
  11 H :    0.092420
  12 H :    0.090765
  13 H :    0.072164

  Mayer bond orders larger than 0.100000
B(  0-C ,  1-C ) :   0.5062 B(  0-C ,  2-C ) :   0.6812 B(  0-C ,  9-H ) :   0.8701
B(  0-C , 10-H ) :   0.9119 B(  1-C ,  2-C ) :  -0.1013 B(  1-C , 11-H ) :   0.9163
B(  1-C , 12-H ) :   0.9168 B(  1-C , 13-H ) :   0.8306 B(  2-C ,  3-N ) :   1.1691
B(  2-C ,  4-N ) :   1.1109 B(  3-N ,  4-N ) :   0.1120 B(  3-N ,  7-H ) :   0.9329
B(  3-N ,  8-H ) :   1.0020 B(  4-N ,  5-H ) :   0.9318 B(  4-N ,  6-H ) :   1.0177

FINAL SINGLE POINT ENERGY      -228.503282621845

DIPOLE MOMENT
-------------
                                X             Y             Z
Electronic contribution:     -2.66077       0.62969       3.11210
Nuclear contribution   :      1.78847      -0.48174      -2.67127
                        -----------------------------------------
Total Dipole Moment    :     -0.87230       0.14795       0.44083
                        -----------------------------------------
Magnitude (a.u.)       :      0.98850
Magnitude (Debye)      :      2.51255

Rotational constants in cm-1:     0.286883     0.123210     0.094446
Rotational constants in MHz :  8600.540572  3693.747366  2831.415242

                             ****ORCA TERMINATED NORMALLY****
TOTAL RUN TIME: 0 days 0 hours 0 minutes 39 seconds 95 msec
