                         Program Version 5.0.0 -  RELEASE  -
|  1> !LC-BLYP RIJCOSX def2-TZVPD def2/J TightSCF xyzfile
|  2>
|  3> *xyzfile 0 1 B.xyz
|  4>
|  5> %MaxCore 64000
|  6>
|  7> %pal nprocs 4
|  8> end
|  9>
| 10> %scf
| 11>   MaxIter 150
| 12> end
| 13>
| 14>
| 15>                          ****END OF INPUT****

CARTESIAN COORDINATES (ANGSTROEM)
---------------------------------
  C      4.366454   -0.133215   -1.416062
  C      4.508292   -0.931872   -2.724249
  H      4.753716   -1.972051   -2.488408
  C      3.294164   -0.918214   -3.656570
  H      5.385637   -0.536236   -3.242640
  H      2.483463   -1.477378   -3.185764
  H      3.553092   -1.478495   -4.560331
  C      2.772335    0.460100   -4.051448
  H      2.608762    1.065107   -3.155194
  C      1.465354    0.410537   -4.853644
  H      3.532940    0.988848   -4.635671
  C      0.326171   -0.375613   -4.192580
  H      1.666704   -0.022269   -5.839323
  H      1.138198    1.439246   -5.035449
  C     -0.017405    0.080588   -2.778406
  H      0.585573   -1.439385   -4.168057
  H     -0.560005   -0.311425   -4.831461
  H      0.902090    0.201296   -2.206729
  C     -0.903495   -0.873945   -1.987388
  H     -0.479549    1.074657   -2.811915
  H     -0.502554   -1.892096   -2.081204
  H     -1.917039   -0.895427   -2.406277
  C     -0.960148   -0.522365   -0.489867
  H     -1.690392   -1.208130   -0.021677
  H     -1.414490    0.486329   -0.406677
  O      0.261703   -0.580307    0.138611
  C      3.056503   -0.320797   -0.707384
  N      2.389825    0.711285   -0.243909
  N      2.515999   -1.507721   -0.550229
  H      2.967683   -2.322915   -0.956305
  H      1.549872   -1.490634   -0.249876
  H      2.743071    1.649471   -0.412802
  H      1.440364    0.502778    0.037031
  H      4.487835    0.932997   -1.611569
  H      5.169672   -0.414432   -0.729817

 Total Charge           Charge          ....    0
 Multiplicity           Mult            ....    1
 Number of Electrons    NEL             ....  104
 Basis Dimension        Dim             ....  682

ORBITAL ENERGIES
----------------

  NO   OCC          E(Eh)            E(eV)
   0   2.0000     -18.809880      -511.8429
   1   2.0000     -14.197477      -386.3330
   2   2.0000     -14.197223      -386.3261
   3   2.0000     -10.195867      -277.4436
   4   2.0000     -10.114193      -275.2212
   5   2.0000     -10.098654      -274.7983
   6   2.0000     -10.077267      -274.2164
   7   2.0000     -10.070985      -274.0454
   8   2.0000     -10.062396      -273.8117
   9   2.0000     -10.051633      -273.5188
  10   2.0000     -10.049738      -273.4673
  11   2.0000     -10.038201      -273.1533
  12   2.0000     -10.025546      -272.8090
  13   2.0000      -1.109770       -30.1984
  14   2.0000      -1.001854       -27.2618
  15   2.0000      -0.984332       -26.7850
  16   2.0000      -0.945921       -25.7398
  17   2.0000      -0.909535       -24.7497
  18   2.0000      -0.869153       -23.6509
  19   2.0000      -0.829516       -22.5723
  20   2.0000      -0.791190       -21.5294
  21   2.0000      -0.746680       -20.3182
  22   2.0000      -0.730890       -19.8885
  23   2.0000      -0.720073       -19.5942
  24   2.0000      -0.677003       -18.4222
  25   2.0000      -0.660460       -17.9720
  26   2.0000      -0.656245       -17.8573
  27   2.0000      -0.633587       -17.2408
  28   2.0000      -0.614346       -16.7172
  29   2.0000      -0.603695       -16.4274
  30   2.0000      -0.591461       -16.0945
  31   2.0000      -0.570414       -15.5218
  32   2.0000      -0.553852       -15.0711
  33   2.0000      -0.534527       -14.5452
  34   2.0000      -0.524828       -14.2813
  35   2.0000      -0.517599       -14.0846
  36   2.0000      -0.512184       -13.9372
  37   2.0000      -0.507509       -13.8100
  38   2.0000      -0.482246       -13.1226
  39   2.0000      -0.472567       -12.8592
  40   2.0000      -0.461662       -12.5624
  41   2.0000      -0.453000       -12.3268
  42   2.0000      -0.442260       -12.0345
  43   2.0000      -0.437069       -11.8933
  44   2.0000      -0.417791       -11.3687
  45   2.0000      -0.410583       -11.1725
  46   2.0000      -0.401188       -10.9169
  47   2.0000      -0.398184       -10.8351
  48   2.0000      -0.392061       -10.6685
  49   2.0000      -0.382227       -10.4009
  50   2.0000      -0.279129        -7.5955
  51   2.0000      -0.274151        -7.4600
  52   0.0000       0.032256         0.8777
  53   0.0000       0.043384         1.1805
  54   0.0000       0.050907         1.3852
  55   0.0000       0.059305         1.6138
  56   0.0000       0.066502         1.8096

MULLIKEN ATOMIC CHARGES
-----------------------
   0 C :   -0.703639
   1 C :   -1.101152
   2 H :    0.452062
   3 C :   -0.519269
   4 H :    0.439186
   5 H :    0.332623
   6 H :    0.431049
   7 C :   -0.807085
   8 H :    0.396474
   9 C :   -0.933584
  10 H :    0.400645
  11 C :   -0.959926
  12 H :    0.417605
  13 H :    0.412290
  14 C :    0.171950
  15 H :    0.369478
  16 H :    0.460786
  17 H :   -0.182946
  18 C :   -0.857191
  19 H :    0.446980
  20 H :    0.370526
  21 H :    0.429719
  22 C :   -0.743913
  23 H :    0.439556
  24 H :    0.380301
  25 O :   -1.019604
  26 C :    0.058981
  27 N :   -0.289716
  28 N :   -0.228519
  29 H :    0.205155
  30 H :    0.370612
  31 H :    0.178447
  32 H :    0.384182
  33 H :    0.425516
  34 H :    0.372421
Sum of atomic charges:   -0.0000000

LOEWDIN ATOMIC CHARGES
----------------------
   0 C :   -0.124646
   1 C :   -0.203211
   2 H :    0.113375
   3 C :   -0.222076
   4 H :    0.120106
   5 H :    0.096701
   6 H :    0.127962
   7 C :   -0.223784
   8 H :    0.099231
   9 C :   -0.218036
  10 H :    0.121895
  11 C :   -0.231617
  12 H :    0.114533
  13 H :    0.115993
  14 C :   -0.234211
  15 H :    0.107255
  16 H :    0.118640
  17 H :    0.076098
  18 C :   -0.217211
  19 H :    0.130904
  20 H :    0.113056
  21 H :    0.114715
  22 C :   -0.415079
  23 H :    0.102032
  24 H :    0.107018
  25 O :   -0.319744
  26 C :   -0.405227
  27 N :    0.200724
  28 N :    0.217246
  29 H :    0.134649
  30 H :    0.050132
  31 H :    0.135568
  32 H :    0.043778
  33 H :    0.119793
  34 H :    0.133440

  Mayer bond orders larger than 0.100000
B(  0-C ,  1-C ) :   0.5549 B(  0-C ,  3-C ) :  -0.1511 B(  0-C , 26-C ) :   0.5586
B(  0-C , 33-H ) :   0.9431 B(  0-C , 34-H ) :   0.9844 B(  1-C ,  2-H ) :   0.9330
B(  1-C ,  3-C ) :   0.5040 B(  1-C ,  4-H ) :   0.8826 B(  3-C ,  5-H ) :   1.0940
B(  3-C ,  6-H ) :   0.8681 B(  3-C ,  7-C ) :   0.2641 B(  3-C ,  8-H ) :  -0.1170
B(  5-H ,  7-C ) :  -0.1150 B(  7-C ,  8-H ) :   1.0071 B(  7-C ,  9-C ) :   0.7024
B(  7-C , 10-H ) :   0.9152 B(  9-C , 11-C ) :   0.5995 B(  9-C , 12-H ) :   0.9372
B(  9-C , 13-H ) :   0.9508 B( 11-C , 14-C ) :   0.3107 B( 11-C , 15-H ) :   1.0158
B( 11-C , 16-H ) :   0.8432 B( 11-C , 17-H ) :  -0.1333 B( 11-C , 18-C ) :   0.1707
B( 14-C , 15-H ) :  -0.1043 B( 14-C , 17-H ) :   1.0505 B( 14-C , 18-C ) :   0.5545
B( 14-C , 19-H ) :   0.7994 B( 14-C , 25-O ) :   0.2436 B( 14-C , 27-N ) :  -0.1420
B( 17-H , 19-H ) :   0.1191 B( 17-H , 25-O ) :  -0.1954 B( 18-C , 20-H ) :   0.9075
B( 18-C , 21-H ) :   0.9270 B( 18-C , 22-C ) :   0.7163 B( 22-C , 23-H ) :   0.8953
B( 22-C , 24-H ) :   0.9465 B( 22-C , 25-O ) :   0.9202 B( 25-O , 26-C ) :  -0.1482
B( 25-O , 30-H ) :   0.2382 B( 25-O , 32-H ) :   0.1869 B( 26-C , 27-N ) :   1.4921
B( 26-C , 28-N ) :   1.3142 B( 26-C , 33-H ) :  -0.1030 B( 27-N , 31-H ) :   0.9828
B( 27-N , 32-H ) :   0.7018 B( 28-N , 29-H ) :   0.9415 B( 28-N , 30-H ) :   0.6942

FINAL SINGLE POINT ENERGY      -577.703364590301

DIPOLE MOMENT
-------------
                                X             Y             Z
Electronic contribution:      2.78456      -0.26291       7.49517
Nuclear contribution   :     -0.17996       0.53390      -8.68067
                        -----------------------------------------
Total Dipole Moment    :      2.60460       0.27099      -1.18550
                        -----------------------------------------
Magnitude (a.u.)       :      2.87450
Magnitude (Debye)      :      7.30641

Rotational constants in cm-1:     0.028240     0.022734     0.014600
Rotational constants in MHz :   846.611263   681.554306   437.693928

                             ****ORCA TERMINATED NORMALLY****
TOTAL RUN TIME: 0 days 0 hours 7 minutes 34 seconds 779 msec
