                         Program Version 5.0.0 -  RELEASE  -
|  1> !LC-BLYP RIJCOSX def2-TZVPD def2/J TightSCF
|  2> *xyz 0 1
|  3> C         -0.90349       -0.87394       -1.98739
|  4> C         -0.96015       -0.52236       -0.48987
|  5> H         -1.69039       -1.20813       -0.02168
|  6> H         -1.41449        0.48633       -0.40668
|  7> F          0.26170       -0.58031        0.13861
|  8> H         -1.88568       -0.80774       -2.40670
|  9> H         -0.53143       -1.87013       -2.10605
| 10> H         -0.25399       -0.18836       -2.49039
| 11> *
| 12>
| 13> %MaxCore 64000
| 14>
| 15> %pal nprocs 4
| 16> end
| 17>
| 18> %scf
| 19>   MaxIter 150
| 20> end
| 21>
| 22>
| 23>                          ****END OF INPUT****

CARTESIAN COORDINATES (ANGSTROEM)
---------------------------------
  C     -0.903490   -0.873940   -1.987390
  C     -0.960150   -0.522360   -0.489870
  H     -1.690390   -1.208130   -0.021680
  H     -1.414490    0.486330   -0.406680
  F      0.261700   -0.580310    0.138610
  H     -1.885680   -0.807740   -2.406700
  H     -0.531430   -1.870130   -2.106050
  H     -0.253990   -0.188360   -2.490390

 Total Charge           Charge          ....    0
 Multiplicity           Mult            ....    1
 Number of Electrons    NEL             ....   26
 Basis Dimension        Dim             ....  159

ORBITAL ENERGIES
----------------

  NO   OCC          E(Eh)            E(eV)
   0   2.0000     -24.441655      -665.0912
   1   2.0000     -10.148093      -276.1437
   2   2.0000     -10.064317      -273.8640
   3   2.0000      -1.277110       -34.7519
   4   2.0000      -0.875411       -23.8212
   5   2.0000      -0.740402       -20.1474
   6   2.0000      -0.612351       -16.6629
   7   2.0000      -0.603342       -16.4178
   8   2.0000      -0.561515       -15.2796
   9   2.0000      -0.507372       -13.8063
  10   2.0000      -0.503078       -13.6894
  11   2.0000      -0.436215       -11.8700
  12   2.0000      -0.429560       -11.6889
  13   0.0000       0.055312         1.5051
  14   0.0000       0.078933         2.1479
  15   0.0000       0.100662         2.7392
  16   0.0000       0.103503         2.8165
  17   0.0000       0.131831         3.5873

MULLIKEN ATOMIC CHARGES
-----------------------
   0 C :   -1.156084
   1 C :   -0.299046
   2 H :    0.313553
   3 H :    0.312629
   4 F :   -0.278271
   5 H :    0.391063
   6 H :    0.358092
   7 H :    0.358063
Sum of atomic charges:   -0.0000000

LOEWDIN ATOMIC CHARGES
----------------------
   0 C :   -0.097186
   1 C :   -0.311212
   2 H :    0.115616
   3 H :    0.117420
   4 F :   -0.035718
   5 H :    0.072013
   6 H :    0.069555
   7 H :    0.069512

  Mayer bond orders larger than 0.100000
B(  0-C ,  1-C ) :   0.6357 B(  0-C ,  5-H ) :   0.9014 B(  0-C ,  6-H ) :   0.9131
B(  0-C ,  7-H ) :   0.9129 B(  1-C ,  2-H ) :   0.9446 B(  1-C ,  3-H ) :   0.9437
B(  1-C ,  4-F ) :   0.8276

FINAL SINGLE POINT ENERGY      -178.742011313729

DIPOLE MOMENT
-------------
                                X             Y             Z
Electronic contribution:      3.20094       0.37707       3.97013
Nuclear contribution   :     -3.84149      -0.36812      -4.38946
                        -----------------------------------------
Total Dipole Moment    :     -0.64055       0.00895      -0.41934
                        -----------------------------------------
Magnitude (a.u.)       :      0.76565
Magnitude (Debye)      :      1.94613

Rotational constants in cm-1:     1.270659     0.299196     0.265842
Rotational constants in MHz : 38093.410361  8969.665806  7969.741481

                             ****ORCA TERMINATED NORMALLY****
TOTAL RUN TIME: 0 days 0 hours 0 minutes 12 seconds 586 msec
