                         Program Version 5.0.0 -  RELEASE  -
|  1> !LC-BLYP RIJCOSX def2-TZVPD def2/J TightSCF
|  2> *xyz 0 1
|  3> C          4.36645       -0.13321       -1.41606
|  4> C          4.50829       -0.93187       -2.72425
|  5> C          3.05650       -0.32080       -0.70738
|  6> C          2.38983        0.71129       -0.24391
|  7> N          2.51600       -1.50772       -0.55023
|  8> H          2.96768       -2.32291       -0.95631
|  9> H          1.54987       -1.49063       -0.24988
| 10> H          2.74307        1.64947       -0.41280
| 11> H          1.44036        0.50278        0.03703
| 12> H          4.48784        0.93300       -1.61157
| 13> H          5.16967       -0.41443       -0.72982
| 14> H          5.46700       -0.73824       -3.15818
| 15> H          3.74074       -0.63528       -3.40821
| 16> H          4.41574       -1.97727       -2.51573
| 17> *
| 18>
| 19> %MaxCore 64000
| 20>
| 21> %pal nprocs 4
| 22> end
| 23>
| 24> %scf
| 25>   MaxIter 150
| 26> end
| 27>
| 28>
| 29>                          ****END OF INPUT****

CARTESIAN COORDINATES (ANGSTROEM)
---------------------------------
  C      4.366450   -0.133210   -1.416060
  C      4.508290   -0.931870   -2.724250
  C      3.056500   -0.320800   -0.707380
  C      2.389830    0.711290   -0.243910
  N      2.516000   -1.507720   -0.550230
  H      2.967680   -2.322910   -0.956310
  H      1.549870   -1.490630   -0.249880
  H      2.743070    1.649470   -0.412800
  H      1.440360    0.502780    0.037030
  H      4.487840    0.933000   -1.611570
  H      5.169670   -0.414430   -0.729820
  H      5.467000   -0.738240   -3.158180
  H      3.740740   -0.635280   -3.408210
  H      4.415740   -1.977270   -2.515730

 Total Charge           Charge          ....    0
 Multiplicity           Mult            ....    1
 Number of Electrons    NEL             ....   40
 Basis Dimension        Dim             ....  266

ORBITAL ENERGIES
----------------

  NO   OCC          E(Eh)            E(eV)
   0   2.0000     -14.168548      -385.5458
   1   2.0000     -10.088456      -274.5208
   2   2.0000     -10.070250      -274.0254
   3   2.0000     -10.059612      -273.7360
   4   2.0000      -9.999098      -272.0893
   5   2.0000      -1.035736       -28.1838
   6   2.0000      -0.887903       -24.1611
   7   2.0000      -0.830768       -22.6063
   8   2.0000      -0.745133       -20.2761
   9   2.0000      -0.668359       -18.1870
  10   2.0000      -0.639549       -17.4030
  11   2.0000      -0.577102       -15.7038
  12   2.0000      -0.545051       -14.8316
  13   2.0000      -0.535344       -14.5675
  14   2.0000      -0.493823       -13.4376
  15   2.0000      -0.484552       -13.1853
  16   2.0000      -0.457117       -12.4388
  17   2.0000      -0.444154       -12.0860
  18   2.0000      -0.426270       -11.5994
  19   2.0000      -0.285384        -7.7657
  20   0.0000       0.050469         1.3733
  21   0.0000       0.074821         2.0360
  22   0.0000       0.077264         2.1025
  23   0.0000       0.090691         2.4678
  24   0.0000       0.108520         2.9530

MULLIKEN ATOMIC CHARGES
-----------------------
   0 C :   -0.604543
   1 C :   -1.308680
   2 C :    0.652033
   3 C :   -1.177655
   4 N :   -0.345497
   5 H :    0.179065
   6 H :    0.151143
   7 H :    0.307853
   8 H :    0.327272
   9 H :    0.325642
  10 H :    0.330534
  11 H :    0.408161
  12 H :    0.361115
  13 H :    0.393557
Sum of atomic charges:   -0.0000000

LOEWDIN ATOMIC CHARGES
----------------------
   0 C :   -0.203779
   1 C :   -0.106241
   2 C :   -0.510139
   3 C :    0.008932
   4 N :    0.105153
   5 H :    0.103237
   6 H :    0.110509
   7 H :    0.027661
   8 H :    0.026254
   9 H :    0.113356
  10 H :    0.120552
  11 H :    0.069527
  12 H :    0.077890
  13 H :    0.057087

  Mayer bond orders larger than 0.100000
B(  0-C ,  1-C ) :   0.4865 B(  0-C ,  2-C ) :   0.7164 B(  0-C ,  9-H ) :   0.9220
B(  0-C , 10-H ) :   0.9316 B(  1-C ,  2-C ) :  -0.1434 B(  1-C , 11-H ) :   0.9247
B(  1-C , 12-H ) :   0.9656 B(  1-C , 13-H ) :   0.8834 B(  2-C ,  3-C ) :   1.1625
B(  2-C ,  4-N ) :   0.8699 B(  2-C ,  8-H ) :  -0.2075 B(  3-C ,  4-N ) :   0.1273
B(  3-C ,  7-H ) :   0.9516 B(  3-C ,  8-H ) :   1.0909 B(  4-N ,  5-H ) :   1.0070
B(  4-N ,  6-H ) :   1.0236

FINAL SINGLE POINT ENERGY      -212.036658028462

DIPOLE MOMENT
-------------
                                X             Y             Z
Electronic contribution:     -1.47719      -0.41959       2.06072
Nuclear contribution   :      1.56827      -0.21459      -2.46657
                        -----------------------------------------
Total Dipole Moment    :      0.09107      -0.63417      -0.40585
                        -----------------------------------------
Magnitude (a.u.)       :      0.75841
Magnitude (Debye)      :      1.92772

Rotational constants in cm-1:     0.294070     0.127722     0.097792
Rotational constants in MHz :  8815.983970  3829.010547  2931.715816

                             ****ORCA TERMINATED NORMALLY****
TOTAL RUN TIME: 0 days 0 hours 0 minutes 44 seconds 801 msec
