                         Program Version 5.0.0 -  RELEASE  -
|  1> !LC-BLYP RIJCOSX def2-TZVPD def2/J TightSCF
|  2> *xyz 0 1
|  3> C          4.36645       -0.13321       -1.41606
|  4> C          4.50829       -0.93187       -2.72425
|  5> C          3.05650       -0.32080       -0.70738
|  6> N          2.38983        0.71129       -0.24391
|  7> C          2.51600       -1.50772       -0.55023
|  8> H          2.96768       -2.32291       -0.95631
|  9> H          1.54987       -1.49063       -0.24988
| 10> H          2.74307        1.64947       -0.41280
| 11> H          1.44036        0.50278        0.03703
| 12> H          4.48784        0.93300       -1.61157
| 13> H          5.16967       -0.41443       -0.72982
| 14> H          5.46700       -0.73824       -3.15818
| 15> H          3.74074       -0.63528       -3.40821
| 16> H          4.41574       -1.97727       -2.51573
| 17> *
| 18>
| 19> %MaxCore 64000
| 20>
| 21> %pal nprocs 4
| 22> end
| 23>
| 24> %scf
| 25>   MaxIter 150
| 26> end
| 27>
| 28>
| 29>                          ****END OF INPUT****

CARTESIAN COORDINATES (ANGSTROEM)
---------------------------------
  C      4.366450   -0.133210   -1.416060
  C      4.508290   -0.931870   -2.724250
  C      3.056500   -0.320800   -0.707380
  N      2.389830    0.711290   -0.243910
  C      2.516000   -1.507720   -0.550230
  H      2.967680   -2.322910   -0.956310
  H      1.549870   -1.490630   -0.249880
  H      2.743070    1.649470   -0.412800
  H      1.440360    0.502780    0.037030
  H      4.487840    0.933000   -1.611570
  H      5.169670   -0.414430   -0.729820
  H      5.467000   -0.738240   -3.158180
  H      3.740740   -0.635280   -3.408210
  H      4.415740   -1.977270   -2.515730

 Total Charge           Charge          ....    0
 Multiplicity           Mult            ....    1
 Number of Electrons    NEL             ....   40
 Basis Dimension        Dim             ....  266

ORBITAL ENERGIES
----------------

  NO   OCC          E(Eh)            E(eV)
   0   2.0000     -14.169328      -385.5670
   1   2.0000     -10.088666      -274.5266
   2   2.0000     -10.071629      -274.0630
   3   2.0000     -10.053299      -273.5642
   4   2.0000      -9.997374      -272.0424
   5   2.0000      -1.036012       -28.1913
   6   2.0000      -0.889717       -24.2104
   7   2.0000      -0.819092       -22.2886
   8   2.0000      -0.755279       -20.5522
   9   2.0000      -0.658571       -17.9206
  10   2.0000      -0.636623       -17.3234
  11   2.0000      -0.584489       -15.9048
  12   2.0000      -0.558016       -15.1844
  13   2.0000      -0.510459       -13.8903
  14   2.0000      -0.492238       -13.3945
  15   2.0000      -0.483382       -13.1535
  16   2.0000      -0.458661       -12.4808
  17   2.0000      -0.440687       -11.9917
  18   2.0000      -0.428284       -11.6542
  19   2.0000      -0.283972        -7.7273
  20   0.0000       0.053182         1.4472
  21   0.0000       0.072497         1.9728
  22   0.0000       0.078112         2.1255
  23   0.0000       0.089830         2.4444
  24   0.0000       0.110998         3.0204

MULLIKEN ATOMIC CHARGES
-----------------------
   0 C :   -0.686494
   1 C :   -1.271199
   2 C :    0.696238
   3 N :   -0.363424
   4 C :   -1.199678
   5 H :    0.278284
   6 H :    0.328812
   7 H :    0.201617
   8 H :    0.162961
   9 H :    0.361827
  10 H :    0.351855
  11 H :    0.401228
  12 H :    0.365108
  13 H :    0.372865
Sum of atomic charges:   -0.0000000

LOEWDIN ATOMIC CHARGES
----------------------
   0 C :   -0.203186
   1 C :   -0.104368
   2 C :   -0.506817
   3 N :    0.098973
   4 C :    0.008878
   5 H :    0.024549
   6 H :    0.027989
   7 H :    0.107591
   8 H :    0.108864
   9 H :    0.106627
  10 H :    0.122323
  11 H :    0.067925
  12 H :    0.078051
  13 H :    0.062601

  Mayer bond orders larger than 0.100000
B(  0-C ,  1-C ) :   0.5291 B(  0-C ,  2-C ) :   0.4699 B(  0-C ,  9-H ) :   0.9742
B(  0-C , 10-H ) :   0.9506 B(  1-C , 11-H ) :   0.9101 B(  1-C , 12-H ) :   0.9465
B(  1-C , 13-H ) :   0.9254 B(  2-C ,  3-N ) :   0.9678 B(  2-C ,  4-C ) :   1.0175
B(  2-C ,  6-H ) :  -0.2269 B(  2-C ,  9-H ) :  -0.1177 B(  3-N ,  4-C ) :   0.1496
B(  3-N ,  7-H ) :   1.0109 B(  3-N ,  8-H ) :   1.0047 B(  4-C ,  5-H ) :   0.9935
B(  4-C ,  6-H ) :   1.0945

FINAL SINGLE POINT ENERGY      -212.035539541707

DIPOLE MOMENT
-------------
                                X             Y             Z
Electronic contribution:     -1.58910       1.45128       2.33632
Nuclear contribution   :      1.59749      -0.72853      -2.53752
                        -----------------------------------------
Total Dipole Moment    :      0.00839       0.72274      -0.20120
                        -----------------------------------------
Magnitude (a.u.)       :      0.75027
Magnitude (Debye)      :      1.90704

Rotational constants in cm-1:     0.304597     0.124127     0.096828
Rotational constants in MHz :  9131.600925  3721.227051  2902.830760

                             ****ORCA TERMINATED NORMALLY****
TOTAL RUN TIME: 0 days 0 hours 0 minutes 45 seconds 694 msec
