                         Program Version 5.0.0 -  RELEASE  -
|  1> !LC-BLYP RIJCOSX def2-TZVPD def2/J TightSCF xyzfile
|  2>
|  3> *xyzfile 0 1 D1.xyz
|  4>
|  5> %MaxCore 64000
|  6>
|  7> %pal nprocs 4
|  8> end
|  9>
| 10> %scf
| 11>   MaxIter 150
| 12> end
| 13>
| 14>
| 15>                          ****END OF INPUT****

CARTESIAN COORDINATES (ANGSTROEM)
---------------------------------
  C      4.366454   -0.133215   -1.416062
  C      4.508292   -0.931872   -2.724249
  H      4.753716   -1.972051   -2.488408
  C      3.294164   -0.918214   -3.656570
  H      5.385637   -0.536236   -3.242640
  H      2.483463   -1.477378   -3.185764
  H      3.553092   -1.478495   -4.560331
  C      2.772335    0.460100   -4.051448
  H      2.608762    1.065107   -3.155194
  C      1.465354    0.410537   -4.853644
  H      3.532940    0.988848   -4.635671
  C      0.326171   -0.375613   -4.192580
  H      1.666704   -0.022269   -5.839323
  H      1.138198    1.439246   -5.035449
  C     -0.017405    0.080588   -2.778406
  H      0.585573   -1.439385   -4.168057
  H     -0.560005   -0.311425   -4.831461
  H      0.902090    0.201296   -2.206729
  C     -0.903495   -0.873945   -1.987388
  H     -0.479549    1.074657   -2.811915
  H     -0.502554   -1.892096   -2.081204
  H     -1.917039   -0.895427   -2.406277
  C     -0.960148   -0.522365   -0.489867
  H     -1.690392   -1.208130   -0.021677
  H     -1.414490    0.486329   -0.406677
  F      0.261703   -0.580307    0.138611
  C      3.056503   -0.320797   -0.707384
  C      2.389825    0.711285   -0.243909
  N      2.515999   -1.507721   -0.550229
  H      2.967683   -2.322915   -0.956305
  H      1.549872   -1.490634   -0.249876
  H      2.743071    1.649471   -0.412802
  H      1.440364    0.502778    0.037031
  H      4.487835    0.932997   -1.611569
  H      5.169672   -0.414432   -0.729817

 Total Charge           Charge          ....    0
 Multiplicity           Mult            ....    1
 Number of Electrons    NEL             ....  104
 Basis Dimension        Dim             ....  682

ORBITAL ENERGIES
----------------

  NO   OCC          E(Eh)            E(eV)
   0   2.0000     -24.471808      -665.9118
   1   2.0000     -14.143864      -384.8741
   2   2.0000     -10.160183      -276.4726
   3   2.0000     -10.080982      -274.3175
   4   2.0000     -10.071169      -274.0504
   5   2.0000     -10.061247      -273.7805
   6   2.0000     -10.060847      -273.7696
   7   2.0000     -10.058639      -273.7095
   8   2.0000     -10.058573      -273.7077
   9   2.0000     -10.056464      -273.6503
  10   2.0000     -10.054172      -273.5879
  11   2.0000     -10.052168      -273.5334
  12   2.0000      -9.973853      -271.4023
  13   2.0000      -1.317465       -35.8500
  14   2.0000      -1.018437       -27.7131
  15   2.0000      -0.930165       -25.3111
  16   2.0000      -0.907203       -24.6863
  17   2.0000      -0.880827       -23.9685
  18   2.0000      -0.841429       -22.8964
  19   2.0000      -0.814572       -22.1656
  20   2.0000      -0.794851       -21.6290
  21   2.0000      -0.746661       -20.3177
  22   2.0000      -0.724978       -19.7277
  23   2.0000      -0.696032       -18.9400
  24   2.0000      -0.664632       -18.0856
  25   2.0000      -0.648956       -17.6590
  26   2.0000      -0.641321       -17.4512
  27   2.0000      -0.632362       -17.2074
  28   2.0000      -0.620772       -16.8921
  29   2.0000      -0.595554       -16.2059
  30   2.0000      -0.578625       -15.7452
  31   2.0000      -0.565974       -15.4009
  32   2.0000      -0.548488       -14.9251
  33   2.0000      -0.542715       -14.7680
  34   2.0000      -0.532161       -14.4808
  35   2.0000      -0.526906       -14.3378
  36   2.0000      -0.499743       -13.5987
  37   2.0000      -0.490465       -13.3462
  38   2.0000      -0.481201       -13.0941
  39   2.0000      -0.473410       -12.8821
  40   2.0000      -0.465851       -12.6765
  41   2.0000      -0.455505       -12.3949
  42   2.0000      -0.450493       -12.2585
  43   2.0000      -0.440560       -11.9883
  44   2.0000      -0.436660       -11.8821
  45   2.0000      -0.428879       -11.6704
  46   2.0000      -0.410459       -11.1692
  47   2.0000      -0.410281       -11.1643
  48   2.0000      -0.401225       -10.9179
  49   2.0000      -0.397939       -10.8285
  50   2.0000      -0.395007       -10.7487
  51   2.0000      -0.267083        -7.2677
  52   0.0000       0.048899         1.3306
  53   0.0000       0.056999         1.5510
  54   0.0000       0.061741         1.6801
  55   0.0000       0.064477         1.7545
  56   0.0000       0.080076         2.1790

MULLIKEN ATOMIC CHARGES
-----------------------
   0 C :   -0.750931
   1 C :   -1.087456
   2 H :    0.442352
   3 C :   -0.461495
   4 H :    0.424638
   5 H :    0.320307
   6 H :    0.397127
   7 C :   -0.828366
   8 H :    0.383231
   9 C :   -0.927486
  10 H :    0.403919
  11 C :   -1.022111
  12 H :    0.420050
  13 H :    0.413607
  14 C :    0.265968
  15 H :    0.401720
  16 H :    0.464847
  17 H :   -0.147693
  18 C :   -0.934914
  19 H :    0.415848
  20 H :    0.403085
  21 H :    0.432970
  22 C :   -0.526428
  23 H :    0.432114
  24 H :    0.385444
  25 F :   -0.456568
  26 C :    0.096335
  27 C :   -1.458261
  28 N :   -0.292486
  29 H :    0.158893
  30 H :    0.406849
  31 H :    0.385598
  32 H :    0.706242
  33 H :    0.358721
  34 H :    0.374332
Sum of atomic charges:    0.0000000

LOEWDIN ATOMIC CHARGES
----------------------
   0 C :   -0.153405
   1 C :   -0.210605
   2 H :    0.108351
   3 C :   -0.224785
   4 H :    0.114089
   5 H :    0.093011
   6 H :    0.122741
   7 C :   -0.219735
   8 H :    0.104252
   9 C :   -0.217092
  10 H :    0.121918
  11 C :   -0.228312
  12 H :    0.114502
  13 H :    0.115378
  14 C :   -0.227332
  15 H :    0.108942
  16 H :    0.117527
  17 H :    0.080375
  18 C :   -0.192123
  19 H :    0.134193
  20 H :    0.121509
  21 H :    0.126707
  22 C :   -0.207631
  23 H :    0.127061
  24 H :    0.135680
  25 F :   -0.072841
  26 C :   -0.496596
  27 C :    0.008840
  28 N :    0.127054
  29 H :    0.113854
  30 H :    0.071693
  31 H :    0.040319
  32 H :    0.003353
  33 H :    0.115929
  34 H :    0.123177

  Mayer bond orders larger than 0.100000
B(  0-C ,  1-C ) :   0.5241 B(  0-C ,  3-C ) :  -0.1687 B(  0-C , 26-C ) :   0.5140
B(  0-C , 33-H ) :   0.9833 B(  0-C , 34-H ) :   0.9640 B(  1-C ,  2-H ) :   0.9362
B(  1-C ,  3-C ) :   0.5430 B(  1-C ,  4-H ) :   0.8975 B(  3-C ,  5-H ) :   1.0728
B(  3-C ,  6-H ) :   0.9140 B(  3-C ,  7-C ) :   0.2434 B(  3-C ,  8-H ) :  -0.1146
B(  5-H ,  6-H ) :   0.1035 B(  5-H ,  7-C ) :  -0.1150 B(  7-C ,  8-H ) :   1.0411
B(  7-C ,  9-C ) :   0.6447 B(  7-C , 10-H ) :   0.9018 B(  9-C , 11-C ) :   0.6451
B(  9-C , 12-H ) :   0.9334 B(  9-C , 13-H ) :   0.9448 B( 11-C , 14-C ) :   0.3403
B( 11-C , 15-H ) :   0.9822 B( 11-C , 16-H ) :   0.8341 B( 11-C , 17-H ) :  -0.1028
B( 11-C , 18-C ) :   0.1802 B( 14-C , 17-H ) :   0.9511 B( 14-C , 18-C ) :   0.4810
B( 14-C , 19-H ) :   0.8548 B( 14-C , 27-C ) :  -0.1173 B( 17-H , 19-H ) :   0.1483
B( 18-C , 20-H ) :   0.8934 B( 18-C , 21-H ) :   0.9095 B( 18-C , 22-C ) :   0.7056
B( 22-C , 23-H ) :   0.8799 B( 22-C , 24-H ) :   0.9138 B( 22-C , 25-F ) :   0.7646
B( 25-F , 27-C ) :   0.1138 B( 25-F , 32-H ) :  -0.1004 B( 26-C , 27-C ) :   1.7680
B( 26-C , 28-N ) :   0.7544 B( 26-C , 32-H ) :  -0.1035 B( 27-C , 31-H ) :   0.9564
B( 27-C , 32-H ) :   0.7578 B( 28-N , 29-H ) :   0.9678 B( 28-N , 30-H ) :   0.8078

FINAL SINGLE POINT ENERGY      -585.625270424418

DIPOLE MOMENT
-------------
                                X             Y             Z
Electronic contribution:     -2.70824      -1.59044      10.42461
Nuclear contribution   :      1.82572       1.04089     -11.09065
                        -----------------------------------------
Total Dipole Moment    :     -0.88252      -0.54955      -0.66603
                        -----------------------------------------
Magnitude (a.u.)       :      1.23468
Magnitude (Debye)      :      3.13832

Rotational constants in cm-1:     0.028436     0.022359     0.014416
Rotational constants in MHz :   852.496561   670.291843   432.183951

                             ****ORCA TERMINATED NORMALLY****
TOTAL RUN TIME: 0 days 0 hours 8 minutes 13 seconds 235 msec
