                         Program Version 5.0.0 -  RELEASE  -
|  1> !LC-BLYP RIJCOSX def2-TZVPD def2/J TightSCF xyzfile
|  2>
|  3> *xyzfile 0 1 D2.xyz
|  4>
|  5> %MaxCore 64000
|  6>
|  7> %pal nprocs 4
|  8> end
|  9>
| 10> %scf
| 11>   MaxIter 150
| 12> end
| 13>
| 14>
| 15>                          ****END OF INPUT****

CARTESIAN COORDINATES (ANGSTROEM)
---------------------------------
  C      4.366454   -0.133215   -1.416062
  C      4.508292   -0.931872   -2.724249
  H      4.753716   -1.972051   -2.488408
  C      3.294164   -0.918214   -3.656570
  H      5.385637   -0.536236   -3.242640
  H      2.483463   -1.477378   -3.185764
  H      3.553092   -1.478495   -4.560331
  C      2.772335    0.460100   -4.051448
  H      2.608762    1.065107   -3.155194
  C      1.465354    0.410537   -4.853644
  H      3.532940    0.988848   -4.635671
  C      0.326171   -0.375613   -4.192580
  H      1.666704   -0.022269   -5.839323
  H      1.138198    1.439246   -5.035449
  C     -0.017405    0.080588   -2.778406
  H      0.585573   -1.439385   -4.168057
  H     -0.560005   -0.311425   -4.831461
  H      0.902090    0.201296   -2.206729
  C     -0.903495   -0.873945   -1.987388
  H     -0.479549    1.074657   -2.811915
  H     -0.502554   -1.892096   -2.081204
  H     -1.917039   -0.895427   -2.406277
  C     -0.960148   -0.522365   -0.489867
  H     -1.690392   -1.208130   -0.021677
  H     -1.414490    0.486329   -0.406677
  F      0.261703   -0.580307    0.138611
  C      3.056503   -0.320797   -0.707384
  N      2.389825    0.711285   -0.243909
  C      2.515999   -1.507721   -0.550229
  H      2.967683   -2.322915   -0.956305
  H      1.549872   -1.490634   -0.249876
  H      2.743071    1.649471   -0.412802
  H      1.440364    0.502778    0.037031
  H      4.487835    0.932997   -1.611569
  H      5.169672   -0.414432   -0.729817

 Total Charge           Charge          ....    0
 Multiplicity           Mult            ....    1
 Number of Electrons    NEL             ....  104
 Basis Dimension        Dim             ....  682

ORBITAL ENERGIES
----------------

  NO   OCC          E(Eh)            E(eV)
   0   2.0000     -24.471964      -665.9160
   1   2.0000     -14.143778      -384.8718
   2   2.0000     -10.160461      -276.4802
   3   2.0000     -10.079427      -274.2752
   4   2.0000     -10.070767      -274.0395
   5   2.0000     -10.061084      -273.7760
   6   2.0000     -10.060661      -273.7645
   7   2.0000     -10.059078      -273.7214
   8   2.0000     -10.057928      -273.6901
   9   2.0000     -10.056708      -273.6569
  10   2.0000     -10.053888      -273.5802
  11   2.0000     -10.048099      -273.4227
  12   2.0000      -9.972164      -271.3564
  13   2.0000      -1.317602       -35.8538
  14   2.0000      -1.018224       -27.7073
  15   2.0000      -0.930041       -25.3077
  16   2.0000      -0.906801       -24.6753
  17   2.0000      -0.881643       -23.9907
  18   2.0000      -0.838183       -22.8081
  19   2.0000      -0.806768       -21.9533
  20   2.0000      -0.796230       -21.6665
  21   2.0000      -0.750788       -20.4300
  22   2.0000      -0.726304       -19.7637
  23   2.0000      -0.697359       -18.9761
  24   2.0000      -0.661638       -18.0041
  25   2.0000      -0.652570       -17.7573
  26   2.0000      -0.636666       -17.3246
  27   2.0000      -0.628454       -17.1011
  28   2.0000      -0.616965       -16.7885
  29   2.0000      -0.589976       -16.0541
  30   2.0000      -0.584046       -15.8927
  31   2.0000      -0.568238       -15.4625
  32   2.0000      -0.555026       -15.1030
  33   2.0000      -0.541198       -14.7268
  34   2.0000      -0.532960       -14.5026
  35   2.0000      -0.518430       -14.1072
  36   2.0000      -0.499472       -13.5913
  37   2.0000      -0.490151       -13.3377
  38   2.0000      -0.480875       -13.0853
  39   2.0000      -0.468504       -12.7486
  40   2.0000      -0.464043       -12.6273
  41   2.0000      -0.458074       -12.4648
  42   2.0000      -0.450387       -12.2556
  43   2.0000      -0.447808       -12.1855
  44   2.0000      -0.430109       -11.7039
  45   2.0000      -0.424506       -11.5514
  46   2.0000      -0.412187       -11.2162
  47   2.0000      -0.405594       -11.0368
  48   2.0000      -0.403420       -10.9776
  49   2.0000      -0.397633       -10.8202
  50   2.0000      -0.394083       -10.7235
  51   2.0000      -0.265866        -7.2346
  52   0.0000       0.049644         1.3509
  53   0.0000       0.057524         1.5653
  54   0.0000       0.061137         1.6636
  55   0.0000       0.065693         1.7876
  56   0.0000       0.077436         2.1072

MULLIKEN ATOMIC CHARGES
-----------------------
   0 C :   -0.912527
   1 C :   -0.995927
   2 H :    0.428571
   3 C :   -0.518909
   4 H :    0.440069
   5 H :    0.361291
   6 H :    0.415617
   7 C :   -0.871656
   8 H :    0.391064
   9 C :   -0.931438
  10 H :    0.399501
  11 C :   -1.049699
  12 H :    0.414833
  13 H :    0.406242
  14 C :    0.240861
  15 H :    0.427229
  16 H :    0.457252
  17 H :   -0.126453
  18 C :   -0.890333
  19 H :    0.423626
  20 H :    0.424967
  21 H :    0.465229
  22 C :   -0.583263
  23 H :    0.413262
  24 H :    0.404462
  25 F :   -0.458958
  26 C :   -0.030923
  27 N :   -0.373987
  28 C :   -1.356635
  29 H :    0.434744
  30 H :    0.788288
  31 H :    0.154477
  32 H :    0.375462
  33 H :    0.442440
  34 H :    0.391221
Sum of atomic charges:   -0.0000000

LOEWDIN ATOMIC CHARGES
----------------------
   0 C :   -0.152938
   1 C :   -0.206893
   2 H :    0.113134
   3 C :   -0.224329
   4 H :    0.113318
   5 H :    0.093356
   6 H :    0.123367
   7 C :   -0.222064
   8 H :    0.100756
   9 C :   -0.217497
  10 H :    0.121287
  11 C :   -0.226446
  12 H :    0.115173
  13 H :    0.114423
  14 C :   -0.229550
  15 H :    0.111302
  16 H :    0.117830
  17 H :    0.081192
  18 C :   -0.190102
  19 H :    0.131840
  20 H :    0.124886
  21 H :    0.127007
  22 C :   -0.207691
  23 H :    0.128428
  24 H :    0.132848
  25 F :   -0.072140
  26 C :   -0.494495
  27 N :    0.110552
  28 C :    0.018925
  29 H :    0.042316
  30 H :    0.007344
  31 H :    0.113249
  32 H :    0.066848
  33 H :    0.109831
  34 H :    0.124932

  Mayer bond orders larger than 0.100000
B(  0-C ,  1-C ) :   0.6024 B(  0-C ,  3-C ) :  -0.1284 B(  0-C , 26-C ) :   0.3008
B(  0-C , 33-H ) :   0.9524 B(  0-C , 34-H ) :   0.9468 B(  1-C ,  2-H ) :   0.9355
B(  1-C ,  3-C ) :   0.5884 B(  1-C ,  4-H ) :   0.8849 B(  3-C ,  5-H ) :   1.0709
B(  3-C ,  6-H ) :   0.8674 B(  3-C ,  7-C ) :   0.2803 B(  3-C ,  8-H ) :  -0.1127
B(  5-H ,  6-H ) :   0.1119 B(  5-H ,  7-C ) :  -0.1070 B(  7-C ,  8-H ) :   1.0105
B(  7-C ,  9-C ) :   0.6641 B(  7-C , 10-H ) :   0.9176 B(  9-C , 11-C ) :   0.6387
B(  9-C , 12-H ) :   0.9387 B(  9-C , 13-H ) :   0.9567 B( 11-C , 14-C ) :   0.3173
B( 11-C , 15-H ) :   0.9620 B( 11-C , 16-H ) :   0.8483 B( 11-C , 18-C ) :   0.1866
B( 14-C , 17-H ) :   0.9436 B( 14-C , 18-C ) :   0.4787 B( 14-C , 19-H ) :   0.8479
B( 14-C , 26-C ) :  -0.1084 B( 14-C , 27-N ) :  -0.1966 B( 17-H , 19-H ) :   0.1364
B( 17-H , 28-C ) :  -0.1013 B( 18-C , 20-H ) :   0.8715 B( 18-C , 21-H ) :   0.8717
B( 18-C , 22-C ) :   0.6701 B( 22-C , 23-H ) :   0.9076 B( 22-C , 24-H ) :   0.8900
B( 22-C , 25-F ) :   0.7842 B( 25-F , 30-H ) :  -0.1308 B( 26-C , 27-N ) :   0.9713
B( 26-C , 28-C ) :   1.5445 B( 26-C , 30-H ) :  -0.1746 B( 26-C , 33-H ) :  -0.1490
B( 27-N , 31-H ) :   1.0005 B( 27-N , 32-H ) :   0.8272 B( 28-C , 29-H ) :   0.9241
B( 28-C , 30-H ) :   0.6013

FINAL SINGLE POINT ENERGY      -585.624616313556

DIPOLE MOMENT
-------------
                                X             Y             Z
Electronic contribution:     -2.80417      -0.00119      10.65356
Nuclear contribution   :      1.85154       0.58682     -11.15333
                        -----------------------------------------
Total Dipole Moment    :     -0.95263       0.58563      -0.49977
                        -----------------------------------------
Magnitude (a.u.)       :      1.22484
Magnitude (Debye)      :      3.11330

Rotational constants in cm-1:     0.028379     0.022321     0.014415
Rotational constants in MHz :   850.785777   669.176075   432.155504

                             ****ORCA TERMINATED NORMALLY****
TOTAL RUN TIME: 0 days 0 hours 7 minutes 53 seconds 546 msec
