                         Program Version 5.0.0 -  RELEASE  -
|  1> !M062X D3Zero RIJCOSX def2-TZVPD def2/J TightSCF
|  2> *xyz -1 1
|  3> C          4.93020       -7.37532       -2.64962
|  4> C          3.84189       -6.95161       -3.63283
|  5> H          3.45814       -5.95442       -3.40712
|  6> H          2.98848       -7.64361       -3.56708
|  7> S          4.31812       -6.91593       -5.36869
|  8> O          5.40615       -5.89948       -5.51297
|  9> O          3.11191       -6.44508       -6.04379
| 10> O          4.76340       -8.23942       -5.69863
| 11> H          5.27901       -8.35440       -2.90385
| 12> H          4.53000       -7.38577       -1.65734
| 13> H          5.74437       -6.68276       -2.69856
| 14> *
| 15>
| 16> %MaxCore 64000
| 17>
| 18> %pal nprocs 4
| 19> end
| 20>
| 21> %scf
| 22>   MaxIter 150
| 23> end
| 24>
| 25>
| 26>                          ****END OF INPUT****

CARTESIAN COORDINATES (ANGSTROEM)
---------------------------------
  C      4.930200   -7.375320   -2.649620
  C      3.841890   -6.951610   -3.632830
  H      3.458140   -5.954420   -3.407120
  H      2.988480   -7.643610   -3.567080
  S      4.318120   -6.915930   -5.368690
  O      5.406150   -5.899480   -5.512970
  O      3.111910   -6.445080   -6.043790
  O      4.763400   -8.239420   -5.698630
  H      5.279010   -8.354400   -2.903850
  H      4.530000   -7.385770   -1.657340
  H      5.744370   -6.682760   -2.698560

 Total Charge           Charge          ....   -1
 Multiplicity           Mult            ....    1
 Number of Electrons    NEL             ....   58
 Basis Dimension        Dim             ....  285

ORBITAL ENERGIES
----------------

  NO   OCC          E(Eh)            E(eV)
   0   2.0000     -89.891267     -2446.0657
   1   2.0000     -19.411445      -528.2123
   2   2.0000     -19.402107      -527.9582
   3   2.0000     -19.395121      -527.7681
   4   2.0000     -10.400445      -283.0105
   5   2.0000     -10.392062      -282.7824
   6   2.0000      -8.215781      -223.5628
   7   2.0000      -6.138447      -167.0356
   8   2.0000      -6.137349      -167.0057
   9   2.0000      -6.137130      -166.9998
  10   2.0000      -1.045011       -28.4362
  11   2.0000      -0.914444       -24.8833
  12   2.0000      -0.884269       -24.0622
  13   2.0000      -0.732196       -19.9241
  14   2.0000      -0.597389       -16.2558
  15   2.0000      -0.469433       -12.7739
  16   2.0000      -0.393331       -10.7031
  17   2.0000      -0.390611       -10.6291
  18   2.0000      -0.352290        -9.5863
  19   2.0000      -0.341962        -9.3053
  20   2.0000      -0.328985        -8.9521
  21   2.0000      -0.296295        -8.0626
  22   2.0000      -0.278864        -7.5883
  23   2.0000      -0.228281        -6.2118
  24   2.0000      -0.225638        -6.1399
  25   2.0000      -0.190371        -5.1803
  26   2.0000      -0.174927        -4.7600
  27   2.0000      -0.170915        -4.6508
  28   2.0000      -0.137485        -3.7412
  29   0.0000       0.127303         3.4641
  30   0.0000       0.143548         3.9061
  31   0.0000       0.145793         3.9672
  32   0.0000       0.156791         4.2665
  33   0.0000       0.173528         4.7219

MULLIKEN ATOMIC CHARGES
-----------------------
   0 C :   -1.172465
   1 C :   -0.453659
   2 H :    0.330694
   3 H :    0.323520
   4 S :    1.347333
   5 O :   -0.787667
   6 O :   -0.762206
   7 O :   -0.750929
   8 H :    0.297934
   9 H :    0.327809
  10 H :    0.299635
Sum of atomic charges:   -1.0000000

LOEWDIN ATOMIC CHARGES
----------------------
   0 C :   -0.148408
   1 C :   -0.334178
   2 H :    0.085853
   3 H :    0.089754
   4 S :    0.375033
   5 O :   -0.435036
   6 O :   -0.417218
   7 O :   -0.388536
   8 H :    0.060675
   9 H :    0.050361
  10 H :    0.061699

  Mayer bond orders larger than 0.100000
B(  0-C ,  1-C ) :   0.5331 B(  0-C ,  8-H ) :   0.9941 B(  0-C ,  9-H ) :   0.9417
B(  0-C , 10-H ) :   0.9957 B(  1-C ,  2-H ) :   0.9444 B(  1-C ,  3-H ) :   0.9425
B(  1-C ,  4-S ) :   0.8595 B(  1-C ,  5-O ) :   0.1075 B(  1-C ,  6-O ) :   0.1279
B(  1-C ,  7-O ) :   0.1042 B(  4-S ,  5-O ) :   1.3936 B(  4-S ,  6-O ) :   1.4128
B(  4-S ,  7-O ) :   1.4590

Dispersion correction           -0.000150687
FINAL SINGLE POINT ENERGY      -703.160534411908

DIPOLE MOMENT
-------------
                                X             Y             Z
Electronic contribution:     -0.36930       0.79665      -7.76119
Nuclear contribution   :      0.07504      -1.14369       9.75001
                        -----------------------------------------
Total Dipole Moment    :     -0.29426      -0.34704       1.98881
                        -----------------------------------------
Magnitude (a.u.)       :      2.04020
Magnitude (Debye)      :      5.18576

Rotational constants in cm-1:     0.160553     0.082191     0.080550
Rotational constants in MHz :  4813.250478  2464.013016  2414.833054

                             ****ORCA TERMINATED NORMALLY****
TOTAL RUN TIME: 0 days 0 hours 0 minutes 52 seconds 522 msec
