                         Program Version 5.0.0 -  RELEASE  -
|  1> !M062X D3Zero RIJCOSX def2-TZVPD def2/J TightSCF
|  2> *xyz 1 1
|  3> C          5.55821       -1.99291       -6.21505
|  4> C          4.18188       -2.58967       -6.29891
|  5> N          3.14587       -1.76843       -6.48675
|  6> N          4.01910       -3.86431       -6.22743
|  7> H          4.76849       -4.59115       -5.99077
|  8> H          3.12241       -4.33339       -6.31462
|  9> H          3.28164       -0.77779       -6.56655
| 10> H          2.21255       -2.13419       -6.56225
| 11> C          6.41926       -2.54294       -5.07763
| 12> H          6.03683       -2.19819       -7.17685
| 13> H          5.46761       -0.90737       -6.12797
| 14> H          6.50056       -3.60553       -5.17358
| 15> H          5.96544       -2.30329       -4.13874
| 16> H          7.39438       -2.10494       -5.12457
| 17> *
| 18>
| 19> %MaxCore 64000
| 20>
| 21> %pal nprocs 4
| 22> end
| 23>
| 24> %scf
| 25>   MaxIter 150
| 26> end
| 27>
| 28>
| 29>                          ****END OF INPUT****

CARTESIAN COORDINATES (ANGSTROEM)
---------------------------------
  C      5.558210   -1.992910   -6.215050
  C      4.181880   -2.589670   -6.298910
  N      3.145870   -1.768430   -6.486750
  N      4.019100   -3.864310   -6.227430
  H      4.768490   -4.591150   -5.990770
  H      3.122410   -4.333390   -6.314620
  H      3.281640   -0.777790   -6.566550
  H      2.212550   -2.134190   -6.562250
  C      6.419260   -2.542940   -5.077630
  H      6.036830   -2.198190   -7.176850
  H      5.467610   -0.907370   -6.127970
  H      6.500560   -3.605530   -5.173580
  H      5.965440   -2.303290   -4.138740
  H      7.394380   -2.104940   -5.124570

 Total Charge           Charge          ....    1
 Multiplicity           Mult            ....    1
 Number of Electrons    NEL             ....   40
 Basis Dimension        Dim             ....  266

ORBITAL ENERGIES
----------------

  NO   OCC          E(Eh)            E(eV)
   0   2.0000     -15.000024      -408.1714
   1   2.0000     -14.988333      -407.8533
   2   2.0000     -10.864689      -295.6432
   3   2.0000     -10.733828      -292.0823
   4   2.0000     -10.689429      -290.8742
   5   2.0000      -1.315807       -35.8049
   6   2.0000      -1.210789       -32.9473
   7   2.0000      -1.066423       -29.0188
   8   2.0000      -0.954971       -25.9861
   9   2.0000      -0.898314       -24.4444
  10   2.0000      -0.848180       -23.0802
  11   2.0000      -0.823910       -22.4197
  12   2.0000      -0.766899       -20.8684
  13   2.0000      -0.727585       -19.7986
  14   2.0000      -0.689993       -18.7757
  15   2.0000      -0.672960       -18.3122
  16   2.0000      -0.611495       -16.6396
  17   2.0000      -0.602980       -16.4079
  18   2.0000      -0.587335       -15.9822
  19   2.0000      -0.554838       -15.0979
  20   0.0000      -0.168976        -4.5981
  21   0.0000      -0.147193        -4.0053
  22   0.0000      -0.114416        -3.1134
  23   0.0000      -0.104730        -2.8499
  24   0.0000      -0.081415        -2.2154

MULLIKEN ATOMIC CHARGES
-----------------------
   0 C :   -0.599936
   1 C :    1.082919
   2 N :   -0.535936
   3 N :   -0.528122
   4 H :    0.299606
   5 H :    0.267729
   6 H :    0.277974
   7 H :    0.241609
   8 C :   -1.208780
   9 H :    0.355123
  10 H :    0.315056
  11 H :    0.363929
  12 H :    0.336184
  13 H :    0.332645
Sum of atomic charges:    1.0000000

LOEWDIN ATOMIC CHARGES
----------------------
   0 C :   -0.146540
   1 C :   -0.360554
   2 N :    0.219687
   3 N :    0.213105
   4 H :    0.191457
   5 H :    0.151741
   6 H :    0.138828
   7 H :    0.140239
   8 C :   -0.061295
   9 H :    0.143441
  10 H :    0.127263
  11 H :    0.066007
  12 H :    0.088101
  13 H :    0.088521

  Mayer bond orders larger than 0.100000
B(  0-C ,  1-C ) :   0.6988 B(  0-C ,  8-C ) :   0.5523 B(  0-C ,  9-H ) :   0.9120
B(  0-C , 10-H ) :   0.9387 B(  1-C ,  2-N ) :   1.0077 B(  1-C ,  3-N ) :   1.1311
B(  1-C , 10-H ) :  -0.1051 B(  2-N ,  3-N ) :   0.1202 B(  2-N ,  6-H ) :   0.9328
B(  2-N ,  7-H ) :   1.0135 B(  3-N ,  4-H ) :   0.8925 B(  3-N ,  5-H ) :   0.9726
B(  8-C , 11-H ) :   0.9159 B(  8-C , 12-H ) :   0.9667 B(  8-C , 13-H ) :   0.9773

Dispersion correction           -0.000203409
FINAL SINGLE POINT ENERGY      -229.001038777021

DIPOLE MOMENT
-------------
                                X             Y             Z
Electronic contribution:     -3.75149      -0.47733      -1.55730
Nuclear contribution   :      2.76041       0.12669       1.26265
                        -----------------------------------------
Total Dipole Moment    :     -0.99108      -0.35064      -0.29465
                        -----------------------------------------
Magnitude (a.u.)       :      1.09179
Magnitude (Debye)      :      2.77511

Rotational constants in cm-1:     0.280918     0.124524     0.094121
Rotational constants in MHz :  8421.697738  3733.133254  2821.684112

                             ****ORCA TERMINATED NORMALLY****
TOTAL RUN TIME: 0 days 0 hours 0 minutes 56 seconds 355 msec
