                         Program Version 5.0.0 -  RELEASE  -
|  1> !M062X D3Zero RIJCOSX def2-TZVPD def2/J TightSCF xyzfile
|  2>
|  3> *xyzfile 0 1 B.xyz
|  4>
|  5> %MaxCore 64000
|  6>
|  7> %pal nprocs 4
|  8> end
|  9>
| 10> %scf
| 11>   MaxIter 150
| 12> end
| 13>
| 14>
| 15>                          ****END OF INPUT****

CARTESIAN COORDINATES (ANGSTROEM)
---------------------------------
  C      5.558206   -1.992914   -6.215054
  C      4.930199   -7.375319   -2.649623
  C      3.841892   -6.951611   -3.632829
  H      3.458144   -5.954425   -3.407121
  H      2.988484   -7.643606   -3.567078
  S      4.318115   -6.915930   -5.368692
  C      4.181880   -2.589671   -6.298911
  N      3.145873   -1.768431   -6.486753
  N      4.019102   -3.864307   -6.227427
  H      4.768490   -4.591153   -5.990773
  H      3.122405   -4.333392   -6.314620
  H      3.281635   -0.777786   -6.566549
  H      2.212549   -2.134193   -6.562246
  O      5.406154   -5.899480   -5.512972
  O      3.111910   -6.445079   -6.043792
  C      6.419260   -2.542944   -5.077630
  C      5.872267   -5.002756   -2.427819
  C      6.173994   -6.485522   -2.606315
  H      6.734852   -6.613767   -3.534015
  H      6.821463   -6.831018   -1.793617
  H      4.469612   -7.406168   -1.655876
  H      5.230134   -8.398678   -2.885906
  C      5.896512   -2.169314   -3.694552
  H      7.428880   -2.143665   -5.208078
  H      6.505894   -3.627541   -5.175502
  C      6.807804   -2.623428   -2.551019
  H      4.894708   -2.589732   -3.557501
  H      5.778823   -1.081255   -3.635790
  C      7.111544   -4.122463   -2.520363
  H      7.751615   -2.071393   -2.614406
  H      6.345837   -2.326401   -1.604086
  H      5.362882   -4.828697   -1.471335
  H      5.174429   -4.702577   -3.211298
  H      7.778329   -4.329347   -1.677651
  H      7.673189   -4.402845   -3.417586
  O      4.763396   -8.239424   -5.698629
  H      6.036826   -2.198189   -7.176852
  H      5.467610   -0.907371   -6.127968

 Total Charge           Charge          ....    0
 Multiplicity           Mult            ....    1
 Number of Electrons    NEL             ....  136
 Basis Dimension        Dim             ....  808

ORBITAL ENERGIES
----------------

  NO   OCC          E(Eh)            E(eV)
   0   2.0000     -90.046516     -2450.2903
   1   2.0000     -19.572640      -532.5986
   2   2.0000     -19.560479      -532.2677
   3   2.0000     -19.554199      -532.0968
   4   2.0000     -14.838909      -403.7872
   5   2.0000     -14.801705      -402.7749
   6   2.0000     -10.700076      -291.1639
   7   2.0000     -10.594206      -288.2830
   8   2.0000     -10.561160      -287.3838
   9   2.0000     -10.548624      -287.0426
  10   2.0000     -10.536980      -286.7258
  11   2.0000     -10.530272      -286.5433
  12   2.0000     -10.524741      -286.3928
  13   2.0000     -10.518006      -286.2095
  14   2.0000     -10.516549      -286.1698
  15   2.0000     -10.509299      -285.9726
  16   2.0000      -8.371690      -227.8053
  17   2.0000      -6.294163      -171.2729
  18   2.0000      -6.293641      -171.2587
  19   2.0000      -6.292638      -171.2314
  20   2.0000      -1.205394       -32.8004
  21   2.0000      -1.151678       -31.3388
  22   2.0000      -1.069413       -29.1002
  23   2.0000      -1.063139       -28.9295
  24   2.0000      -1.042054       -28.3557
  25   2.0000      -0.942204       -25.6387
  26   2.0000      -0.906066       -24.6553
  27   2.0000      -0.880992       -23.9730
  28   2.0000      -0.838333       -22.8122
  29   2.0000      -0.800377       -21.7794
  30   2.0000      -0.764469       -20.8023
  31   2.0000      -0.741735       -20.1836
  32   2.0000      -0.712638       -19.3919
  33   2.0000      -0.684940       -18.6382
  34   2.0000      -0.676271       -18.4023
  35   2.0000      -0.660409       -17.9706
  36   2.0000      -0.642837       -17.4925
  37   2.0000      -0.619766       -16.8647
  38   2.0000      -0.594606       -16.1800
  39   2.0000      -0.576531       -15.6882
  40   2.0000      -0.562341       -15.3021
  41   2.0000      -0.544514       -14.8170
  42   2.0000      -0.540468       -14.7069
  43   2.0000      -0.526611       -14.3298
  44   2.0000      -0.518075       -14.0975
  45   2.0000      -0.509856       -13.8739
  46   2.0000      -0.501630       -13.6500
  47   2.0000      -0.498728       -13.5711
  48   2.0000      -0.487591       -13.2680
  49   2.0000      -0.467408       -12.7188
  50   2.0000      -0.463194       -12.6041
  51   2.0000      -0.459647       -12.5076
  52   2.0000      -0.437577       -11.9071
  53   2.0000      -0.431384       -11.7386
  54   2.0000      -0.424972       -11.5641
  55   2.0000      -0.406498       -11.0614
  56   2.0000      -0.398453       -10.8425
  57   2.0000      -0.394136       -10.7250
  58   2.0000      -0.391916       -10.6646
  59   2.0000      -0.383574       -10.4376
  60   2.0000      -0.383221       -10.4280
  61   2.0000      -0.373774       -10.1709
  62   2.0000      -0.366720        -9.9790
  63   2.0000      -0.358837        -9.7644
  64   2.0000      -0.339982        -9.2514
  65   2.0000      -0.337567        -9.1857
  66   2.0000      -0.317184        -8.6310
  67   2.0000      -0.305514        -8.3135
  68   0.0000      -0.023880        -0.6498
  69   0.0000      -0.016063        -0.4371
  70   0.0000       0.005209         0.1418
  71   0.0000       0.015296         0.4162
  72   0.0000       0.020425         0.5558

MULLIKEN ATOMIC CHARGES
-----------------------
   0 C :   -1.187373
   1 C :   -0.958264
   2 C :   -0.575050
   3 H :    0.238975
   4 H :    0.467166
   5 S :    1.394063
   6 C :    1.238159
   7 N :   -0.648724
   8 N :   -0.291731
   9 H :    0.156674
  10 H :    0.325707
  11 H :    0.258275
  12 H :    0.239612
  13 O :   -0.899088
  14 O :   -0.875697
  15 C :   -0.276692
  16 C :    0.291335
  17 C :   -0.716765
  18 H :    0.228474
  19 H :    0.435790
  20 H :    0.364664
  21 H :    0.320581
  22 C :   -0.356103
  23 H :    0.447939
  24 H :    0.085756
  25 C :   -1.203187
  26 H :    0.179227
  27 H :    0.426447
  28 C :   -0.666050
  29 H :    0.387156
  30 H :    0.370668
  31 H :    0.368673
  32 H :   -0.208541
  33 H :    0.402086
  34 H :    0.269536
  35 O :   -0.762725
  36 H :    0.354699
  37 H :    0.374329
Sum of atomic charges:   -0.0000000

LOEWDIN ATOMIC CHARGES
----------------------
   0 C :   -0.110123
   1 C :   -0.227999
   2 C :   -0.253182
   3 H :    0.091064
   4 H :    0.109056
   5 S :    0.469652
   6 C :   -0.370596
   7 N :    0.183500
   8 N :    0.224964
   9 H :    0.059880
  10 H :    0.119511
  11 H :    0.119421
  12 H :    0.128249
  13 O :   -0.389733
  14 O :   -0.380781
  15 C :   -0.192886
  16 C :   -0.228718
  17 C :   -0.219740
  18 H :    0.108189
  19 H :    0.117230
  20 H :    0.112975
  21 H :    0.113535
  22 C :   -0.217239
  23 H :    0.128568
  24 H :    0.101166
  25 C :   -0.212049
  26 H :    0.110668
  27 H :    0.115646
  28 C :   -0.215939
  29 H :    0.112287
  30 H :    0.113473
  31 H :    0.129571
  32 H :    0.079483
  33 H :    0.117032
  34 H :    0.114768
  35 O :   -0.319186
  36 H :    0.138495
  37 H :    0.119787

  Mayer bond orders larger than 0.100000
B(  0-C ,  6-C ) :   0.5172 B(  0-C ,  7-N ) :   0.1231 B(  0-C , 15-C ) :   0.4968
B(  0-C , 22-C ) :   0.1411 B(  0-C , 36-H ) :   0.9995 B(  0-C , 37-H ) :   1.0013
B(  1-C ,  2-C ) :   0.7723 B(  1-C ,  5-S ) :   0.1573 B(  1-C , 16-C ) :   0.1312
B(  1-C , 17-C ) :   0.6157 B(  1-C , 20-H ) :   0.9675 B(  1-C , 21-H ) :   0.9872
B(  2-C ,  3-H ) :   0.9843 B(  2-C ,  4-H ) :   0.8051 B(  2-C ,  5-S ) :   0.8141
B(  2-C , 13-O ) :   0.1017 B(  2-C , 14-O ) :   0.1150 B(  2-C , 35-O ) :   0.1170
B(  5-S , 13-O ) :   1.3757 B(  5-S , 14-O ) :   1.1649 B(  5-S , 35-O ) :   1.3366
B(  6-C ,  7-N ) :   0.7548 B(  6-C ,  8-N ) :   1.1797 B(  6-C ,  9-H ) :  -0.1134
B(  6-C , 37-H ) :  -0.1742 B(  7-N ,  8-N ) :   0.1292 B(  7-N , 11-H ) :   0.9717
B(  7-N , 12-H ) :   1.0174 B(  8-N ,  9-H ) :   0.8448 B(  8-N , 10-H ) :   0.9504
B(  8-N , 13-O ) :  -0.2023 B(  8-N , 15-C ) :   0.1068 B(  9-H , 13-O ) :   0.1132
B( 13-O , 16-C ) :  -0.1078 B( 13-O , 17-C ) :   0.1018 B( 15-C , 22-C ) :   0.1851
B( 15-C , 23-H ) :   0.8213 B( 15-C , 24-H ) :   1.1572 B( 15-C , 25-C ) :   0.2153
B( 15-C , 26-H ) :  -0.1743 B( 15-C , 28-C ) :   0.1097 B( 16-C , 17-C ) :   0.2204
B( 16-C , 18-H ) :  -0.1346 B( 16-C , 25-C ) :   0.1490 B( 16-C , 28-C ) :   0.1954
B( 16-C , 31-H ) :   0.8879 B( 16-C , 32-H ) :   1.0318 B( 16-C , 34-H ) :  -0.1555
B( 17-C , 18-H ) :   1.0658 B( 17-C , 19-H ) :   0.8250 B( 17-C , 28-C ) :   0.4285
B( 22-C , 24-H ) :  -0.1387 B( 22-C , 25-C ) :   0.6498 B( 22-C , 26-H ) :   1.1498
B( 22-C , 27-H ) :   0.7877 B( 22-C , 28-C ) :  -0.1315 B( 25-C , 28-C ) :   0.5420
B( 25-C , 29-H ) :   0.9540 B( 25-C , 30-H ) :   0.9773 B( 28-C , 33-H ) :   0.8675
B( 28-C , 34-H ) :   1.0750

Dispersion correction           -0.002782603
FINAL SINGLE POINT ENERGY     -1127.678538168881

DIPOLE MOMENT
-------------
                                X             Y             Z
Electronic contribution:     -9.17406     -11.42255     -14.14619
Nuclear contribution   :      8.53517      16.50844      14.36520
                        -----------------------------------------
Total Dipole Moment    :     -0.63889       5.08589       0.21900
                        -----------------------------------------
Magnitude (a.u.)       :      5.13053
Magnitude (Debye)      :     13.04078

Rotational constants in cm-1:     0.017951     0.012436     0.008288
Rotational constants in MHz :   538.163255   372.824050   248.467077

                             ****ORCA TERMINATED NORMALLY****
TOTAL RUN TIME: 0 days 0 hours 12 minutes 11 seconds 325 msec
