                         Program Version 5.0.0 -  RELEASE  -
|  1> !M062X D3Zero RIJCOSX def2-TZVPD def2/J TightSCF
|  2> *xyz 0 1
|  3> C          4.93020       -7.37532       -2.64962
|  4> C          3.84189       -6.95161       -3.63283
|  5> H          3.45814       -5.95442       -3.40712
|  6> H          2.98848       -7.64361       -3.56708
|  7> S          4.31812       -6.91593       -5.36869
|  8> F          5.40615       -5.89948       -5.51297
|  9> O          3.11191       -6.44508       -6.04379
| 10> O          4.76340       -8.23942       -5.69863
| 11> H          5.27901       -8.35440       -2.90385
| 12> H          4.53000       -7.38577       -1.65734
| 13> H          5.74437       -6.68276       -2.69856
| 14> *
| 15>
| 16> %MaxCore 64000
| 17>
| 18> %pal nprocs 4
| 19> end
| 20>
| 21> %scf
| 22>   MaxIter 150
| 23> end
| 24>
| 25>
| 26>                          ****END OF INPUT****

CARTESIAN COORDINATES (ANGSTROEM)
---------------------------------
  C      4.930200   -7.375320   -2.649620
  C      3.841890   -6.951610   -3.632830
  H      3.458140   -5.954420   -3.407120
  H      2.988480   -7.643610   -3.567080
  S      4.318120   -6.915930   -5.368690
  F      5.406150   -5.899480   -5.512970
  O      3.111910   -6.445080   -6.043790
  O      4.763400   -8.239420   -5.698630
  H      5.279010   -8.354400   -2.903850
  H      4.530000   -7.385770   -1.657340
  H      5.744370   -6.682760   -2.698560

 Total Charge           Charge          ....    0
 Multiplicity           Mult            ....    1
 Number of Electrons    NEL             ....   58
 Basis Dimension        Dim             ....  285

ORBITAL ENERGIES
----------------

  NO   OCC          E(Eh)            E(eV)
   0   2.0000     -90.152322     -2453.1694
   1   2.0000     -25.346322      -689.7085
   2   2.0000     -19.646194      -534.6001
   3   2.0000     -19.636184      -534.3277
   4   2.0000     -10.602302      -288.5033
   5   2.0000     -10.557989      -287.2975
   6   2.0000      -8.477309      -230.6793
   7   2.0000      -6.402132      -174.2109
   8   2.0000      -6.397367      -174.0812
   9   2.0000      -6.396530      -174.0584
  10   2.0000      -1.489806       -40.5397
  11   2.0000      -1.238093       -33.6902
  12   2.0000      -1.142384       -31.0859
  13   2.0000      -0.924408       -25.1544
  14   2.0000      -0.819038       -22.2871
  15   2.0000      -0.763992       -20.7893
  16   2.0000      -0.670947       -18.2574
  17   2.0000      -0.660782       -17.9808
  18   2.0000      -0.636111       -17.3095
  19   2.0000      -0.569894       -15.5076
  20   2.0000      -0.559249       -15.2179
  21   2.0000      -0.537238       -14.6190
  22   2.0000      -0.508240       -13.8299
  23   2.0000      -0.480449       -13.0737
  24   2.0000      -0.473304       -12.8793
  25   2.0000      -0.450682       -12.2637
  26   2.0000      -0.416791       -11.3415
  27   2.0000      -0.399763       -10.8781
  28   2.0000      -0.395343       -10.7578
  29   0.0000      -0.001223        -0.0333
  30   0.0000       0.021455         0.5838
  31   0.0000       0.024383         0.6635
  32   0.0000       0.028682         0.7805
  33   0.0000       0.053249         1.4490

MULLIKEN ATOMIC CHARGES
-----------------------
   0 C :   -1.156503
   1 C :   -0.480982
   2 H :    0.389058
   3 H :    0.369837
   4 S :    1.342173
   5 F :   -0.176941
   6 O :   -0.653516
   7 O :   -0.644811
   8 H :    0.334508
   9 H :    0.336719
  10 H :    0.340458
Sum of atomic charges:   -0.0000000

LOEWDIN ATOMIC CHARGES
----------------------
   0 C :   -0.113159
   1 C :   -0.280397
   2 H :    0.103467
   3 H :    0.118038
   4 S :    0.627487
   5 F :   -0.097978
   6 O :   -0.302697
   7 O :   -0.275226
   8 H :    0.073948
   9 H :    0.074311
  10 H :    0.072205

  Mayer bond orders larger than 0.100000
B(  0-C ,  1-C ) :   0.5430 B(  0-C ,  8-H ) :   0.9803 B(  0-C ,  9-H ) :   0.9519
B(  0-C , 10-H ) :   0.9310 B(  1-C ,  2-H ) :   0.8870 B(  1-C ,  3-H ) :   0.8929
B(  1-C ,  4-S ) :   0.8672 B(  4-S ,  5-F ) :   0.8693 B(  4-S ,  6-O ) :   1.5978
B(  4-S ,  7-O ) :   1.6490

Dispersion correction           -0.000156631
FINAL SINGLE POINT ENERGY      -727.689988970447

DIPOLE MOMENT
-------------
                                X             Y             Z
Electronic contribution:      1.31286       2.63216      -8.71230
Nuclear contribution   :     -0.98922      -2.24849      10.35711
                        -----------------------------------------
Total Dipole Moment    :      0.32364       0.38366       1.64481
                        -----------------------------------------
Magnitude (a.u.)       :      1.71969
Magnitude (Debye)      :      4.37110

Rotational constants in cm-1:     0.151436     0.080885     0.078670
Rotational constants in MHz :  4539.936009  2424.868817  2358.476812

                             ****ORCA TERMINATED NORMALLY****
TOTAL RUN TIME: 0 days 0 hours 1 minutes 3 seconds 490 msec
