                         Program Version 5.0.0 -  RELEASE  -
|  1> !M062X D3Zero RIJCOSX def2-TZVPD def2/J TightSCF
|  2> *xyz 0 1
|  3> C          5.55821       -1.99291       -6.21505
|  4> C          4.18188       -2.58967       -6.29891
|  5> C          3.14587       -1.76843       -6.48675
|  6> N          4.01910       -3.86431       -6.22743
|  7> H          4.76849       -4.59115       -5.99077
|  8> H          3.12241       -4.33339       -6.31462
|  9> H          3.28164       -0.77779       -6.56655
| 10> H          2.21255       -2.13419       -6.56225
| 11> C          6.41926       -2.54294       -5.07763
| 12> H          6.03683       -2.19819       -7.17685
| 13> H          5.46761       -0.90737       -6.12797
| 14> H          6.50056       -3.60553       -5.17358
| 15> H          5.96544       -2.30329       -4.13874
| 16> H          7.39438       -2.10494       -5.12457
| 17> *
| 18>
| 19> %MaxCore 64000
| 20>
| 21> %pal nprocs 4
| 22> end
| 23>
| 24> %scf
| 25>   MaxIter 150
| 26> end
| 27>
| 28>
| 29>                          ****END OF INPUT****

CARTESIAN COORDINATES (ANGSTROEM)
---------------------------------
  C      5.558210   -1.992910   -6.215050
  C      4.181880   -2.589670   -6.298910
  C      3.145870   -1.768430   -6.486750
  N      4.019100   -3.864310   -6.227430
  H      4.768490   -4.591150   -5.990770
  H      3.122410   -4.333390   -6.314620
  H      3.281640   -0.777790   -6.566550
  H      2.212550   -2.134190   -6.562250
  C      6.419260   -2.542940   -5.077630
  H      6.036830   -2.198190   -7.176850
  H      5.467610   -0.907370   -6.127970
  H      6.500560   -3.605530   -5.173580
  H      5.965440   -2.303290   -4.138740
  H      7.394380   -2.104940   -5.124570

 Total Charge           Charge          ....    0
 Multiplicity           Mult            ....    1
 Number of Electrons    NEL             ....   40
 Basis Dimension        Dim             ....  266

ORBITAL ENERGIES
----------------

  NO   OCC          E(Eh)            E(eV)
   0   2.0000     -14.756201      -401.5366
   1   2.0000     -10.559344      -287.3344
   2   2.0000     -10.533395      -286.6283
   3   2.0000     -10.521671      -286.3092
   4   2.0000     -10.464193      -284.7452
   5   2.0000      -1.043903       -28.4061
   6   2.0000      -0.875628       -23.8270
   7   2.0000      -0.812308       -22.1040
   8   2.0000      -0.718474       -19.5507
   9   2.0000      -0.661496       -18.0002
  10   2.0000      -0.591015       -16.0823
  11   2.0000      -0.544582       -14.8188
  12   2.0000      -0.512241       -13.9388
  13   2.0000      -0.489569       -13.3219
  14   2.0000      -0.459027       -12.4908
  15   2.0000      -0.449117       -12.2211
  16   2.0000      -0.419933       -11.4270
  17   2.0000      -0.397688       -10.8216
  18   2.0000      -0.390191       -10.6176
  19   2.0000      -0.238881        -6.5003
  20   0.0000       0.013623         0.3707
  21   0.0000       0.037282         1.0145
  22   0.0000       0.041033         1.1166
  23   0.0000       0.053998         1.4694
  24   0.0000       0.072860         1.9826

MULLIKEN ATOMIC CHARGES
-----------------------
   0 C :   -0.620424
   1 C :    1.085924
   2 C :   -1.144317
   3 N :   -0.588194
   4 H :    0.246656
   5 H :    0.228276
   6 H :    0.204441
   7 H :    0.219533
   8 C :   -1.142944
   9 H :    0.314673
  10 H :    0.267810
  11 H :    0.306165
  12 H :    0.297457
  13 H :    0.324943
Sum of atomic charges:    0.0000000

LOEWDIN ATOMIC CHARGES
----------------------
   0 C :   -0.202204
   1 C :   -0.511991
   2 C :    0.026835
   3 N :    0.080227
   4 H :    0.145246
   5 H :    0.117188
   6 H :    0.009096
   7 H :    0.012939
   8 C :   -0.100740
   9 H :    0.118791
  10 H :    0.112236
  11 H :    0.051628
  12 H :    0.074921
  13 H :    0.065829

  Mayer bond orders larger than 0.100000
B(  0-C ,  1-C ) :   0.6952 B(  0-C ,  2-C ) :   0.1270 B(  0-C ,  8-C ) :   0.5054
B(  0-C ,  9-H ) :   0.9022 B(  0-C , 10-H ) :   0.9850 B(  0-C , 12-H ) :  -0.1093
B(  1-C ,  2-C ) :   1.0342 B(  1-C ,  3-N ) :   0.8736 B(  1-C ,  7-H ) :  -0.1844
B(  2-C ,  3-N ) :   0.1325 B(  2-C ,  6-H ) :   1.0296 B(  2-C ,  7-H ) :   1.1574
B(  3-N ,  4-H ) :   0.9476 B(  3-N ,  5-H ) :   0.9899 B(  8-C , 11-H ) :   0.9590
B(  8-C , 12-H ) :   1.0153 B(  8-C , 13-H ) :   0.9825

Dispersion correction           -0.000199845
FINAL SINGLE POINT ENERGY      -212.529709450474

DIPOLE MOMENT
-------------
                                X             Y             Z
Electronic contribution:     -2.03329      -1.04245      -1.02668
Nuclear contribution   :      2.41345       0.31141       1.16343
                        -----------------------------------------
Total Dipole Moment    :      0.38016      -0.73104       0.13676
                        -----------------------------------------
Magnitude (a.u.)       :      0.83525
Magnitude (Debye)      :      2.12303

Rotational constants in cm-1:     0.287957     0.129204     0.097498
Rotational constants in MHz :  8632.737925  3873.424745  2922.919500

                             ****ORCA TERMINATED NORMALLY****
TOTAL RUN TIME: 0 days 0 hours 1 minutes 2 seconds 330 msec
