                         Program Version 5.0.0 -  RELEASE  -
|  1> !M062X D3Zero RIJCOSX def2-TZVPD def2/J TightSCF
|  2> *xyz 0 1
|  3> C          4.93020       -7.37532       -2.64962
|  4> C          3.84189       -6.95161       -3.63283
|  5> H          3.45814       -5.95442       -3.40712
|  6> H          2.98848       -7.64361       -3.56708
|  7> S          4.31812       -6.91593       -5.36869
|  8> O          5.40615       -5.89948       -5.51297
|  9> F          3.11191       -6.44508       -6.04379
| 10> O          4.76340       -8.23942       -5.69863
| 11> H          5.27901       -8.35440       -2.90385
| 12> H          4.53000       -7.38577       -1.65734
| 13> H          5.74437       -6.68276       -2.69856
| 14> *
| 15>
| 16> %MaxCore 64000
| 17>
| 18> %pal nprocs 4
| 19> end
| 20>
| 21> %scf
| 22>   MaxIter 150
| 23> end
| 24>
| 25>
| 26>                          ****END OF INPUT****

CARTESIAN COORDINATES (ANGSTROEM)
---------------------------------
  C      4.930200   -7.375320   -2.649620
  C      3.841890   -6.951610   -3.632830
  H      3.458140   -5.954420   -3.407120
  H      2.988480   -7.643610   -3.567080
  S      4.318120   -6.915930   -5.368690
  O      5.406150   -5.899480   -5.512970
  F      3.111910   -6.445080   -6.043790
  O      4.763400   -8.239420   -5.698630
  H      5.279010   -8.354400   -2.903850
  H      4.530000   -7.385770   -1.657340
  H      5.744370   -6.682760   -2.698560

 Total Charge           Charge          ....    0
 Multiplicity           Mult            ....    1
 Number of Electrons    NEL             ....   58
 Basis Dimension        Dim             ....  285

ORBITAL ENERGIES
----------------

  NO   OCC          E(Eh)            E(eV)
   0   2.0000     -90.154112     -2453.2181
   1   2.0000     -25.361038      -690.1089
   2   2.0000     -19.645641      -534.5851
   3   2.0000     -19.628878      -534.1289
   4   2.0000     -10.603233      -288.5286
   5   2.0000     -10.556579      -287.2591
   6   2.0000      -8.479103      -230.7281
   7   2.0000      -6.403914      -174.2594
   8   2.0000      -6.398973      -174.1249
   9   2.0000      -6.398436      -174.1103
  10   2.0000      -1.517277       -41.2872
  11   2.0000      -1.231089       -33.4996
  12   2.0000      -1.123382       -30.5688
  13   2.0000      -0.924376       -25.1536
  14   2.0000      -0.834333       -22.7034
  15   2.0000      -0.764817       -20.8117
  16   2.0000      -0.680867       -18.5273
  17   2.0000      -0.676226       -18.4011
  18   2.0000      -0.644811       -17.5462
  19   2.0000      -0.570197       -15.5159
  20   2.0000      -0.563656       -15.3379
  21   2.0000      -0.523253       -14.2384
  22   2.0000      -0.502037       -13.6611
  23   2.0000      -0.479478       -13.0473
  24   2.0000      -0.462194       -12.5769
  25   2.0000      -0.456192       -12.4136
  26   2.0000      -0.410710       -11.1760
  27   2.0000      -0.394449       -10.7335
  28   2.0000      -0.383050       -10.4233
  29   0.0000      -0.000157        -0.0043
  30   0.0000       0.017853         0.4858
  31   0.0000       0.025471         0.6931
  32   0.0000       0.029615         0.8059
  33   0.0000       0.055386         1.5071

MULLIKEN ATOMIC CHARGES
-----------------------
   0 C :   -1.175386
   1 C :   -0.512915
   2 H :    0.400917
   3 H :    0.398414
   4 S :    1.324692
   5 O :   -0.670808
   6 F :   -0.137335
   7 O :   -0.638137
   8 H :    0.339183
   9 H :    0.334179
  10 H :    0.337195
Sum of atomic charges:    0.0000000

LOEWDIN ATOMIC CHARGES
----------------------
   0 C :   -0.101431
   1 C :   -0.289156
   2 H :    0.102412
   3 H :    0.107087
   4 S :    0.627058
   5 O :   -0.320648
   6 F :   -0.077765
   7 O :   -0.277432
   8 H :    0.076361
   9 H :    0.075990
  10 H :    0.077524

  Mayer bond orders larger than 0.100000
B(  0-C ,  1-C ) :   0.6266 B(  0-C ,  8-H ) :   0.9469 B(  0-C ,  9-H ) :   0.9390
B(  0-C , 10-H ) :   0.9524 B(  1-C ,  2-H ) :   0.8586 B(  1-C ,  3-H ) :   0.8573
B(  1-C ,  4-S ) :   0.8611 B(  4-S ,  5-O ) :   1.5689 B(  4-S ,  6-F ) :   0.9076
B(  4-S ,  7-O ) :   1.6428

Dispersion correction           -0.000145343
FINAL SINGLE POINT ENERGY      -727.678931366616

DIPOLE MOMENT
-------------
                                X             Y             Z
Electronic contribution:     -2.60156       1.69369      -9.62852
Nuclear contribution   :      1.40145      -1.67996      10.91024
                        -----------------------------------------
Total Dipole Moment    :     -1.20011       0.01373       1.28171
                        -----------------------------------------
Magnitude (a.u.)       :      1.75592
Magnitude (Debye)      :      4.46319

Rotational constants in cm-1:     0.155875     0.079864     0.077188
Rotational constants in MHz :  4673.017506  2394.277415  2314.027118

                             ****ORCA TERMINATED NORMALLY****
TOTAL RUN TIME: 0 days 0 hours 1 minutes 7 seconds 14 msec
