                         Program Version 5.0.0 -  RELEASE  -
|  1> !M062X D3Zero RIJCOSX def2-TZVPD def2/J TightSCF
|  2> *xyz 0 1
|  3> C          5.55821       -1.99291       -6.21505
|  4> C          4.18188       -2.58967       -6.29891
|  5> N          3.14587       -1.76843       -6.48675
|  6> C          4.01910       -3.86431       -6.22743
|  7> H          4.76849       -4.59115       -5.99077
|  8> H          3.12241       -4.33339       -6.31462
|  9> H          3.28164       -0.77779       -6.56655
| 10> H          2.21255       -2.13419       -6.56225
| 11> C          6.41926       -2.54294       -5.07763
| 12> H          6.03683       -2.19819       -7.17685
| 13> H          5.46761       -0.90737       -6.12797
| 14> H          6.50056       -3.60553       -5.17358
| 15> H          5.96544       -2.30329       -4.13874
| 16> H          7.39438       -2.10494       -5.12457
| 17> *
| 18>
| 19> %MaxCore 64000
| 20>
| 21> %pal nprocs 4
| 22> end
| 23>
| 24> %scf
| 25>   MaxIter 150
| 26> end
| 27>
| 28>
| 29>                          ****END OF INPUT****

CARTESIAN COORDINATES (ANGSTROEM)
---------------------------------
  C      5.558210   -1.992910   -6.215050
  C      4.181880   -2.589670   -6.298910
  N      3.145870   -1.768430   -6.486750
  C      4.019100   -3.864310   -6.227430
  H      4.768490   -4.591150   -5.990770
  H      3.122410   -4.333390   -6.314620
  H      3.281640   -0.777790   -6.566550
  H      2.212550   -2.134190   -6.562250
  C      6.419260   -2.542940   -5.077630
  H      6.036830   -2.198190   -7.176850
  H      5.467610   -0.907370   -6.127970
  H      6.500560   -3.605530   -5.173580
  H      5.965440   -2.303290   -4.138740
  H      7.394380   -2.104940   -5.124570

 Total Charge           Charge          ....    0
 Multiplicity           Mult            ....    1
 Number of Electrons    NEL             ....   40
 Basis Dimension        Dim             ....  266

ORBITAL ENERGIES
----------------

  NO   OCC          E(Eh)            E(eV)
   0   2.0000     -14.745145      -401.2358
   1   2.0000     -10.556755      -287.2639
   2   2.0000     -10.534337      -286.6539
   3   2.0000     -10.515971      -286.1541
   4   2.0000     -10.470849      -284.9263
   5   2.0000      -1.033205       -28.1149
   6   2.0000      -0.879777       -23.9400
   7   2.0000      -0.808667       -22.0049
   8   2.0000      -0.728452       -19.8222
   9   2.0000      -0.636305       -17.3148
  10   2.0000      -0.596891       -16.2422
  11   2.0000      -0.558340       -15.1932
  12   2.0000      -0.517104       -14.0711
  13   2.0000      -0.484948       -13.1961
  14   2.0000      -0.450016       -12.2456
  15   2.0000      -0.438008       -11.9188
  16   2.0000      -0.412659       -11.2290
  17   2.0000      -0.397002       -10.8030
  18   2.0000      -0.390796       -10.6341
  19   2.0000      -0.248205        -6.7540
  20   0.0000       0.017752         0.4831
  21   0.0000       0.037093         1.0094
  22   0.0000       0.042047         1.1441
  23   0.0000       0.054308         1.4778
  24   0.0000       0.074618         2.0305

MULLIKEN ATOMIC CHARGES
-----------------------
   0 C :   -0.592980
   1 C :    1.109844
   2 N :   -0.592607
   3 C :   -1.102197
   4 H :    0.102654
   5 H :    0.216874
   6 H :    0.244659
   7 H :    0.210303
   8 C :   -1.127635
   9 H :    0.311881
  10 H :    0.300434
  11 H :    0.291611
  12 H :    0.312156
  13 H :    0.315003
Sum of atomic charges:   -0.0000000

LOEWDIN ATOMIC CHARGES
----------------------
   0 C :   -0.202035
   1 C :   -0.494003
   2 N :    0.090544
   3 C :    0.003042
   4 H :    0.054329
   5 H :    0.022775
   6 H :    0.095208
   7 H :    0.106624
   8 C :   -0.098730
   9 H :    0.120097
  10 H :    0.104949
  11 H :    0.057301
  12 H :    0.075323
  13 H :    0.064576

  Mayer bond orders larger than 0.100000
B(  0-C ,  1-C ) :   0.5108 B(  0-C ,  8-C ) :   0.5360 B(  0-C ,  9-H ) :   0.9354
B(  0-C , 10-H ) :   0.9954 B(  1-C ,  2-N ) :   0.8009 B(  1-C ,  3-C ) :   1.1060
B(  1-C ,  5-H ) :  -0.2030 B(  1-C , 10-H ) :  -0.1327 B(  2-N ,  3-C ) :   0.1125
B(  2-N ,  6-H ) :   0.9884 B(  2-N ,  7-H ) :   1.0256 B(  3-C ,  4-H ) :   1.0902
B(  3-C ,  5-H ) :   1.1788 B(  8-C , 11-H ) :   0.9868 B(  8-C , 12-H ) :   1.0004
B(  8-C , 13-H ) :   0.9745

Dispersion correction           -0.000200514
FINAL SINGLE POINT ENERGY      -212.539609956343

DIPOLE MOMENT
-------------
                                X             Y             Z
Electronic contribution:     -2.78025       0.77842      -1.27849
Nuclear contribution   :      2.61570      -0.17401       1.22349
                        -----------------------------------------
Total Dipole Moment    :     -0.16455       0.60441      -0.05500
                        -----------------------------------------
Magnitude (a.u.)       :      0.62882
Magnitude (Debye)      :      1.59833

Rotational constants in cm-1:     0.298189     0.125314     0.096441
Rotational constants in MHz :  8939.495008  3756.825352  2891.223400

                             ****ORCA TERMINATED NORMALLY****
TOTAL RUN TIME: 0 days 0 hours 0 minutes 43 seconds 690 msec
