                         Program Version 5.0.0 -  RELEASE  -
|  1> !M062X D3Zero RIJCOSX def2-TZVPD def2/J TightSCF
|  2> *xyz 0 1
|  3> C          4.93020       -7.37532       -2.64962
|  4> C          3.84189       -6.95161       -3.63283
|  5> H          3.45814       -5.95442       -3.40712
|  6> H          2.98848       -7.64361       -3.56708
|  7> S          4.31812       -6.91593       -5.36869
|  8> O          5.40615       -5.89948       -5.51297
|  9> O          3.11191       -6.44508       -6.04379
| 10> F          4.76340       -8.23942       -5.69863
| 11> H          5.27901       -8.35440       -2.90385
| 12> H          4.53000       -7.38577       -1.65734
| 13> H          5.74437       -6.68276       -2.69856
| 14> *
| 15>
| 16> %MaxCore 64000
| 17>
| 18> %pal nprocs 4
| 19> end
| 20>
| 21> %scf
| 22>   MaxIter 150
| 23> end
| 24>
| 25>
| 26>                          ****END OF INPUT****

CARTESIAN COORDINATES (ANGSTROEM)
---------------------------------
  C      4.930200   -7.375320   -2.649620
  C      3.841890   -6.951610   -3.632830
  H      3.458140   -5.954420   -3.407120
  H      2.988480   -7.643610   -3.567080
  S      4.318120   -6.915930   -5.368690
  O      5.406150   -5.899480   -5.512970
  O      3.111910   -6.445080   -6.043790
  F      4.763400   -8.239420   -5.698630
  H      5.279010   -8.354400   -2.903850
  H      4.530000   -7.385770   -1.657340
  H      5.744370   -6.682760   -2.698560

 Total Charge           Charge          ....    0
 Multiplicity           Mult            ....    1
 Number of Electrons    NEL             ....   58
 Basis Dimension        Dim             ....  285

ORBITAL ENERGIES
----------------

  NO   OCC          E(Eh)            E(eV)
   0   2.0000     -90.155527     -2453.2566
   1   2.0000     -25.374845      -690.4846
   2   2.0000     -19.636734      -534.3427
   3   2.0000     -19.629953      -534.1582
   4   2.0000     -10.603493      -288.5357
   5   2.0000     -10.559106      -287.3279
   6   2.0000      -8.480535      -230.7671
   7   2.0000      -6.405481      -174.3020
   8   2.0000      -6.400235      -174.1593
   9   2.0000      -6.399802      -174.1475
  10   2.0000      -1.539965       -41.9046
  11   2.0000      -1.218975       -33.1700
  12   2.0000      -1.115984       -30.3675
  13   2.0000      -0.927391       -25.2356
  14   2.0000      -0.840166       -22.8621
  15   2.0000      -0.774203       -21.0671
  16   2.0000      -0.700560       -19.0632
  17   2.0000      -0.695235       -18.9183
  18   2.0000      -0.636932       -17.3318
  19   2.0000      -0.568237       -15.4625
  20   2.0000      -0.557679       -15.1752
  21   2.0000      -0.528515       -14.3816
  22   2.0000      -0.504910       -13.7393
  23   2.0000      -0.478396       -13.0178
  24   2.0000      -0.466896       -12.7049
  25   2.0000      -0.448174       -12.1954
  26   2.0000      -0.401860       -10.9352
  27   2.0000      -0.393872       -10.7178
  28   2.0000      -0.377383       -10.2691
  29   0.0000      -0.002974        -0.0809
  30   0.0000       0.019760         0.5377
  31   0.0000       0.023129         0.6294
  32   0.0000       0.029403         0.8001
  33   0.0000       0.053405         1.4532

MULLIKEN ATOMIC CHARGES
-----------------------
   0 C :   -1.160476
   1 C :   -0.479906
   2 H :    0.371550
   3 H :    0.385375
   4 S :    1.305436
   5 O :   -0.665154
   6 O :   -0.642114
   7 F :   -0.129959
   8 H :    0.344262
   9 H :    0.336932
  10 H :    0.334055
Sum of atomic charges:    0.0000000

LOEWDIN ATOMIC CHARGES
----------------------
   0 C :   -0.113381
   1 C :   -0.281268
   2 H :    0.113375
   3 H :    0.108049
   4 S :    0.625487
   5 O :   -0.318131
   6 O :   -0.302284
   7 F :   -0.052437
   8 H :    0.070863
   9 H :    0.074487
  10 H :    0.075240

  Mayer bond orders larger than 0.100000
B(  0-C ,  1-C ) :   0.5350 B(  0-C ,  8-H ) :   0.9238 B(  0-C ,  9-H ) :   0.9526
B(  0-C , 10-H ) :   0.9874 B(  1-C ,  2-H ) :   0.8963 B(  1-C ,  3-H ) :   0.8872
B(  1-C ,  4-S ) :   0.8702 B(  4-S ,  5-O ) :   1.5863 B(  4-S ,  6-O ) :   1.6065
B(  4-S ,  7-F ) :   0.9402

Dispersion correction           -0.000156990
FINAL SINGLE POINT ENERGY      -727.667376534525

DIPOLE MOMENT
-------------
                                X             Y             Z
Electronic contribution:      0.20493      -1.34005      -9.03139
Nuclear contribution   :     -0.31946       0.18980      10.55057
                        -----------------------------------------
Total Dipole Moment    :     -0.11452      -1.15026       1.51918
                        -----------------------------------------
Magnitude (a.u.)       :      1.90896
Magnitude (Debye)      :      4.85218

Rotational constants in cm-1:     0.151421     0.081183     0.078684
Rotational constants in MHz :  4539.489207  2433.790160  2358.892966

                             ****ORCA TERMINATED NORMALLY****
TOTAL RUN TIME: 0 days 0 hours 1 minutes 6 seconds 238 msec
