                         Program Version 5.0.0 -  RELEASE  -
|  1> !M062X D3Zero RIJCOSX def2-TZVPD def2/J TightSCF xyzfile
|  2>
|  3> *xyzfile 0 1 D1.xyz
|  4>
|  5> %MaxCore 64000
|  6>
|  7> %pal nprocs 4
|  8> end
|  9>
| 10> %scf
| 11>   MaxIter 150
| 12> end
| 13>
| 14>
| 15>                          ****END OF INPUT****

CARTESIAN COORDINATES (ANGSTROEM)
---------------------------------
  C      5.558206   -1.992914   -6.215054
  C      4.930199   -7.375319   -2.649623
  C      3.841892   -6.951611   -3.632829
  H      3.458144   -5.954425   -3.407121
  H      2.988484   -7.643606   -3.567078
  S      4.318115   -6.915930   -5.368692
  C      4.181880   -2.589671   -6.298911
  C      3.145873   -1.768431   -6.486753
  N      4.019102   -3.864307   -6.227427
  H      4.768490   -4.591153   -5.990773
  H      3.122405   -4.333392   -6.314620
  H      3.281635   -0.777786   -6.566549
  H      2.212549   -2.134193   -6.562246
  F      5.406154   -5.899480   -5.512972
  O      3.111910   -6.445079   -6.043792
  C      6.419260   -2.542944   -5.077630
  C      5.872267   -5.002756   -2.427819
  C      6.173994   -6.485522   -2.606315
  H      6.734852   -6.613767   -3.534015
  H      6.821463   -6.831018   -1.793617
  H      4.469612   -7.406168   -1.655876
  H      5.230134   -8.398678   -2.885906
  C      5.896512   -2.169314   -3.694552
  H      7.428880   -2.143665   -5.208078
  H      6.505894   -3.627541   -5.175502
  C      6.807804   -2.623428   -2.551019
  H      4.894708   -2.589732   -3.557501
  H      5.778823   -1.081255   -3.635790
  C      7.111544   -4.122463   -2.520363
  H      7.751615   -2.071393   -2.614406
  H      6.345837   -2.326401   -1.604086
  H      5.362882   -4.828697   -1.471335
  H      5.174429   -4.702577   -3.211298
  H      7.778329   -4.329347   -1.677651
  H      7.673189   -4.402845   -3.417586
  O      4.763396   -8.239424   -5.698629
  H      6.036826   -2.198189   -7.176852
  H      5.467610   -0.907371   -6.127968

 Total Charge           Charge          ....    0
 Multiplicity           Mult            ....    1
 Number of Electrons    NEL             ....  136
 Basis Dimension        Dim             ....  808

ORBITAL ENERGIES
----------------

  NO   OCC          E(Eh)            E(eV)
   0   2.0000     -90.169814     -2453.6454
   1   2.0000     -25.375675      -690.5072
   2   2.0000     -19.662645      -535.0478
   3   2.0000     -19.655052      -534.8412
   4   2.0000     -14.732856      -400.9014
   5   2.0000     -10.609723      -288.7052
   6   2.0000     -10.572175      -287.6835
   7   2.0000     -10.555620      -287.2330
   8   2.0000     -10.548570      -287.0412
   9   2.0000     -10.546516      -286.9853
  10   2.0000     -10.539209      -286.7865
  11   2.0000     -10.533757      -286.6381
  12   2.0000     -10.532936      -286.6158
  13   2.0000     -10.528571      -286.4970
  14   2.0000     -10.527784      -286.4756
  15   2.0000     -10.455391      -284.5057
  16   2.0000      -8.495409      -231.1718
  17   2.0000      -6.420527      -174.7114
  18   2.0000      -6.415080      -174.5632
  19   2.0000      -6.414437      -174.5457
  20   2.0000      -1.525701       -41.5164
  21   2.0000      -1.257101       -34.2075
  22   2.0000      -1.161857       -31.6157
  23   2.0000      -1.030392       -28.0384
  24   2.0000      -0.953984       -25.9592
  25   2.0000      -0.920581       -25.0503
  26   2.0000      -0.891367       -24.2553
  27   2.0000      -0.858525       -23.3616
  28   2.0000      -0.839832       -22.8530
  29   2.0000      -0.808444       -21.9989
  30   2.0000      -0.790958       -21.5231
  31   2.0000      -0.750081       -20.4108
  32   2.0000      -0.717512       -19.5245
  33   2.0000      -0.712255       -19.3814
  34   2.0000      -0.696744       -18.9594
  35   2.0000      -0.681029       -18.5317
  36   2.0000      -0.656300       -17.8588
  37   2.0000      -0.643972       -17.5234
  38   2.0000      -0.638717       -17.3804
  39   2.0000      -0.585313       -15.9272
  40   2.0000      -0.582226       -15.8432
  41   2.0000      -0.567238       -15.4353
  42   2.0000      -0.560479       -15.2514
  43   2.0000      -0.553141       -15.0517
  44   2.0000      -0.537989       -14.6394
  45   2.0000      -0.534988       -14.5578
  46   2.0000      -0.524507       -14.2726
  47   2.0000      -0.504028       -13.7153
  48   2.0000      -0.501037       -13.6339
  49   2.0000      -0.492361       -13.3978
  50   2.0000      -0.481973       -13.1151
  51   2.0000      -0.475236       -12.9318
  52   2.0000      -0.461241       -12.5510
  53   2.0000      -0.445474       -12.1220
  54   2.0000      -0.442187       -12.0325
  55   2.0000      -0.439448       -11.9580
  56   2.0000      -0.432390       -11.7659
  57   2.0000      -0.423260       -11.5175
  58   2.0000      -0.421633       -11.4732
  59   2.0000      -0.414535       -11.2801
  60   2.0000      -0.405956       -11.0466
  61   2.0000      -0.402534       -10.9535
  62   2.0000      -0.399603       -10.8737
  63   2.0000      -0.390405       -10.6235
  64   2.0000      -0.377863       -10.2822
  65   2.0000      -0.371497       -10.1090
  66   2.0000      -0.368979       -10.0404
  67   2.0000      -0.228787        -6.2256
  68   0.0000      -0.003342        -0.0909
  69   0.0000       0.007156         0.1947
  70   0.0000       0.015051         0.4096
  71   0.0000       0.016203         0.4409
  72   0.0000       0.029579         0.8049

MULLIKEN ATOMIC CHARGES
-----------------------
   0 C :   -1.241318
   1 C :   -0.933337
   2 C :   -0.581138
   3 H :    0.296193
   4 H :    0.501729
   5 S :    1.318848
   6 C :    1.152995
   7 C :   -1.203476
   8 N :   -0.438332
   9 H :    0.259371
  10 H :    0.265171
  11 H :    0.236359
  12 H :    0.256399
  13 F :   -0.265046
  14 O :   -0.745214
  15 C :   -0.128274
  16 C :    0.258646
  17 C :   -0.678358
  18 H :    0.205436
  19 H :    0.425800
  20 H :    0.383892
  21 H :    0.327276
  22 C :   -0.287947
  23 H :    0.424818
  24 H :   -0.077858
  25 C :   -1.170176
  26 H :    0.129476
  27 H :    0.417772
  28 C :   -0.661114
  29 H :    0.391739
  30 H :    0.369209
  31 H :    0.358595
  32 H :   -0.196865
  33 H :    0.395443
  34 H :    0.277284
  35 O :   -0.682291
  36 H :    0.321971
  37 H :    0.316323
Sum of atomic charges:    0.0000000

LOEWDIN ATOMIC CHARGES
----------------------
   0 C :   -0.148750
   1 C :   -0.222166
   2 C :   -0.217072
   3 H :    0.106880
   4 H :    0.125903
   5 S :    0.655129
   6 C :   -0.495047
   7 C :    0.033278
   8 N :    0.103002
   9 H :    0.072500
  10 H :    0.099359
  11 H :    0.008330
  12 H :    0.014925
  13 F :   -0.127235
  14 O :   -0.287854
  15 C :   -0.210776
  16 C :   -0.225358
  17 C :   -0.216281
  18 H :    0.108929
  19 H :    0.124043
  20 H :    0.123665
  21 H :    0.116363
  22 C :   -0.213674
  23 H :    0.121409
  24 H :    0.088146
  25 C :   -0.213856
  26 H :    0.111294
  27 H :    0.121046
  28 C :   -0.218276
  29 H :    0.112948
  30 H :    0.112626
  31 H :    0.134517
  32 H :    0.081946
  33 H :    0.117237
  34 H :    0.111290
  35 O :   -0.249926
  36 H :    0.123400
  37 H :    0.118107

  Mayer bond orders larger than 0.100000
B(  0-C ,  6-C ) :   0.4624 B(  0-C ,  7-C ) :   0.1875 B(  0-C , 15-C ) :   0.5179
B(  0-C , 22-C ) :   0.1013 B(  0-C , 36-H ) :   0.9733 B(  0-C , 37-H ) :   1.0265
B(  1-C ,  2-C ) :   0.7677 B(  1-C ,  5-S ) :   0.1386 B(  1-C , 16-C ) :   0.1084
B(  1-C , 17-C ) :   0.6224 B(  1-C , 20-H ) :   0.9457 B(  1-C , 21-H ) :   1.0066
B(  2-C ,  3-H ) :   0.9904 B(  2-C ,  4-H ) :   0.7490 B(  2-C ,  5-S ) :   0.8289
B(  5-S , 13-F ) :   1.0002 B(  5-S , 14-O ) :   1.4405 B(  5-S , 35-O ) :   1.4388
B(  6-C ,  7-C ) :   1.0303 B(  6-C ,  8-N ) :   0.8278 B(  6-C , 11-H ) :  -0.1217
B(  6-C , 12-H ) :  -0.1533 B(  6-C , 22-C ) :   0.1094 B(  6-C , 37-H ) :  -0.1098
B(  7-C ,  8-N ) :   0.1347 B(  7-C , 11-H ) :   1.1073 B(  7-C , 12-H ) :   1.0819
B(  8-N ,  9-H ) :   0.9302 B(  8-N , 10-H ) :   0.9405 B(  8-N , 15-C ) :   0.1384
B( 15-C , 22-C ) :   0.3257 B( 15-C , 23-H ) :   0.8519 B( 15-C , 24-H ) :   1.0891
B( 15-C , 25-C ) :   0.2070 B( 15-C , 26-H ) :  -0.1364 B( 15-C , 28-C ) :   0.1121
B( 16-C , 17-C ) :   0.1101 B( 16-C , 18-H ) :  -0.2230 B( 16-C , 25-C ) :   0.1716
B( 16-C , 28-C ) :   0.2330 B( 16-C , 31-H ) :   0.9008 B( 16-C , 32-H ) :   1.0368
B( 16-C , 34-H ) :  -0.1393 B( 17-C , 18-H ) :   1.1397 B( 17-C , 19-H ) :   0.8359
B( 17-C , 28-C ) :   0.3904 B( 22-C , 24-H ) :  -0.1242 B( 22-C , 25-C ) :   0.5819
B( 22-C , 26-H ) :   1.1603 B( 22-C , 27-H ) :   0.8056 B( 22-C , 28-C ) :  -0.1156
B( 25-C , 28-C ) :   0.5894 B( 25-C , 29-H ) :   0.9563 B( 25-C , 30-H ) :   0.9848
B( 28-C , 33-H ) :   0.8678 B( 28-C , 34-H ) :   1.0561 B( 31-H , 32-H ) :   0.1135

Dispersion correction           -0.002781590
FINAL SINGLE POINT ENERGY     -1135.553154338149

DIPOLE MOMENT
-------------
                                X             Y             Z
Electronic contribution:     -7.00221     -18.72996     -13.19010
Nuclear contribution   :      7.78491      18.17172      15.09294
                        -----------------------------------------
Total Dipole Moment    :      0.78270      -0.55823       1.90283
                        -----------------------------------------
Magnitude (a.u.)       :      2.13190
Magnitude (Debye)      :      5.41887

Rotational constants in cm-1:     0.018190     0.012573     0.008405
Rotational constants in MHz :   545.327178   376.916509   251.974803

                             ****ORCA TERMINATED NORMALLY****
TOTAL RUN TIME: 0 days 0 hours 12 minutes 17 seconds 68 msec
