                         Program Version 5.0.0 -  RELEASE  -
|  1> !M062X D3Zero RIJCOSX def2-TZVPD def2/J TightSCF xyzfile
|  2>
|  3> *xyzfile 0 1 D2.xyz
|  4>
|  5> %MaxCore 64000
|  6>
|  7> %pal nprocs 4
|  8> end
|  9>
| 10> %scf
| 11>   MaxIter 150
| 12> end
| 13>
| 14>
| 15>                          ****END OF INPUT****

CARTESIAN COORDINATES (ANGSTROEM)
---------------------------------
  C      5.558206   -1.992914   -6.215054
  C      4.930199   -7.375319   -2.649623
  C      3.841892   -6.951611   -3.632829
  H      3.458144   -5.954425   -3.407121
  H      2.988484   -7.643606   -3.567078
  S      4.318115   -6.915930   -5.368692
  C      4.181880   -2.589671   -6.298911
  N      3.145873   -1.768431   -6.486753
  C      4.019102   -3.864307   -6.227427
  H      4.768490   -4.591153   -5.990773
  H      3.122405   -4.333392   -6.314620
  H      3.281635   -0.777786   -6.566549
  H      2.212549   -2.134193   -6.562246
  F      5.406154   -5.899480   -5.512972
  O      3.111910   -6.445079   -6.043792
  C      6.419260   -2.542944   -5.077630
  C      5.872267   -5.002756   -2.427819
  C      6.173994   -6.485522   -2.606315
  H      6.734852   -6.613767   -3.534015
  H      6.821463   -6.831018   -1.793617
  H      4.469612   -7.406168   -1.655876
  H      5.230134   -8.398678   -2.885906
  C      5.896512   -2.169314   -3.694552
  H      7.428880   -2.143665   -5.208078
  H      6.505894   -3.627541   -5.175502
  C      6.807804   -2.623428   -2.551019
  H      4.894708   -2.589732   -3.557501
  H      5.778823   -1.081255   -3.635790
  C      7.111544   -4.122463   -2.520363
  H      7.751615   -2.071393   -2.614406
  H      6.345837   -2.326401   -1.604086
  H      5.362882   -4.828697   -1.471335
  H      5.174429   -4.702577   -3.211298
  H      7.778329   -4.329347   -1.677651
  H      7.673189   -4.402845   -3.417586
  O      4.763396   -8.239424   -5.698629
  H      6.036826   -2.198189   -7.176852
  H      5.467610   -0.907371   -6.127968

 Total Charge           Charge          ....    0
 Multiplicity           Mult            ....    1
 Number of Electrons    NEL             ....  136
 Basis Dimension        Dim             ....  808

ORBITAL ENERGIES
----------------

  NO   OCC          E(Eh)            E(eV)
   0   2.0000     -90.149102     -2453.0818
   1   2.0000     -25.345380      -689.6828
   2   2.0000     -19.643408      -534.5243
   3   2.0000     -19.630940      -534.1850
   4   2.0000     -14.739470      -401.0814
   5   2.0000     -10.594568      -288.2928
   6   2.0000     -10.560940      -287.3778
   7   2.0000     -10.548424      -287.0372
   8   2.0000     -10.545874      -286.9678
   9   2.0000     -10.537848      -286.7494
  10   2.0000     -10.533287      -286.6253
  11   2.0000     -10.531136      -286.5668
  12   2.0000     -10.530248      -286.5426
  13   2.0000     -10.529811      -286.5307
  14   2.0000     -10.525813      -286.4219
  15   2.0000     -10.449932      -284.3571
  16   2.0000      -8.474390      -230.5999
  17   2.0000      -6.399380      -174.1360
  18   2.0000      -6.394321      -173.9983
  19   2.0000      -6.393478      -173.9754
  20   2.0000      -1.496940       -40.7338
  21   2.0000      -1.235979       -33.6327
  22   2.0000      -1.139958       -31.0198
  23   2.0000      -1.027099       -27.9488
  24   2.0000      -0.942027       -25.6339
  25   2.0000      -0.915872       -24.9221
  26   2.0000      -0.885344       -24.0914
  27   2.0000      -0.856124       -23.2963
  28   2.0000      -0.818949       -22.2847
  29   2.0000      -0.807666       -21.9777
  30   2.0000      -0.777719       -21.1628
  31   2.0000      -0.748767       -20.3750
  32   2.0000      -0.710728       -19.3399
  33   2.0000      -0.690865       -18.7994
  34   2.0000      -0.687402       -18.7052
  35   2.0000      -0.660140       -17.9633
  36   2.0000      -0.645546       -17.5662
  37   2.0000      -0.631300       -17.1785
  38   2.0000      -0.619580       -16.8596
  39   2.0000      -0.589921       -16.0526
  40   2.0000      -0.569162       -15.4877
  41   2.0000      -0.566416       -15.4130
  42   2.0000      -0.558662       -15.2020
  43   2.0000      -0.544876       -14.8268
  44   2.0000      -0.533121       -14.5070
  45   2.0000      -0.526456       -14.3256
  46   2.0000      -0.522128       -14.2078
  47   2.0000      -0.503153       -13.6915
  48   2.0000      -0.486651       -13.2424
  49   2.0000      -0.480963       -13.0877
  50   2.0000      -0.479307       -13.0426
  51   2.0000      -0.466101       -12.6833
  52   2.0000      -0.448635       -12.2080
  53   2.0000      -0.439216       -11.9517
  54   2.0000      -0.431354       -11.7377
  55   2.0000      -0.426080       -11.5942
  56   2.0000      -0.416878       -11.3438
  57   2.0000      -0.414143       -11.2694
  58   2.0000      -0.412415       -11.2224
  59   2.0000      -0.401546       -10.9266
  60   2.0000      -0.396975       -10.8022
  61   2.0000      -0.392974       -10.6934
  62   2.0000      -0.387261       -10.5379
  63   2.0000      -0.377121       -10.2620
  64   2.0000      -0.373137       -10.1536
  65   2.0000      -0.370222       -10.0742
  66   2.0000      -0.366855        -9.9826
  67   2.0000      -0.240082        -6.5330
  68   0.0000       0.005229         0.1423
  69   0.0000       0.013721         0.3734
  70   0.0000       0.016263         0.4425
  71   0.0000       0.020887         0.5684
  72   0.0000       0.031994         0.8706

MULLIKEN ATOMIC CHARGES
-----------------------
   0 C :   -1.183481
   1 C :   -0.946897
   2 C :   -0.560446
   3 H :    0.283091
   4 H :    0.496907
   5 S :    1.271384
   6 C :    1.284631
   7 N :   -0.653150
   8 C :   -0.560241
   9 H :   -0.354490
  10 H :    0.299745
  11 H :    0.238908
  12 H :    0.220041
  13 F :   -0.241173
  14 O :   -0.713626
  15 C :   -0.082269
  16 C :    0.262799
  17 C :   -0.689437
  18 H :    0.210696
  19 H :    0.422208
  20 H :    0.378968
  21 H :    0.325264
  22 C :   -0.299305
  23 H :    0.433126
  24 H :   -0.114320
  25 C :   -1.201585
  26 H :    0.130248
  27 H :    0.443590
  28 C :   -0.651567
  29 H :    0.389842
  30 H :    0.361582
  31 H :    0.352492
  32 H :   -0.218242
  33 H :    0.391282
  34 H :    0.290699
  35 O :   -0.700871
  36 H :    0.319489
  37 H :    0.364107
Sum of atomic charges:    0.0000000

LOEWDIN ATOMIC CHARGES
----------------------
   0 C :   -0.145931
   1 C :   -0.224022
   2 C :   -0.218090
   3 H :    0.106007
   4 H :    0.123854
   5 S :    0.648226
   6 C :   -0.464876
   7 N :    0.100209
   8 C :    0.009030
   9 H :    0.010207
  10 H :    0.024099
  11 H :    0.094497
  12 H :    0.108536
  13 F :   -0.140689
  14 O :   -0.294475
  15 C :   -0.206526
  16 C :   -0.224496
  17 C :   -0.216634
  18 H :    0.109307
  19 H :    0.122674
  20 H :    0.121777
  21 H :    0.115413
  22 C :   -0.215300
  23 H :    0.121309
  24 H :    0.093448
  25 C :   -0.214490
  26 H :    0.110389
  27 H :    0.117566
  28 C :   -0.218057
  29 H :    0.112044
  30 H :    0.111948
  31 H :    0.133441
  32 H :    0.083668
  33 H :    0.116612
  34 H :    0.111892
  35 O :   -0.259093
  36 H :    0.124825
  37 H :    0.111701

  Mayer bond orders larger than 0.100000
B(  0-C ,  6-C ) :   0.1914 B(  0-C ,  7-N ) :   0.1175 B(  0-C , 15-C ) :   0.5937
B(  0-C , 22-C ) :   0.1156 B(  0-C , 36-H ) :   0.9683 B(  0-C , 37-H ) :   1.0148
B(  1-C ,  2-C ) :   0.7694 B(  1-C ,  5-S ) :   0.1505 B(  1-C , 17-C ) :   0.6179
B(  1-C , 20-H ) :   0.9487 B(  1-C , 21-H ) :   1.0107 B(  2-C ,  3-H ) :   1.0039
B(  2-C ,  4-H ) :   0.7608 B(  2-C ,  5-S ) :   0.8213 B(  5-S ,  8-C ) :   0.1393
B(  5-S , 13-F ) :   1.0304 B(  5-S , 14-O ) :   1.4324 B(  5-S , 35-O ) :   1.3988
B(  6-C ,  7-N ) :   0.5905 B(  6-C ,  8-C ) :   1.0430 B(  6-C ,  9-H ) :   0.3067
B(  6-C , 10-H ) :  -0.3579 B(  6-C , 37-H ) :  -0.2089 B(  7-N , 11-H ) :   1.0080
B(  7-N , 12-H ) :   1.0334 B(  8-C ,  9-H ) :   0.9000 B(  8-C , 10-H ) :   1.2302
B(  9-H , 13-F ) :  -0.1999 B(  9-H , 24-H ) :   0.1135 B( 15-C , 22-C ) :   0.2935
B( 15-C , 23-H ) :   0.8390 B( 15-C , 24-H ) :   1.1198 B( 15-C , 25-C ) :   0.2017
B( 15-C , 26-H ) :  -0.1455 B( 15-C , 28-C ) :   0.1229 B( 16-C , 17-C ) :   0.1113
B( 16-C , 18-H ) :  -0.2047 B( 16-C , 25-C ) :   0.1675 B( 16-C , 28-C ) :   0.2236
B( 16-C , 31-H ) :   0.9043 B( 16-C , 32-H ) :   1.0727 B( 16-C , 34-H ) :  -0.1351
B( 17-C , 18-H ) :   1.1217 B( 17-C , 19-H ) :   0.8434 B( 17-C , 28-C ) :   0.3973
B( 22-C , 24-H ) :  -0.1130 B( 22-C , 25-C ) :   0.5645 B( 22-C , 26-H ) :   1.1661
B( 22-C , 27-H ) :   0.7775 B( 22-C , 28-C ) :  -0.1234 B( 25-C , 28-C ) :   0.5855
B( 25-C , 29-H ) :   0.9624 B( 25-C , 30-H ) :   0.9882 B( 28-C , 33-H ) :   0.8737
B( 28-C , 34-H ) :   1.0460 B( 31-H , 32-H ) :   0.1175

Dispersion correction           -0.002754897
FINAL SINGLE POINT ENERGY     -1135.547299490385

DIPOLE MOMENT
-------------
                                X             Y             Z
Electronic contribution:     -7.70618     -16.93884     -13.59056
Nuclear contribution   :      7.91684      17.85507      15.13212
                        -----------------------------------------
Total Dipole Moment    :      0.21066       0.91623       1.54156
                        -----------------------------------------
Magnitude (a.u.)       :      1.80562
Magnitude (Debye)      :      4.58952

Rotational constants in cm-1:     0.018015     0.012410     0.008313
Rotational constants in MHz :   540.084467   372.038374   249.228144

                             ****ORCA TERMINATED NORMALLY****
TOTAL RUN TIME: 0 days 0 hours 12 minutes 21 seconds 254 msec
