                         Program Version 5.0.0 -  RELEASE  -
|  1> !M062X D3Zero RIJCOSX def2-TZVPD def2/J TightSCF xyzfile
|  2>
|  3> *xyzfile 0 1 D3.xyz
|  4>
|  5> %MaxCore 64000
|  6>
|  7> %pal nprocs 4
|  8> end
|  9>
| 10> %scf
| 11>   MaxIter 150
| 12> end
| 13>
| 14>
| 15>                          ****END OF INPUT****

CARTESIAN COORDINATES (ANGSTROEM)
---------------------------------
  C      5.558206   -1.992914   -6.215054
  C      4.930199   -7.375319   -2.649623
  C      3.841892   -6.951611   -3.632829
  H      3.458144   -5.954425   -3.407121
  H      2.988484   -7.643606   -3.567078
  S      4.318115   -6.915930   -5.368692
  C      4.181880   -2.589671   -6.298911
  C      3.145873   -1.768431   -6.486753
  N      4.019102   -3.864307   -6.227427
  H      4.768490   -4.591153   -5.990773
  H      3.122405   -4.333392   -6.314620
  H      3.281635   -0.777786   -6.566549
  H      2.212549   -2.134193   -6.562246
  O      5.406154   -5.899480   -5.512972
  F      3.111910   -6.445079   -6.043792
  C      6.419260   -2.542944   -5.077630
  C      5.872267   -5.002756   -2.427819
  C      6.173994   -6.485522   -2.606315
  H      6.734852   -6.613767   -3.534015
  H      6.821463   -6.831018   -1.793617
  H      4.469612   -7.406168   -1.655876
  H      5.230134   -8.398678   -2.885906
  C      5.896512   -2.169314   -3.694552
  H      7.428880   -2.143665   -5.208078
  H      6.505894   -3.627541   -5.175502
  C      6.807804   -2.623428   -2.551019
  H      4.894708   -2.589732   -3.557501
  H      5.778823   -1.081255   -3.635790
  C      7.111544   -4.122463   -2.520363
  H      7.751615   -2.071393   -2.614406
  H      6.345837   -2.326401   -1.604086
  H      5.362882   -4.828697   -1.471335
  H      5.174429   -4.702577   -3.211298
  H      7.778329   -4.329347   -1.677651
  H      7.673189   -4.402845   -3.417586
  O      4.763396   -8.239424   -5.698629
  H      6.036826   -2.198189   -7.176852
  H      5.467610   -0.907371   -6.127968

 Total Charge           Charge          ....    0
 Multiplicity           Mult            ....    1
 Number of Electrons    NEL             ....  136
 Basis Dimension        Dim             ....  808

ORBITAL ENERGIES
----------------

  NO   OCC          E(Eh)            E(eV)
   0   2.0000     -90.179818     -2453.9176
   1   2.0000     -25.385343      -690.7703
   2   2.0000     -19.668239      -535.2000
   3   2.0000     -19.660775      -534.9969
   4   2.0000     -14.720644      -400.5691
   5   2.0000     -10.614763      -288.8424
   6   2.0000     -10.574265      -287.7404
   7   2.0000     -10.543701      -286.9087
   8   2.0000     -10.542280      -286.8700
   9   2.0000     -10.534111      -286.6477
  10   2.0000     -10.527981      -286.4809
  11   2.0000     -10.524337      -286.3818
  12   2.0000     -10.519515      -286.2505
  13   2.0000     -10.519024      -286.2372
  14   2.0000     -10.518668      -286.2275
  15   2.0000     -10.449447      -284.3439
  16   2.0000      -8.505192      -231.4381
  17   2.0000      -6.429978      -174.9686
  18   2.0000      -6.424842      -174.8288
  19   2.0000      -6.424644      -174.8234
  20   2.0000      -1.542863       -41.9834
  21   2.0000      -1.258519       -34.2460
  22   2.0000      -1.161178       -31.5973
  23   2.0000      -1.021772       -27.8038
  24   2.0000      -0.951794       -25.8996
  25   2.0000      -0.912952       -24.8427
  26   2.0000      -0.887141       -24.1403
  27   2.0000      -0.858284       -23.3551
  28   2.0000      -0.834759       -22.7149
  29   2.0000      -0.805003       -21.9052
  30   2.0000      -0.781837       -21.2749
  31   2.0000      -0.744263       -20.2524
  32   2.0000      -0.713062       -19.4034
  33   2.0000      -0.710837       -19.3429
  34   2.0000      -0.689803       -18.7705
  35   2.0000      -0.682793       -18.5798
  36   2.0000      -0.663106       -18.0440
  37   2.0000      -0.641549       -17.4574
  38   2.0000      -0.631575       -17.1860
  39   2.0000      -0.599122       -16.3029
  40   2.0000      -0.581717       -15.8293
  41   2.0000      -0.572520       -15.5791
  42   2.0000      -0.557579       -15.1725
  43   2.0000      -0.541970       -14.7478
  44   2.0000      -0.530749       -14.4424
  45   2.0000      -0.527746       -14.3607
  46   2.0000      -0.517096       -14.0709
  47   2.0000      -0.500242       -13.6123
  48   2.0000      -0.491956       -13.3868
  49   2.0000      -0.490202       -13.3391
  50   2.0000      -0.480527       -13.0758
  51   2.0000      -0.468976       -12.7615
  52   2.0000      -0.456295       -12.4164
  53   2.0000      -0.455612       -12.3978
  54   2.0000      -0.439484       -11.9590
  55   2.0000      -0.432903       -11.7799
  56   2.0000      -0.426811       -11.6141
  57   2.0000      -0.420950       -11.4546
  58   2.0000      -0.414041       -11.2666
  59   2.0000      -0.402098       -10.9416
  60   2.0000      -0.396832       -10.7983
  61   2.0000      -0.393833       -10.7167
  62   2.0000      -0.388701       -10.5771
  63   2.0000      -0.378119       -10.2892
  64   2.0000      -0.367539       -10.0012
  65   2.0000      -0.361123        -9.8267
  66   2.0000      -0.358901        -9.7662
  67   2.0000      -0.222386        -6.0514
  68   0.0000      -0.009484        -0.2581
  69   0.0000       0.008496         0.2312
  70   0.0000       0.012744         0.3468
  71   0.0000       0.019980         0.5437
  72   0.0000       0.032019         0.8713

MULLIKEN ATOMIC CHARGES
-----------------------
   0 C :   -1.222087
   1 C :   -0.971339
   2 C :   -0.594804
   3 H :    0.348404
   4 H :    0.480899
   5 S :    1.246631
   6 C :    1.086077
   7 C :   -1.207256
   8 N :   -0.427208
   9 H :    0.325391
  10 H :    0.261600
  11 H :    0.235155
  12 H :    0.247007
  13 O :   -0.783613
  14 F :   -0.177840
  15 C :   -0.199989
  16 C :    0.248570
  17 C :   -0.680213
  18 H :    0.227395
  19 H :    0.440621
  20 H :    0.377589
  21 H :    0.328572
  22 C :   -0.272598
  23 H :    0.432058
  24 H :   -0.007498
  25 C :   -1.171212
  26 H :    0.119110
  27 H :    0.420677
  28 C :   -0.667848
  29 H :    0.389733
  30 H :    0.365835
  31 H :    0.364040
  32 H :   -0.184470
  33 H :    0.400048
  34 H :    0.282438
  35 O :   -0.684396
  36 H :    0.314358
  37 H :    0.310162
Sum of atomic charges:    0.0000000

LOEWDIN ATOMIC CHARGES
----------------------
   0 C :   -0.147003
   1 C :   -0.211399
   2 C :   -0.222112
   3 H :    0.106329
   4 H :    0.116097
   5 S :    0.681320
   6 C :   -0.498114
   7 C :    0.024878
   8 N :    0.091739
   9 H :    0.041707
  10 H :    0.098876
  11 H :    0.005899
  12 H :    0.010216
  13 O :   -0.312055
  14 F :   -0.070019
  15 C :   -0.207165
  16 C :   -0.225665
  17 C :   -0.214963
  18 H :    0.109550
  19 H :    0.122850
  20 H :    0.125422
  21 H :    0.117620
  22 C :   -0.214369
  23 H :    0.120556
  24 H :    0.091055
  25 C :   -0.214975
  26 H :    0.110601
  27 H :    0.119321
  28 C :   -0.216288
  29 H :    0.112035
  30 H :    0.111162
  31 H :    0.131647
  32 H :    0.082160
  33 H :    0.115873
  34 H :    0.113841
  35 O :   -0.246993
  36 H :    0.123509
  37 H :    0.116859

  Mayer bond orders larger than 0.100000
B(  0-C ,  6-C ) :   0.4665 B(  0-C ,  7-C ) :   0.1938 B(  0-C , 15-C ) :   0.5157
B(  0-C , 22-C ) :   0.1044 B(  0-C , 36-H ) :   0.9703 B(  0-C , 37-H ) :   1.0387
B(  1-C ,  2-C ) :   0.7964 B(  1-C ,  5-S ) :   0.1673 B(  1-C , 16-C ) :   0.1150
B(  1-C , 17-C ) :   0.6103 B(  1-C , 20-H ) :   0.9407 B(  1-C , 21-H ) :   0.9781
B(  2-C ,  3-H ) :   0.9009 B(  2-C ,  4-H ) :   0.7771 B(  2-C ,  5-S ) :   0.8116
B(  2-C , 35-O ) :   0.1046 B(  5-S , 13-O ) :   1.6161 B(  5-S , 14-F ) :   0.8585
B(  5-S , 35-O ) :   1.4772 B(  6-C ,  7-C ) :   1.0396 B(  6-C ,  8-N ) :   0.9704
B(  6-C , 11-H ) :  -0.1142 B(  6-C , 12-H ) :  -0.1619 B(  6-C , 22-C ) :   0.1043
B(  6-C , 37-H ) :  -0.1141 B(  7-C ,  8-N ) :   0.1338 B(  7-C , 11-H ) :   1.0990
B(  7-C , 12-H ) :   1.1005 B(  8-N ,  9-H ) :   0.7835 B(  8-N , 10-H ) :   0.9018
B(  8-N , 13-O ) :  -0.1456 B(  8-N , 15-C ) :   0.1680 B( 15-C , 22-C ) :   0.3005
B( 15-C , 23-H ) :   0.8470 B( 15-C , 24-H ) :   1.0992 B( 15-C , 25-C ) :   0.2128
B( 15-C , 26-H ) :  -0.1288 B( 15-C , 28-C ) :   0.1135 B( 16-C , 17-C ) :   0.1905
B( 16-C , 18-H ) :  -0.1645 B( 16-C , 25-C ) :   0.1684 B( 16-C , 28-C ) :   0.2197
B( 16-C , 31-H ) :   0.9002 B( 16-C , 32-H ) :   1.0124 B( 16-C , 34-H ) :  -0.1443
B( 17-C , 18-H ) :   1.0986 B( 17-C , 19-H ) :   0.8290 B( 17-C , 28-C ) :   0.4155
B( 22-C , 24-H ) :  -0.1288 B( 22-C , 25-C ) :   0.5748 B( 22-C , 26-H ) :   1.1607
B( 22-C , 27-H ) :   0.8060 B( 22-C , 28-C ) :  -0.1203 B( 25-C , 28-C ) :   0.5723
B( 25-C , 29-H ) :   0.9557 B( 25-C , 30-H ) :   0.9853 B( 28-C , 33-H ) :   0.8645
B( 28-C , 34-H ) :   1.0563

Dispersion correction           -0.002752994
FINAL SINGLE POINT ENERGY     -1135.551420170175

DIPOLE MOMENT
-------------
                                X             Y             Z
Electronic contribution:    -10.97882     -20.00255     -14.20326
Nuclear contribution   :     10.48431      18.81367      15.71750
                        -----------------------------------------
Total Dipole Moment    :     -0.49450      -1.18888       1.51424
                        -----------------------------------------
Magnitude (a.u.)       :      1.98768
Magnitude (Debye)      :      5.05229

Rotational constants in cm-1:     0.017977     0.012528     0.008321
Rotational constants in MHz :   538.924099   375.570730   249.458530

                             ****ORCA TERMINATED NORMALLY****
TOTAL RUN TIME: 0 days 0 hours 10 minutes 0 seconds 560 msec
