                         Program Version 5.0.0 -  RELEASE  -
|  1> !M062X D3Zero RIJCOSX def2-TZVPD def2/J TightSCF xyzfile
|  2>
|  3> *xyzfile 0 1 D4.xyz
|  4>
|  5> %MaxCore 64000
|  6>
|  7> %pal nprocs 4
|  8> end
|  9>
| 10> %scf
| 11>   MaxIter 150
| 12> end
| 13>
| 14>
| 15>                          ****END OF INPUT****

CARTESIAN COORDINATES (ANGSTROEM)
---------------------------------
  C      5.558206   -1.992914   -6.215054
  C      4.930199   -7.375319   -2.649623
  C      3.841892   -6.951611   -3.632829
  H      3.458144   -5.954425   -3.407121
  H      2.988484   -7.643606   -3.567078
  S      4.318115   -6.915930   -5.368692
  C      4.181880   -2.589671   -6.298911
  N      3.145873   -1.768431   -6.486753
  C      4.019102   -3.864307   -6.227427
  H      4.768490   -4.591153   -5.990773
  H      3.122405   -4.333392   -6.314620
  H      3.281635   -0.777786   -6.566549
  H      2.212549   -2.134193   -6.562246
  O      5.406154   -5.899480   -5.512972
  F      3.111910   -6.445079   -6.043792
  C      6.419260   -2.542944   -5.077630
  C      5.872267   -5.002756   -2.427819
  C      6.173994   -6.485522   -2.606315
  H      6.734852   -6.613767   -3.534015
  H      6.821463   -6.831018   -1.793617
  H      4.469612   -7.406168   -1.655876
  H      5.230134   -8.398678   -2.885906
  C      5.896512   -2.169314   -3.694552
  H      7.428880   -2.143665   -5.208078
  H      6.505894   -3.627541   -5.175502
  C      6.807804   -2.623428   -2.551019
  H      4.894708   -2.589732   -3.557501
  H      5.778823   -1.081255   -3.635790
  C      7.111544   -4.122463   -2.520363
  H      7.751615   -2.071393   -2.614406
  H      6.345837   -2.326401   -1.604086
  H      5.362882   -4.828697   -1.471335
  H      5.174429   -4.702577   -3.211298
  H      7.778329   -4.329347   -1.677651
  H      7.673189   -4.402845   -3.417586
  O      4.763396   -8.239424   -5.698629
  H      6.036826   -2.198189   -7.176852
  H      5.467610   -0.907371   -6.127968

 Total Charge           Charge          ....    0
 Multiplicity           Mult            ....    1
 Number of Electrons    NEL             ....  136
 Basis Dimension        Dim             ....  808

ORBITAL ENERGIES
----------------

  NO   OCC          E(Eh)            E(eV)
   0   2.0000     -90.157115     -2453.2998
   1   2.0000     -25.360495      -690.0941
   2   2.0000     -19.647637      -534.6394
   3   2.0000     -19.630783      -534.1808
   4   2.0000     -14.735006      -400.9599
   5   2.0000     -10.598872      -288.4100
   6   2.0000     -10.562387      -287.4172
   7   2.0000     -10.542252      -286.8692
   8   2.0000     -10.533445      -286.6296
   9   2.0000     -10.525327      -286.4087
  10   2.0000     -10.522857      -286.3415
  11   2.0000     -10.522079      -286.3203
  12   2.0000     -10.520990      -286.2907
  13   2.0000     -10.517097      -286.1848
  14   2.0000     -10.516327      -286.1638
  15   2.0000     -10.439451      -284.0719
  16   2.0000      -8.482284      -230.8147
  17   2.0000      -6.406988      -174.3430
  18   2.0000      -6.402060      -174.2089
  19   2.0000      -6.401831      -174.2027
  20   2.0000      -1.518148       -41.3109
  21   2.0000      -1.235655       -33.6239
  22   2.0000      -1.135124       -30.8883
  23   2.0000      -1.022308       -27.8184
  24   2.0000      -0.937943       -25.5227
  25   2.0000      -0.907954       -24.7067
  26   2.0000      -0.879335       -23.9279
  27   2.0000      -0.854431       -23.2503
  28   2.0000      -0.821005       -22.3407
  29   2.0000      -0.800645       -21.7867
  30   2.0000      -0.773101       -21.0371
  31   2.0000      -0.740675       -20.1548
  32   2.0000      -0.705652       -19.2018
  33   2.0000      -0.687793       -18.7158
  34   2.0000      -0.684052       -18.6140
  35   2.0000      -0.661638       -18.0041
  36   2.0000      -0.650038       -17.6884
  37   2.0000      -0.633002       -17.2249
  38   2.0000      -0.617509       -16.8033
  39   2.0000      -0.589023       -16.0281
  40   2.0000      -0.572200       -15.5704
  41   2.0000      -0.566988       -15.4285
  42   2.0000      -0.551169       -14.9981
  43   2.0000      -0.542282       -14.7562
  44   2.0000      -0.531084       -14.4515
  45   2.0000      -0.519761       -14.1434
  46   2.0000      -0.513892       -13.9837
  47   2.0000      -0.494472       -13.4553
  48   2.0000      -0.482669       -13.1341
  49   2.0000      -0.480734       -13.0814
  50   2.0000      -0.474893       -12.9225
  51   2.0000      -0.458068       -12.4647
  52   2.0000      -0.456061       -12.4101
  53   2.0000      -0.440061       -11.9747
  54   2.0000      -0.430291       -11.7088
  55   2.0000      -0.420068       -11.4306
  56   2.0000      -0.413532       -11.2528
  57   2.0000      -0.410111       -11.1597
  58   2.0000      -0.407288       -11.0829
  59   2.0000      -0.398247       -10.8369
  60   2.0000      -0.387366       -10.5408
  61   2.0000      -0.385255       -10.4833
  62   2.0000      -0.380588       -10.3563
  63   2.0000      -0.364801        -9.9267
  64   2.0000      -0.361483        -9.8364
  65   2.0000      -0.357813        -9.7366
  66   2.0000      -0.337635        -9.1875
  67   2.0000      -0.234064        -6.3692
  68   0.0000      -0.000101        -0.0027
  69   0.0000       0.015878         0.4321
  70   0.0000       0.019413         0.5283
  71   0.0000       0.022080         0.6008
  72   0.0000       0.031546         0.8584

MULLIKEN ATOMIC CHARGES
-----------------------
   0 C :   -1.159556
   1 C :   -0.984805
   2 C :   -0.571734
   3 H :    0.329280
   4 H :    0.482925
   5 S :    1.197639
   6 C :    0.962987
   7 N :   -0.649588
   8 C :   -0.196559
   9 H :   -0.361708
  10 H :    0.244476
  11 H :    0.238675
  12 H :    0.212808
  13 O :   -0.754646
  14 F :   -0.146857
  15 C :   -0.134455
  16 C :    0.230097
  17 C :   -0.682714
  18 H :    0.231580
  19 H :    0.441121
  20 H :    0.370421
  21 H :    0.326983
  22 C :   -0.287411
  23 H :    0.438405
  24 H :   -0.065436
  25 C :   -1.201245
  26 H :    0.119401
  27 H :    0.447113
  28 C :   -0.660747
  29 H :    0.388376
  30 H :    0.358922
  31 H :    0.359842
  32 H :   -0.190986
  33 H :    0.397117
  34 H :    0.293370
  35 O :   -0.703018
  36 H :    0.314814
  37 H :    0.365114
Sum of atomic charges:   -0.0000000

LOEWDIN ATOMIC CHARGES
----------------------
   0 C :   -0.144615
   1 C :   -0.213304
   2 C :   -0.223586
   3 H :    0.105164
   4 H :    0.113915
   5 S :    0.670499
   6 C :   -0.468171
   7 N :    0.094535
   8 C :   -0.001230
   9 H :   -0.017949
  10 H :    0.023222
  11 H :    0.092879
  12 H :    0.104742
  13 O :   -0.326209
  14 F :   -0.077281
  15 C :   -0.202352
  16 C :   -0.224951
  17 C :   -0.215637
  18 H :    0.109720
  19 H :    0.121388
  20 H :    0.123375
  21 H :    0.116675
  22 C :   -0.215911
  23 H :    0.120674
  24 H :    0.096774
  25 C :   -0.215578
  26 H :    0.109726
  27 H :    0.115871
  28 C :   -0.216102
  29 H :    0.111141
  30 H :    0.110518
  31 H :    0.130530
  32 H :    0.083865
  33 H :    0.115279
  34 H :    0.114421
  35 O :   -0.257451
  36 H :    0.125025
  37 H :    0.110391

  Mayer bond orders larger than 0.100000
B(  0-C ,  6-C ) :   0.2210 B(  0-C ,  7-N ) :   0.1134 B(  0-C ,  8-C ) :  -0.1055
B(  0-C , 15-C ) :   0.5906 B(  0-C , 22-C ) :   0.1191 B(  0-C , 36-H ) :   0.9673
B(  0-C , 37-H ) :   1.0217 B(  1-C ,  2-C ) :   0.7981 B(  1-C ,  5-S ) :   0.1781
B(  1-C , 16-C ) :   0.1100 B(  1-C , 17-C ) :   0.6008 B(  1-C , 20-H ) :   0.9464
B(  1-C , 21-H ) :   0.9793 B(  2-C ,  3-H ) :   0.9151 B(  2-C ,  4-H ) :   0.7865
B(  2-C ,  5-S ) :   0.7973 B(  2-C , 35-O ) :   0.1161 B(  5-S ,  8-C ) :   0.1058
B(  5-S , 13-O ) :   1.6778 B(  5-S , 14-F ) :   0.8532 B(  5-S , 35-O ) :   1.4595
B(  6-C ,  7-N ) :   0.5861 B(  6-C ,  8-C ) :   1.3454 B(  6-C ,  9-H ) :   0.5656
B(  6-C , 10-H ) :  -0.2637 B(  6-C , 37-H ) :  -0.2163 B(  7-N , 11-H ) :   1.0097
B(  7-N , 12-H ) :   1.0392 B(  8-C ,  9-H ) :   0.5911 B(  8-C , 10-H ) :   1.1943
B(  8-C , 24-H ) :  -0.1106 B(  9-H , 13-O ) :  -0.3219 B(  9-H , 24-H ) :   0.1632
B( 15-C , 22-C ) :   0.2751 B( 15-C , 23-H ) :   0.8339 B( 15-C , 24-H ) :   1.1249
B( 15-C , 25-C ) :   0.2061 B( 15-C , 26-H ) :  -0.1366 B( 15-C , 28-C ) :   0.1224
B( 16-C , 17-C ) :   0.1857 B( 16-C , 18-H ) :  -0.1583 B( 16-C , 25-C ) :   0.1655
B( 16-C , 28-C ) :   0.2099 B( 16-C , 31-H ) :   0.9036 B( 16-C , 32-H ) :   1.0518
B( 16-C , 34-H ) :  -0.1418 B( 17-C , 18-H ) :   1.0945 B( 17-C , 19-H ) :   0.8311
B( 17-C , 28-C ) :   0.4207 B( 22-C , 24-H ) :  -0.1216 B( 22-C , 25-C ) :   0.5604
B( 22-C , 26-H ) :   1.1658 B( 22-C , 27-H ) :   0.7792 B( 22-C , 28-C ) :  -0.1276
B( 25-C , 28-C ) :   0.5728 B( 25-C , 29-H ) :   0.9614 B( 25-C , 30-H ) :   0.9879
B( 28-C , 33-H ) :   0.8686 B( 28-C , 34-H ) :   1.0469 B( 31-H , 32-H ) :   0.1003

Dispersion correction           -0.002726118
FINAL SINGLE POINT ENERGY     -1135.538885627402

DIPOLE MOMENT
-------------
                                X             Y             Z
Electronic contribution:    -11.69054     -18.15731     -14.61820
Nuclear contribution   :     10.61624      18.49702      15.75668
                        -----------------------------------------
Total Dipole Moment    :     -1.07429       0.33971       1.13847
                        -----------------------------------------
Magnitude (a.u.)       :      1.60176
Magnitude (Debye)      :      4.07135

Rotational constants in cm-1:     0.017796     0.012372     0.008231
Rotational constants in MHz :   533.524905   370.895973   246.762347

                             ****ORCA TERMINATED NORMALLY****
TOTAL RUN TIME: 0 days 0 hours 10 minutes 6 seconds 701 msec
