                         Program Version 5.0.0 -  RELEASE  -
|  1> !M062X D3Zero RIJCOSX def2-TZVPD def2/J TightSCF xyzfile
|  2>
|  3> *xyzfile 0 1 D5.xyz
|  4>
|  5> %MaxCore 64000
|  6>
|  7> %pal nprocs 4
|  8> end
|  9>
| 10> %scf
| 11>   MaxIter 150
| 12> end
| 13>
| 14>
| 15>                          ****END OF INPUT****

CARTESIAN COORDINATES (ANGSTROEM)
---------------------------------
  C      5.558206   -1.992914   -6.215054
  C      4.930199   -7.375319   -2.649623
  C      3.841892   -6.951611   -3.632829
  H      3.458144   -5.954425   -3.407121
  H      2.988484   -7.643606   -3.567078
  S      4.318115   -6.915930   -5.368692
  C      4.181880   -2.589671   -6.298911
  C      3.145873   -1.768431   -6.486753
  N      4.019102   -3.864307   -6.227427
  H      4.768490   -4.591153   -5.990773
  H      3.122405   -4.333392   -6.314620
  H      3.281635   -0.777786   -6.566549
  H      2.212549   -2.134193   -6.562246
  O      5.406154   -5.899480   -5.512972
  O      3.111910   -6.445079   -6.043792
  C      6.419260   -2.542944   -5.077630
  C      5.872267   -5.002756   -2.427819
  C      6.173994   -6.485522   -2.606315
  H      6.734852   -6.613767   -3.534015
  H      6.821463   -6.831018   -1.793617
  H      4.469612   -7.406168   -1.655876
  H      5.230134   -8.398678   -2.885906
  C      5.896512   -2.169314   -3.694552
  H      7.428880   -2.143665   -5.208078
  H      6.505894   -3.627541   -5.175502
  C      6.807804   -2.623428   -2.551019
  H      4.894708   -2.589732   -3.557501
  H      5.778823   -1.081255   -3.635790
  C      7.111544   -4.122463   -2.520363
  H      7.751615   -2.071393   -2.614406
  H      6.345837   -2.326401   -1.604086
  H      5.362882   -4.828697   -1.471335
  H      5.174429   -4.702577   -3.211298
  H      7.778329   -4.329347   -1.677651
  H      7.673189   -4.402845   -3.417586
  F      4.763396   -8.239424   -5.698629
  H      6.036826   -2.198189   -7.176852
  H      5.467610   -0.907371   -6.127968

 Total Charge           Charge          ....    0
 Multiplicity           Mult            ....    1
 Number of Electrons    NEL             ....  136
 Basis Dimension        Dim             ....  808

ORBITAL ENERGIES
----------------

  NO   OCC          E(Eh)            E(eV)
   0   2.0000     -90.183861     -2454.0276
   1   2.0000     -25.397661      -691.1055
   2   2.0000     -19.662891      -535.0545
   3   2.0000     -19.662851      -535.0534
   4   2.0000     -14.703070      -400.0909
   5   2.0000     -10.616470      -288.8888
   6   2.0000     -10.576946      -287.8133
   7   2.0000     -10.547752      -287.0189
   8   2.0000     -10.535223      -286.6780
   9   2.0000     -10.530021      -286.5364
  10   2.0000     -10.528101      -286.4842
  11   2.0000     -10.522666      -286.3363
  12   2.0000     -10.515094      -286.1302
  13   2.0000     -10.514686      -286.1191
  14   2.0000     -10.511276      -286.0264
  15   2.0000     -10.437187      -284.0103
  16   2.0000      -8.509115      -231.5448
  17   2.0000      -6.433892      -175.0751
  18   2.0000      -6.428828      -174.9373
  19   2.0000      -6.428510      -174.9287
  20   2.0000      -1.562617       -42.5210
  21   2.0000      -1.252986       -34.0955
  22   2.0000      -1.153438       -31.3866
  23   2.0000      -1.005960       -27.3736
  24   2.0000      -0.956061       -26.0157
  25   2.0000      -0.912199       -24.8222
  26   2.0000      -0.886004       -24.1094
  27   2.0000      -0.857480       -23.3332
  28   2.0000      -0.835948       -22.7473
  29   2.0000      -0.802510       -21.8374
  30   2.0000      -0.778840       -21.1933
  31   2.0000      -0.742229       -20.1971
  32   2.0000      -0.723588       -19.6898
  33   2.0000      -0.720885       -19.6163
  34   2.0000      -0.695400       -18.9228
  35   2.0000      -0.678374       -18.4595
  36   2.0000      -0.656669       -17.8689
  37   2.0000      -0.637563       -17.3490
  38   2.0000      -0.625851       -17.0303
  39   2.0000      -0.590965       -16.0810
  40   2.0000      -0.584995       -15.9185
  41   2.0000      -0.576153       -15.6779
  42   2.0000      -0.556332       -15.1386
  43   2.0000      -0.540482       -14.7073
  44   2.0000      -0.530415       -14.4333
  45   2.0000      -0.522455       -14.2167
  46   2.0000      -0.512125       -13.9356
  47   2.0000      -0.500583       -13.6215
  48   2.0000      -0.489797       -13.3280
  49   2.0000      -0.487746       -13.2722
  50   2.0000      -0.474194       -12.9035
  51   2.0000      -0.465437       -12.6652
  52   2.0000      -0.456684       -12.4270
  53   2.0000      -0.444597       -12.0981
  54   2.0000      -0.440401       -11.9839
  55   2.0000      -0.425926       -11.5900
  56   2.0000      -0.421936       -11.4815
  57   2.0000      -0.413664       -11.2564
  58   2.0000      -0.413317       -11.2469
  59   2.0000      -0.403914       -10.9911
  60   2.0000      -0.392122       -10.6702
  61   2.0000      -0.389826       -10.6077
  62   2.0000      -0.385446       -10.4885
  63   2.0000      -0.374299       -10.1852
  64   2.0000      -0.365195        -9.9375
  65   2.0000      -0.355131        -9.6636
  66   2.0000      -0.352536        -9.5930
  67   2.0000      -0.208706        -5.6792
  68   0.0000      -0.014082        -0.3832
  69   0.0000       0.006387         0.1738
  70   0.0000       0.013124         0.3571
  71   0.0000       0.019156         0.5213
  72   0.0000       0.028503         0.7756

MULLIKEN ATOMIC CHARGES
-----------------------
   0 C :   -1.222814
   1 C :   -0.912594
   2 C :   -0.620261
   3 H :    0.294469
   4 H :    0.491059
   5 S :    1.272569
   6 C :    1.119842
   7 C :   -1.200179
   8 N :   -0.382401
   9 H :    0.213384
  10 H :    0.274783
  11 H :    0.232653
  12 H :    0.253526
  13 O :   -0.774243
  14 O :   -0.749596
  15 C :   -0.205487
  16 C :    0.261248
  17 C :   -0.634955
  18 H :    0.184477
  19 H :    0.443703
  20 H :    0.379997
  21 H :    0.338137
  22 C :   -0.276192
  23 H :    0.431099
  24 H :   -0.001068
  25 C :   -1.166438
  26 H :    0.122256
  27 H :    0.419262
  28 C :   -0.681922
  29 H :    0.389236
  30 H :    0.365703
  31 H :    0.364875
  32 H :   -0.213106
  33 H :    0.397784
  34 H :    0.287125
  35 F :   -0.114497
  36 H :    0.312889
  37 H :    0.305677
Sum of atomic charges:   -0.0000000

LOEWDIN ATOMIC CHARGES
----------------------
   0 C :   -0.149083
   1 C :   -0.222763
   2 C :   -0.213047
   3 H :    0.117258
   4 H :    0.117032
   5 S :    0.690888
   6 C :   -0.499713
   7 C :    0.021008
   8 N :    0.101475
   9 H :    0.044569
  10 H :    0.096662
  11 H :    0.002914
  12 H :    0.009949
  13 O :   -0.315708
  14 O :   -0.283352
  15 C :   -0.208593
  16 C :   -0.223976
  17 C :   -0.220481
  18 H :    0.105324
  19 H :    0.122111
  20 H :    0.123875
  21 H :    0.112575
  22 C :   -0.213973
  23 H :    0.119522
  24 H :    0.089996
  25 C :   -0.215250
  26 H :    0.111269
  27 H :    0.119443
  28 C :   -0.216832
  29 H :    0.111847
  30 H :    0.111020
  31 H :    0.132299
  32 H :    0.084013
  33 H :    0.115398
  34 H :    0.113337
  35 F :   -0.029256
  36 H :    0.122391
  37 H :    0.115851

  Mayer bond orders larger than 0.100000
B(  0-C ,  6-C ) :   0.4721 B(  0-C ,  7-C ) :   0.1951 B(  0-C , 15-C ) :   0.5188
B(  0-C , 22-C ) :   0.1082 B(  0-C , 36-H ) :   0.9689 B(  0-C , 37-H ) :   1.0418
B(  1-C ,  2-C ) :   0.6703 B(  1-C ,  5-S ) :   0.1075 B(  1-C , 16-C ) :   0.1380
B(  1-C , 17-C ) :   0.5779 B(  1-C , 20-H ) :   0.9517 B(  1-C , 21-H ) :   0.9687
B(  2-C ,  3-H ) :   0.9818 B(  2-C ,  4-H ) :   0.7853 B(  2-C ,  5-S ) :   0.8198
B(  2-C , 14-O ) :   0.1003 B(  5-S , 13-O ) :   1.6677 B(  5-S , 14-O ) :   1.4997
B(  5-S , 35-F ) :   0.8664 B(  6-C ,  7-C ) :   1.0591 B(  6-C ,  8-N ) :   0.8928
B(  6-C ,  9-H ) :  -0.1117 B(  6-C , 11-H ) :  -0.1261 B(  6-C , 12-H ) :  -0.1454
B(  6-C , 22-C ) :   0.1018 B(  6-C , 37-H ) :  -0.1148 B(  7-C ,  8-N ) :   0.1360
B(  7-C , 11-H ) :   1.1112 B(  7-C , 12-H ) :   1.0815 B(  8-N ,  9-H ) :   0.8649
B(  8-N , 10-H ) :   0.9365 B(  8-N , 13-O ) :  -0.1579 B(  8-N , 15-C ) :   0.1669
B( 15-C , 22-C ) :   0.2970 B( 15-C , 23-H ) :   0.8453 B( 15-C , 24-H ) :   1.1029
B( 15-C , 25-C ) :   0.2151 B( 15-C , 26-H ) :  -0.1261 B( 15-C , 28-C ) :   0.1146
B( 16-C , 17-C ) :   0.2213 B( 16-C , 18-H ) :  -0.1645 B( 16-C , 25-C ) :   0.1632
B( 16-C , 28-C ) :   0.2213 B( 16-C , 31-H ) :   0.8957 B( 16-C , 32-H ) :   1.0095
B( 16-C , 34-H ) :  -0.1331 B( 17-C , 18-H ) :   1.1113 B( 17-C , 19-H ) :   0.8302
B( 17-C , 28-C ) :   0.4229 B( 22-C , 24-H ) :  -0.1256 B( 22-C , 25-C ) :   0.5686
B( 22-C , 26-H ) :   1.1591 B( 22-C , 27-H ) :   0.8067 B( 22-C , 28-C ) :  -0.1194
B( 25-C , 28-C ) :   0.5796 B( 25-C , 29-H ) :   0.9572 B( 25-C , 30-H ) :   0.9838
B( 28-C , 33-H ) :   0.8658 B( 28-C , 34-H ) :   1.0496 B( 31-H , 32-H ) :   0.1051

Dispersion correction           -0.002768656
FINAL SINGLE POINT ENERGY     -1135.542831892933

DIPOLE MOMENT
-------------
                                X             Y             Z
Electronic contribution:     -8.08551     -23.36342     -13.58643
Nuclear contribution   :      8.54118      20.92489      15.31138
                        -----------------------------------------
Total Dipole Moment    :      0.45567      -2.43853       1.72495
                        -----------------------------------------
Magnitude (a.u.)       :      3.02151
Magnitude (Debye)      :      7.68006

Rotational constants in cm-1:     0.018156     0.012306     0.008278
Rotational constants in MHz :   544.309022   368.914527   248.178402

                             ****ORCA TERMINATED NORMALLY****
TOTAL RUN TIME: 0 days 0 hours 10 minutes 4 seconds 869 msec
