                         Program Version 5.0.0 -  RELEASE  -
|  1> !M062X D3Zero RIJCOSX def2-TZVPD def2/J TightSCF xyzfile
|  2>
|  3> *xyzfile 0 1 D6.xyz
|  4>
|  5> %MaxCore 64000
|  6>
|  7> %pal nprocs 4
|  8> end
|  9>
| 10> %scf
| 11>   MaxIter 150
| 12> end
| 13>
| 14>
| 15>                          ****END OF INPUT****

CARTESIAN COORDINATES (ANGSTROEM)
---------------------------------
  C      5.558206   -1.992914   -6.215054
  C      4.930199   -7.375319   -2.649623
  C      3.841892   -6.951611   -3.632829
  H      3.458144   -5.954425   -3.407121
  H      2.988484   -7.643606   -3.567078
  S      4.318115   -6.915930   -5.368692
  C      4.181880   -2.589671   -6.298911
  N      3.145873   -1.768431   -6.486753
  C      4.019102   -3.864307   -6.227427
  H      4.768490   -4.591153   -5.990773
  H      3.122405   -4.333392   -6.314620
  H      3.281635   -0.777786   -6.566549
  H      2.212549   -2.134193   -6.562246
  O      5.406154   -5.899480   -5.512972
  O      3.111910   -6.445079   -6.043792
  C      6.419260   -2.542944   -5.077630
  C      5.872267   -5.002756   -2.427819
  C      6.173994   -6.485522   -2.606315
  H      6.734852   -6.613767   -3.534015
  H      6.821463   -6.831018   -1.793617
  H      4.469612   -7.406168   -1.655876
  H      5.230134   -8.398678   -2.885906
  C      5.896512   -2.169314   -3.694552
  H      7.428880   -2.143665   -5.208078
  H      6.505894   -3.627541   -5.175502
  C      6.807804   -2.623428   -2.551019
  H      4.894708   -2.589732   -3.557501
  H      5.778823   -1.081255   -3.635790
  C      7.111544   -4.122463   -2.520363
  H      7.751615   -2.071393   -2.614406
  H      6.345837   -2.326401   -1.604086
  H      5.362882   -4.828697   -1.471335
  H      5.174429   -4.702577   -3.211298
  H      7.778329   -4.329347   -1.677651
  H      7.673189   -4.402845   -3.417586
  F      4.763396   -8.239424   -5.698629
  H      6.036826   -2.198189   -7.176852
  H      5.467610   -0.907371   -6.127968

 Total Charge           Charge          ....    0
 Multiplicity           Mult            ....    1
 Number of Electrons    NEL             ....  136
 Basis Dimension        Dim             ....  808

ORBITAL ENERGIES
----------------

  NO   OCC          E(Eh)            E(eV)
   0   2.0000     -90.159500     -2453.3647
   1   2.0000     -25.376529      -690.5304
   2   2.0000     -19.639109      -534.4073
   3   2.0000     -19.634920      -534.2933
   4   2.0000     -14.722722      -400.6256
   5   2.0000     -10.599938      -288.4390
   6   2.0000     -10.564838      -287.4839
   7   2.0000     -10.537280      -286.7340
   8   2.0000     -10.527325      -286.4631
   9   2.0000     -10.526268      -286.4343
  10   2.0000     -10.521987      -286.3178
  11   2.0000     -10.519094      -286.2391
  12   2.0000     -10.514531      -286.1149
  13   2.0000     -10.512358      -286.0558
  14   2.0000     -10.511839      -286.0417
  15   2.0000     -10.423732      -283.6442
  16   2.0000      -8.484714      -230.8808
  17   2.0000      -6.409630      -174.4149
  18   2.0000      -6.404405      -174.2727
  19   2.0000      -6.404066      -174.2635
  20   2.0000      -1.541923       -41.9579
  21   2.0000      -1.227603       -33.4048
  22   2.0000      -1.127506       -30.6810
  23   2.0000      -1.009833       -27.4789
  24   2.0000      -0.941810       -25.6279
  25   2.0000      -0.906184       -24.6585
  26   2.0000      -0.876809       -23.8592
  27   2.0000      -0.853606       -23.2278
  28   2.0000      -0.824001       -22.4222
  29   2.0000      -0.797916       -21.7124
  30   2.0000      -0.771055       -20.9815
  31   2.0000      -0.737594       -20.0709
  32   2.0000      -0.708811       -19.2877
  33   2.0000      -0.700386       -19.0585
  34   2.0000      -0.693780       -18.8787
  35   2.0000      -0.670346       -18.2410
  36   2.0000      -0.640590       -17.4314
  37   2.0000      -0.630390       -17.1538
  38   2.0000      -0.609150       -16.5758
  39   2.0000      -0.578446       -15.7403
  40   2.0000      -0.572422       -15.5764
  41   2.0000      -0.563488       -15.3333
  42   2.0000      -0.546563       -14.8727
  43   2.0000      -0.540583       -14.7100
  44   2.0000      -0.535022       -14.5587
  45   2.0000      -0.519040       -14.1238
  46   2.0000      -0.513863       -13.9829
  47   2.0000      -0.488465       -13.2918
  48   2.0000      -0.485968       -13.2239
  49   2.0000      -0.479236       -13.0407
  50   2.0000      -0.477948       -13.0056
  51   2.0000      -0.455721       -12.4008
  52   2.0000      -0.440617       -11.9898
  53   2.0000      -0.433499       -11.7961
  54   2.0000      -0.421784       -11.4773
  55   2.0000      -0.416616       -11.3367
  56   2.0000      -0.410268       -11.1640
  57   2.0000      -0.403946       -10.9919
  58   2.0000      -0.399109       -10.8603
  59   2.0000      -0.392960       -10.6930
  60   2.0000      -0.387026       -10.5315
  61   2.0000      -0.380685       -10.3590
  62   2.0000      -0.376029       -10.2323
  63   2.0000      -0.362814        -9.8727
  64   2.0000      -0.358550        -9.7566
  65   2.0000      -0.353225        -9.6117
  66   2.0000      -0.333487        -9.0746
  67   2.0000      -0.219847        -5.9823
  68   0.0000      -0.004240        -0.1154
  69   0.0000       0.013446         0.3659
  70   0.0000       0.020829         0.5668
  71   0.0000       0.023293         0.6338
  72   0.0000       0.034535         0.9397

MULLIKEN ATOMIC CHARGES
-----------------------
   0 C :   -1.155471
   1 C :   -0.924791
   2 C :   -0.587636
   3 H :    0.275280
   4 H :    0.486162
   5 S :    1.202715
   6 C :    1.137373
   7 N :   -0.651262
   8 C :   -0.259039
   9 H :   -0.461567
  10 H :    0.240899
  11 H :    0.236657
  12 H :    0.217302
  13 O :   -0.757297
  14 O :   -0.716897
  15 C :   -0.127959
  16 C :    0.247897
  17 C :   -0.646308
  18 H :    0.193062
  19 H :    0.443136
  20 H :    0.373462
  21 H :    0.334520
  22 C :   -0.292456
  23 H :    0.439658
  24 H :   -0.073258
  25 C :   -1.199046
  26 H :    0.123897
  27 H :    0.448933
  28 C :   -0.672639
  29 H :    0.387728
  30 H :    0.358265
  31 H :    0.360659
  32 H :   -0.229615
  33 H :    0.395200
  34 H :    0.297335
  35 F :   -0.120245
  36 H :    0.310149
  37 H :    0.365200
Sum of atomic charges:    0.0000000

LOEWDIN ATOMIC CHARGES
----------------------
   0 C :   -0.147552
   1 C :   -0.224634
   2 C :   -0.215398
   3 H :    0.115700
   4 H :    0.114611
   5 S :    0.677697
   6 C :   -0.470026
   7 N :    0.090622
   8 C :    0.007403
   9 H :   -0.013531
  10 H :    0.023318
  11 H :    0.090223
  12 H :    0.104562
  13 O :   -0.327294
  14 O :   -0.290219
  15 C :   -0.204245
  16 C :   -0.223344
  17 C :   -0.221307
  18 H :    0.105323
  19 H :    0.120613
  20 H :    0.121816
  21 H :    0.111599
  22 C :   -0.215631
  23 H :    0.119517
  24 H :    0.095422
  25 C :   -0.215953
  26 H :    0.110260
  27 H :    0.115974
  28 C :   -0.216692
  29 H :    0.110916
  30 H :    0.110326
  31 H :    0.131173
  32 H :    0.085540
  33 H :    0.114781
  34 H :    0.113894
  35 F :   -0.038031
  36 H :    0.123338
  37 H :    0.109228

  Mayer bond orders larger than 0.100000
B(  0-C ,  6-C ) :   0.1946 B(  0-C ,  7-N ) :   0.1081 B(  0-C , 15-C ) :   0.5883
B(  0-C , 22-C ) :   0.1212 B(  0-C , 36-H ) :   0.9654 B(  0-C , 37-H ) :   1.0214
B(  1-C ,  2-C ) :   0.6742 B(  1-C ,  5-S ) :   0.1117 B(  1-C , 16-C ) :   0.1311
B(  1-C , 17-C ) :   0.5716 B(  1-C , 20-H ) :   0.9568 B(  1-C , 21-H ) :   0.9738
B(  2-C ,  3-H ) :   0.9959 B(  2-C ,  4-H ) :   0.7972 B(  2-C ,  5-S ) :   0.8095
B(  2-C , 14-O ) :   0.1008 B(  2-C , 17-C ) :  -0.1006 B(  5-S , 13-O ) :   1.7358
B(  5-S , 14-O ) :   1.4928 B(  5-S , 35-F ) :   0.8534 B(  6-C ,  7-N ) :   0.5937
B(  6-C ,  8-C ) :   1.1241 B(  6-C ,  9-H ) :   0.4506 B(  6-C , 10-H ) :  -0.3593
B(  6-C , 37-H ) :  -0.2179 B(  7-N , 11-H ) :   1.0117 B(  7-N , 12-H ) :   1.0348
B(  8-C ,  9-H ) :   0.6815 B(  8-C , 10-H ) :   1.2668 B(  8-C , 24-H ) :  -0.1073
B(  9-H , 13-O ) :  -0.3010 B(  9-H , 24-H ) :   0.1563 B( 15-C , 22-C ) :   0.2771
B( 15-C , 23-H ) :   0.8332 B( 15-C , 24-H ) :   1.1239 B( 15-C , 25-C ) :   0.2065
B( 15-C , 26-H ) :  -0.1328 B( 15-C , 28-C ) :   0.1231 B( 16-C , 17-C ) :   0.2116
B( 16-C , 18-H ) :  -0.1571 B( 16-C , 25-C ) :   0.1608 B( 16-C , 28-C ) :   0.2109
B( 16-C , 31-H ) :   0.9012 B( 16-C , 32-H ) :   1.0466 B( 16-C , 34-H ) :  -0.1308
B( 17-C , 18-H ) :   1.1045 B( 17-C , 19-H ) :   0.8330 B( 17-C , 28-C ) :   0.4302
B( 22-C , 24-H ) :  -0.1196 B( 22-C , 25-C ) :   0.5515 B( 22-C , 26-H ) :   1.1647
B( 22-C , 27-H ) :   0.7772 B( 22-C , 28-C ) :  -0.1259 B( 25-C , 28-C ) :   0.5789
B( 25-C , 29-H ) :   0.9635 B( 25-C , 30-H ) :   0.9878 B( 28-C , 33-H ) :   0.8700
B( 28-C , 34-H ) :   1.0413 B( 31-H , 32-H ) :   0.1059

Dispersion correction           -0.002742820
FINAL SINGLE POINT ENERGY     -1135.526250680784

DIPOLE MOMENT
-------------
                                X             Y             Z
Electronic contribution:     -8.81253     -21.52187     -14.01701
Nuclear contribution   :      8.67311      20.60825      15.35056
                        -----------------------------------------
Total Dipole Moment    :     -0.13942      -0.91362       1.33355
                        -----------------------------------------
Magnitude (a.u.)       :      1.62249
Magnitude (Debye)      :      4.12405

Rotational constants in cm-1:     0.017976     0.012151     0.008188
Rotational constants in MHz :   538.898457   364.286417   245.482451

                             ****ORCA TERMINATED NORMALLY****
TOTAL RUN TIME: 0 days 0 hours 9 minutes 54 seconds 737 msec
