                         Program Version 5.0.0 -  RELEASE  -
|  1> !wB97X-D3 RIJCOSX def2-TZVP def2/J TightSCF
|  2> *xyz -1 1
|  3> C         -0.98480        1.28474       -2.92869
|  4> C         -0.10608        1.76991       -4.08984
|  5> H         -0.34774        2.82220       -4.26294
|  6> H          0.94968        1.74588       -3.80878
|  7> C         -0.25875        1.00432       -5.40983
|  8> C          0.39596       -0.37070       -5.33994
|  9> H          0.23915        1.56939       -6.20125
| 10> H         -1.30936        0.88869       -5.68245
| 11> O         -0.32633       -1.39040       -5.49128
| 12> O          1.61941       -0.40073       -5.03683
| 13> H         -2.01317        1.31546       -3.22263
| 14> H         -0.83724        1.91975       -2.08023
| 15> H         -0.71656        0.28077       -2.67373
| 16> *
| 17> %MaxCore 64000
| 18>
| 19> %pal nprocs 18
| 20> end
| 21>
| 22> %scf
| 23>   MaxIter 150
| 24> end
| 25>
| 26>
| 27>                          ****END OF INPUT****

CARTESIAN COORDINATES (ANGSTROEM)
---------------------------------
  C     -0.984800    1.284740   -2.928690
  C     -0.106080    1.769910   -4.089840
  H     -0.347740    2.822200   -4.262940
  H      0.949680    1.745880   -3.808780
  C     -0.258750    1.004320   -5.409830
  C      0.395960   -0.370700   -5.339940
  H      0.239150    1.569390   -6.201250
  H     -1.309360    0.888690   -5.682450
  O     -0.326330   -1.390400   -5.491280
  O      1.619410   -0.400730   -5.036830
  H     -2.013170    1.315460   -3.222630
  H     -0.837240    1.919750   -2.080230
  H     -0.716560    0.280770   -2.673730

 Total Charge           Charge          ....   -1
 Multiplicity           Mult            ....    1
 Number of Electrons    NEL             ....   48
 Basis Dimension        Dim             ....  228

ORBITAL ENERGIES
----------------

  NO   OCC          E(Eh)            E(eV)
   0   2.0000     -18.955169      -515.7964
   1   2.0000     -18.954186      -515.7696
   2   2.0000     -10.152155      -276.2542
   3   2.0000     -10.123499      -275.4744
   4   2.0000     -10.121868      -275.4300
   5   2.0000     -10.098557      -274.7957
   6   2.0000      -0.927799       -25.2467
   7   2.0000      -0.831636       -22.6300
   8   2.0000      -0.752940       -20.4885
   9   2.0000      -0.657601       -17.8942
  10   2.0000      -0.554406       -15.0862
  11   2.0000      -0.431802       -11.7499
  12   2.0000      -0.403864       -10.9897
  13   2.0000      -0.387163       -10.5352
  14   2.0000      -0.356223        -9.6933
  15   2.0000      -0.330482        -8.9929
  16   2.0000      -0.311133        -8.4664
  17   2.0000      -0.300117        -8.1666
  18   2.0000      -0.283452        -7.7131
  19   2.0000      -0.265464        -7.2236
  20   2.0000      -0.251728        -6.8499
  21   2.0000      -0.133535        -3.6337
  22   2.0000      -0.130123        -3.5408
  23   2.0000      -0.115455        -3.1417
  24   0.0000       0.247143         6.7251
  25   0.0000       0.283568         7.7163
  26   0.0000       0.300973         8.1899
  27   0.0000       0.317437         8.6379
  28   0.0000       0.324601         8.8328

MULLIKEN ATOMIC CHARGES
-----------------------
   0 C :   -0.335041
   1 C :   -0.150521
   2 H :    0.033705
   3 H :    0.093401
   4 C :   -0.114977
   5 C :    0.241359
   6 H :    0.044787
   7 H :    0.037992
   8 O :   -0.562825
   9 O :   -0.568000
  10 H :    0.075331
  11 H :    0.069779
  12 H :    0.135009
Sum of atomic charges:   -1.0000000

LOEWDIN ATOMIC CHARGES
----------------------
   0 C :   -0.313121
   1 C :   -0.300638
   2 H :    0.110774
   3 H :    0.133067
   4 C :   -0.266099
   5 C :   -0.686998
   6 H :    0.125708
   7 H :    0.120792
   8 O :   -0.122894
   9 O :   -0.125852
  10 H :    0.105171
  11 H :    0.099066
  12 H :    0.121025

  Mayer bond orders larger than 0.100000
B(  0-C ,  1-C ) :   0.9834 B(  0-C , 10-H ) :   0.9802 B(  0-C , 11-H ) :   0.9832
B(  0-C , 12-H ) :   0.9778 B(  1-C ,  2-H ) :   0.9718 B(  1-C ,  3-H ) :   0.9676
B(  1-C ,  4-C ) :   0.9732 B(  4-C ,  5-C ) :   0.9376 B(  4-C ,  6-H ) :   0.9562
B(  4-C ,  7-H ) :   0.9652 B(  5-C ,  8-O ) :   1.8627 B(  5-C ,  9-O ) :   1.8010

Dispersion correction           -0.003300744
FINAL SINGLE POINT ENERGY      -307.183651343313

DIPOLE MOMENT
-------------
                                X             Y             Z
Electronic contribution:      3.14464      -5.71581      -3.88458
Nuclear contribution   :     -4.15791       7.87420       4.69333
                        -----------------------------------------
Total Dipole Moment    :     -1.01327       2.15839       0.80875
                        -----------------------------------------
Magnitude (a.u.)       :      2.51783
Magnitude (Debye)      :      6.39981

Rotational constants in cm-1:     0.200385     0.078723     0.072676
Rotational constants in MHz :  6007.394681  2360.059351  2178.761275

                             ****ORCA TERMINATED NORMALLY****
TOTAL RUN TIME: 0 days 0 hours 0 minutes 19 seconds 26 msec
