                         Program Version 5.0.0 -  RELEASE  -
|  1> !wB97X-D3 RIJCOSX def2-TZVP def2/J TightSCF
|  2> *xyz 1 1
|  3> C          0.81607       -2.10149       -2.18655
|  4> H          1.69623       -2.36869       -1.60046
|  5> N          1.10055       -2.46749       -3.59927
|  6> C          0.51624       -0.61363       -2.03937
|  7> H         -0.02007       -2.71285       -1.84084
|  8> C         -0.86862       -0.19392       -2.54630
|  9> H          1.70061       -1.75723       -4.07838
| 10> H          0.29386       -2.35977       -4.25632
| 11> H          1.50132       -3.42848       -3.69491
| 12> H          1.29904       -0.05680       -2.55898
| 13> H          0.61239       -0.36558       -0.97917
| 14> H         -0.95781       -0.43872       -3.58410
| 15> H         -0.99113        0.86113       -2.41690
| 16> H         -1.62334       -0.71130       -1.99167
| 17> *
| 18> %MaxCore 64000
| 19>
| 20> %pal nprocs 18
| 21> end
| 22>
| 23> %scf
| 24>   MaxIter 150
| 25> end
| 26>
| 27>
| 28>                          ****END OF INPUT****

CARTESIAN COORDINATES (ANGSTROEM)
---------------------------------
  C      0.816070   -2.101490   -2.186550
  H      1.696230   -2.368690   -1.600460
  N      1.100550   -2.467490   -3.599270
  C      0.516240   -0.613630   -2.039370
  H     -0.020070   -2.712850   -1.840840
  C     -0.868620   -0.193920   -2.546300
  H      1.700610   -1.757230   -4.078380
  H      0.293860   -2.359770   -4.256320
  H      1.501320   -3.428480   -3.694910
  H      1.299040   -0.056800   -2.558980
  H      0.612390   -0.365580   -0.979170
  H     -0.957810   -0.438720   -3.584100
  H     -0.991130    0.861130   -2.416900
  H     -1.623340   -0.711300   -1.991670

 Total Charge           Charge          ....    1
 Multiplicity           Mult            ....    1
 Number of Electrons    NEL             ....   34
 Basis Dimension        Dim             ....  184

ORBITAL ENERGIES
----------------

  NO   OCC          E(Eh)            E(eV)
   0   2.0000     -14.756244      -401.5378
   1   2.0000     -10.522008      -286.3184
   2   2.0000     -10.453351      -284.4501
   3   2.0000     -10.415990      -283.4335
   4   2.0000      -1.322518       -35.9876
   5   2.0000      -1.088918       -29.6310
   6   2.0000      -0.997144       -27.1337
   7   2.0000      -0.911576       -24.8052
   8   2.0000      -0.881136       -23.9769
   9   2.0000      -0.862431       -23.4679
  10   2.0000      -0.794504       -21.6196
  11   2.0000      -0.725222       -19.7343
  12   2.0000      -0.707058       -19.2400
  13   2.0000      -0.681855       -18.5542
  14   2.0000      -0.618106       -16.8195
  15   2.0000      -0.611940       -16.6517
  16   2.0000      -0.608536       -16.5591
  17   0.0000      -0.108026        -2.9395
  18   0.0000      -0.050969        -1.3869
  19   0.0000      -0.046120        -1.2550
  20   0.0000      -0.024152        -0.6572
  21   0.0000       0.008136         0.2214

MULLIKEN ATOMIC CHARGES
-----------------------
   0 C :   -0.178121
   1 H :    0.197211
   2 N :   -0.342657
   3 C :   -0.263084
   4 H :    0.196051
   5 C :   -0.338633
   6 H :    0.329350
   7 H :    0.335237
   8 H :    0.355045
   9 H :    0.137626
  10 H :    0.168272
  11 H :    0.082484
  12 H :    0.172690
  13 H :    0.148529
Sum of atomic charges:    1.0000000

LOEWDIN ATOMIC CHARGES
----------------------
   0 C :   -0.258302
   1 H :    0.155070
   2 N :    0.150022
   3 C :   -0.286194
   4 H :    0.154834
   5 C :   -0.283617
   6 H :    0.229609
   7 H :    0.227224
   8 H :    0.232745
   9 H :    0.142548
  10 H :    0.161828
  11 H :    0.109019
  12 H :    0.136669
  13 H :    0.128544

  Mayer bond orders larger than 0.100000
B(  0-C ,  1-H ) :   0.9540 B(  0-C ,  2-N ) :   0.8528 B(  0-C ,  3-C ) :   0.9743
B(  0-C ,  4-H ) :   0.9571 B(  2-N ,  6-H ) :   0.8705 B(  2-N ,  7-H ) :   0.8735
B(  2-N ,  8-H ) :   0.8611 B(  3-C ,  5-C ) :   0.9684 B(  3-C ,  9-H ) :   0.9719
B(  3-C , 10-H ) :   0.9523 B(  5-C , 11-H ) :   0.9802 B(  5-C , 12-H ) :   0.9692
B(  5-C , 13-H ) :   0.9631

Dispersion correction           -0.002840577
FINAL SINGLE POINT ENERGY      -174.865012647206

DIPOLE MOMENT
-------------
                                X             Y             Z
Electronic contribution:      1.50081      -1.85664      -0.71286
Nuclear contribution   :     -0.52914       0.42437      -0.52967
                        -----------------------------------------
Total Dipole Moment    :      0.97167      -1.43227      -1.24254
                        -----------------------------------------
Magnitude (a.u.)       :      2.13060
Magnitude (Debye)      :      5.41554

Rotational constants in cm-1:     0.462856     0.150885     0.132529
Rotational constants in MHz : 13876.083919  4523.416930  3973.119974

                             ****ORCA TERMINATED NORMALLY****
TOTAL RUN TIME: 0 days 0 hours 0 minutes 10 seconds 353 msec
