                         Program Version 5.0.0 -  RELEASE  -
|  1> !wB97X-D3 RIJCOSX def2-TZVP def2/J TightSCF
|  2> *xyz 0 1
|  3> C         -0.98480        1.28474       -2.92869
|  4> C         -0.10608        1.76991       -4.08984
|  5> H         -0.34774        2.82220       -4.26294
|  6> H          0.94968        1.74588       -3.80878
|  7> C         -0.25875        1.00432       -5.40983
|  8> C          0.39596       -0.37070       -5.33994
|  9> H          0.23915        1.56939       -6.20125
| 10> H         -1.30936        0.88869       -5.68245
| 11> F         -0.32633       -1.39040       -5.49128
| 12> O          1.61941       -0.40073       -5.03683
| 13> H         -2.01317        1.31546       -3.22263
| 14> H         -0.83724        1.91975       -2.08023
| 15> H         -0.71656        0.28077       -2.67373
| 16> *
| 17> %MaxCore 64000
| 18>
| 19> %pal nprocs 18
| 20> end
| 21>
| 22> %scf
| 23>   MaxIter 150
| 24> end
| 25>
| 26>
| 27>                          ****END OF INPUT****

CARTESIAN COORDINATES (ANGSTROEM)
---------------------------------
  C     -0.984800    1.284740   -2.928690
  C     -0.106080    1.769910   -4.089840
  H     -0.347740    2.822200   -4.262940
  H      0.949680    1.745880   -3.808780
  C     -0.258750    1.004320   -5.409830
  C      0.395960   -0.370700   -5.339940
  H      0.239150    1.569390   -6.201250
  H     -1.309360    0.888690   -5.682450
  F     -0.326330   -1.390400   -5.491280
  O      1.619410   -0.400730   -5.036830
  H     -2.013170    1.315460   -3.222630
  H     -0.837240    1.919750   -2.080230
  H     -0.716560    0.280770   -2.673730

 Total Charge           Charge          ....    0
 Multiplicity           Mult            ....    1
 Number of Electrons    NEL             ....   48
 Basis Dimension        Dim             ....  228

ORBITAL ENERGIES
----------------

  NO   OCC          E(Eh)            E(eV)
   0   2.0000     -24.853378      -676.2948
   1   2.0000     -19.232969      -523.3557
   2   2.0000     -10.454072      -284.4698
   3   2.0000     -10.306077      -280.4426
   4   2.0000     -10.289120      -279.9812
   5   2.0000     -10.268052      -279.4079
   6   2.0000      -1.432256       -38.9737
   7   2.0000      -1.144542       -31.1446
   8   2.0000      -0.930681       -25.3251
   9   2.0000      -0.845973       -23.0201
  10   2.0000      -0.771325       -20.9888
  11   2.0000      -0.719598       -19.5812
  12   2.0000      -0.651572       -17.7302
  13   2.0000      -0.636664       -17.3245
  14   2.0000      -0.614007       -16.7080
  15   2.0000      -0.563685       -15.3387
  16   2.0000      -0.555671       -15.1206
  17   2.0000      -0.520390       -14.1605
  18   2.0000      -0.499022       -13.5791
  19   2.0000      -0.473062       -12.8727
  20   2.0000      -0.447800       -12.1853
  21   2.0000      -0.442326       -12.0363
  22   2.0000      -0.434597       -11.8260
  23   2.0000      -0.388252       -10.5649
  24   0.0000       0.054546         1.4843
  25   0.0000       0.112570         3.0632
  26   0.0000       0.150317         4.0903
  27   0.0000       0.158012         4.2997
  28   0.0000       0.165716         4.5093

MULLIKEN ATOMIC CHARGES
-----------------------
   0 C :   -0.348217
   1 C :   -0.211352
   2 H :    0.104567
   3 H :    0.135114
   4 C :   -0.197821
   5 C :    0.385275
   6 H :    0.138863
   7 H :    0.114814
   8 F :   -0.107325
   9 O :   -0.365797
  10 H :    0.108094
  11 H :    0.124477
  12 H :    0.119307
Sum of atomic charges:   -0.0000000

LOEWDIN ATOMIC CHARGES
----------------------
   0 C :   -0.297625
   1 C :   -0.281249
   2 H :    0.136035
   3 H :    0.144167
   4 C :   -0.237825
   5 C :   -0.483616
   6 H :    0.158189
   7 H :    0.140598
   8 F :    0.318593
   9 O :    0.052020
  10 H :    0.114809
  11 H :    0.119039
  12 H :    0.116865

  Mayer bond orders larger than 0.100000
B(  0-C ,  1-C ) :   0.9853 B(  0-C , 10-H ) :   0.9745 B(  0-C , 11-H ) :   0.9800
B(  0-C , 12-H ) :   0.9755 B(  1-C ,  2-H ) :   0.9698 B(  1-C ,  3-H ) :   0.9673
B(  1-C ,  4-C ) :   0.9640 B(  4-C ,  5-C ) :   0.9817 B(  4-C ,  6-H ) :   0.9470
B(  4-C ,  7-H ) :   0.9675 B(  5-C ,  8-F ) :   1.1581 B(  5-C ,  9-O ) :   2.0123

Dispersion correction           -0.003212515
FINAL SINGLE POINT ENERGY      -331.753849383670

DIPOLE MOMENT
-------------
                                X             Y             Z
Electronic contribution:      2.75959      -9.10520      -5.68201
Nuclear contribution   :     -3.72230       9.78546       5.57872
                        -----------------------------------------
Total Dipole Moment    :     -0.96271       0.68026      -0.10329
                        -----------------------------------------
Magnitude (a.u.)       :      1.18331
Magnitude (Debye)      :      3.00774

Rotational constants in cm-1:     0.192703     0.076176     0.069525
Rotational constants in MHz :  5777.081080  2283.698999  2084.312921

                             ****ORCA TERMINATED NORMALLY****
TOTAL RUN TIME: 0 days 0 hours 0 minutes 14 seconds 682 msec
