                         Program Version 5.0.0 -  RELEASE  -
|  1> !wB97X-D3 RIJCOSX def2-TZVP def2/J TightSCF
|  2> *xyz 0 1
|  3> C          0.81607       -2.10149       -2.18655
|  4> H          1.69623       -2.36869       -1.60046
|  5> C          1.10055       -2.46749       -3.59927
|  6> C          0.51624       -0.61363       -2.03937
|  7> H         -0.02007       -2.71285       -1.84084
|  8> C         -0.86862       -0.19392       -2.54630
|  9> H          1.70061       -1.75723       -4.07838
| 10> H          0.29386       -2.35977       -4.25632
| 11> H          1.50132       -3.42848       -3.69491
| 12> H          1.29904       -0.05680       -2.55898
| 13> H          0.61239       -0.36558       -0.97917
| 14> H         -0.95781       -0.43872       -3.58410
| 15> H         -0.99113        0.86113       -2.41690
| 16> H         -1.62334       -0.71130       -1.99167
| 17> *
| 18> %MaxCore 64000
| 19>
| 20> %pal nprocs 18
| 21> end
| 22>
| 23> %scf
| 24>   MaxIter 150
| 25> end
| 26>
| 27>
| 28>                          ****END OF INPUT****

CARTESIAN COORDINATES (ANGSTROEM)
---------------------------------
  C      0.816070   -2.101490   -2.186550
  H      1.696230   -2.368690   -1.600460
  C      1.100550   -2.467490   -3.599270
  C      0.516240   -0.613630   -2.039370
  H     -0.020070   -2.712850   -1.840840
  C     -0.868620   -0.193920   -2.546300
  H      1.700610   -1.757230   -4.078380
  H      0.293860   -2.359770   -4.256320
  H      1.501320   -3.428480   -3.694910
  H      1.299040   -0.056800   -2.558980
  H      0.612390   -0.365580   -0.979170
  H     -0.957810   -0.438720   -3.584100
  H     -0.991130    0.861130   -2.416900
  H     -1.623340   -0.711300   -1.991670

 Total Charge           Charge          ....    0
 Multiplicity           Mult            ....    1
 Number of Electrons    NEL             ....   34
 Basis Dimension        Dim             ....  184

ORBITAL ENERGIES
----------------

  NO   OCC          E(Eh)            E(eV)
   0   2.0000     -10.263660      -279.2884
   1   2.0000     -10.260477      -279.2018
   2   2.0000     -10.252650      -278.9888
   3   2.0000     -10.237601      -278.5793
   4   2.0000      -0.918208       -24.9857
   5   2.0000      -0.842515       -22.9260
   6   2.0000      -0.756031       -20.5727
   7   2.0000      -0.680574       -18.5194
   8   2.0000      -0.564864       -15.3707
   9   2.0000      -0.558839       -15.2068
  10   2.0000      -0.521557       -14.1923
  11   2.0000      -0.492019       -13.3885
  12   2.0000      -0.480998       -13.0886
  13   2.0000      -0.449434       -12.2297
  14   2.0000      -0.420074       -11.4308
  15   2.0000      -0.413785       -11.2597
  16   2.0000      -0.406913       -11.0727
  17   0.0000       0.119515         3.2522
  18   0.0000       0.152533         4.1506
  19   0.0000       0.158043         4.3006
  20   0.0000       0.163835         4.4582
  21   0.0000       0.188592         5.1318

MULLIKEN ATOMIC CHARGES
-----------------------
   0 C :   -0.122430
   1 H :    0.092159
   2 C :   -0.383391
   3 C :   -0.182767
   4 H :    0.084390
   5 C :   -0.344023
   6 H :    0.104218
   7 H :    0.115862
   8 H :    0.119513
   9 H :    0.092795
  10 H :    0.094264
  11 H :    0.107239
  12 H :    0.115490
  13 H :    0.106681
Sum of atomic charges:    0.0000000

LOEWDIN ATOMIC CHARGES
----------------------
   0 C :   -0.299873
   1 H :    0.134563
   2 C :   -0.314419
   3 C :   -0.292344
   4 H :    0.133633
   5 C :   -0.301320
   6 H :    0.113883
   7 H :    0.110706
   8 H :    0.111188
   9 H :    0.131169
  10 H :    0.130577
  11 H :    0.113091
  12 H :    0.114506
  13 H :    0.114641

  Mayer bond orders larger than 0.100000
B(  0-C ,  1-H ) :   0.9737 B(  0-C ,  2-C ) :   0.9724 B(  0-C ,  3-C ) :   0.9735
B(  0-C ,  4-H ) :   0.9751 B(  2-C ,  6-H ) :   0.9804 B(  2-C ,  7-H ) :   0.9873
B(  2-C ,  8-H ) :   0.9805 B(  3-C ,  5-C ) :   0.9728 B(  3-C ,  9-H ) :   0.9840
B(  3-C , 10-H ) :   0.9776 B(  5-C , 11-H ) :   0.9839 B(  5-C , 12-H ) :   0.9821
B(  5-C , 13-H ) :   0.9763

Dispersion correction           -0.002742926
FINAL SINGLE POINT ENERGY      -158.456855903065

DIPOLE MOMENT
-------------
                                X             Y             Z
Electronic contribution:      0.32086      -0.06592       0.83402
Nuclear contribution   :     -0.30980       0.07990      -0.83209
                        -----------------------------------------
Total Dipole Moment    :      0.01105       0.01398       0.00193
                        -----------------------------------------
Magnitude (a.u.)       :      0.01793
Magnitude (Debye)      :      0.04556

Rotational constants in cm-1:     0.470198     0.157622     0.138278
Rotational constants in MHz : 14096.185772  4725.380109  4145.481686

                             ****ORCA TERMINATED NORMALLY****
TOTAL RUN TIME: 0 days 0 hours 0 minutes 10 seconds 172 msec
