                         Program Version 5.0.0 -  RELEASE  -
|  1> !wB97X-D3 RIJCOSX def2-TZVP def2/J TightSCF
|  2> *xyz 0 1
|  3> C         -0.98480        1.28474       -2.92869
|  4> C         -0.10608        1.76991       -4.08984
|  5> H         -0.34774        2.82220       -4.26294
|  6> H          0.94968        1.74588       -3.80878
|  7> C         -0.25875        1.00432       -5.40983
|  8> C          0.39596       -0.37070       -5.33994
|  9> H          0.23915        1.56939       -6.20125
| 10> H         -1.30936        0.88869       -5.68245
| 11> O         -0.32633       -1.39040       -5.49128
| 12> F          1.61941       -0.40073       -5.03683
| 13> H         -2.01317        1.31546       -3.22263
| 14> H         -0.83724        1.91975       -2.08023
| 15> H         -0.71656        0.28077       -2.67373
| 16> *
| 17> %MaxCore 64000
| 18>
| 19> %pal nprocs 18
| 20> end
| 21>
| 22> %scf
| 23>   MaxIter 150
| 24> end
| 25>
| 26>
| 27>                          ****END OF INPUT****

CARTESIAN COORDINATES (ANGSTROEM)
---------------------------------
  C     -0.984800    1.284740   -2.928690
  C     -0.106080    1.769910   -4.089840
  H     -0.347740    2.822200   -4.262940
  H      0.949680    1.745880   -3.808780
  C     -0.258750    1.004320   -5.409830
  C      0.395960   -0.370700   -5.339940
  H      0.239150    1.569390   -6.201250
  H     -1.309360    0.888690   -5.682450
  O     -0.326330   -1.390400   -5.491280
  F      1.619410   -0.400730   -5.036830
  H     -2.013170    1.315460   -3.222630
  H     -0.837240    1.919750   -2.080230
  H     -0.716560    0.280770   -2.673730

 Total Charge           Charge          ....    0
 Multiplicity           Mult            ....    1
 Number of Electrons    NEL             ....   48
 Basis Dimension        Dim             ....  228

ORBITAL ENERGIES
----------------

  NO   OCC          E(Eh)            E(eV)
   0   2.0000     -24.852266      -676.2645
   1   2.0000     -19.233491      -523.3699
   2   2.0000     -10.452994      -284.4404
   3   2.0000     -10.305720      -280.4329
   4   2.0000     -10.294275      -280.1215
   5   2.0000     -10.268802      -279.4283
   6   2.0000      -1.431054       -38.9410
   7   2.0000      -1.144195       -31.1351
   8   2.0000      -0.934914       -25.4403
   9   2.0000      -0.846351       -23.0304
  10   2.0000      -0.767578       -20.8869
  11   2.0000      -0.724815       -19.7232
  12   2.0000      -0.654484       -17.8094
  13   2.0000      -0.642665       -17.4878
  14   2.0000      -0.599429       -16.3113
  15   2.0000      -0.566152       -15.4058
  16   2.0000      -0.559994       -15.2382
  17   2.0000      -0.520411       -14.1611
  18   2.0000      -0.496180       -13.5018
  19   2.0000      -0.472736       -12.8638
  20   2.0000      -0.456255       -12.4153
  21   2.0000      -0.450808       -12.2671
  22   2.0000      -0.437827       -11.9139
  23   2.0000      -0.382639       -10.4121
  24   0.0000       0.058827         1.6008
  25   0.0000       0.109236         2.9725
  26   0.0000       0.148888         4.0515
  27   0.0000       0.158152         4.3035
  28   0.0000       0.168651         4.5892

MULLIKEN ATOMIC CHARGES
-----------------------
   0 C :   -0.337219
   1 C :   -0.220022
   2 H :    0.110671
   3 H :    0.115155
   4 C :   -0.195347
   5 C :    0.377216
   6 H :    0.128138
   7 H :    0.135078
   8 O :   -0.358107
   9 F :   -0.112702
  10 H :    0.112552
  11 H :    0.122831
  12 H :    0.121753
Sum of atomic charges:   -0.0000000

LOEWDIN ATOMIC CHARGES
----------------------
   0 C :   -0.294866
   1 C :   -0.288283
   2 H :    0.137282
   3 H :    0.136807
   4 C :   -0.233177
   5 C :   -0.486925
   6 H :    0.150869
   7 H :    0.153290
   8 O :    0.053720
   9 F :    0.317271
  10 H :    0.117679
  11 H :    0.118042
  12 H :    0.118290

  Mayer bond orders larger than 0.100000
B(  0-C ,  1-C ) :   0.9875 B(  0-C , 10-H ) :   0.9741 B(  0-C , 11-H ) :   0.9792
B(  0-C , 12-H ) :   0.9736 B(  1-C ,  2-H ) :   0.9715 B(  1-C ,  3-H ) :   0.9740
B(  1-C ,  4-C ) :   0.9564 B(  4-C ,  5-C ) :   0.9941 B(  4-C ,  6-H ) :   0.9483
B(  4-C ,  7-H ) :   0.9701 B(  5-C ,  8-O ) :   2.0465 B(  5-C ,  9-F ) :   1.1396

Dispersion correction           -0.003240728
FINAL SINGLE POINT ENERGY      -331.754926086979

DIPOLE MOMENT
-------------
                                X             Y             Z
Electronic contribution:      6.05617      -7.39586      -4.89886
Nuclear contribution   :     -5.92016       8.66755       5.06539
                        -----------------------------------------
Total Dipole Moment    :      0.13601       1.27169       0.16653
                        -----------------------------------------
Magnitude (a.u.)       :      1.28974
Magnitude (Debye)      :      3.27826

Rotational constants in cm-1:     0.191324     0.076691     0.070269
Rotational constants in MHz :  5735.753800  2299.148675  2106.608556

                             ****ORCA TERMINATED NORMALLY****
TOTAL RUN TIME: 0 days 0 hours 0 minutes 13 seconds 389 msec
