                         Program Version 5.0.0 -  RELEASE  -
|  1> !PBE D3BJ RIJCOSX def2-SVPD def2/J TightSCF xyzfile
|  2>
|  3> *xyzfile 0 1 B.xyz
|  4>
|  5> %MaxCore 64000
|  6>
|  7> %pal nprocs 4
|  8> end
|  9>
| 10> %scf
| 11>   MaxIter 150
| 12> end
| 13>
| 14>
| 15>                          ****END OF INPUT****

CARTESIAN COORDINATES (ANGSTROEM)
---------------------------------
  C      3.913853   -1.658291    3.015134
  N      5.039266   -0.901154    2.492821
  C      4.084215    1.742081   -2.114724
  C      4.265245    2.500518   -0.795890
  H      4.868534    3.392674   -0.981134
  H      3.307640    2.824571   -0.387809
  C      4.982240    1.650257    0.247422
  C      6.210384   -1.417261    2.178244
  N      6.535913   -2.677122    2.556078
  N      7.076754   -0.700820    1.478906
  H      7.954643   -1.121554    1.207554
  H      6.756161    0.106637    0.960278
  H      4.842168    0.017609    2.115191
  H      5.993876   -3.126918    3.282784
  H      7.498441   -2.975482    2.468776
  O      4.368065    1.389270    1.313706
  O      6.128919    1.233512   -0.045620
  C      3.139159   -2.376572    1.910609
  H      3.267235   -0.939401    3.520693
  H      4.247195   -2.355095    3.790065
  C      1.997274    0.430918   -1.399218
  C      3.412746    0.376886   -1.965497
  H      4.047407   -0.246590   -1.326706
  H      3.390774   -0.118719   -2.942839
  H      5.068475    1.598504   -2.565728
  H      3.503356    2.363939   -2.804565
  C      2.399946   -1.389579    1.009490
  H      2.440750   -3.087118    2.362976
  H      3.844475   -2.970462    1.318677
  C      2.070177   -1.936705   -0.372401
  H      1.481611   -1.061542    1.509912
  H      3.008628   -0.490001    0.897451
  C      1.322238   -0.935775   -1.256413
  H      1.472747   -2.850902   -0.283997
  H      3.003539   -2.234041   -0.862535
  H      1.376444    1.058920   -2.047420
  H      2.015341    0.929780   -0.426535
  H      0.316648   -0.787213   -0.848278
  H      1.185611   -1.379252   -2.248613

 Total Charge           Charge          ....    0
 Multiplicity           Mult            ....    1
 Number of Electrons    NEL             ....  126
 Basis Dimension        Dim             ....  510

ORBITAL ENERGIES
----------------

  NO   OCC          E(Eh)            E(eV)
   0   2.0000     -18.690847      -508.6038
   1   2.0000     -18.689708      -508.5728
   2   2.0000     -14.065090      -382.7306
   3   2.0000     -14.032027      -381.8309
   4   2.0000     -14.025173      -381.6444
   5   2.0000     -10.042824      -273.2791
   6   2.0000      -9.952774      -270.8287
   7   2.0000      -9.949478      -270.7391
   8   2.0000      -9.904799      -269.5233
   9   2.0000      -9.883073      -268.9321
  10   2.0000      -9.882876      -268.9267
  11   2.0000      -9.878745      -268.8143
  12   2.0000      -9.869910      -268.5739
  13   2.0000      -9.868342      -268.5312
  14   2.0000      -9.867350      -268.5042
  15   2.0000      -9.857628      -268.2397
  16   2.0000      -0.949813       -25.8457
  17   2.0000      -0.913673       -24.8623
  18   2.0000      -0.849510       -23.1163
  19   2.0000      -0.834765       -22.7151
  20   2.0000      -0.821749       -22.3609
  21   2.0000      -0.732822       -19.9411
  22   2.0000      -0.709607       -19.3094
  23   2.0000      -0.682551       -18.5732
  24   2.0000      -0.646542       -17.5933
  25   2.0000      -0.611202       -16.6316
  26   2.0000      -0.598613       -16.2891
  27   2.0000      -0.568393       -15.4668
  28   2.0000      -0.560171       -15.2430
  29   2.0000      -0.542640       -14.7660
  30   2.0000      -0.518246       -14.1022
  31   2.0000      -0.509550       -13.8655
  32   2.0000      -0.478995       -13.0341
  33   2.0000      -0.475456       -12.9378
  34   2.0000      -0.466848       -12.7036
  35   2.0000      -0.449776       -12.2390
  36   2.0000      -0.422871       -11.5069
  37   2.0000      -0.413976       -11.2649
  38   2.0000      -0.411054       -11.1854
  39   2.0000      -0.405044       -11.0218
  40   2.0000      -0.393137       -10.6978
  41   2.0000      -0.376184       -10.2365
  42   2.0000      -0.372921       -10.1477
  43   2.0000      -0.370241       -10.0748
  44   2.0000      -0.362862        -9.8740
  45   2.0000      -0.350083        -9.5263
  46   2.0000      -0.337444        -9.1823
  47   2.0000      -0.328197        -8.9307
  48   2.0000      -0.322623        -8.7790
  49   2.0000      -0.312976        -8.5165
  50   2.0000      -0.306565        -8.3421
  51   2.0000      -0.298487        -8.1223
  52   2.0000      -0.287021        -7.8102
  53   2.0000      -0.279465        -7.6046
  54   2.0000      -0.273618        -7.4455
  55   2.0000      -0.269394        -7.3306
  56   2.0000      -0.260558        -7.0901
  57   2.0000      -0.256650        -6.9838
  58   2.0000      -0.249482        -6.7888
  59   2.0000      -0.239936        -6.5290
  60   2.0000      -0.198285        -5.3956
  61   2.0000      -0.183089        -4.9821
  62   2.0000      -0.172702        -4.6995
  63   0.0000      -0.037434        -1.0186
  64   0.0000      -0.033347        -0.9074
  65   0.0000      -0.007331        -0.1995
  66   0.0000       0.012321         0.3353
  67   0.0000       0.020392         0.5549

MULLIKEN ATOMIC CHARGES
-----------------------
   0 C :    1.266692
   1 N :    0.083484
   2 C :    0.403655
   3 C :    0.297503
   4 H :   -0.140468
   5 H :    0.144664
   6 C :    0.232937
   7 C :    1.246564
   8 N :    0.097621
   9 N :    0.391971
  10 H :   -0.120688
  11 H :   -0.386015
  12 H :   -0.922632
  13 H :   -0.057884
  14 H :   -0.213816
  15 O :   -0.683518
  16 O :   -0.606159
  17 C :    0.307675
  18 H :   -0.314317
  19 H :   -0.275796
  20 C :   -0.138458
  21 C :   -0.172438
  22 H :    0.029156
  23 H :   -0.174982
  24 H :    0.018399
  25 H :   -0.142751
  26 C :    0.575442
  27 H :   -0.128018
  28 H :   -0.024963
  29 C :   -0.003421
  30 H :   -0.025043
  31 H :   -0.828122
  32 C :    0.709197
  33 H :   -0.422995
  34 H :    0.157327
  35 H :   -0.416326
  36 H :    0.235597
  37 H :    0.014905
  38 H :   -0.013977
Sum of atomic charges:    0.0000000

LOEWDIN ATOMIC CHARGES
----------------------
   0 C :    0.069985
   1 N :    0.087713
   2 C :   -0.026086
   3 C :    0.030986
   4 H :    0.028112
   5 H :    0.013686
   6 C :   -0.211445
   7 C :   -0.057122
   8 N :    0.258355
   9 N :    0.294436
  10 H :    0.018957
  11 H :   -0.114514
  12 H :   -0.084547
  13 H :   -0.011873
  14 H :    0.008604
  15 O :   -0.218585
  16 O :   -0.207547
  17 C :   -0.016593
  18 H :    0.040484
  19 H :    0.006214
  20 C :   -0.033488
  21 C :   -0.033129
  22 H :    0.012799
  23 H :    0.025674
  24 H :    0.021873
  25 H :    0.019321
  26 C :   -0.028714
  27 H :    0.026084
  28 H :    0.018154
  29 C :   -0.042454
  30 H :    0.040221
  31 H :   -0.018525
  32 C :   -0.034373
  33 H :    0.021523
  34 H :    0.018078
  35 H :    0.024895
  36 H :    0.010883
  37 H :    0.021449
  38 H :    0.020510

  Mayer bond orders larger than 0.100000
B(  0-C ,  1-N ) :   0.8872 B(  0-C , 12-H ) :  -0.4623 B(  0-C , 17-C ) :   1.0535
B(  0-C , 18-H ) :   0.5871 B(  0-C , 19-H ) :   0.7455 B(  0-C , 26-C ) :   0.1612
B(  1-N ,  7-C ) :   1.1210 B(  1-N ,  8-N ) :   0.2607 B(  1-N ,  9-N ) :   0.1298
B(  1-N , 12-H ) :   1.1853 B(  1-N , 18-H ) :   0.2514 B(  1-N , 19-H ) :   0.1199
B(  2-C ,  3-C ) :   1.1948 B(  2-C ,  4-H ) :   0.1710 B(  2-C ,  5-H ) :   0.1043
B(  2-C , 21-C ) :   1.2642 B(  2-C , 22-H ) :   0.1192 B(  2-C , 24-H ) :   0.6355
B(  2-C , 25-H ) :   0.7964 B(  3-C ,  4-H ) :   0.6522 B(  3-C ,  5-H ) :   0.7252
B(  3-C ,  6-C ) :   1.1373 B(  3-C , 16-O ) :   0.1054 B(  3-C , 21-C ) :   0.1354
B(  3-C , 24-H ) :   0.1300 B(  3-C , 25-H ) :   0.1621 B(  4-H ,  6-C ) :   0.2700
B(  5-H ,  6-C ) :   0.2436 B(  6-C , 15-O ) :   1.4273 B(  6-C , 16-O ) :   1.3081
B(  7-C ,  8-N ) :   0.8279 B(  7-C ,  9-N ) :   0.9350 B(  7-C , 11-H ) :  -0.2752
B(  7-C , 12-H ) :  -0.6407 B(  7-C , 13-H ) :  -0.1107 B(  8-N ,  9-N ) :   0.1732
B(  8-N , 13-H ) :   1.0645 B(  8-N , 14-H ) :   1.2342 B(  9-N , 10-H ) :   1.1636
B(  9-N , 11-H ) :   1.1125 B( 10-H , 11-H ) :  -0.2583 B( 11-H , 16-O ) :   0.1497
B( 12-H , 15-O ) :   0.2397 B( 12-H , 18-H ) :   0.1613 B( 13-H , 14-H ) :  -0.2050
B( 17-C , 19-H ) :   0.1843 B( 17-C , 26-C ) :   1.1355 B( 17-C , 27-H ) :   0.8731
B( 17-C , 28-H ) :   0.8840 B( 17-C , 29-C ) :   0.1090 B( 17-C , 30-H ) :   0.1436
B( 18-H , 19-H ) :  -0.2362 B( 20-C , 21-C ) :   1.2453 B( 20-C , 22-H ) :   0.1157
B( 20-C , 23-H ) :   0.1568 B( 20-C , 29-C ) :   0.1436 B( 20-C , 32-C ) :   1.1567
B( 20-C , 35-H ) :   1.0162 B( 20-C , 36-H ) :   0.7849 B( 20-C , 37-H ) :   0.2857
B( 20-C , 38-H ) :   0.1507 B( 21-C , 22-H ) :   0.8956 B( 21-C , 23-H ) :   0.8569
B( 21-C , 24-H ) :   0.2491 B( 21-C , 25-H ) :   0.1942 B( 21-C , 35-H ) :   0.1267
B( 21-C , 36-H ) :   0.1130 B( 24-H , 25-H ) :  -0.1276 B( 26-C , 27-H ) :   0.1654
B( 26-C , 28-H ) :   0.1030 B( 26-C , 29-C ) :   1.2760 B( 26-C , 30-H ) :   0.6180
B( 26-C , 31-H ) :   0.3066 B( 26-C , 33-H ) :   0.1144 B( 26-C , 34-H ) :   0.1727
B( 27-H , 31-H ) :   0.1237 B( 28-H , 33-H ) :  -0.1035 B( 29-C , 30-H ) :   0.1010
B( 29-C , 31-H ) :   0.1450 B( 29-C , 32-C ) :   1.1202 B( 29-C , 33-H ) :   1.0217
B( 29-C , 34-H ) :   0.7846 B( 29-C , 37-H ) :   0.1191 B( 29-C , 38-H ) :   0.2373
B( 30-H , 31-H ) :   0.2551 B( 31-H , 36-H ) :   0.1128 B( 32-C , 37-H ) :   0.6314
B( 32-C , 38-H ) :   0.6614 B( 37-H , 38-H ) :  -0.1157

Dispersion correction           -0.044850905
FINAL SINGLE POINT ENERGY      -746.408444632724

DIPOLE MOMENT
-------------
                                X             Y             Z
Electronic contribution:     12.27895       3.36306       7.66217
Nuclear contribution   :    -11.44764      -6.21818      -6.18483
                        -----------------------------------------
Total Dipole Moment    :      0.83131      -2.85512       1.47734
                        -----------------------------------------
Magnitude (a.u.)       :      3.32044
Magnitude (Debye)      :      8.43988

Rotational constants in cm-1:     0.020281     0.013510     0.009451
Rotational constants in MHz :   608.005987   405.034308   283.324538

                             ****ORCA TERMINATED NORMALLY****
TOTAL RUN TIME: 0 days 0 hours 1 minutes 3 seconds 534 msec
