                         Program Version 5.0.0 -  RELEASE  -
|  1> !wB97X-D3 RIJCOSX def2-SVPD def2/J TightSCF
|  2> *xyz 0 1
|  3> C          3.91385       -1.65829        3.01513
|  4> N          5.03927       -0.90115        2.49282
|  5> C          6.21038       -1.41726        2.17824
|  6> N          6.53591       -2.67712        2.55608
|  7> C          7.07675       -0.70082        1.47891
|  8> H          7.95464       -1.12155        1.20755
|  9> H          6.75616        0.10664        0.96028
| 10> H          4.84217        0.01761        2.11519
| 11> H          5.99388       -3.12692        3.28278
| 12> H          7.49844       -2.97548        2.46878
| 13> C          3.13916       -2.37657        1.91061
| 14> H          3.26723       -0.93940        3.52069
| 15> H          4.24720       -2.35509        3.79006
| 16> C          2.39995       -1.38958        1.00949
| 17> H          2.44075       -3.08712        2.36298
| 18> H          3.84448       -2.97046        1.31868
| 19> H          1.87065       -1.92698        0.25058
| 20> H          3.10498       -0.72749        0.55181
| 21> H          1.70633       -0.82279        1.59477
| 22> *
| 23> %MaxCore 64000
| 24> %pal nprocs 8
| 25> end
| 26> %scf
| 27>   MaxIter 150
| 28> end
| 29>
| 30>
| 31>                          ****END OF INPUT****

CARTESIAN COORDINATES (ANGSTROEM)
---------------------------------
  C      3.913850   -1.658290    3.015130
  N      5.039270   -0.901150    2.492820
  C      6.210380   -1.417260    2.178240
  N      6.535910   -2.677120    2.556080
  C      7.076750   -0.700820    1.478910
  H      7.954640   -1.121550    1.207550
  H      6.756160    0.106640    0.960280
  H      4.842170    0.017610    2.115190
  H      5.993880   -3.126920    3.282780
  H      7.498440   -2.975480    2.468780
  C      3.139160   -2.376570    1.910610
  H      3.267230   -0.939400    3.520690
  H      4.247200   -2.355090    3.790060
  C      2.399950   -1.389580    1.009490
  H      2.440750   -3.087120    2.362980
  H      3.844480   -2.970460    1.318680
  H      1.870650   -1.926980    0.250580
  H      3.104980   -0.727490    0.551810
  H      1.706330   -0.822790    1.594770

 Total Charge           Charge          ....    0
 Multiplicity           Mult            ....    1
 Number of Electrons    NEL             ....   56
 Basis Dimension        Dim             ....  236

ORBITAL ENERGIES
----------------

  NO   OCC          E(Eh)            E(eV)
   0   2.0000     -14.438102      -392.8807
   1   2.0000     -14.437702      -392.8698
   2   2.0000     -10.337443      -281.2961
   3   2.0000     -10.329111      -281.0694
   4   2.0000     -10.288975      -279.9772
   5   2.0000     -10.277812      -279.6735
   6   2.0000     -10.198235      -277.5081
   7   2.0000      -1.079838       -29.3839
   8   2.0000      -0.991375       -26.9767
   9   2.0000      -0.900676       -24.5086
  10   2.0000      -0.834983       -22.7210
  11   2.0000      -0.777656       -21.1611
  12   2.0000      -0.718028       -19.5385
  13   2.0000      -0.693646       -18.8751
  14   2.0000      -0.638367       -17.3708
  15   2.0000      -0.603875       -16.4323
  16   2.0000      -0.578020       -15.7287
  17   2.0000      -0.561179       -15.2705
  18   2.0000      -0.540869       -14.7178
  19   2.0000      -0.511170       -13.9096
  20   2.0000      -0.494516       -13.4565
  21   2.0000      -0.489228       -13.3126
  22   2.0000      -0.464356       -12.6358
  23   2.0000      -0.447334       -12.1726
  24   2.0000      -0.442343       -12.0368
  25   2.0000      -0.437254       -11.8983
  26   2.0000      -0.350020        -9.5245
  27   2.0000      -0.251221        -6.8361
  28   0.0000       0.085141         2.3168
  29   0.0000       0.103482         2.8159
  30   0.0000       0.113855         3.0982
  31   0.0000       0.118972         3.2374
  32   0.0000       0.144418         3.9298

MULLIKEN ATOMIC CHARGES
-----------------------
   0 C :    0.756644
   1 N :   -0.391084
   2 C :    0.705579
   3 N :    0.063137
   4 C :    0.330949
   5 H :   -0.346262
   6 H :   -0.244361
   7 H :   -0.270544
   8 H :   -0.126475
   9 H :   -0.143230
  10 C :   -0.304801
  11 H :   -0.291781
  12 H :   -0.136264
  13 C :    0.658553
  14 H :   -0.138228
  15 H :    0.003920
  16 H :   -0.056322
  17 H :   -0.100231
  18 H :    0.030802
Sum of atomic charges:   -0.0000000

LOEWDIN ATOMIC CHARGES
----------------------
   0 C :    0.043706
   1 N :   -0.018560
   2 C :   -0.231864
   3 N :    0.196388
   4 C :    0.131059
   5 H :   -0.099774
   6 H :   -0.097578
   7 H :    0.036170
   8 H :   -0.028074
   9 H :    0.006389
  10 C :   -0.068033
  11 H :    0.022990
  12 H :    0.007862
  13 C :    0.116945
  14 H :    0.018411
  15 H :    0.019641
  16 H :   -0.016498
  17 H :   -0.022429
  18 H :   -0.016751

  Mayer bond orders larger than 0.100000
B(  0-C ,  1-N ) :   0.9056 B(  0-C ,  7-H ) :  -0.1785 B(  0-C , 10-C ) :   1.0838
B(  0-C , 11-H ) :   0.7654 B(  0-C , 12-H ) :   0.9298 B(  0-C , 15-H ) :   0.1194
B(  1-N ,  2-C ) :   1.0405 B(  1-N ,  3-N ) :   0.1295 B(  1-N ,  4-C ) :   0.2518
B(  1-N ,  7-H ) :   1.2239 B(  1-N , 11-H ) :   0.2636 B(  1-N , 12-H ) :   0.1149
B(  2-C ,  3-N ) :   0.8997 B(  2-C ,  4-C ) :   1.5924 B(  2-C ,  5-H ) :   0.1847
B(  2-C ,  7-H ) :  -0.1997 B(  3-N ,  4-C ) :   0.1894 B(  3-N ,  8-H ) :   1.0334
B(  3-N ,  9-H ) :   1.1928 B(  4-C ,  5-H ) :   0.7732 B(  4-C ,  6-H ) :   0.8723
B(  5-H ,  6-H ) :   0.1203 B(  8-H ,  9-H ) :  -0.1780 B( 10-C , 13-C ) :   1.2346
B( 10-C , 14-H ) :   1.0401 B( 10-C , 15-H ) :   0.9333 B( 10-C , 16-H ) :   0.1983
B( 10-C , 17-H ) :   0.1837 B( 10-C , 18-H ) :   0.1708 B( 11-H , 12-H ) :  -0.1138
B( 13-C , 16-H ) :   0.8247 B( 13-C , 17-H ) :   0.8494 B( 13-C , 18-H ) :   0.7994

Dispersion correction           -0.005364493
FINAL SINGLE POINT ENERGY      -306.938874653932

DIPOLE MOMENT
-------------
                                X             Y             Z
Electronic contribution:      3.96141       0.08438       2.04607
Nuclear contribution   :     -4.75859      -0.62546      -1.57128
                        -----------------------------------------
Total Dipole Moment    :     -0.79718      -0.54107       0.47480
                        -----------------------------------------
Magnitude (a.u.)       :      1.07410
Magnitude (Debye)      :      2.73013

Rotational constants in cm-1:     0.161886     0.051080     0.045854
Rotational constants in MHz :  4853.220099  1531.326912  1374.680035

                             ****ORCA TERMINATED NORMALLY****
TOTAL RUN TIME: 0 days 0 hours 0 minutes 31 seconds 533 msec
