                         Program Version 5.0.0 -  RELEASE  -
|  1> !PBE D3BJ RIJCOSX def2-SVPD def2/J TightSCF xyzfile
|  2>
|  3> *xyzfile 0 1 D1.xyz
|  4>
|  5> %MaxCore 64000
|  6>
|  7> %pal nprocs 4
|  8> end
|  9>
| 10> %scf
| 11>   MaxIter 150
| 12> end
| 13>
| 14>
| 15>                          ****END OF INPUT****

CARTESIAN COORDINATES (ANGSTROEM)
---------------------------------
  C      3.913853   -1.658291    3.015134
  C      5.039266   -0.901154    2.492821
  C      4.084215    1.742081   -2.114724
  C      4.265245    2.500518   -0.795890
  H      4.868534    3.392674   -0.981134
  H      3.307640    2.824571   -0.387809
  C      4.982240    1.650257    0.247422
  C      6.210384   -1.417261    2.178244
  N      6.535913   -2.677122    2.556078
  N      7.076754   -0.700820    1.478906
  H      7.954643   -1.121554    1.207554
  H      6.756161    0.106637    0.960278
  H      4.842168    0.017609    2.115191
  H      5.993876   -3.126918    3.282784
  H      7.498441   -2.975482    2.468776
  F      4.368065    1.389270    1.313706
  O      6.128919    1.233512   -0.045620
  C      3.139159   -2.376572    1.910609
  H      3.267235   -0.939401    3.520693
  H      4.247195   -2.355095    3.790065
  C      1.997274    0.430918   -1.399218
  C      3.412746    0.376886   -1.965497
  H      4.047407   -0.246590   -1.326706
  H      3.390774   -0.118719   -2.942839
  H      5.068475    1.598504   -2.565728
  H      3.503356    2.363939   -2.804565
  C      2.399946   -1.389579    1.009490
  H      2.440750   -3.087118    2.362976
  H      3.844475   -2.970462    1.318677
  C      2.070177   -1.936705   -0.372401
  H      1.481611   -1.061542    1.509912
  H      3.008628   -0.490001    0.897451
  C      1.322238   -0.935775   -1.256413
  H      1.472747   -2.850902   -0.283997
  H      3.003539   -2.234041   -0.862535
  H      1.376444    1.058920   -2.047420
  H      2.015341    0.929780   -0.426535
  H      0.316648   -0.787213   -0.848278
  H      1.185611   -1.379252   -2.248613

 Total Charge           Charge          ....    0
 Multiplicity           Mult            ....    1
 Number of Electrons    NEL             ....  126
 Basis Dimension        Dim             ....  510

ORBITAL ENERGIES
----------------

  NO   OCC          E(Eh)            E(eV)
   0   2.0000     -24.358795      -662.8365
   1   2.0000     -18.794926      -511.4359
   2   2.0000     -13.986945      -380.6041
   3   2.0000     -13.962260      -379.9324
   4   2.0000     -10.085884      -274.4509
   5   2.0000      -9.933215      -270.2965
   6   2.0000      -9.915300      -269.8090
   7   2.0000      -9.913798      -269.7682
   8   2.0000      -9.899772      -269.3865
   9   2.0000      -9.894677      -269.2478
  10   2.0000      -9.888530      -269.0806
  11   2.0000      -9.880982      -268.8752
  12   2.0000      -9.874609      -268.7018
  13   2.0000      -9.866404      -268.4785
  14   2.0000      -9.861882      -268.3555
  15   2.0000      -9.798023      -266.6178
  16   2.0000      -1.220789       -33.2194
  17   2.0000      -0.966183       -26.2912
  18   2.0000      -0.849516       -23.1165
  19   2.0000      -0.764494       -20.8029
  20   2.0000      -0.752692       -20.4818
  21   2.0000      -0.724791       -19.7226
  22   2.0000      -0.697819       -18.9886
  23   2.0000      -0.671402       -18.2698
  24   2.0000      -0.636369       -17.3165
  25   2.0000      -0.619160       -16.8482
  26   2.0000      -0.594276       -16.1711
  27   2.0000      -0.569567       -15.4987
  28   2.0000      -0.541207       -14.7270
  29   2.0000      -0.526818       -14.3355
  30   2.0000      -0.510335       -13.8869
  31   2.0000      -0.501741       -13.6531
  32   2.0000      -0.494792       -13.4640
  33   2.0000      -0.492329       -13.3969
  34   2.0000      -0.470429       -12.8010
  35   2.0000      -0.465007       -12.6535
  36   2.0000      -0.437739       -11.9115
  37   2.0000      -0.430765       -11.7217
  38   2.0000      -0.428519       -11.6606
  39   2.0000      -0.411425       -11.1954
  40   2.0000      -0.399739       -10.8774
  41   2.0000      -0.389976       -10.6118
  42   2.0000      -0.381546       -10.3824
  43   2.0000      -0.373438       -10.1618
  44   2.0000      -0.367850       -10.0097
  45   2.0000      -0.363709        -9.8970
  46   2.0000      -0.348620        -9.4864
  47   2.0000      -0.345379        -9.3982
  48   2.0000      -0.328812        -8.9474
  49   2.0000      -0.324332        -8.8255
  50   2.0000      -0.319349        -8.6899
  51   2.0000      -0.317283        -8.6337
  52   2.0000      -0.307735        -8.3739
  53   2.0000      -0.297269        -8.0891
  54   2.0000      -0.295641        -8.0448
  55   2.0000      -0.281469        -7.6591
  56   2.0000      -0.272715        -7.4210
  57   2.0000      -0.266182        -7.2432
  58   2.0000      -0.264624        -7.2008
  59   2.0000      -0.260139        -7.0787
  60   2.0000      -0.253258        -6.8915
  61   2.0000      -0.203119        -5.5271
  62   2.0000      -0.115576        -3.1450
  63   0.0000      -0.090470        -2.4618
  64   0.0000      -0.005280        -0.1437
  65   0.0000       0.007417         0.2018
  66   0.0000       0.011842         0.3222
  67   0.0000       0.015024         0.4088

MULLIKEN ATOMIC CHARGES
-----------------------
   0 C :    0.619895
   1 C :    0.158254
   2 C :    0.424664
   3 C :    0.250514
   4 H :   -0.128282
   5 H :    0.179403
   6 C :    0.486737
   7 C :    0.767855
   8 N :   -0.010159
   9 N :    0.337542
  10 H :   -0.203869
  11 H :   -0.375674
  12 H :   -0.618267
  13 H :   -0.042202
  14 H :   -0.307260
  15 F :   -0.474375
  16 O :   -0.444794
  17 C :    0.391143
  18 H :    0.012573
  19 H :   -0.247835
  20 C :   -0.136854
  21 C :   -0.140654
  22 H :    0.014410
  23 H :   -0.163462
  24 H :    0.026500
  25 H :   -0.120260
  26 C :    0.539928
  27 H :   -0.095100
  28 H :   -0.057526
  29 C :   -0.024403
  30 H :    0.065136
  31 H :   -0.929090
  32 C :    0.704245
  33 H :   -0.428696
  34 H :    0.165806
  35 H :   -0.431536
  36 H :    0.218144
  37 H :    0.018451
  38 H :   -0.000901
Sum of atomic charges:   -0.0000000

LOEWDIN ATOMIC CHARGES
----------------------
   0 C :   -0.052315
   1 C :   -0.019477
   2 C :   -0.014169
   3 C :    0.055519
   4 H :    0.044038
   5 H :    0.023255
   6 C :    0.028446
   7 C :   -0.208701
   8 N :    0.213984
   9 N :    0.219612
  10 H :   -0.011717
  11 H :   -0.124824
  12 H :   -0.108953
  13 H :   -0.023098
  14 H :   -0.019929
  15 F :   -0.013699
  16 O :   -0.080589
  17 C :   -0.029559
  18 H :    0.018179
  19 H :   -0.001488
  20 C :   -0.038246
  21 C :   -0.028760
  22 H :    0.017144
  23 H :    0.033985
  24 H :    0.030112
  25 H :    0.030436
  26 C :   -0.035850
  27 H :    0.016766
  28 H :    0.020293
  29 C :   -0.041044
  30 H :    0.035508
  31 H :   -0.021610
  32 C :   -0.033438
  33 H :    0.025300
  34 H :    0.019152
  35 H :    0.025563
  36 H :    0.005137
  37 H :    0.023445
  38 H :    0.021592

  Mayer bond orders larger than 0.100000
B(  0-C ,  1-C ) :   0.8808 B(  0-C ,  7-C ) :   0.1118 B(  0-C , 12-H ) :   0.7523
B(  0-C , 17-C ) :   1.0338 B(  0-C , 18-H ) :   0.6633 B(  0-C , 19-H ) :   0.5848
B(  0-C , 28-H ) :   0.1198 B(  1-C ,  7-C ) :   1.7529 B(  1-C ,  8-N ) :   0.2917
B(  1-C ,  9-N ) :   0.2675 B(  1-C , 12-H ) :  -0.1894 B(  1-C , 13-H ) :  -0.1223
B(  1-C , 18-H ) :   0.3201 B(  1-C , 19-H ) :   0.3428 B(  2-C ,  3-C ) :   1.1750
B(  2-C ,  4-H ) :   0.1783 B(  2-C ,  5-H ) :   0.1003 B(  2-C ,  6-C ) :   0.1052
B(  2-C , 21-C ) :   1.2681 B(  2-C , 22-H ) :   0.1205 B(  2-C , 24-H ) :   0.6436
B(  2-C , 25-H ) :   0.7958 B(  3-C ,  4-H ) :   0.6146 B(  3-C ,  5-H ) :   0.7352
B(  3-C ,  6-C ) :   1.2726 B(  3-C , 16-O ) :   0.1095 B(  3-C , 21-C ) :   0.1263
B(  3-C , 24-H ) :   0.1201 B(  3-C , 25-H ) :   0.1619 B(  4-H ,  6-C ) :   0.2994
B(  5-H ,  6-C ) :   0.1983 B(  6-C , 15-F ) :   0.7438 B(  6-C , 16-O ) :   1.6170
B(  7-C ,  8-N ) :   0.8011 B(  7-C ,  9-N ) :   0.7755 B(  7-C , 11-H ) :  -0.3043
B(  7-C , 12-H ) :   0.3492 B(  7-C , 14-H ) :  -0.1851 B(  7-C , 19-H ) :  -0.1162
B(  8-N ,  9-N ) :   0.1241 B(  8-N , 13-H ) :   1.0161 B(  8-N , 14-H ) :   1.3210
B(  9-N , 10-H ) :   1.1600 B(  9-N , 11-H ) :   1.1690 B( 10-H , 11-H ) :  -0.2227
B( 10-H , 12-H ) :  -0.1019 B( 11-H , 16-O ) :   0.1057 B( 12-H , 15-F ) :   0.1941
B( 13-H , 14-H ) :  -0.1959 B( 15-F , 31-H ) :   0.1069 B( 17-C , 19-H ) :   0.1177
B( 17-C , 26-C ) :   1.1261 B( 17-C , 27-H ) :   0.8281 B( 17-C , 28-H ) :   0.8785
B( 17-C , 30-H ) :   0.1688 B( 18-H , 19-H ) :  -0.1324 B( 20-C , 21-C ) :   1.2385
B( 20-C , 22-H ) :   0.1083 B( 20-C , 23-H ) :   0.1610 B( 20-C , 29-C ) :   0.1514
B( 20-C , 32-C ) :   1.1508 B( 20-C , 35-H ) :   1.0364 B( 20-C , 36-H ) :   0.7843
B( 20-C , 37-H ) :   0.2890 B( 20-C , 38-H ) :   0.1443 B( 21-C , 22-H ) :   0.8995
B( 21-C , 23-H ) :   0.8492 B( 21-C , 24-H ) :   0.2493 B( 21-C , 25-H ) :   0.1889
B( 21-C , 35-H ) :   0.1197 B( 21-C , 36-H ) :   0.1090 B( 24-H , 25-H ) :  -0.1284
B( 26-C , 27-H ) :   0.1926 B( 26-C , 28-H ) :   0.1397 B( 26-C , 29-C ) :   1.2582
B( 26-C , 30-H ) :   0.6252 B( 26-C , 31-H ) :   0.3531 B( 26-C , 33-H ) :   0.1392
B( 26-C , 34-H ) :   0.1378 B( 27-H , 31-H ) :   0.1037 B( 28-H , 33-H ) :  -0.1063
B( 29-C , 30-H ) :   0.1067 B( 29-C , 31-H ) :   0.1419 B( 29-C , 32-C ) :   1.1145
B( 29-C , 33-H ) :   1.0189 B( 29-C , 34-H ) :   0.8017 B( 29-C , 37-H ) :   0.1226
B( 29-C , 38-H ) :   0.2536 B( 30-H , 31-H ) :   0.1936 B( 31-H , 36-H ) :   0.1078
B( 32-C , 37-H ) :   0.6296 B( 32-C , 38-H ) :   0.6474 B( 37-H , 38-H ) :  -0.1128

Dispersion correction           -0.044678808
FINAL SINGLE POINT ENERGY      -754.252945674914

DIPOLE MOMENT
-------------
                                X             Y             Z
Electronic contribution:     11.35210       8.94744       5.92819
Nuclear contribution   :    -11.48003      -8.36271      -6.78621
                        -----------------------------------------
Total Dipole Moment    :     -0.12793       0.58472      -0.85803
                        -----------------------------------------
Magnitude (a.u.)       :      1.04617
Magnitude (Debye)      :      2.65916

Rotational constants in cm-1:     0.020055     0.013548     0.009477
Rotational constants in MHz :   601.234832   406.162779   284.104317

                             ****ORCA TERMINATED NORMALLY****
TOTAL RUN TIME: 0 days 0 hours 1 minutes 5 seconds 639 msec
