                         Program Version 5.0.0 -  RELEASE  -
|  1> !PBE D3BJ RIJCOSX def2-SVPD def2/J TightSCF xyzfile
|  2>
|  3> *xyzfile 0 1 D2.xyz
|  4>
|  5> %MaxCore 64000
|  6>
|  7> %pal nprocs 4
|  8> end
|  9>
| 10> %scf
| 11>   MaxIter 150
| 12> end
| 13>
| 14>
| 15>                          ****END OF INPUT****

CARTESIAN COORDINATES (ANGSTROEM)
---------------------------------
  C      3.913853   -1.658291    3.015134
  N      5.039266   -0.901154    2.492821
  C      4.084215    1.742081   -2.114724
  C      4.265245    2.500518   -0.795890
  H      4.868534    3.392674   -0.981134
  H      3.307640    2.824571   -0.387809
  C      4.982240    1.650257    0.247422
  C      6.210384   -1.417261    2.178244
  C      6.535913   -2.677122    2.556078
  N      7.076754   -0.700820    1.478906
  H      7.954643   -1.121554    1.207554
  H      6.756161    0.106637    0.960278
  H      4.842168    0.017609    2.115191
  H      5.993876   -3.126918    3.282784
  H      7.498441   -2.975482    2.468776
  F      4.368065    1.389270    1.313706
  O      6.128919    1.233512   -0.045620
  C      3.139159   -2.376572    1.910609
  H      3.267235   -0.939401    3.520693
  H      4.247195   -2.355095    3.790065
  C      1.997274    0.430918   -1.399218
  C      3.412746    0.376886   -1.965497
  H      4.047407   -0.246590   -1.326706
  H      3.390774   -0.118719   -2.942839
  H      5.068475    1.598504   -2.565728
  H      3.503356    2.363939   -2.804565
  C      2.399946   -1.389579    1.009490
  H      2.440750   -3.087118    2.362976
  H      3.844475   -2.970462    1.318677
  C      2.070177   -1.936705   -0.372401
  H      1.481611   -1.061542    1.509912
  H      3.008628   -0.490001    0.897451
  C      1.322238   -0.935775   -1.256413
  H      1.472747   -2.850902   -0.283997
  H      3.003539   -2.234041   -0.862535
  H      1.376444    1.058920   -2.047420
  H      2.015341    0.929780   -0.426535
  H      0.316648   -0.787213   -0.848278
  H      1.185611   -1.379252   -2.248613

 Total Charge           Charge          ....    0
 Multiplicity           Mult            ....    1
 Number of Electrons    NEL             ....  126
 Basis Dimension        Dim             ....  510

ORBITAL ENERGIES
----------------

  NO   OCC          E(Eh)            E(eV)
   0   2.0000     -24.380419      -663.4249
   1   2.0000     -18.802699      -511.6475
   2   2.0000     -13.986574      -380.5940
   3   2.0000     -13.965898      -380.0314
   4   2.0000     -10.090480      -274.5759
   5   2.0000      -9.940099      -270.4838
   6   2.0000      -9.921014      -269.9645
   7   2.0000      -9.919453      -269.9221
   8   2.0000      -9.917470      -269.8681
   9   2.0000      -9.906887      -269.5801
  10   2.0000      -9.902616      -269.4639
  11   2.0000      -9.896948      -269.3096
  12   2.0000      -9.891583      -269.1637
  13   2.0000      -9.890541      -269.1353
  14   2.0000      -9.882924      -268.9280
  15   2.0000      -9.797489      -266.6032
  16   2.0000      -1.240325       -33.7510
  17   2.0000      -0.973983       -26.5034
  18   2.0000      -0.865331       -23.5469
  19   2.0000      -0.784619       -21.3506
  20   2.0000      -0.760100       -20.6834
  21   2.0000      -0.732355       -19.9284
  22   2.0000      -0.700526       -19.0623
  23   2.0000      -0.669378       -18.2147
  24   2.0000      -0.644224       -17.5302
  25   2.0000      -0.623716       -16.9722
  26   2.0000      -0.611127       -16.6296
  27   2.0000      -0.588168       -16.0049
  28   2.0000      -0.555366       -15.1123
  29   2.0000      -0.537691       -14.6313
  30   2.0000      -0.526107       -14.3161
  31   2.0000      -0.513774       -13.9805
  32   2.0000      -0.507091       -13.7987
  33   2.0000      -0.491467       -13.3735
  34   2.0000      -0.479682       -13.0528
  35   2.0000      -0.462734       -12.5916
  36   2.0000      -0.447026       -12.1642
  37   2.0000      -0.437572       -11.9070
  38   2.0000      -0.436810       -11.8862
  39   2.0000      -0.418258       -11.3814
  40   2.0000      -0.405588       -11.0366
  41   2.0000      -0.401990       -10.9387
  42   2.0000      -0.385761       -10.4971
  43   2.0000      -0.383824       -10.4444
  44   2.0000      -0.374592       -10.1932
  45   2.0000      -0.363973        -9.9042
  46   2.0000      -0.359345        -9.7783
  47   2.0000      -0.348930        -9.4949
  48   2.0000      -0.337323        -9.1790
  49   2.0000      -0.333973        -9.0879
  50   2.0000      -0.328197        -8.9307
  51   2.0000      -0.320683        -8.7262
  52   2.0000      -0.318498        -8.6668
  53   2.0000      -0.310347        -8.4450
  54   2.0000      -0.302651        -8.2356
  55   2.0000      -0.297317        -8.0904
  56   2.0000      -0.290031        -7.8922
  57   2.0000      -0.280735        -7.6392
  58   2.0000      -0.278367        -7.5748
  59   2.0000      -0.275539        -7.4978
  60   2.0000      -0.267919        -7.2904
  61   2.0000      -0.192161        -5.2290
  62   2.0000      -0.121262        -3.2997
  63   0.0000      -0.098549        -2.6817
  64   0.0000      -0.013192        -0.3590
  65   0.0000       0.004562         0.1241
  66   0.0000       0.007376         0.2007
  67   0.0000       0.011537         0.3139

MULLIKEN ATOMIC CHARGES
-----------------------
   0 C :    1.199649
   1 N :    0.339443
   2 C :    0.414748
   3 C :    0.253618
   4 H :   -0.131259
   5 H :    0.172121
   6 C :    0.520315
   7 C :    0.655395
   8 C :    0.594347
   9 N :    0.461384
  10 H :   -0.106605
  11 H :   -0.553362
  12 H :   -1.163608
  13 H :   -0.056001
  14 H :   -0.650016
  15 F :   -0.500285
  16 O :   -0.476245
  17 C :    0.320523
  18 H :   -0.390179
  19 H :   -0.142443
  20 C :   -0.120662
  21 C :   -0.142699
  22 H :    0.009433
  23 H :   -0.163960
  24 H :    0.030850
  25 H :   -0.119244
  26 C :    0.534841
  27 H :   -0.140637
  28 H :   -0.018585
  29 C :    0.011968
  30 H :   -0.025565
  31 H :   -0.838507
  32 C :    0.703793
  33 H :   -0.416209
  34 H :    0.147876
  35 H :   -0.418453
  36 H :    0.197715
  37 H :    0.014403
  38 H :   -0.007895
Sum of atomic charges:   -0.0000000

LOEWDIN ATOMIC CHARGES
----------------------
   0 C :    0.059704
   1 N :    0.021080
   2 C :   -0.013323
   3 C :    0.055096
   4 H :    0.044011
   5 H :    0.022629
   6 C :    0.013496
   7 C :   -0.227840
   8 C :    0.163358
   9 N :    0.230764
  10 H :    0.008719
  11 H :   -0.135154
  12 H :   -0.061605
  13 H :   -0.122448
  14 H :   -0.106679
  15 F :   -0.011547
  16 O :   -0.083942
  17 C :   -0.013126
  18 H :    0.023552
  19 H :    0.012858
  20 C :   -0.038194
  21 C :   -0.028368
  22 H :    0.016530
  23 H :    0.035217
  24 H :    0.031209
  25 H :    0.031187
  26 C :   -0.041350
  27 H :    0.025184
  28 H :    0.021044
  29 C :   -0.038195
  30 H :    0.035166
  31 H :   -0.025280
  32 C :   -0.031675
  33 H :    0.027682
  34 H :    0.021884
  35 H :    0.026781
  36 H :    0.004037
  37 H :    0.024138
  38 H :    0.023400

  Mayer bond orders larger than 0.100000
B(  0-C ,  1-N ) :   0.9296 B(  0-C , 12-H ) :  -0.4906 B(  0-C , 17-C ) :   1.0342
B(  0-C , 18-H ) :   0.6526 B(  0-C , 19-H ) :   0.7171 B(  0-C , 26-C ) :   0.1620
B(  1-N ,  7-C ) :   0.8794 B(  1-N ,  8-C ) :   0.4836 B(  1-N ,  9-N ) :   0.1087
B(  1-N , 12-H ) :   0.7280 B(  1-N , 18-H ) :   0.2334 B(  2-C ,  3-C ) :   1.1825
B(  2-C ,  4-H ) :   0.1816 B(  2-C ,  5-H ) :   0.1031 B(  2-C ,  6-C ) :   0.1028
B(  2-C , 21-C ) :   1.2719 B(  2-C , 22-H ) :   0.1138 B(  2-C , 24-H ) :   0.6467
B(  2-C , 25-H ) :   0.7975 B(  3-C ,  4-H ) :   0.6395 B(  3-C ,  5-H ) :   0.7334
B(  3-C ,  6-C ) :   1.2432 B(  3-C , 16-O ) :   0.1014 B(  3-C , 21-C ) :   0.1249
B(  3-C , 24-H ) :   0.1155 B(  3-C , 25-H ) :   0.1582 B(  4-H ,  6-C ) :   0.2742
B(  5-H ,  6-C ) :   0.1923 B(  6-C , 15-F ) :   0.6814 B(  6-C , 16-O ) :   1.6155
B(  7-C ,  8-C ) :   1.4775 B(  7-C ,  9-N ) :   0.9118 B(  7-C , 11-H ) :  -0.1537
B(  7-C , 12-H ) :  -0.5627 B(  7-C , 13-H ) :   0.3648 B(  7-C , 14-H ) :   0.3944
B(  8-C ,  9-N ) :   0.2811 B(  8-C , 12-H ) :  -0.1119 B(  8-C , 13-H ) :   0.5669
B(  8-C , 14-H ) :   0.5729 B(  9-N , 10-H ) :   1.1409 B(  9-N , 11-H ) :   1.0058
B( 10-H , 11-H ) :  -0.2715 B( 11-H , 16-O ) :   0.1400 B( 12-H , 15-F ) :   0.2945
B( 12-H , 18-H ) :   0.1375 B( 13-H , 18-H ) :  -0.1067 B( 13-H , 19-H ) :   0.1596
B( 17-C , 19-H ) :   0.1515 B( 17-C , 26-C ) :   1.1415 B( 17-C , 27-H ) :   0.8947
B( 17-C , 28-H ) :   0.8986 B( 17-C , 29-C ) :   0.1035 B( 17-C , 30-H ) :   0.1391
B( 18-H , 19-H ) :  -0.2773 B( 20-C , 21-C ) :   1.2332 B( 20-C , 22-H ) :   0.1086
B( 20-C , 23-H ) :   0.1617 B( 20-C , 29-C ) :   0.1491 B( 20-C , 32-C ) :   1.1685
B( 20-C , 35-H ) :   1.0096 B( 20-C , 36-H ) :   0.7918 B( 20-C , 37-H ) :   0.2899
B( 20-C , 38-H ) :   0.1508 B( 21-C , 22-H ) :   0.9039 B( 21-C , 23-H ) :   0.8530
B( 21-C , 24-H ) :   0.2446 B( 21-C , 25-H ) :   0.1902 B( 21-C , 35-H ) :   0.1266
B( 21-C , 36-H ) :   0.1105 B( 24-H , 25-H ) :  -0.1300 B( 26-C , 27-H ) :   0.1728
B( 26-C , 28-H ) :   0.1043 B( 26-C , 29-C ) :   1.2710 B( 26-C , 30-H ) :   0.6188
B( 26-C , 31-H ) :   0.3679 B( 26-C , 33-H ) :   0.1143 B( 26-C , 34-H ) :   0.1609
B( 27-H , 31-H ) :   0.1111 B( 29-C , 30-H ) :   0.1005 B( 29-C , 31-H ) :   0.1397
B( 29-C , 32-C ) :   1.1155 B( 29-C , 33-H ) :   1.0208 B( 29-C , 34-H ) :   0.7981
B( 29-C , 37-H ) :   0.1207 B( 29-C , 38-H ) :   0.2407 B( 30-H , 31-H ) :   0.2592
B( 31-H , 36-H ) :   0.1098 B( 32-C , 37-H ) :   0.6262 B( 32-C , 38-H ) :   0.6638
B( 37-H , 38-H ) :  -0.1150

Dispersion correction           -0.044469858
FINAL SINGLE POINT ENERGY      -754.249483776310

DIPOLE MOMENT
-------------
                                X             Y             Z
Electronic contribution:      9.89396      10.27800       5.70947
Nuclear contribution   :    -11.22009      -8.67117      -6.77523
                        -----------------------------------------
Total Dipole Moment    :     -1.32613       1.60684      -1.06576
                        -----------------------------------------
Magnitude (a.u.)       :      2.34017
Magnitude (Debye)      :      5.94823

Rotational constants in cm-1:     0.020086     0.013778     0.009581
Rotational constants in MHz :   602.172053   413.051122   287.243919

                             ****ORCA TERMINATED NORMALLY****
TOTAL RUN TIME: 0 days 0 hours 1 minutes 18 seconds 205 msec
