                         Program Version 5.0.0 -  RELEASE  -
|  1> !PBE D3BJ RIJCOSX def2-SVPD def2/J TightSCF xyzfile
|  2>
|  3> *xyzfile 0 1 D3.xyz
|  4>
|  5> %MaxCore 64000
|  6>
|  7> %pal nprocs 4
|  8> end
|  9>
| 10> %scf
| 11>   MaxIter 150
| 12> end
| 13>
| 14>
| 15>                          ****END OF INPUT****

CARTESIAN COORDINATES (ANGSTROEM)
---------------------------------
  C      3.913853   -1.658291    3.015134
  N      5.039266   -0.901154    2.492821
  C      4.084215    1.742081   -2.114724
  C      4.265245    2.500518   -0.795890
  H      4.868534    3.392674   -0.981134
  H      3.307640    2.824571   -0.387809
  C      4.982240    1.650257    0.247422
  C      6.210384   -1.417261    2.178244
  N      6.535913   -2.677122    2.556078
  C      7.076754   -0.700820    1.478906
  H      7.954643   -1.121554    1.207554
  H      6.756161    0.106637    0.960278
  H      4.842168    0.017609    2.115191
  H      5.993876   -3.126918    3.282784
  H      7.498441   -2.975482    2.468776
  F      4.368065    1.389270    1.313706
  O      6.128919    1.233512   -0.045620
  C      3.139159   -2.376572    1.910609
  H      3.267235   -0.939401    3.520693
  H      4.247195   -2.355095    3.790065
  C      1.997274    0.430918   -1.399218
  C      3.412746    0.376886   -1.965497
  H      4.047407   -0.246590   -1.326706
  H      3.390774   -0.118719   -2.942839
  H      5.068475    1.598504   -2.565728
  H      3.503356    2.363939   -2.804565
  C      2.399946   -1.389579    1.009490
  H      2.440750   -3.087118    2.362976
  H      3.844475   -2.970462    1.318677
  C      2.070177   -1.936705   -0.372401
  H      1.481611   -1.061542    1.509912
  H      3.008628   -0.490001    0.897451
  C      1.322238   -0.935775   -1.256413
  H      1.472747   -2.850902   -0.283997
  H      3.003539   -2.234041   -0.862535
  H      1.376444    1.058920   -2.047420
  H      2.015341    0.929780   -0.426535
  H      0.316648   -0.787213   -0.848278
  H      1.185611   -1.379252   -2.248613

 Total Charge           Charge          ....    0
 Multiplicity           Mult            ....    1
 Number of Electrons    NEL             ....  126
 Basis Dimension        Dim             ....  510

ORBITAL ENERGIES
----------------

  NO   OCC          E(Eh)            E(eV)
   0   2.0000     -24.365399      -663.0162
   1   2.0000     -18.777871      -510.9718
   2   2.0000     -13.985894      -380.5755
   3   2.0000     -13.982208      -380.4752
   4   2.0000     -10.072901      -274.0976
   5   2.0000      -9.928630      -270.1718
   6   2.0000      -9.924296      -270.0538
   7   2.0000      -9.914723      -269.7933
   8   2.0000      -9.912149      -269.7233
   9   2.0000      -9.900145      -269.3966
  10   2.0000      -9.898295      -269.3463
  11   2.0000      -9.895089      -269.2591
  12   2.0000      -9.892147      -269.1790
  13   2.0000      -9.891637      -269.1651
  14   2.0000      -9.888509      -269.0800
  15   2.0000      -9.776352      -266.0280
  16   2.0000      -1.225766       -33.3548
  17   2.0000      -0.950906       -25.8755
  18   2.0000      -0.863857       -23.5067
  19   2.0000      -0.785001       -21.3610
  20   2.0000      -0.752685       -20.4816
  21   2.0000      -0.729205       -19.8427
  22   2.0000      -0.702189       -19.1075
  23   2.0000      -0.667352       -18.1596
  24   2.0000      -0.644003       -17.5242
  25   2.0000      -0.621891       -16.9225
  26   2.0000      -0.598424       -16.2840
  27   2.0000      -0.577103       -15.7038
  28   2.0000      -0.545678       -14.8487
  29   2.0000      -0.540691       -14.7130
  30   2.0000      -0.522215       -14.2102
  31   2.0000      -0.510288       -13.8856
  32   2.0000      -0.502249       -13.6669
  33   2.0000      -0.485709       -13.2168
  34   2.0000      -0.473924       -12.8961
  35   2.0000      -0.457619       -12.4524
  36   2.0000      -0.440142       -11.9769
  37   2.0000      -0.432419       -11.7667
  38   2.0000      -0.425467       -11.5776
  39   2.0000      -0.412981       -11.2378
  40   2.0000      -0.412134       -11.2147
  41   2.0000      -0.396646       -10.7933
  42   2.0000      -0.385404       -10.4874
  43   2.0000      -0.383437       -10.4339
  44   2.0000      -0.371360       -10.1052
  45   2.0000      -0.357152        -9.7186
  46   2.0000      -0.352689        -9.5972
  47   2.0000      -0.345190        -9.3931
  48   2.0000      -0.330390        -8.9904
  49   2.0000      -0.326386        -8.8814
  50   2.0000      -0.324400        -8.8274
  51   2.0000      -0.321546        -8.7497
  52   2.0000      -0.313442        -8.5292
  53   2.0000      -0.306711        -8.3460
  54   2.0000      -0.302236        -8.2242
  55   2.0000      -0.296375        -8.0648
  56   2.0000      -0.290077        -7.8934
  57   2.0000      -0.280653        -7.6370
  58   2.0000      -0.277517        -7.5516
  59   2.0000      -0.274954        -7.4819
  60   2.0000      -0.225720        -6.1421
  61   2.0000      -0.201012        -5.4698
  62   2.0000      -0.114484        -3.1153
  63   0.0000      -0.081520        -2.2183
  64   0.0000      -0.006455        -0.1757
  65   0.0000       0.004326         0.1177
  66   0.0000       0.007629         0.2076
  67   0.0000       0.012799         0.3483

MULLIKEN ATOMIC CHARGES
-----------------------
   0 C :    1.238054
   1 N :    0.259927
   2 C :    0.419197
   3 C :    0.275897
   4 H :   -0.132681
   5 H :    0.173472
   6 C :    0.471181
   7 C :    0.853327
   8 N :    0.145021
   9 C :    0.829506
  10 H :   -0.356853
  11 H :   -0.773559
  12 H :   -1.012960
  13 H :   -0.125848
  14 H :   -0.217364
  15 F :   -0.467757
  16 O :   -0.478911
  17 C :    0.286550
  18 H :   -0.366304
  19 H :   -0.253530
  20 C :   -0.121676
  21 C :   -0.149432
  22 H :    0.010451
  23 H :   -0.160733
  24 H :    0.028201
  25 H :   -0.118076
  26 C :    0.544501
  27 H :   -0.177540
  28 H :   -0.000408
  29 C :    0.011613
  30 H :   -0.001020
  31 H :   -0.859576
  32 C :    0.705791
  33 H :   -0.414050
  34 H :    0.142469
  35 H :   -0.419940
  36 H :    0.206373
  37 H :    0.015094
  38 H :   -0.008405
Sum of atomic charges:    0.0000000

LOEWDIN ATOMIC CHARGES
----------------------
   0 C :    0.051514
   1 N :    0.019789
   2 C :   -0.013932
   3 C :    0.052115
   4 H :    0.042856
   5 H :    0.019402
   6 C :    0.017569
   7 C :   -0.226058
   8 N :    0.211379
   9 C :    0.179555
  10 H :   -0.093053
  11 H :   -0.198095
  12 H :   -0.052220
  13 H :   -0.038840
  14 H :   -0.001837
  15 F :   -0.013386
  16 O :   -0.086080
  17 C :   -0.020146
  18 H :    0.023724
  19 H :    0.005170
  20 C :   -0.038357
  21 C :   -0.028278
  22 H :    0.017508
  23 H :    0.034187
  24 H :    0.031568
  25 H :    0.029629
  26 C :   -0.039123
  27 H :    0.022090
  28 H :    0.022069
  29 C :   -0.038604
  30 H :    0.036209
  31 H :   -0.022461
  32 C :   -0.031956
  33 H :    0.026496
  34 H :    0.021991
  35 H :    0.026497
  36 H :    0.004210
  37 H :    0.023598
  38 H :    0.023303

  Mayer bond orders larger than 0.100000
B(  0-C ,  1-N ) :   0.9312 B(  0-C , 12-H ) :  -0.4626 B(  0-C , 17-C ) :   1.0394
B(  0-C , 18-H ) :   0.5625 B(  0-C , 19-H ) :   0.7501 B(  0-C , 26-C ) :   0.1630
B(  0-C , 28-H ) :   0.1058 B(  1-N ,  7-C ) :   1.1099 B(  1-N ,  8-N ) :   0.2333
B(  1-N ,  9-C ) :   0.1557 B(  1-N , 12-H ) :   0.8879 B(  1-N , 18-H ) :   0.2288
B(  1-N , 19-H ) :   0.1121 B(  2-C ,  3-C ) :   1.1795 B(  2-C ,  4-H ) :   0.1790
B(  2-C ,  5-H ) :   0.1012 B(  2-C ,  6-C ) :   0.1019 B(  2-C , 21-C ) :   1.2771
B(  2-C , 22-H ) :   0.1161 B(  2-C , 24-H ) :   0.6455 B(  2-C , 25-H ) :   0.7899
B(  3-C ,  4-H ) :   0.6280 B(  3-C ,  5-H ) :   0.7246 B(  3-C ,  6-C ) :   1.2408
B(  3-C , 21-C ) :   0.1335 B(  3-C , 24-H ) :   0.1217 B(  3-C , 25-H ) :   0.1602
B(  4-H ,  6-C ) :   0.2883 B(  5-H ,  6-C ) :   0.1899 B(  6-C , 15-F ) :   0.6595
B(  6-C , 16-O ) :   1.7433 B(  7-C ,  8-N ) :   0.7703 B(  7-C ,  9-C ) :   1.3810
B(  7-C , 10-H ) :   0.2728 B(  7-C , 12-H ) :  -0.6753 B(  7-C , 14-H ) :  -0.1009
B(  7-C , 17-C ) :   0.1016 B(  7-C , 19-H ) :  -0.1152 B(  8-N ,  9-C ) :   0.3123
B(  8-N , 13-H ) :   0.9974 B(  8-N , 14-H ) :   1.2369 B(  8-N , 19-H ) :   0.1145
B(  9-C , 10-H ) :   0.5249 B(  9-C , 11-H ) :   0.4009 B( 10-H , 11-H ) :   0.2848
B( 11-H , 16-O ) :   0.1204 B( 12-H , 15-F ) :   0.1893 B( 12-H , 18-H ) :   0.1738
B( 13-H , 14-H ) :  -0.1964 B( 17-C , 19-H ) :   0.1794 B( 17-C , 26-C ) :   1.1140
B( 17-C , 27-H ) :   0.9136 B( 17-C , 28-H ) :   0.8627 B( 17-C , 29-C ) :   0.1009
B( 17-C , 30-H ) :   0.1441 B( 18-H , 19-H ) :  -0.2362 B( 20-C , 21-C ) :   1.2345
B( 20-C , 22-H ) :   0.1048 B( 20-C , 23-H ) :   0.1629 B( 20-C , 29-C ) :   0.1497
B( 20-C , 32-C ) :   1.1646 B( 20-C , 35-H ) :   1.0092 B( 20-C , 36-H ) :   0.7908
B( 20-C , 37-H ) :   0.2884 B( 20-C , 38-H ) :   0.1503 B( 21-C , 22-H ) :   0.9032
B( 21-C , 23-H ) :   0.8452 B( 21-C , 24-H ) :   0.2432 B( 21-C , 25-H ) :   0.1908
B( 21-C , 35-H ) :   0.1284 B( 21-C , 36-H ) :   0.1105 B( 24-H , 25-H ) :  -0.1305
B( 26-C , 27-H ) :   0.1762 B( 26-C , 29-C ) :   1.2678 B( 26-C , 30-H ) :   0.6412
B( 26-C , 31-H ) :   0.3544 B( 26-C , 33-H ) :   0.1162 B( 26-C , 34-H ) :   0.1651
B( 27-H , 31-H ) :   0.1062 B( 29-C , 30-H ) :   0.1018 B( 29-C , 31-H ) :   0.1440
B( 29-C , 32-C ) :   1.1134 B( 29-C , 33-H ) :   1.0194 B( 29-C , 34-H ) :   0.7974
B( 29-C , 37-H ) :   0.1208 B( 29-C , 38-H ) :   0.2388 B( 30-H , 31-H ) :   0.2062
B( 31-H , 36-H ) :   0.1051 B( 32-C , 37-H ) :   0.6273 B( 32-C , 38-H ) :   0.6662
B( 37-H , 38-H ) :  -0.1152

Dispersion correction           -0.044513417
FINAL SINGLE POINT ENERGY      -754.228399980620

DIPOLE MOMENT
-------------
                                X             Y             Z
Electronic contribution:      9.56254       8.56451       6.78096
Nuclear contribution   :    -11.12616      -8.32792      -6.96231
                        -----------------------------------------
Total Dipole Moment    :     -1.56361       0.23659      -0.18136
                        -----------------------------------------
Magnitude (a.u.)       :      1.59178
Magnitude (Debye)      :      4.04597

Rotational constants in cm-1:     0.020226     0.013574     0.009520
Rotational constants in MHz :   606.360011   406.923773   285.390769

                             ****ORCA TERMINATED NORMALLY****
TOTAL RUN TIME: 0 days 0 hours 1 minutes 2 seconds 456 msec
