                         Program Version 5.0.0 -  RELEASE  -
|  1> !LC-PBE RIJCOSX def2-SVPD def2/J TightSCF
|  2> *xyz -1 1
|  3> C          1.87218        0.42790       -2.07750
|  4> S          0.57902        0.14047       -3.29794
|  5> O          0.22886       -1.24687       -3.12787
|  6> O         -0.43927        1.11897       -3.01455
|  7> O          1.24788        0.40347       -4.59565
|  8> H          2.66832       -0.27048       -2.23022
|  9> H          1.46951        0.30034       -1.09440
| 10> H          2.24690        1.42458       -2.18288
| 11> *
| 12>
| 13> %MaxCore 64000
| 14>
| 15> %pal nprocs 8
| 16> end
| 17>
| 18> %scf
| 19>   MaxIter 150
| 20> end
| 21>
| 22>
| 23>                          ****END OF INPUT****

CARTESIAN COORDINATES (ANGSTROEM)
---------------------------------
  C      1.872180    0.427900   -2.077500
  S      0.579020    0.140470   -3.297940
  O      0.228860   -1.246870   -3.127870
  O     -0.439270    1.118970   -3.014550
  O      1.247880    0.403470   -4.595650
  H      2.668320   -0.270480   -2.230220
  H      1.469510    0.300340   -1.094400
  H      2.246900    1.424580   -2.182880

 Total Charge           Charge          ....   -1
 Multiplicity           Mult            ....    1
 Number of Electrons    NEL             ....   50
 Basis Dimension        Dim             ....  140

ORBITAL ENERGIES
----------------

  NO   OCC          E(Eh)            E(eV)
   0   2.0000     -88.315608     -2403.1899
   1   2.0000     -18.774794      -510.8881
   2   2.0000     -18.774692      -510.8853
   3   2.0000     -18.760086      -510.4879
   4   2.0000      -9.978677      -271.5336
   5   2.0000      -7.937361      -215.9866
   6   2.0000      -5.959652      -162.1704
   7   2.0000      -5.959564      -162.1680
   8   2.0000      -5.959415      -162.1639
   9   2.0000      -1.111301       -30.2400
  10   2.0000      -0.958543       -26.0833
  11   2.0000      -0.931415       -25.3451
  12   2.0000      -0.751724       -20.4555
  13   2.0000      -0.538893       -14.6640
  14   2.0000      -0.458388       -12.4734
  15   2.0000      -0.436733       -11.8841
  16   2.0000      -0.435421       -11.8484
  17   2.0000      -0.392881       -10.6908
  18   2.0000      -0.390724       -10.6321
  19   2.0000      -0.297208        -8.0874
  20   2.0000      -0.294105        -8.0030
  21   2.0000      -0.255151        -6.9430
  22   2.0000      -0.243316        -6.6210
  23   2.0000      -0.234888        -6.3916
  24   2.0000      -0.199331        -5.4241
  25   0.0000       0.211794         5.7632
  26   0.0000       0.232587         6.3290
  27   0.0000       0.232899         6.3375
  28   0.0000       0.236923         6.4470
  29   0.0000       0.272760         7.4222

MULLIKEN ATOMIC CHARGES
-----------------------
   0 C :    0.228687
   1 S :    0.989865
   2 O :   -0.725313
   3 O :   -0.722168
   4 O :   -0.771511
   5 H :    0.003012
   6 H :   -0.001689
   7 H :   -0.000883
Sum of atomic charges:   -1.0000000

LOEWDIN ATOMIC CHARGES
----------------------
   0 C :    0.020897
   1 S :    0.813344
   2 O :   -0.578790
   3 O :   -0.577765
   4 O :   -0.602520
   5 H :   -0.024270
   6 H :   -0.026254
   7 H :   -0.024642

  Mayer bond orders larger than 0.100000
B(  0-C ,  1-S ) :   0.9747 B(  0-C ,  5-H ) :   0.9406 B(  0-C ,  6-H ) :   0.9395
B(  0-C ,  7-H ) :   0.9420 B(  1-S ,  2-O ) :   1.3759 B(  1-S ,  3-O ) :   1.3771
B(  1-S ,  4-O ) :   1.3395 B(  1-S ,  5-H ) :   0.1003 B(  1-S ,  7-H ) :   0.1014

FINAL SINGLE POINT ENERGY      -662.427964659292

DIPOLE MOMENT
-------------
                                X             Y             Z
Electronic contribution:     -3.13461      -0.70766      -2.76447
Nuclear contribution   :      4.08143       0.90272       3.93680
                        -----------------------------------------
Total Dipole Moment    :      0.94682       0.19505       1.17233
                        -----------------------------------------
Magnitude (a.u.)       :      1.51950
Magnitude (Debye)      :      3.86226

Rotational constants in cm-1:     0.171796     0.158241     0.155560
Rotational constants in MHz :  5150.307583  4743.954688  4663.569252

                             ****ORCA TERMINATED NORMALLY****
TOTAL RUN TIME: 0 days 0 hours 0 minutes 7 seconds 96 msec
