                         Program Version 5.0.0 -  RELEASE  -
|  1> !LC-PBE RIJCOSX def2-SVPD def2/J TightSCF
|  2> *xyz 1 1
|  3> C          3.38093        2.08304       -3.35013
|  4> N          4.53592        1.18245       -3.42852
|  5> C          4.67196        0.12227       -4.22060
|  6> N          5.86602       -0.50785       -4.22428
|  7> N          3.69888       -0.31284       -4.98699
|  8> H          2.73141       -0.05009       -4.84900
|  9> H          3.89005       -1.05517       -5.64373
| 10> H          5.25193        1.30346       -2.72101
| 11> H          6.69516       -0.06232       -3.85160
| 12> H          5.97538       -1.39688       -4.69141
| 13> H          2.69962        1.85926       -4.14426
| 14> H          3.71221        3.09654       -3.43937
| 15> H          2.88835        1.95032       -2.40957
| 16> *
| 17>
| 18> %MaxCore 64000
| 19>
| 20> %pal nprocs 8
| 21> end
| 22>
| 23> %scf
| 24>   MaxIter 150
| 25> end
| 26>
| 27>
| 28>                          ****END OF INPUT****

CARTESIAN COORDINATES (ANGSTROEM)
---------------------------------
  C      3.380930    2.083040   -3.350130
  N      4.535920    1.182450   -3.428520
  C      4.671960    0.122270   -4.220600
  N      5.866020   -0.507850   -4.224280
  N      3.698880   -0.312840   -4.986990
  H      2.731410   -0.050090   -4.849000
  H      3.890050   -1.055170   -5.643730
  H      5.251930    1.303460   -2.721010
  H      6.695160   -0.062320   -3.851600
  H      5.975380   -1.396880   -4.691410
  H      2.699620    1.859260   -4.144260
  H      3.712210    3.096540   -3.439370
  H      2.888350    1.950320   -2.409570

 Total Charge           Charge          ....    1
 Multiplicity           Mult            ....    1
 Number of Electrons    NEL             ....   40
 Basis Dimension        Dim             ....  164

ORBITAL ENERGIES
----------------

  NO   OCC          E(Eh)            E(eV)
   0   2.0000     -14.462009      -393.5313
   1   2.0000     -14.460822      -393.4990
   2   2.0000     -14.452660      -393.2769
   3   2.0000     -10.478577      -285.1366
   4   2.0000     -10.331566      -281.1362
   5   2.0000      -1.391949       -37.8768
   6   2.0000      -1.272545       -34.6277
   7   2.0000      -1.255781       -34.1715
   8   2.0000      -1.070896       -29.1406
   9   2.0000      -0.986434       -26.8422
  10   2.0000      -0.945413       -25.7260
  11   2.0000      -0.904175       -24.6039
  12   2.0000      -0.846875       -23.0446
  13   2.0000      -0.839673       -22.8487
  14   2.0000      -0.800750       -21.7895
  15   2.0000      -0.778338       -21.1797
  16   2.0000      -0.736059       -20.0292
  17   2.0000      -0.718382       -19.5482
  18   2.0000      -0.616623       -16.7792
  19   2.0000      -0.584055       -15.8929
  20   0.0000      -0.080316        -2.1855
  21   0.0000      -0.075269        -2.0482
  22   0.0000      -0.040193        -1.0937
  23   0.0000      -0.035817        -0.9746
  24   0.0000      -0.007060        -0.1921

MULLIKEN ATOMIC CHARGES
-----------------------
   0 C :    0.858552
   1 N :   -0.617377
   2 C :    1.351816
   3 N :   -0.174195
   4 N :   -0.098125
   5 H :   -0.016025
   6 H :   -0.007731
   7 H :   -0.176506
   8 H :   -0.015872
   9 H :    0.021209
  10 H :   -0.100360
  11 H :   -0.009208
  12 H :   -0.016177
Sum of atomic charges:    1.0000000

LOEWDIN ATOMIC CHARGES
----------------------
   0 C :    0.237396
   1 N :    0.004763
   2 C :   -0.031697
   3 N :    0.240731
   4 N :    0.259905
   5 H :    0.041122
   6 H :    0.052068
   7 H :    0.068582
   8 H :    0.045776
   9 H :    0.042702
  10 H :   -0.003178
  11 H :    0.021469
  12 H :    0.020360

  Mayer bond orders larger than 0.100000
B(  0-C ,  1-N ) :   0.9392 B(  0-C ,  7-H ) :  -0.1515 B(  0-C , 10-H ) :   0.8895
B(  0-C , 11-H ) :   0.8438 B(  0-C , 12-H ) :   0.8596 B(  1-N ,  2-C ) :   1.0212
B(  1-N ,  3-N ) :   0.2430 B(  1-N ,  4-N ) :   0.2284 B(  1-N ,  7-H ) :   1.3254
B(  1-N , 10-H ) :   0.1583 B(  1-N , 11-H ) :   0.1443 B(  1-N , 12-H ) :   0.1245
B(  2-C ,  3-N ) :   0.8122 B(  2-C ,  4-N ) :   0.9868 B(  2-C ,  5-H ) :  -0.1450
B(  2-C ,  6-H ) :  -0.1323 B(  2-C ,  7-H ) :  -0.2166 B(  2-C ,  8-H ) :  -0.1579
B(  2-C ,  9-H ) :  -0.1007 B(  3-N ,  4-N ) :   0.1750 B(  3-N ,  8-H ) :   1.1914
B(  3-N ,  9-H ) :   1.1568 B(  4-N ,  5-H ) :   1.1623 B(  4-N ,  6-H ) :   1.1783
B(  5-H ,  6-H ) :  -0.1698 B(  8-H ,  9-H ) :  -0.1557

FINAL SINGLE POINT ENERGY      -244.162748237733

DIPOLE MOMENT
-------------
                                X             Y             Z
Electronic contribution:      1.69459      -1.99003      -0.72733
Nuclear contribution   :     -1.49827       1.51766       0.59175
                        -----------------------------------------
Total Dipole Moment    :      0.19631      -0.47236      -0.13558
                        -----------------------------------------
Magnitude (a.u.)       :      0.52919
Magnitude (Debye)      :      1.34511

Rotational constants in cm-1:     0.316446     0.130424     0.094259
Rotational constants in MHz :  9486.821695  3910.013387  2825.801764

                             ****ORCA TERMINATED NORMALLY****
TOTAL RUN TIME: 0 days 0 hours 0 minutes 10 seconds 400 msec
