                         Program Version 5.0.0 -  RELEASE  -
|  1> !LC-PBE RIJCOSX def2-SVPD def2/J TightSCF
|  2> *xyz 0 1
|  3> C          1.87218        0.42790       -2.07750
|  4> S          0.57902        0.14047       -3.29794
|  5> F          0.22886       -1.24687       -3.12787
|  6> O         -0.43927        1.11897       -3.01455
|  7> O          1.24788        0.40347       -4.59565
|  8> H          2.66832       -0.27048       -2.23022
|  9> H          1.46951        0.30034       -1.09440
| 10> H          2.24690        1.42458       -2.18288
| 11> *
| 12>
| 13> %MaxCore 64000
| 14>
| 15> %pal nprocs 8
| 16> end
| 17>
| 18> %scf
| 19>   MaxIter 150
| 20> end
| 21>
| 22>
| 23>                          ****END OF INPUT****

CARTESIAN COORDINATES (ANGSTROEM)
---------------------------------
  C      1.872180    0.427900   -2.077500
  S      0.579020    0.140470   -3.297940
  F      0.228860   -1.246870   -3.127870
  O     -0.439270    1.118970   -3.014550
  O      1.247880    0.403470   -4.595650
  H      2.668320   -0.270480   -2.230220
  H      1.469510    0.300340   -1.094400
  H      2.246900    1.424580   -2.182880

 Total Charge           Charge          ....    0
 Multiplicity           Mult            ....    1
 Number of Electrons    NEL             ....   50
 Basis Dimension        Dim             ....  140

ORBITAL ENERGIES
----------------

  NO   OCC          E(Eh)            E(eV)
   0   2.0000     -88.584109     -2410.4962
   1   2.0000     -24.638724      -670.4538
   2   2.0000     -19.015459      -517.4369
   3   2.0000     -19.000458      -517.0287
   4   2.0000     -10.189850      -277.2799
   5   2.0000      -8.206513      -223.3106
   6   2.0000      -6.233595      -169.6247
   7   2.0000      -6.226181      -169.4230
   8   2.0000      -6.225326      -169.3997
   9   2.0000      -1.550493       -42.1911
  10   2.0000      -1.289348       -35.0849
  11   2.0000      -1.174220       -31.9521
  12   2.0000      -0.976921       -26.5834
  13   2.0000      -0.885346       -24.0915
  14   2.0000      -0.770717       -20.9723
  15   2.0000      -0.755191       -20.5498
  16   2.0000      -0.712036       -19.3755
  17   2.0000      -0.631544       -17.1852
  18   2.0000      -0.625774       -17.0282
  19   2.0000      -0.610875       -16.6227
  20   2.0000      -0.584050       -15.8928
  21   2.0000      -0.538329       -14.6487
  22   2.0000      -0.480881       -13.0854
  23   2.0000      -0.466582       -12.6963
  24   2.0000      -0.449330       -12.2269
  25   0.0000       0.057932         1.5764
  26   0.0000       0.088308         2.4030
  27   0.0000       0.094393         2.5686
  28   0.0000       0.096763         2.6330
  29   0.0000       0.120695         3.2843

MULLIKEN ATOMIC CHARGES
-----------------------
   0 C :    0.175822
   1 S :    1.157444
   2 F :   -0.332422
   3 O :   -0.581140
   4 O :   -0.628628
   5 H :    0.072131
   6 H :    0.071199
   7 H :    0.065595
Sum of atomic charges:   -0.0000000

LOEWDIN ATOMIC CHARGES
----------------------
   0 C :    0.090679
   1 S :    1.082510
   2 F :   -0.241715
   3 O :   -0.460170
   4 O :   -0.483563
   5 H :    0.000130
   6 H :   -0.001018
   7 H :    0.013146

  Mayer bond orders larger than 0.100000
B(  0-C ,  1-S ) :   1.0271 B(  0-C ,  5-H ) :   0.9298 B(  0-C ,  6-H ) :   0.9292
B(  0-C ,  7-H ) :   0.9349 B(  1-S ,  2-F ) :   0.7552 B(  1-S ,  3-O ) :   1.5847
B(  1-S ,  4-O ) :   1.5481

FINAL SINGLE POINT ENERGY      -686.879323296988

DIPOLE MOMENT
-------------
                                X             Y             Z
Electronic contribution:     -3.74795      -3.05904      -2.45104
Nuclear contribution   :      4.52607       2.31146       3.82544
                        -----------------------------------------
Total Dipole Moment    :      0.77812      -0.74758       1.37440
                        -----------------------------------------
Magnitude (a.u.)       :      1.74738
Magnitude (Debye)      :      4.44148

Rotational constants in cm-1:     0.162724     0.156586     0.147157
Rotational constants in MHz :  4878.333818  4694.318771  4411.658495

                             ****ORCA TERMINATED NORMALLY****
TOTAL RUN TIME: 0 days 0 hours 0 minutes 6 seconds 915 msec
