                         Program Version 5.0.0 -  RELEASE  -
|  1> !LC-PBE RIJCOSX def2-SVPD def2/J TightSCF
|  2> *xyz 0 1
|  3> C          3.38093        2.08304       -3.35013
|  4> C          4.53592        1.18245       -3.42852
|  5> C          4.67196        0.12227       -4.22060
|  6> N          5.86602       -0.50785       -4.22428
|  7> N          3.69888       -0.31284       -4.98699
|  8> H          2.73141       -0.05009       -4.84900
|  9> H          3.89005       -1.05517       -5.64373
| 10> H          5.25193        1.30346       -2.72101
| 11> H          6.69516       -0.06232       -3.85160
| 12> H          5.97538       -1.39688       -4.69141
| 13> H          2.69962        1.85926       -4.14426
| 14> H          3.71221        3.09654       -3.43937
| 15> H          2.88835        1.95032       -2.40957
| 16> *
| 17>
| 18> %MaxCore 64000
| 19>
| 20> %pal nprocs 8
| 21> end
| 22>
| 23> %scf
| 24>   MaxIter 150
| 25> end
| 26>
| 27>
| 28>                          ****END OF INPUT****

CARTESIAN COORDINATES (ANGSTROEM)
---------------------------------
  C      3.380930    2.083040   -3.350130
  C      4.535920    1.182450   -3.428520
  C      4.671960    0.122270   -4.220600
  N      5.866020   -0.507850   -4.224280
  N      3.698880   -0.312840   -4.986990
  H      2.731410   -0.050090   -4.849000
  H      3.890050   -1.055170   -5.643730
  H      5.251930    1.303460   -2.721010
  H      6.695160   -0.062320   -3.851600
  H      5.975380   -1.396880   -4.691410
  H      2.699620    1.859260   -4.144260
  H      3.712210    3.096540   -3.439370
  H      2.888350    1.950320   -2.409570

 Total Charge           Charge          ....    0
 Multiplicity           Mult            ....    1
 Number of Electrons    NEL             ....   40
 Basis Dimension        Dim             ....  164

ORBITAL ENERGIES
----------------

  NO   OCC          E(Eh)            E(eV)
   0   2.0000     -14.230160      -387.2223
   1   2.0000     -14.222882      -387.0243
   2   2.0000     -10.173455      -276.8338
   3   2.0000     -10.089699      -274.5547
   4   2.0000     -10.050578      -273.4901
   5   2.0000      -1.128887       -30.7186
   6   2.0000      -1.027068       -27.9479
   7   2.0000      -0.917442       -24.9649
   8   2.0000      -0.815253       -22.1842
   9   2.0000      -0.737494       -20.0682
  10   2.0000      -0.692005       -18.8304
  11   2.0000      -0.650420       -17.6988
  12   2.0000      -0.619133       -16.8475
  13   2.0000      -0.569138       -15.4870
  14   2.0000      -0.547698       -14.9036
  15   2.0000      -0.513402       -13.9704
  16   2.0000      -0.495186       -13.4747
  17   2.0000      -0.469674       -12.7805
  18   2.0000      -0.398191       -10.8353
  19   2.0000      -0.272115        -7.4046
  20   0.0000       0.091627         2.4933
  21   0.0000       0.116971         3.1829
  22   0.0000       0.127267         3.4631
  23   0.0000       0.157285         4.2799
  24   0.0000       0.161847         4.4041

MULLIKEN ATOMIC CHARGES
-----------------------
   0 C :    0.660898
   1 C :   -0.743035
   2 C :    0.963768
   3 N :   -0.080770
   4 N :   -0.025367
   5 H :   -0.056796
   6 H :   -0.155505
   7 H :   -0.326059
   8 H :   -0.050868
   9 H :   -0.080159
  10 H :   -0.137183
  11 H :    0.031302
  12 H :   -0.000226
Sum of atomic charges:    0.0000000

LOEWDIN ATOMIC CHARGES
----------------------
   0 C :    0.070149
   1 C :   -0.087663
   2 C :   -0.236316
   3 N :    0.156672
   4 N :    0.172393
   5 H :    0.008036
   6 H :    0.003710
   7 H :   -0.040760
   8 H :    0.011233
   9 H :   -0.006652
  10 H :   -0.030658
  11 H :   -0.010448
  12 H :   -0.009694

  Mayer bond orders larger than 0.100000
B(  0-C ,  1-C ) :   1.1254 B(  0-C ,  7-H ) :   0.1358 B(  0-C , 10-H ) :   0.8567
B(  0-C , 11-H ) :   0.7642 B(  0-C , 12-H ) :   0.7668 B(  1-C ,  2-C ) :   1.6885
B(  1-C ,  3-N ) :   0.4303 B(  1-C ,  4-N ) :   0.2828 B(  1-C ,  7-H ) :   1.0012
B(  1-C , 10-H ) :   0.2866 B(  1-C , 11-H ) :   0.1656 B(  1-C , 12-H ) :   0.1477
B(  2-C ,  3-N ) :   0.7681 B(  2-C ,  4-N ) :   0.9953 B(  2-C ,  6-H ) :  -0.1383
B(  2-C ,  7-H ) :   0.1048 B(  2-C ,  8-H ) :  -0.1323 B(  3-N ,  4-N ) :   0.1160
B(  3-N ,  8-H ) :   1.1989 B(  3-N ,  9-H ) :   1.1444 B(  4-N ,  5-H ) :   1.1588
B(  4-N ,  6-H ) :   1.2625 B(  5-H ,  6-H ) :  -0.1643 B(  8-H ,  9-H ) :  -0.1497
B( 10-H , 11-H ) :   0.1267

FINAL SINGLE POINT ENERGY      -227.716482993439

DIPOLE MOMENT
-------------
                                X             Y             Z
Electronic contribution:      1.56189      -2.46016      -1.22334
Nuclear contribution   :     -1.47697       1.65537       0.71722
                        -----------------------------------------
Total Dipole Moment    :      0.08492      -0.80480      -0.50612
                        -----------------------------------------
Magnitude (a.u.)       :      0.95450
Magnitude (Debye)      :      2.42614

Rotational constants in cm-1:     0.321284     0.131400     0.095192
Rotational constants in MHz :  9631.850868  3939.260061  2853.789421

                             ****ORCA TERMINATED NORMALLY****
TOTAL RUN TIME: 0 days 0 hours 0 minutes 11 seconds 199 msec
