                         Program Version 5.0.0 -  RELEASE  -
|  1> !LC-PBE RIJCOSX def2-SVPD def2/J TightSCF
|  2> *xyz 0 1
|  3> C          1.87218        0.42790       -2.07750
|  4> S          0.57902        0.14047       -3.29794
|  5> O          0.22886       -1.24687       -3.12787
|  6> F         -0.43927        1.11897       -3.01455
|  7> O          1.24788        0.40347       -4.59565
|  8> H          2.66832       -0.27048       -2.23022
|  9> H          1.46951        0.30034       -1.09440
| 10> H          2.24690        1.42458       -2.18288
| 11> *
| 12>
| 13> %MaxCore 64000
| 14>
| 15> %pal nprocs 8
| 16> end
| 17>
| 18> %scf
| 19>   MaxIter 150
| 20> end
| 21>
| 22>
| 23>                          ****END OF INPUT****

CARTESIAN COORDINATES (ANGSTROEM)
---------------------------------
  C      1.872180    0.427900   -2.077500
  S      0.579020    0.140470   -3.297940
  O      0.228860   -1.246870   -3.127870
  F     -0.439270    1.118970   -3.014550
  O      1.247880    0.403470   -4.595650
  H      2.668320   -0.270480   -2.230220
  H      1.469510    0.300340   -1.094400
  H      2.246900    1.424580   -2.182880

 Total Charge           Charge          ....    0
 Multiplicity           Mult            ....    1
 Number of Electrons    NEL             ....   50
 Basis Dimension        Dim             ....  140

ORBITAL ENERGIES
----------------

  NO   OCC          E(Eh)            E(eV)
   0   2.0000     -88.584232     -2410.4995
   1   2.0000     -24.638798      -670.4558
   2   2.0000     -19.015575      -517.4401
   3   2.0000     -19.000632      -517.0335
   4   2.0000     -10.189692      -277.2756
   5   2.0000      -8.206612      -223.3133
   6   2.0000      -6.233702      -169.6277
   7   2.0000      -6.226257      -169.4251
   8   2.0000      -6.225448      -169.4031
   9   2.0000      -1.550749       -42.1980
  10   2.0000      -1.288914       -35.0731
  11   2.0000      -1.175109       -31.9763
  12   2.0000      -0.976106       -26.5612
  13   2.0000      -0.885431       -24.0938
  14   2.0000      -0.770945       -20.9785
  15   2.0000      -0.755030       -20.5454
  16   2.0000      -0.712297       -19.3826
  17   2.0000      -0.630931       -17.1685
  18   2.0000      -0.625856       -17.0304
  19   2.0000      -0.611602       -16.6425
  20   2.0000      -0.584184       -15.8965
  21   2.0000      -0.537577       -14.6282
  22   2.0000      -0.480447       -13.0736
  23   2.0000      -0.466332       -12.6896
  24   2.0000      -0.450385       -12.2556
  25   0.0000       0.057935         1.5765
  26   0.0000       0.088346         2.4040
  27   0.0000       0.094451         2.5702
  28   0.0000       0.096657         2.6302
  29   0.0000       0.120107         3.2683

MULLIKEN ATOMIC CHARGES
-----------------------
   0 C :    0.175953
   1 S :    1.160126
   2 O :   -0.584360
   3 F :   -0.330503
   4 O :   -0.630362
   5 H :    0.069173
   6 H :    0.070275
   7 H :    0.069697
Sum of atomic charges:    0.0000000

LOEWDIN ATOMIC CHARGES
----------------------
   0 C :    0.090537
   1 S :    1.082801
   2 O :   -0.461246
   3 F :   -0.240569
   4 O :   -0.483611
   5 H :    0.013385
   6 H :   -0.001413
   7 H :    0.000116

  Mayer bond orders larger than 0.100000
B(  0-C ,  1-S ) :   1.0281 B(  0-C ,  5-H ) :   0.9328 B(  0-C ,  6-H ) :   0.9283
B(  0-C ,  7-H ) :   0.9326 B(  1-S ,  2-O ) :   1.5844 B(  1-S ,  3-F ) :   0.7538
B(  1-S ,  4-O ) :   1.5470

FINAL SINGLE POINT ENERGY      -686.879365166297

DIPOLE MOMENT
-------------
                                X             Y             Z
Electronic contribution:     -4.87805       0.93857      -2.25702
Nuclear contribution   :      5.19357      -0.05217       3.71223
                        -----------------------------------------
Total Dipole Moment    :      0.31552       0.88640       1.45521
                        -----------------------------------------
Magnitude (a.u.)       :      1.73289
Magnitude (Debye)      :      4.40465

Rotational constants in cm-1:     0.163837     0.155047     0.147593
Rotational constants in MHz :  4911.724022  4648.196128  4424.713532

                             ****ORCA TERMINATED NORMALLY****
TOTAL RUN TIME: 0 days 0 hours 0 minutes 7 seconds 147 msec
