                         Program Version 5.0.0 -  RELEASE  -
|  1> !LC-PBE RIJCOSX def2-SVPD def2/J TightSCF
|  2> *xyz 0 1
|  3> C          3.38093        2.08304       -3.35013
|  4> N          4.53592        1.18245       -3.42852
|  5> C          4.67196        0.12227       -4.22060
|  6> C          5.86602       -0.50785       -4.22428
|  7> N          3.69888       -0.31284       -4.98699
|  8> H          2.73141       -0.05009       -4.84900
|  9> H          3.89005       -1.05517       -5.64373
| 10> H          5.25193        1.30346       -2.72101
| 11> H          6.69516       -0.06232       -3.85160
| 12> H          5.97538       -1.39688       -4.69141
| 13> H          2.69962        1.85926       -4.14426
| 14> H          3.71221        3.09654       -3.43937
| 15> H          2.88835        1.95032       -2.40957
| 16> *
| 17>
| 18> %MaxCore 64000
| 19>
| 20> %pal nprocs 8
| 21> end
| 22>
| 23> %scf
| 24>   MaxIter 150
| 25> end
| 26>
| 27>
| 28>                          ****END OF INPUT****

CARTESIAN COORDINATES (ANGSTROEM)
---------------------------------
  C      3.380930    2.083040   -3.350130
  N      4.535920    1.182450   -3.428520
  C      4.671960    0.122270   -4.220600
  C      5.866020   -0.507850   -4.224280
  N      3.698880   -0.312840   -4.986990
  H      2.731410   -0.050090   -4.849000
  H      3.890050   -1.055170   -5.643730
  H      5.251930    1.303460   -2.721010
  H      6.695160   -0.062320   -3.851600
  H      5.975380   -1.396880   -4.691410
  H      2.699620    1.859260   -4.144260
  H      3.712210    3.096540   -3.439370
  H      2.888350    1.950320   -2.409570

 Total Charge           Charge          ....    0
 Multiplicity           Mult            ....    1
 Number of Electrons    NEL             ....   40
 Basis Dimension        Dim             ....  164

ORBITAL ENERGIES
----------------

  NO   OCC          E(Eh)            E(eV)
   0   2.0000     -14.232456      -387.2848
   1   2.0000     -14.232206      -387.2780
   2   2.0000     -10.181617      -277.0559
   3   2.0000     -10.159228      -276.4466
   4   2.0000     -10.033027      -273.0125
   5   2.0000      -1.138916       -30.9915
   6   2.0000      -1.048319       -28.5262
   7   2.0000      -0.906943       -24.6792
   8   2.0000      -0.822898       -22.3922
   9   2.0000      -0.756592       -20.5879
  10   2.0000      -0.693437       -18.8694
  11   2.0000      -0.637804       -17.3555
  12   2.0000      -0.621946       -16.9240
  13   2.0000      -0.597578       -16.2609
  14   2.0000      -0.543160       -14.7801
  15   2.0000      -0.533579       -14.5194
  16   2.0000      -0.518631       -14.1127
  17   2.0000      -0.493239       -13.4217
  18   2.0000      -0.386043       -10.5048
  19   2.0000      -0.274553        -7.4710
  20   0.0000       0.083956         2.2846
  21   0.0000       0.117775         3.2048
  22   0.0000       0.122387         3.3303
  23   0.0000       0.153692         4.1822
  24   0.0000       0.159814         4.3488

MULLIKEN ATOMIC CHARGES
-----------------------
   0 C :    0.907185
   1 N :   -0.567627
   2 C :    0.748147
   3 C :    0.235237
   4 N :    0.011047
   5 H :   -0.115528
   6 H :   -0.037330
   7 H :   -0.223964
   8 H :   -0.350942
   9 H :   -0.306781
  10 H :   -0.143015
  11 H :   -0.074529
  12 H :   -0.081898
Sum of atomic charges:   -0.0000000

LOEWDIN ATOMIC CHARGES
----------------------
   0 C :    0.186048
   1 N :   -0.053647
   2 C :   -0.242532
   3 C :    0.104108
   4 N :    0.174497
   5 H :   -0.003507
   6 H :    0.021083
   7 H :    0.043251
   8 H :   -0.094963
   9 H :   -0.098667
  10 H :   -0.020898
  11 H :   -0.006856
  12 H :   -0.007917

  Mayer bond orders larger than 0.100000
B(  0-C ,  1-N ) :   0.9278 B(  0-C ,  7-H ) :  -0.1562 B(  0-C , 10-H ) :   0.8870
B(  0-C , 11-H ) :   0.8448 B(  0-C , 12-H ) :   0.8590 B(  1-N ,  2-C ) :   1.0386
B(  1-N ,  3-C ) :   0.2448 B(  1-N ,  4-N ) :   0.1736 B(  1-N ,  7-H ) :   1.2992
B(  1-N , 10-H ) :   0.1771 B(  1-N , 11-H ) :   0.1468 B(  1-N , 12-H ) :   0.1388
B(  2-C ,  3-C ) :   1.4663 B(  2-C ,  4-N ) :   1.0548 B(  2-C ,  7-H ) :  -0.2048
B(  2-C ,  9-H ) :   0.1349 B(  3-C ,  4-N ) :   0.1996 B(  3-C ,  8-H ) :   0.9576
B(  3-C ,  9-H ) :   0.8475 B(  4-N ,  5-H ) :   1.1841 B(  4-N ,  6-H ) :   1.1599
B(  5-H ,  6-H ) :  -0.1666

FINAL SINGLE POINT ENERGY      -227.699775214899

DIPOLE MOMENT
-------------
                                X             Y             Z
Electronic contribution:      0.13554      -0.80189      -0.45590
Nuclear contribution   :     -1.20756       1.31300       0.55604
                        -----------------------------------------
Total Dipole Moment    :     -1.07203       0.51111       0.10013
                        -----------------------------------------
Magnitude (a.u.)       :      1.19185
Magnitude (Debye)      :      3.02944

Rotational constants in cm-1:     0.323683     0.135884     0.097747
Rotational constants in MHz :  9703.770798  4073.695357  2930.389562

                             ****ORCA TERMINATED NORMALLY****
TOTAL RUN TIME: 0 days 0 hours 0 minutes 10 seconds 943 msec
