                         Program Version 5.0.0 -  RELEASE  -
|  1> !LC-PBE RIJCOSX def2-SVPD def2/J TightSCF
|  2> *xyz 0 1
|  3> C          1.87218        0.42790       -2.07750
|  4> S          0.57902        0.14047       -3.29794
|  5> O          0.22886       -1.24687       -3.12787
|  6> O         -0.43927        1.11897       -3.01455
|  7> F          1.24788        0.40347       -4.59565
|  8> H          2.66832       -0.27048       -2.23022
|  9> H          1.46951        0.30034       -1.09440
| 10> H          2.24690        1.42458       -2.18288
| 11> *
| 12>
| 13> %MaxCore 64000
| 14>
| 15> %pal nprocs 8
| 16> end
| 17>
| 18> %scf
| 19>   MaxIter 150
| 20> end
| 21>
| 22>
| 23>                          ****END OF INPUT****

CARTESIAN COORDINATES (ANGSTROEM)
---------------------------------
  C      1.872180    0.427900   -2.077500
  S      0.579020    0.140470   -3.297940
  O      0.228860   -1.246870   -3.127870
  O     -0.439270    1.118970   -3.014550
  F      1.247880    0.403470   -4.595650
  H      2.668320   -0.270480   -2.230220
  H      1.469510    0.300340   -1.094400
  H      2.246900    1.424580   -2.182880

 Total Charge           Charge          ....    0
 Multiplicity           Mult            ....    1
 Number of Electrons    NEL             ....   50
 Basis Dimension        Dim             ....  140

ORBITAL ENERGIES
----------------

  NO   OCC          E(Eh)            E(eV)
   0   2.0000     -88.582136     -2410.4425
   1   2.0000     -24.616897      -669.8598
   2   2.0000     -19.015151      -517.4286
   3   2.0000     -19.015092      -517.4269
   4   2.0000     -10.188650      -277.2473
   5   2.0000      -8.204378      -223.2525
   6   2.0000      -6.231250      -169.5609
   7   2.0000      -6.224236      -169.3701
   8   2.0000      -6.223470      -169.3492
   9   2.0000      -1.514949       -41.2239
  10   2.0000      -1.298300       -35.3285
  11   2.0000      -1.196386       -32.5553
  12   2.0000      -0.974038       -26.5049
  13   2.0000      -0.866957       -23.5911
  14   2.0000      -0.753365       -20.5001
  15   2.0000      -0.729585       -19.8530
  16   2.0000      -0.709717       -19.3124
  17   2.0000      -0.633714       -17.2442
  18   2.0000      -0.626480       -17.0474
  19   2.0000      -0.609385       -16.5822
  20   2.0000      -0.590941       -16.0803
  21   2.0000      -0.543712       -14.7951
  22   2.0000      -0.488609       -13.2957
  23   2.0000      -0.476705       -12.9718
  24   2.0000      -0.465801       -12.6751
  25   0.0000       0.060723         1.6523
  26   0.0000       0.089935         2.4472
  27   0.0000       0.095614         2.6018
  28   0.0000       0.096102         2.6151
  29   0.0000       0.120296         3.2734

MULLIKEN ATOMIC CHARGES
-----------------------
   0 C :    0.174274
   1 S :    1.167524
   2 O :   -0.596593
   3 O :   -0.594772
   4 F :   -0.356953
   5 H :    0.072995
   6 H :    0.065865
   7 H :    0.067659
Sum of atomic charges:   -0.0000000

LOEWDIN ATOMIC CHARGES
----------------------
   0 C :    0.090772
   1 S :    1.079913
   2 O :   -0.461623
   3 O :   -0.460709
   4 F :   -0.260249
   5 H :    0.000383
   6 H :    0.011918
   7 H :   -0.000406

  Mayer bond orders larger than 0.100000
B(  0-C ,  1-S ) :   1.0280 B(  0-C ,  5-H ) :   0.9320 B(  0-C ,  6-H ) :   0.9305
B(  0-C ,  7-H ) :   0.9329 B(  1-S ,  2-O ) :   1.5815 B(  1-S ,  3-O ) :   1.5816
B(  1-S ,  4-F ) :   0.7073

FINAL SINGLE POINT ENERGY      -686.898267288812

DIPOLE MOMENT
-------------
                                X             Y             Z
Electronic contribution:     -2.00928      -0.26645      -4.95619
Nuclear contribution   :      3.50800       0.66266       5.29185
                        -----------------------------------------
Total Dipole Moment    :      1.49873       0.39621       0.33566
                        -----------------------------------------
Magnitude (a.u.)       :      1.58614
Magnitude (Debye)      :      4.03164

Rotational constants in cm-1:     0.163942     0.153101     0.149133
Rotational constants in MHz :  4914.860621  4589.839477  4470.901507

                             ****ORCA TERMINATED NORMALLY****
TOTAL RUN TIME: 0 days 0 hours 0 minutes 7 seconds 421 msec
