                         Program Version 5.0.0 -  RELEASE  -
|  1> !LC-PBE RIJCOSX def2-SVPD def2/J TightSCF
|  2> *xyz 0 1
|  3> C          3.38093        2.08304       -3.35013
|  4> N          4.53592        1.18245       -3.42852
|  5> C          4.67196        0.12227       -4.22060
|  6> N          5.86602       -0.50785       -4.22428
|  7> C          3.69888       -0.31284       -4.98699
|  8> H          2.73141       -0.05009       -4.84900
|  9> H          3.89005       -1.05517       -5.64373
| 10> H          5.25193        1.30346       -2.72101
| 11> H          6.69516       -0.06232       -3.85160
| 12> H          5.97538       -1.39688       -4.69141
| 13> H          2.69962        1.85926       -4.14426
| 14> H          3.71221        3.09654       -3.43937
| 15> H          2.88835        1.95032       -2.40957
| 16> *
| 17>
| 18> %MaxCore 64000
| 19>
| 20> %pal nprocs 8
| 21> end
| 22>
| 23> %scf
| 24>   MaxIter 150
| 25> end
| 26>
| 27>
| 28>                          ****END OF INPUT****

CARTESIAN COORDINATES (ANGSTROEM)
---------------------------------
  C      3.380930    2.083040   -3.350130
  N      4.535920    1.182450   -3.428520
  C      4.671960    0.122270   -4.220600
  N      5.866020   -0.507850   -4.224280
  C      3.698880   -0.312840   -4.986990
  H      2.731410   -0.050090   -4.849000
  H      3.890050   -1.055170   -5.643730
  H      5.251930    1.303460   -2.721010
  H      6.695160   -0.062320   -3.851600
  H      5.975380   -1.396880   -4.691410
  H      2.699620    1.859260   -4.144260
  H      3.712210    3.096540   -3.439370
  H      2.888350    1.950320   -2.409570

 Total Charge           Charge          ....    0
 Multiplicity           Mult            ....    1
 Number of Electrons    NEL             ....   40
 Basis Dimension        Dim             ....  164

ORBITAL ENERGIES
----------------

  NO   OCC          E(Eh)            E(eV)
   0   2.0000     -14.232444      -387.2845
   1   2.0000     -14.225852      -387.1051
   2   2.0000     -10.178559      -276.9727
   3   2.0000     -10.149995      -276.1954
   4   2.0000     -10.038187      -273.1529
   5   2.0000      -1.132321       -30.8120
   6   2.0000      -1.039550       -28.2876
   7   2.0000      -0.885960       -24.1082
   8   2.0000      -0.859115       -23.3777
   9   2.0000      -0.717391       -19.5212
  10   2.0000      -0.695872       -18.9356
  11   2.0000      -0.661088       -17.9891
  12   2.0000      -0.600568       -16.3423
  13   2.0000      -0.580166       -15.7871
  14   2.0000      -0.556806       -15.1515
  15   2.0000      -0.523906       -14.2562
  16   2.0000      -0.518146       -14.0995
  17   2.0000      -0.493420       -13.4266
  18   2.0000      -0.378644       -10.3034
  19   2.0000      -0.287828        -7.8322
  20   0.0000       0.091611         2.4929
  21   0.0000       0.111109         3.0234
  22   0.0000       0.124421         3.3857
  23   0.0000       0.155751         4.2382
  24   0.0000       0.160050         4.3552

MULLIKEN ATOMIC CHARGES
-----------------------
   0 C :    0.874277
   1 N :   -0.528754
   2 C :    0.899380
   3 N :   -0.063797
   4 C :   -0.035351
   5 H :   -0.176503
   6 H :   -0.310748
   7 H :   -0.295197
   8 H :   -0.136876
   9 H :    0.004106
  10 H :   -0.082615
  11 H :   -0.059829
  12 H :   -0.088092
Sum of atomic charges:   -0.0000000

LOEWDIN ATOMIC CHARGES
----------------------
   0 C :    0.194748
   1 N :   -0.063830
   2 C :   -0.243828
   3 N :    0.161616
   4 C :    0.116453
   5 H :   -0.090770
   6 H :   -0.085033
   7 H :    0.028780
   8 H :   -0.002142
   9 H :    0.010555
  10 H :   -0.015823
  11 H :   -0.006043
  12 H :   -0.004683

  Mayer bond orders larger than 0.100000
B(  0-C ,  1-N ) :   0.9391 B(  0-C ,  7-H ) :  -0.1415 B(  0-C , 10-H ) :   0.8978
B(  0-C , 11-H ) :   0.8274 B(  0-C , 12-H ) :   0.8408 B(  1-N ,  2-C ) :   0.9423
B(  1-N ,  3-N ) :   0.1659 B(  1-N ,  4-C ) :   0.3043 B(  1-N ,  7-H ) :   1.3554
B(  1-N , 10-H ) :   0.1416 B(  1-N , 11-H ) :   0.1488 B(  1-N , 12-H ) :   0.1532
B(  2-C ,  3-N ) :   0.9052 B(  2-C ,  4-C ) :   1.6131 B(  2-C ,  6-H ) :   0.1058
B(  2-C ,  7-H ) :  -0.2237 B(  2-C ,  8-H ) :  -0.1123 B(  3-N ,  4-C ) :   0.2392
B(  3-N ,  8-H ) :   1.2269 B(  3-N ,  9-H ) :   1.1369 B(  4-C ,  5-H ) :   0.8086
B(  4-C ,  6-H ) :   0.9769 B(  8-H ,  9-H ) :  -0.1541

FINAL SINGLE POINT ENERGY      -227.704614811923

DIPOLE MOMENT
-------------
                                X             Y             Z
Electronic contribution:      2.31658      -1.01195       0.24416
Nuclear contribution   :     -1.64651       1.35250       0.40156
                        -----------------------------------------
Total Dipole Moment    :      0.67008       0.34056       0.64571
                        -----------------------------------------
Magnitude (a.u.)       :      0.99092
Magnitude (Debye)      :      2.51872

Rotational constants in cm-1:     0.339624     0.131069     0.096565
Rotational constants in MHz : 10181.679558  3929.342810  2894.941560

                             ****ORCA TERMINATED NORMALLY****
TOTAL RUN TIME: 0 days 0 hours 0 minutes 11 seconds 243 msec
