                         Program Version 5.0.0 -  RELEASE  -
|  1> !LC-PBE RIJCOSX def2-SVPD def2/J TightSCF xyzfile
|  2>
|  3> *xyzfile 0 1 D2.xyz
|  4>
|  5> %MaxCore 64000
|  6>
|  7> %pal nprocs 4
|  8> end
|  9>
| 10> %scf
| 11>   MaxIter 150
| 12> end
| 13>
| 14>
| 15>                          ****END OF INPUT****

CARTESIAN COORDINATES (ANGSTROEM)
---------------------------------
  C      3.380928    2.083045   -3.350127
  N      4.535924    1.182447   -3.428518
  C      2.495557    1.816150   -2.136364
  C      1.872181    0.427903   -2.077497
  H      2.614270   -0.365825   -2.198894
  H      1.389953    0.273087   -1.112360
  S      0.579024    0.140472   -3.297943
  C      4.671956    0.122273   -4.220598
  C      5.866023   -0.507849   -4.224284
  N      3.698881   -0.312844   -4.986988
  H      2.731405   -0.050091   -4.849000
  H      3.890046   -1.055172   -5.643730
  H      5.251933    1.303459   -2.721014
  H      6.695165   -0.062322   -3.851596
  H      5.975383   -1.396884   -4.691414
  F      0.228860   -1.246868   -3.127871
  O     -0.439269    1.118966   -3.014550
  O      1.247881    0.403474   -4.595647
  H      1.697003    2.561969   -2.141109
  H      3.080787    1.987436   -1.225838
  H      2.806463    1.986511   -4.268484
  H      3.778714    3.098282   -3.307383

 Total Charge           Charge          ....    0
 Multiplicity           Mult            ....    1
 Number of Electrons    NEL             ....   96
 Basis Dimension        Dim             ....  324

ORBITAL ENERGIES
----------------

  NO   OCC          E(Eh)            E(eV)
   0   2.0000     -88.601518     -2410.9699
   1   2.0000     -24.654030      -670.8703
   2   2.0000     -19.032811      -517.9091
   3   2.0000     -19.027222      -517.7570
   4   2.0000     -14.232935      -387.2978
   5   2.0000     -14.202294      -386.4641
   6   2.0000     -10.206797      -277.7411
   7   2.0000     -10.174485      -276.8618
   8   2.0000     -10.172318      -276.8028
   9   2.0000     -10.168553      -276.7004
  10   2.0000     -10.027269      -272.8559
  11   2.0000      -8.223419      -223.7706
  12   2.0000      -6.250431      -170.0829
  13   2.0000      -6.243599      -169.8970
  14   2.0000      -6.241786      -169.8476
  15   2.0000      -1.565122       -42.5891
  16   2.0000      -1.310697       -35.6659
  17   2.0000      -1.202401       -32.7190
  18   2.0000      -1.133987       -30.8574
  19   2.0000      -1.047393       -28.5010
  20   2.0000      -1.011881       -27.5347
  21   2.0000      -0.941014       -25.6063
  22   2.0000      -0.892649       -24.2902
  23   2.0000      -0.853977       -23.2379
  24   2.0000      -0.800881       -21.7931
  25   2.0000      -0.772417       -21.0185
  26   2.0000      -0.755710       -20.5639
  27   2.0000      -0.752759       -20.4836
  28   2.0000      -0.737829       -20.0773
  29   2.0000      -0.700587       -19.0639
  30   2.0000      -0.662504       -18.0276
  31   2.0000      -0.641890       -17.4667
  32   2.0000      -0.636626       -17.3235
  33   2.0000      -0.628103       -17.0916
  34   2.0000      -0.611221       -16.6322
  35   2.0000      -0.590183       -16.0597
  36   2.0000      -0.561989       -15.2925
  37   2.0000      -0.554631       -15.0923
  38   2.0000      -0.545562       -14.8455
  39   2.0000      -0.527415       -14.3517
  40   2.0000      -0.520833       -14.1726
  41   2.0000      -0.506545       -13.7838
  42   2.0000      -0.494095       -13.4450
  43   2.0000      -0.485100       -13.2002
  44   2.0000      -0.471344       -12.8259
  45   2.0000      -0.462014       -12.5720
  46   2.0000      -0.378867       -10.3095
  47   2.0000      -0.269647        -7.3375
  48   0.0000       0.054041         1.4705
  49   0.0000       0.075290         2.0487
  50   0.0000       0.084479         2.2988
  51   0.0000       0.088623         2.4115
  52   0.0000       0.104236         2.8364

MULLIKEN ATOMIC CHARGES
-----------------------
   0 C :    0.717592
   1 N :   -0.402667
   2 C :   -0.005558
   3 C :   -0.114847
   4 H :    0.228730
   5 H :   -0.005615
   6 S :    1.485292
   7 C :    0.525659
   8 C :    0.220710
   9 N :    0.529735
  10 H :   -0.459036
  11 H :   -0.133736
  12 H :   -0.187907
  13 H :   -0.324872
  14 H :   -0.216520
  15 F :   -0.380392
  16 O :   -0.638009
  17 O :   -0.762142
  18 H :    0.091375
  19 H :    0.058034
  20 H :   -0.012421
  21 H :   -0.213403
Sum of atomic charges:   -0.0000000

LOEWDIN ATOMIC CHARGES
----------------------
   0 C :    0.053611
   1 N :   -0.014708
   2 C :   -0.030814
   3 C :   -0.060435
   4 H :    0.037935
   5 H :    0.035373
   6 S :    1.152736
   7 C :   -0.242107
   8 C :    0.102055
   9 N :    0.212220
  10 H :   -0.152142
  11 H :    0.026099
  12 H :    0.045437
  13 H :   -0.098650
  14 H :   -0.098969
  15 F :   -0.223867
  16 O :   -0.438297
  17 O :   -0.451251
  18 H :    0.044272
  19 H :    0.049053
  20 H :    0.014828
  21 H :    0.037619

  Mayer bond orders larger than 0.100000
B(  0-C ,  1-N ) :   0.9713 B(  0-C ,  2-C ) :   1.1050 B(  0-C , 12-H ) :  -0.1833
B(  0-C , 18-H ) :   0.1252 B(  0-C , 19-H ) :   0.1155 B(  0-C , 20-H ) :   0.7797
B(  0-C , 21-H ) :   0.9390 B(  1-N ,  7-C ) :   1.0280 B(  1-N ,  8-C ) :   0.2136
B(  1-N ,  9-N ) :   0.1186 B(  1-N , 12-H ) :   1.2619 B(  1-N , 20-H ) :   0.2134
B(  1-N , 21-H ) :   0.1175 B(  2-C ,  3-C ) :   1.2910 B(  2-C ,  4-H ) :   0.1328
B(  2-C ,  5-H ) :   0.1481 B(  2-C , 18-H ) :   0.8615 B(  2-C , 19-H ) :   0.8433
B(  2-C , 20-H ) :   0.1357 B(  3-C ,  4-H ) :   0.8891 B(  3-C ,  5-H ) :   0.8476
B(  3-C ,  6-S ) :   0.9584 B(  3-C , 17-O ) :   0.1370 B(  3-C , 18-H ) :   0.1104
B(  6-S , 15-F ) :   0.7058 B(  6-S , 16-O ) :   1.5945 B(  6-S , 17-O ) :   1.3924
B(  7-C ,  8-C ) :   1.5502 B(  7-C ,  9-N ) :   1.0740 B(  7-C , 11-H ) :  -0.1027
B(  7-C , 12-H ) :  -0.2022 B(  7-C , 14-H ) :   0.1766 B(  8-C ,  9-N ) :   0.1307
B(  8-C , 13-H ) :   0.8292 B(  8-C , 14-H ) :   0.8280 B(  9-N , 10-H ) :   1.0319
B(  9-N , 11-H ) :   1.1551 B( 10-H , 11-H ) :  -0.2071 B( 10-H , 17-O ) :   0.1793
B( 13-H , 14-H ) :   0.1121 B( 20-H , 21-H ) :  -0.1214

FINAL SINGLE POINT ENERGY      -952.556028377936

DIPOLE MOMENT
-------------
                                X             Y             Z
Electronic contribution:    -16.71588      -5.24901      -0.28786
Nuclear contribution   :     16.05479       5.17692       1.74190
                        -----------------------------------------
Total Dipole Moment    :     -0.66109      -0.07209       1.45404
                        -----------------------------------------
Magnitude (a.u.)       :      1.59889
Magnitude (Debye)      :      4.06406

Rotational constants in cm-1:     0.058652     0.021107     0.018077
Rotational constants in MHz :  1758.344290   632.763813   541.920558

                             ****ORCA TERMINATED NORMALLY****
TOTAL RUN TIME: 0 days 0 hours 1 minutes 41 seconds 131 msec
