                         Program Version 5.0.0 -  RELEASE  -
|  1> !LC-PBE RIJCOSX def2-SVPD def2/J TightSCF xyzfile
|  2>
|  3> *xyzfile 0 1 D3.xyz
|  4>
|  5> %MaxCore 64000
|  6>
|  7> %pal nprocs 4
|  8> end
|  9>
| 10> %scf
| 11>   MaxIter 150
| 12> end
| 13>
| 14>
| 15>                          ****END OF INPUT****

CARTESIAN COORDINATES (ANGSTROEM)
---------------------------------
  C      3.380928    2.083045   -3.350127
  N      4.535924    1.182447   -3.428518
  C      2.495557    1.816150   -2.136364
  C      1.872181    0.427903   -2.077497
  H      2.614270   -0.365825   -2.198894
  H      1.389953    0.273087   -1.112360
  S      0.579024    0.140472   -3.297943
  C      4.671956    0.122273   -4.220598
  N      5.866023   -0.507849   -4.224284
  C      3.698881   -0.312844   -4.986988
  H      2.731405   -0.050091   -4.849000
  H      3.890046   -1.055172   -5.643730
  H      5.251933    1.303459   -2.721014
  H      6.695165   -0.062322   -3.851596
  H      5.975383   -1.396884   -4.691414
  F      0.228860   -1.246868   -3.127871
  O     -0.439269    1.118966   -3.014550
  O      1.247881    0.403474   -4.595647
  H      1.697003    2.561969   -2.141109
  H      3.080787    1.987436   -1.225838
  H      2.806463    1.986511   -4.268484
  H      3.778714    3.098282   -3.307383

 Total Charge           Charge          ....    0
 Multiplicity           Mult            ....    1
 Number of Electrons    NEL             ....   96
 Basis Dimension        Dim             ....  324

ORBITAL ENERGIES
----------------

  NO   OCC          E(Eh)            E(eV)
   0   2.0000     -88.579573     -2410.3727
   1   2.0000     -24.635142      -670.3563
   2   2.0000     -19.012901      -517.3673
   3   2.0000     -18.997142      -516.9385
   4   2.0000     -14.233130      -387.3032
   5   2.0000     -14.221615      -386.9898
   6   2.0000     -10.192053      -277.3399
   7   2.0000     -10.170238      -276.7463
   8   2.0000     -10.165024      -276.6044
   9   2.0000     -10.159698      -276.4594
  10   2.0000     -10.016251      -272.5561
  11   2.0000      -8.201358      -223.1703
  12   2.0000      -6.228431      -169.4842
  13   2.0000      -6.221405      -169.2930
  14   2.0000      -6.219822      -169.2500
  15   2.0000      -1.545890       -42.0658
  16   2.0000      -1.288222       -35.0543
  17   2.0000      -1.176829       -32.0232
  18   2.0000      -1.132382       -30.8137
  19   2.0000      -1.046410       -28.4743
  20   2.0000      -0.998541       -27.1717
  21   2.0000      -0.921631       -25.0788
  22   2.0000      -0.881219       -23.9792
  23   2.0000      -0.859376       -23.3848
  24   2.0000      -0.807135       -21.9633
  25   2.0000      -0.752423       -20.4745
  26   2.0000      -0.746072       -20.3017
  27   2.0000      -0.728051       -19.8113
  28   2.0000      -0.708269       -19.2730
  29   2.0000      -0.688483       -18.7346
  30   2.0000      -0.667160       -18.1543
  31   2.0000      -0.645830       -17.5739
  32   2.0000      -0.639690       -17.4069
  33   2.0000      -0.602651       -16.3990
  34   2.0000      -0.597121       -16.2485
  35   2.0000      -0.592212       -16.1149
  36   2.0000      -0.550023       -14.9669
  37   2.0000      -0.540625       -14.7111
  38   2.0000      -0.533617       -14.5205
  39   2.0000      -0.519452       -14.1350
  40   2.0000      -0.515060       -14.0155
  41   2.0000      -0.504655       -13.7324
  42   2.0000      -0.487474       -13.2648
  43   2.0000      -0.473456       -12.8834
  44   2.0000      -0.451537       -12.2870
  45   2.0000      -0.413800       -11.2601
  46   2.0000      -0.379552       -10.3281
  47   2.0000      -0.280366        -7.6292
  48   0.0000       0.064504         1.7553
  49   0.0000       0.081725         2.2238
  50   0.0000       0.093120         2.5339
  51   0.0000       0.094743         2.5781
  52   0.0000       0.113201         3.0804

MULLIKEN ATOMIC CHARGES
-----------------------
   0 C :    0.716674
   1 N :   -0.572736
   2 C :   -0.023442
   3 C :   -0.061902
   4 H :    0.184140
   5 H :   -0.006501
   6 S :    1.470788
   7 C :    0.928438
   8 N :   -0.046540
   9 C :    0.588671
  10 H :   -0.761501
  11 H :   -0.305948
  12 H :   -0.239885
  13 H :   -0.103368
  14 H :    0.012998
  15 F :   -0.382742
  16 O :   -0.652202
  17 O :   -0.762084
  18 H :    0.073435
  19 H :    0.055180
  20 H :    0.083413
  21 H :   -0.194888
Sum of atomic charges:    0.0000000

LOEWDIN ATOMIC CHARGES
----------------------
   0 C :    0.061100
   1 N :   -0.026404
   2 C :   -0.030011
   3 C :   -0.061089
   4 H :    0.033730
   5 H :    0.032192
   6 S :    1.144978
   7 C :   -0.237144
   8 N :    0.158917
   9 C :    0.157982
  10 H :   -0.206322
  11 H :   -0.071937
  12 H :    0.031388
  13 H :   -0.005320
  14 H :    0.009170
  15 F :   -0.228254
  16 O :   -0.449854
  17 O :   -0.461031
  18 H :    0.043849
  19 H :    0.045177
  20 H :    0.021254
  21 H :    0.037629

  Mayer bond orders larger than 0.100000
B(  0-C ,  1-N ) :   0.9329 B(  0-C ,  2-C ) :   1.0870 B(  0-C , 12-H ) :  -0.1644
B(  0-C , 18-H ) :   0.1206 B(  0-C , 20-H ) :   0.7374 B(  0-C , 21-H ) :   0.9569
B(  1-N ,  7-C ) :   0.8266 B(  1-N ,  8-N ) :   0.1930 B(  1-N ,  9-C ) :   0.2962
B(  1-N , 12-H ) :   1.4097 B(  1-N , 20-H ) :   0.1641 B(  1-N , 21-H ) :   0.1110
B(  2-C ,  3-C ) :   1.2859 B(  2-C ,  4-H ) :   0.1312 B(  2-C ,  5-H ) :   0.1559
B(  2-C , 18-H ) :   0.8776 B(  2-C , 19-H ) :   0.8519 B(  2-C , 20-H ) :   0.1307
B(  3-C ,  4-H ) :   0.9262 B(  3-C ,  5-H ) :   0.8255 B(  3-C ,  6-S ) :   0.9714
B(  3-C , 17-O ) :   0.1335 B(  3-C , 18-H ) :   0.1136 B(  6-S , 15-F ) :   0.6901
B(  6-S , 16-O ) :   1.5757 B(  6-S , 17-O ) :   1.4310 B(  7-C ,  8-N ) :   0.8703
B(  7-C ,  9-C ) :   1.8434 B(  7-C , 10-H ) :  -0.1267 B(  7-C , 11-H ) :   0.3002
B(  7-C , 12-H ) :  -0.2934 B(  8-N ,  9-C ) :   0.3383 B(  8-N , 13-H ) :   1.1770
B(  8-N , 14-H ) :   1.1317 B(  9-C , 10-H ) :   0.2935 B(  9-C , 11-H ) :   0.7693
B( 10-H , 17-O ) :   0.2084 B( 13-H , 14-H ) :  -0.1598 B( 20-H , 21-H ) :  -0.1409

FINAL SINGLE POINT ENERGY      -952.538894371590

DIPOLE MOMENT
-------------
                                X             Y             Z
Electronic contribution:    -14.64026      -5.50101       0.12757
Nuclear contribution   :     15.84345       5.19593       1.66752
                        -----------------------------------------
Total Dipole Moment    :      1.20319      -0.30507       1.79509
                        -----------------------------------------
Magnitude (a.u.)       :      2.18245
Magnitude (Debye)      :      5.54735

Rotational constants in cm-1:     0.059060     0.020573     0.017713
Rotational constants in MHz :  1770.576058   616.749938   531.036486

                             ****ORCA TERMINATED NORMALLY****
TOTAL RUN TIME: 0 days 0 hours 1 minutes 48 seconds 443 msec
