                         Program Version 5.0.0 -  RELEASE  -
|  1> !LC-PBE RIJCOSX def2-SVPD def2/J TightSCF xyzfile
|  2>
|  3> *xyzfile 0 1 D8.xyz
|  4>
|  5> %MaxCore 64000
|  6>
|  7> %pal nprocs 4
|  8> end
|  9>
| 10> %scf
| 11>   MaxIter 150
| 12> end
| 13>
| 14>
| 15>                          ****END OF INPUT****

CARTESIAN COORDINATES (ANGSTROEM)
---------------------------------
  C      3.380928    2.083045   -3.350127
  N      4.535924    1.182447   -3.428518
  C      2.495557    1.816150   -2.136364
  C      1.872181    0.427903   -2.077497
  H      2.614270   -0.365825   -2.198894
  H      1.389953    0.273087   -1.112360
  S      0.579024    0.140472   -3.297943
  C      4.671956    0.122273   -4.220598
  C      5.866023   -0.507849   -4.224284
  N      3.698881   -0.312844   -4.986988
  H      2.731405   -0.050091   -4.849000
  H      3.890046   -1.055172   -5.643730
  H      5.251933    1.303459   -2.721014
  H      6.695165   -0.062322   -3.851596
  H      5.975383   -1.396884   -4.691414
  O      0.228860   -1.246868   -3.127871
  O     -0.439269    1.118966   -3.014550
  F      1.247881    0.403474   -4.595647
  H      1.697003    2.561969   -2.141109
  H      3.080787    1.987436   -1.225838
  H      2.806463    1.986511   -4.268484
  H      3.778714    3.098282   -3.307383

 Total Charge           Charge          ....    0
 Multiplicity           Mult            ....    1
 Number of Electrons    NEL             ....   96
 Basis Dimension        Dim             ....  324

ORBITAL ENERGIES
----------------

  NO   OCC          E(Eh)            E(eV)
   0   2.0000     -88.590675     -2410.6748
   1   2.0000     -24.642088      -670.5453
   2   2.0000     -19.026732      -517.7437
   3   2.0000     -19.025851      -517.7197
   4   2.0000     -14.247034      -387.6815
   5   2.0000     -14.233219      -387.3056
   6   2.0000     -10.202007      -277.6107
   7   2.0000     -10.191400      -277.3221
   8   2.0000     -10.189191      -277.2620
   9   2.0000     -10.170091      -276.7422
  10   2.0000     -10.043111      -273.2869
  11   2.0000      -8.212818      -223.4821
  12   2.0000      -6.240224      -169.8051
  13   2.0000      -6.232628      -169.5984
  14   2.0000      -6.231216      -169.5600
  15   2.0000      -1.541914       -41.9576
  16   2.0000      -1.311111       -35.6771
  17   2.0000      -1.206752       -32.8374
  18   2.0000      -1.153261       -31.3818
  19   2.0000      -1.066561       -29.0226
  20   2.0000      -1.016252       -27.6536
  21   2.0000      -0.942825       -25.6556
  22   2.0000      -0.892312       -24.2811
  23   2.0000      -0.871084       -23.7034
  24   2.0000      -0.807556       -21.9747
  25   2.0000      -0.774431       -21.0733
  26   2.0000      -0.769494       -20.9390
  27   2.0000      -0.753652       -20.5079
  28   2.0000      -0.718299       -19.5459
  29   2.0000      -0.690820       -18.7982
  30   2.0000      -0.670414       -18.2429
  31   2.0000      -0.648536       -17.6476
  32   2.0000      -0.641773       -17.4635
  33   2.0000      -0.633357       -17.2345
  34   2.0000      -0.618148       -16.8207
  35   2.0000      -0.604696       -16.4546
  36   2.0000      -0.576604       -15.6902
  37   2.0000      -0.554828       -15.0976
  38   2.0000      -0.548477       -14.9248
  39   2.0000      -0.531920       -14.4743
  40   2.0000      -0.524949       -14.2846
  41   2.0000      -0.517127       -14.0717
  42   2.0000      -0.500316       -13.6143
  43   2.0000      -0.495481       -13.4827
  44   2.0000      -0.477841       -13.0027
  45   2.0000      -0.471893       -12.8409
  46   2.0000      -0.398266       -10.8374
  47   2.0000      -0.285743        -7.7755
  48   0.0000       0.062963         1.7133
  49   0.0000       0.076188         2.0732
  50   0.0000       0.086116         2.3433
  51   0.0000       0.089454         2.4342
  52   0.0000       0.108184         2.9438

MULLIKEN ATOMIC CHARGES
-----------------------
   0 C :    0.718494
   1 N :   -0.397577
   2 C :    0.022771
   3 C :   -0.052314
   4 H :    0.205369
   5 H :   -0.014631
   6 S :    1.357820
   7 C :    0.569519
   8 C :    0.208279
   9 N :    0.502198
  10 H :   -0.404430
  11 H :   -0.115004
  12 H :   -0.183773
  13 H :   -0.316394
  14 H :   -0.203057
  15 O :   -0.626228
  16 O :   -0.657360
  17 F :   -0.484415
  18 H :    0.101564
  19 H :    0.056683
  20 H :   -0.073689
  21 H :   -0.213823
Sum of atomic charges:   -0.0000000

LOEWDIN ATOMIC CHARGES
----------------------
   0 C :    0.048614
   1 N :   -0.013968
   2 C :   -0.045227
   3 C :   -0.053602
   4 H :    0.038627
   5 H :    0.048221
   6 S :    1.106902
   7 C :   -0.238153
   8 C :    0.112664
   9 N :    0.211718
  10 H :   -0.104025
  11 H :    0.031806
  12 H :    0.049094
  13 H :   -0.092101
  14 H :   -0.093183
  15 O :   -0.441937
  16 O :   -0.442489
  17 F :   -0.265513
  18 H :    0.041338
  19 H :    0.047180
  20 H :    0.014808
  21 H :    0.039226

  Mayer bond orders larger than 0.100000
B(  0-C ,  1-N ) :   0.9704 B(  0-C ,  2-C ) :   1.1080 B(  0-C , 12-H ) :  -0.1838
B(  0-C , 18-H ) :   0.1207 B(  0-C , 19-H ) :   0.1201 B(  0-C , 20-H ) :   0.7821
B(  0-C , 21-H ) :   0.9432 B(  1-N ,  7-C ) :   1.0183 B(  1-N ,  8-C ) :   0.2170
B(  1-N ,  9-N ) :   0.1187 B(  1-N , 12-H ) :   1.2527 B(  1-N , 20-H ) :   0.2118
B(  1-N , 21-H ) :   0.1210 B(  2-C ,  3-C ) :   1.2534 B(  2-C ,  4-H ) :   0.1349
B(  2-C ,  5-H ) :   0.1388 B(  2-C , 18-H ) :   0.8654 B(  2-C , 19-H ) :   0.8355
B(  2-C , 20-H ) :   0.1282 B(  3-C ,  4-H ) :   0.9175 B(  3-C ,  5-H ) :   0.8429
B(  3-C ,  6-S ) :   1.0336 B(  3-C , 18-H ) :   0.1193 B(  6-S , 15-O ) :   1.5759
B(  6-S , 16-O ) :   1.5726 B(  6-S , 17-F ) :   0.6688 B(  7-C ,  8-C ) :   1.5431
B(  7-C ,  9-N ) :   1.0473 B(  7-C , 11-H ) :  -0.1118 B(  7-C , 12-H ) :  -0.2053
B(  7-C , 14-H ) :   0.1721 B(  8-C ,  9-N ) :   0.1416 B(  8-C , 13-H ) :   0.8386
B(  8-C , 14-H ) :   0.8248 B(  9-N , 10-H ) :   1.0488 B(  9-N , 11-H ) :   1.1628
B( 10-H , 11-H ) :  -0.1826 B( 10-H , 17-F ) :   0.1135 B( 13-H , 14-H ) :   0.1064
B( 20-H , 21-H ) :  -0.1277

FINAL SINGLE POINT ENERGY      -952.561920693878

DIPOLE MOMENT
-------------
                                X             Y             Z
Electronic contribution:    -14.55702      -2.38704      -2.85338
Nuclear contribution   :     14.93782       3.36795       3.35075
                        -----------------------------------------
Total Dipole Moment    :      0.38080       0.98091       0.49737
                        -----------------------------------------
Magnitude (a.u.)       :      1.16386
Magnitude (Debye)      :      2.95829

Rotational constants in cm-1:     0.059219     0.021387     0.018380
Rotational constants in MHz :  1775.354399   641.172207   551.019443

                             ****ORCA TERMINATED NORMALLY****
TOTAL RUN TIME: 0 days 0 hours 1 minutes 40 seconds 432 msec
