                         Program Version 5.0.0 -  RELEASE  -
|  1> !PBE D3BJ RIJCOSX def2-SVPD def2/J TightSCF
|  2> *xyz -1 1
|  3> C         -0.95121        1.33498       -0.97250
|  4> C         -0.77455        2.78833       -0.54394
|  5> H         -1.35261        3.45937       -1.19259
|  6> H         -1.17101        2.90233        0.46997
|  7> C          0.69721        3.22791       -0.52513
|  8> O          1.48929        2.37470        0.19919
|  9> H          0.71600        4.26403       -0.13077
| 10> H          1.03615        3.33092       -1.58367
| 11> H         -0.56808        1.20618       -1.96322
| 12> H         -1.99081        1.08225       -0.95647
| 13> H         -0.41866        0.69710       -0.29841
| 14> *
| 15>
| 16> %MaxCore 64000
| 17> %pal nprocs 4
| 18> end
| 19>
| 20> %scf
| 21>   MaxIter 150
| 22> end
| 23>
| 24>
| 25>                          ****END OF INPUT****

CARTESIAN COORDINATES (ANGSTROEM)
---------------------------------
  C     -0.951210    1.334980   -0.972500
  C     -0.774550    2.788330   -0.543940
  H     -1.352610    3.459370   -1.192590
  H     -1.171010    2.902330    0.469970
  C      0.697210    3.227910   -0.525130
  O      1.489290    2.374700    0.199190
  H      0.716000    4.264030   -0.130770
  H      1.036150    3.330920   -1.583670
  H     -0.568080    1.206180   -1.963220
  H     -1.990810    1.082250   -0.956470
  H     -0.418660    0.697100   -0.298410

 Total Charge           Charge          ....   -1
 Multiplicity           Mult            ....    1
 Number of Electrons    NEL             ....   34
 Basis Dimension        Dim             ....  139

ORBITAL ENERGIES
----------------

  NO   OCC          E(Eh)            E(eV)
   0   2.0000     -18.448048      -501.9969
   1   2.0000      -9.713216      -264.3100
   2   2.0000      -9.710984      -264.2493
   3   2.0000      -9.705456      -264.0989
   4   2.0000      -0.600406       -16.3379
   5   2.0000      -0.505348       -13.7512
   6   2.0000      -0.398617       -10.8469
   7   2.0000      -0.302959        -8.2439
   8   2.0000      -0.226087        -6.1521
   9   2.0000      -0.218154        -5.9363
  10   2.0000      -0.172326        -4.6892
  11   2.0000      -0.144883        -3.9425
  12   2.0000      -0.121214        -3.2984
  13   2.0000      -0.109282        -2.9737
  14   2.0000      -0.074535        -2.0282
  15   2.0000       0.060658         1.6506
  16   2.0000       0.065244         1.7754
  17   0.0000       0.150146         4.0857
  18   0.0000       0.174369         4.7448
  19   0.0000       0.189864         5.1665
  20   0.0000       0.213223         5.8021
  21   0.0000       0.231573         6.3014

MULLIKEN ATOMIC CHARGES
-----------------------
   0 C :    0.616749
   1 C :   -0.625792
   2 H :   -0.058265
   3 H :   -0.035210
   4 C :    0.399398
   5 O :   -0.848535
   6 H :   -0.161376
   7 H :   -0.102127
   8 H :   -0.068468
   9 H :   -0.097086
  10 H :   -0.019287
Sum of atomic charges:   -1.0000000

LOEWDIN ATOMIC CHARGES
----------------------
   0 C :    0.080132
   1 C :   -0.124539
   2 H :   -0.015724
   3 H :   -0.001126
   4 C :   -0.228031
   5 O :   -0.518145
   6 H :   -0.038497
   7 H :   -0.032271
   8 H :   -0.034376
   9 H :   -0.051040
  10 H :   -0.036383

  Mayer bond orders larger than 0.100000
B(  0-C ,  1-C ) :   1.3029 B(  0-C ,  8-H ) :   0.8193 B(  0-C ,  9-H ) :   0.7888
B(  0-C , 10-H ) :   0.8175 B(  1-C ,  2-H ) :   1.0271 B(  1-C ,  3-H ) :   0.9618
B(  1-C ,  4-C ) :   1.0795 B(  1-C ,  5-O ) :   0.2125 B(  1-C ,  6-H ) :   0.1707
B(  1-C ,  7-H ) :   0.1620 B(  1-C ,  8-H ) :   0.2188 B(  1-C ,  9-H ) :   0.2147
B(  1-C , 10-H ) :   0.2223 B(  2-H ,  4-C ) :   0.1165 B(  3-H ,  4-C ) :   0.1284
B(  4-C ,  5-O ) :   1.1119 B(  4-C ,  6-H ) :   0.9456 B(  4-C ,  7-H ) :   0.9439
B(  6-H ,  7-H ) :   0.1029

Dispersion correction           -0.006642839
FINAL SINGLE POINT ENERGY      -193.370099170823

DIPOLE MOMENT
-------------
                                X             Y             Z
Electronic contribution:      2.66003      -0.03864       1.52750
Nuclear contribution   :     -4.35230      -0.04018      -2.29108
                        -----------------------------------------
Total Dipole Moment    :     -1.69227      -0.07882      -0.76358
                        -----------------------------------------
Magnitude (a.u.)       :      1.85824
Magnitude (Debye)      :      4.72327

Rotational constants in cm-1:     0.489965     0.184028     0.151025
Rotational constants in MHz : 14688.769521  5517.006179  4527.605157

                             ****ORCA TERMINATED NORMALLY****
TOTAL RUN TIME: 0 days 0 hours 0 minutes 4 seconds 624 msec
