                         Program Version 5.0.0 -  RELEASE  -
|  1> !PBE D3BJ RIJCOSX def2-SVPD def2/J TightSCF
|  2> *xyz 1 1
|  3> C          3.95643        0.50147       -0.37910
|  4> H          3.16840        0.02920        0.20738
|  5> N          3.80389        1.96157       -0.15675
|  6> C          3.84232        0.14849       -1.85406
|  7> H          4.92323        0.17798        0.00937
|  8> H          4.62002        0.69450       -2.40215
|  9> H          4.09601       -0.91093       -1.95510
| 10> C          2.47562        0.41271       -2.48538
| 11> H          4.20643        2.24441        0.74536
| 12> H          2.80827        2.21132       -0.09610
| 13> H          4.28076        2.50155       -0.89104
| 14> H          2.49958        0.13290       -3.51787
| 15> H          2.23992        1.45318       -2.40319
| 16> H          1.73061       -0.16300       -1.97702
| 17> *
| 18>
| 19> %MaxCore 64000
| 20> %pal nprocs 4
| 21> end
| 22>
| 23> %scf
| 24>   MaxIter 150
| 25> end
| 26>
| 27>
| 28>                          ****END OF INPUT****

CARTESIAN COORDINATES (ANGSTROEM)
---------------------------------
  C      3.956430    0.501470   -0.379100
  H      3.168400    0.029200    0.207380
  N      3.803890    1.961570   -0.156750
  C      3.842320    0.148490   -1.854060
  H      4.923230    0.177980    0.009370
  H      4.620020    0.694500   -2.402150
  H      4.096010   -0.910930   -1.955100
  C      2.475620    0.412710   -2.485380
  H      4.206430    2.244410    0.745360
  H      2.808270    2.211320   -0.096100
  H      4.280760    2.501550   -0.891040
  H      2.499580    0.132900   -3.517870
  H      2.239920    1.453180   -2.403190
  H      1.730610   -0.163000   -1.977020

 Total Charge           Charge          ....    1
 Multiplicity           Mult            ....    1
 Number of Electrons    NEL             ....   34
 Basis Dimension        Dim             ....  160

ORBITAL ENERGIES
----------------

  NO   OCC          E(Eh)            E(eV)
   0   2.0000     -14.329335      -389.9210
   1   2.0000     -10.142192      -275.9831
   2   2.0000     -10.076633      -274.1991
   3   2.0000     -10.042064      -273.2585
   4   2.0000      -1.125739       -30.6329
   5   2.0000      -0.898490       -24.4492
   6   2.0000      -0.814406       -22.1611
   7   2.0000      -0.754339       -20.5266
   8   2.0000      -0.736956       -20.0536
   9   2.0000      -0.712880       -19.3984
  10   2.0000      -0.641947       -17.4683
  11   2.0000      -0.584813       -15.9136
  12   2.0000      -0.563237       -15.3264
  13   2.0000      -0.542078       -14.7507
  14   2.0000      -0.485837       -13.2203
  15   2.0000      -0.479602       -13.0506
  16   2.0000      -0.471611       -12.8332
  17   0.0000      -0.213653        -5.8138
  18   0.0000      -0.161066        -4.3828
  19   0.0000      -0.157516        -4.2862
  20   0.0000      -0.140414        -3.8209
  21   0.0000      -0.114592        -3.1182

MULLIKEN ATOMIC CHARGES
-----------------------
   0 C :    0.632642
   1 H :   -0.073983
   2 N :   -0.732312
   3 C :   -0.375552
   4 H :   -0.080731
   5 H :   -0.043802
   6 H :   -0.077682
   7 C :    0.779553
   8 H :    0.317647
   9 H :    0.380297
  10 H :    0.409408
  11 H :   -0.052794
  12 H :   -0.092174
  13 H :    0.009484
Sum of atomic charges:    1.0000000

LOEWDIN ATOMIC CHARGES
----------------------
   0 C :    0.079811
   1 H :    0.055311
   2 N :    0.337852
   3 C :   -0.053441
   4 H :    0.054917
   5 H :    0.036168
   6 H :    0.048142
   7 C :    0.150342
   8 H :    0.103985
   9 H :    0.101316
  10 H :    0.103812
  11 H :    0.006483
  12 H :   -0.023910
  13 H :   -0.000788

  Mayer bond orders larger than 0.100000
B(  0-C ,  1-H ) :   0.8374 B(  0-C ,  2-N ) :   0.8113 B(  0-C ,  3-C ) :   1.1823
B(  0-C ,  4-H ) :   0.8940 B(  0-C ,  5-H ) :   0.1067 B(  0-C ,  6-H ) :   0.1280
B(  1-H ,  2-N ) :   0.1379 B(  1-H ,  3-C ) :   0.1023 B(  2-N ,  8-H ) :   0.7922
B(  2-N ,  9-H ) :   0.7542 B(  2-N , 10-H ) :   0.6721 B(  3-C ,  5-H ) :   0.9140
B(  3-C ,  6-H ) :   0.9618 B(  3-C ,  7-C ) :   1.3337 B(  3-C , 11-H ) :   0.2188
B(  3-C , 12-H ) :   0.2039 B(  3-C , 13-H ) :   0.1990 B(  7-C , 11-H ) :   0.7729
B(  7-C , 12-H ) :   0.8096 B(  7-C , 13-H ) :   0.7862

Dispersion correction           -0.009370726
FINAL SINGLE POINT ENERGY      -174.493802811525

DIPOLE MOMENT
-------------
                                X             Y             Z
Electronic contribution:      1.00893       1.15151       1.80727
Nuclear contribution   :     -0.57302       0.26376      -0.39709
                        -----------------------------------------
Total Dipole Moment    :      0.43591       1.41527       1.41018
                        -----------------------------------------
Magnitude (a.u.)       :      2.04490
Magnitude (Debye)      :      5.19772

Rotational constants in cm-1:     0.449370     0.157244     0.134525
Rotational constants in MHz : 13471.775278  4714.062641  4032.958796

                             ****ORCA TERMINATED NORMALLY****
TOTAL RUN TIME: 0 days 0 hours 0 minutes 4 seconds 960 msec
