                         Program Version 5.0.0 -  RELEASE  -
|  1> !PBE D3BJ RIJCOSX def2-SVPD def2/J TightSCF xyzfile
|  2>
|  3> *xyzfile 0 1 B.xyz
|  4>
|  5> %MaxCore 64000
|  6>
|  7> %pal nprocs 4
|  8> end
|  9>
| 10> %scf
| 11>   MaxIter 150
| 12> end
| 13>
| 14>
| 15>                          ****END OF INPUT****

CARTESIAN COORDINATES (ANGSTROEM)
---------------------------------
  C      3.956426    0.501466   -0.379100
  H      3.168398    0.029201    0.207383
  N      3.803893    1.961572   -0.156747
  C      3.842322    0.148490   -1.854058
  H      4.923231    0.177982    0.009371
  H      4.620021    0.694502   -2.402150
  H      4.096015   -0.910930   -1.955103
  C      2.475619    0.412708   -2.485377
  H      2.174689    1.445076   -2.287971
  C      1.383931   -0.532740   -1.995203
  H      2.575613    0.318574   -3.571460
  H      1.264698   -0.412309   -0.915491
  H      1.705223   -1.566885   -2.164984
  C      0.031398   -0.317260   -2.677791
  C     -0.587292    1.060853   -2.436460
  H     -0.662815   -1.089530   -2.329985
  H      0.149465   -0.478040   -3.755648
  H      0.104376    1.828590   -2.793130
  C     -0.951213    1.334978   -0.972500
  H     -1.478832    1.161355   -3.062484
  H     -0.317007    0.741648   -0.311389
  H     -1.980916    1.012842   -0.788958
  C     -0.774550    2.788332   -0.543943
  H     -1.352609    3.459372   -1.192585
  H     -1.171014    2.902331    0.469968
  C      0.697208    3.227911   -0.525126
  O      1.489294    2.374703    0.199189
  H      0.715998    4.264030   -0.130774
  H      1.036148    3.330920   -1.583669
  H      4.206425    2.244406    0.745359
  H      2.808269    2.211323   -0.096097
  H      4.280757    2.501552   -0.891037

 Total Charge           Charge          ....    0
 Multiplicity           Mult            ....    1
 Number of Electrons    NEL             ....   90
 Basis Dimension        Dim             ....  391

ORBITAL ENERGIES
----------------

  NO   OCC          E(Eh)            E(eV)
   0   2.0000     -18.643765      -507.3226
   1   2.0000     -14.079795      -383.1307
   2   2.0000      -9.962718      -271.0993
   3   2.0000      -9.920631      -269.9541
   4   2.0000      -9.895235      -269.2630
   5   2.0000      -9.882907      -268.9276
   6   2.0000      -9.879830      -268.8438
   7   2.0000      -9.877058      -268.7684
   8   2.0000      -9.864827      -268.4356
   9   2.0000      -9.852331      -268.0955
  10   2.0000      -9.845305      -267.9044
  11   2.0000      -0.902949       -24.5705
  12   2.0000      -0.800927       -21.7943
  13   2.0000      -0.739711       -20.1286
  14   2.0000      -0.702035       -19.1033
  15   2.0000      -0.666155       -18.1270
  16   2.0000      -0.627423       -17.0731
  17   2.0000      -0.592224       -16.1152
  18   2.0000      -0.558190       -15.1891
  19   2.0000      -0.530913       -14.4469
  20   2.0000      -0.520648       -14.1675
  21   2.0000      -0.512601       -13.9486
  22   2.0000      -0.487344       -13.2613
  23   2.0000      -0.453986       -12.3536
  24   2.0000      -0.443761       -12.0754
  25   2.0000      -0.419258       -11.4086
  26   2.0000      -0.419137       -11.4053
  27   2.0000      -0.389998       -10.6124
  28   2.0000      -0.378258       -10.2929
  29   2.0000      -0.372902       -10.1472
  30   2.0000      -0.356753        -9.7077
  31   2.0000      -0.347048        -9.4437
  32   2.0000      -0.338933        -9.2228
  33   2.0000      -0.322433        -8.7739
  34   2.0000      -0.313761        -8.5379
  35   2.0000      -0.303007        -8.2452
  36   2.0000      -0.293875        -7.9968
  37   2.0000      -0.284580        -7.7438
  38   2.0000      -0.276621        -7.5272
  39   2.0000      -0.270388        -7.3576
  40   2.0000      -0.250321        -6.8116
  41   2.0000      -0.246193        -6.6993
  42   2.0000      -0.241840        -6.5808
  43   2.0000      -0.143947        -3.9170
  44   2.0000      -0.134246        -3.6530
  45   0.0000      -0.035116        -0.9556
  46   0.0000      -0.000204        -0.0056
  47   0.0000       0.005175         0.1408
  48   0.0000       0.019308         0.5254
  49   0.0000       0.030863         0.8398

MULLIKEN ATOMIC CHARGES
-----------------------
   0 C :    0.877299
   1 H :    0.014061
   2 N :   -0.022856
   3 C :    0.221071
   4 H :   -0.297208
   5 H :   -0.079133
   6 H :   -0.079039
   7 C :    0.434920
   8 H :   -0.522762
   9 C :   -0.093890
  10 H :   -0.082568
  11 H :   -0.032631
  12 H :   -0.148668
  13 C :    0.569511
  14 C :    0.108179
  15 H :   -0.207073
  16 H :    0.035698
  17 H :   -0.066232
  18 C :    0.085308
  19 H :   -0.247788
  20 H :   -0.037306
  21 H :   -0.151039
  22 C :    0.221250
  23 H :   -0.136332
  24 H :    0.052179
  25 C :    0.434841
  26 O :   -0.630557
  27 H :   -0.375604
  28 H :    0.074284
  29 H :    0.324176
  30 H :   -0.589748
  31 H :    0.347657
Sum of atomic charges:    0.0000000

LOEWDIN ATOMIC CHARGES
----------------------
   0 C :    0.080589
   1 H :    0.038618
   2 N :    0.320549
   3 C :   -0.020714
   4 H :    0.027749
   5 H :    0.022249
   6 H :    0.029662
   7 C :   -0.021408
   8 H :   -0.003161
   9 C :   -0.030321
  10 H :    0.030599
  11 H :    0.003298
  12 H :    0.023894
  13 C :   -0.033632
  14 C :   -0.024446
  15 H :    0.023546
  16 H :    0.019290
  17 H :   -0.005502
  18 C :   -0.030137
  19 H :    0.019292
  20 H :   -0.006096
  21 H :    0.017268
  22 C :   -0.034753
  23 H :    0.019320
  24 H :    0.020841
  25 C :   -0.088274
  26 O :   -0.352775
  27 H :    0.004031
  28 H :   -0.009577
  29 H :    0.083667
  30 H :   -0.204143
  31 H :    0.080480

  Mayer bond orders larger than 0.100000
B(  0-C ,  1-H ) :   0.7527 B(  0-C ,  2-N ) :   0.8620 B(  0-C ,  3-C ) :   1.1537
B(  0-C ,  4-H ) :   0.8267 B(  0-C ,  6-H ) :   0.1471 B(  1-H ,  2-N ) :   0.1311
B(  1-H ,  3-C ) :   0.1177 B(  1-H ,  4-H ) :  -0.1479 B(  2-N ,  4-H ) :   0.1057
B(  2-N , 10-H ) :  -0.1047 B(  2-N , 29-H ) :   0.7884 B(  2-N , 30-H ) :   1.4453
B(  2-N , 31-H ) :   0.7690 B(  3-C ,  4-H ) :   0.1186 B(  3-C ,  5-H ) :   0.7277
B(  3-C ,  6-H ) :   0.8581 B(  3-C ,  7-C ) :   1.1896 B(  3-C ,  8-H ) :   0.1068
B(  5-H ,  7-C ) :   0.2464 B(  7-C ,  8-H ) :   0.7884 B(  7-C ,  9-C ) :   1.1977
B(  7-C , 10-H ) :   0.6496 B(  7-C , 11-H ) :   0.1345 B(  7-C , 12-H ) :   0.1652
B(  8-H ,  9-C ) :   0.2595 B(  8-H , 10-H ) :   0.1277 B(  9-C , 10-H ) :   0.1672
B(  9-C , 11-H ) :   0.8242 B(  9-C , 12-H ) :   0.8577 B(  9-C , 13-C ) :   1.2041
B(  9-C , 14-C ) :   0.1332 B(  9-C , 15-H ) :   0.3006 B(  9-C , 16-H ) :   0.1411
B( 11-H , 20-H ) :   0.1599 B( 13-C , 14-C ) :   1.1958 B( 13-C , 15-H ) :   0.6982
B( 13-C , 16-H ) :   0.6537 B( 13-C , 17-H ) :   0.1256 B( 13-C , 19-H ) :   0.1093
B( 14-C , 15-H ) :   0.1117 B( 14-C , 16-H ) :   0.2341 B( 14-C , 17-H ) :   0.8459
B( 14-C , 18-C ) :   1.2316 B( 14-C , 19-H ) :   0.8088 B( 14-C , 20-H ) :   0.1147
B( 14-C , 21-H ) :   0.2295 B( 15-H , 16-H ) :  -0.1367 B( 17-H , 18-C ) :   0.1299
B( 18-C , 19-H ) :   0.2032 B( 18-C , 20-H ) :   0.8028 B( 18-C , 21-H ) :   0.7697
B( 18-C , 22-C ) :   1.2727 B( 18-C , 23-H ) :   0.1251 B( 18-C , 24-H ) :   0.2255
B( 18-C , 25-C ) :   0.1157 B( 20-H , 22-C ) :   0.1514 B( 21-H , 22-C ) :   0.1247
B( 22-C , 23-H ) :   0.8270 B( 22-C , 24-H ) :   0.6493 B( 22-C , 25-C ) :   1.1771
B( 22-C , 26-O ) :   0.1023 B( 22-C , 27-H ) :   0.1105 B( 22-C , 28-H ) :   0.1028
B( 23-H , 25-C ) :   0.1885 B( 24-H , 25-C ) :   0.1269 B( 25-C , 26-O ) :   1.0117
B( 25-C , 27-H ) :   1.0056 B( 25-C , 28-H ) :   0.7765 B( 26-O , 30-H ) :   0.4035
B( 30-H , 31-H ) :  -0.1103

Dispersion correction           -0.033215252
FINAL SINGLE POINT ENERGY      -484.602191506381

DIPOLE MOMENT
-------------
                                X             Y             Z
Electronic contribution:      2.07369       0.89906       2.57826
Nuclear contribution   :      0.61785      -1.47632      -2.91844
                        -----------------------------------------
Total Dipole Moment    :      2.69154      -0.57726      -0.34018
                        -----------------------------------------
Magnitude (a.u.)       :      2.77369
Magnitude (Debye)      :      7.05015

Rotational constants in cm-1:     0.040993     0.027400     0.018162
Rotational constants in MHz :  1228.944366   821.418004   544.476857

                             ****ORCA TERMINATED NORMALLY****
TOTAL RUN TIME: 0 days 0 hours 0 minutes 35 seconds 494 msec
