                         Program Version 5.0.0 -  RELEASE  -
|  1> !PBE D3BJ RIJCOSX def2-SVPD def2/J TightSCF
|  2> *xyz 0 1
|  3> C         -0.95121        1.33498       -0.97250
|  4> C         -0.77455        2.78833       -0.54394
|  5> H         -1.35261        3.45937       -1.19259
|  6> H         -1.17101        2.90233        0.46997
|  7> C          0.69721        3.22791       -0.52513
|  8> F          1.48929        2.37470        0.19919
|  9> H          0.71600        4.26403       -0.13077
| 10> H          1.03615        3.33092       -1.58367
| 11> H         -0.56808        1.20618       -1.96322
| 12> H         -1.99081        1.08225       -0.95647
| 13> H         -0.41866        0.69710       -0.29841
| 14> *
| 15>
| 16> %MaxCore 64000
| 17> %pal nprocs 4
| 18> end
| 19>
| 20> %scf
| 21>   MaxIter 150
| 22> end
| 23>
| 24>
| 25>                          ****END OF INPUT****

CARTESIAN COORDINATES (ANGSTROEM)
---------------------------------
  C     -0.951210    1.334980   -0.972500
  C     -0.774550    2.788330   -0.543940
  H     -1.352610    3.459370   -1.192590
  H     -1.171010    2.902330    0.469970
  C      0.697210    3.227910   -0.525130
  F      1.489290    2.374700    0.199190
  H      0.716000    4.264030   -0.130770
  H      1.036150    3.330920   -1.583670
  H     -0.568080    1.206180   -1.963220
  H     -1.990810    1.082250   -0.956470
  H     -0.418660    0.697100   -0.298410

 Total Charge           Charge          ....    0
 Multiplicity           Mult            ....    1
 Number of Electrons    NEL             ....   34
 Basis Dimension        Dim             ....  139

ORBITAL ENERGIES
----------------

  NO   OCC          E(Eh)            E(eV)
   0   2.0000     -24.265954      -660.3102
   1   2.0000      -9.971667      -271.3429
   2   2.0000      -9.902766      -269.4680
   3   2.0000      -9.882519      -268.9170
   4   2.0000      -1.086522       -29.5658
   5   2.0000      -0.711873       -19.3711
   6   2.0000      -0.619005       -16.8440
   7   2.0000      -0.532308       -14.4848
   8   2.0000      -0.458783       -12.4841
   9   2.0000      -0.438611       -11.9352
  10   2.0000      -0.420422       -11.4403
  11   2.0000      -0.387011       -10.5311
  12   2.0000      -0.348785        -9.4909
  13   2.0000      -0.330231        -8.9860
  14   2.0000      -0.311433        -8.4745
  15   2.0000      -0.282750        -7.6940
  16   2.0000      -0.280227        -7.6254
  17   0.0000       0.002871         0.0781
  18   0.0000       0.028707         0.7812
  19   0.0000       0.038947         1.0598
  20   0.0000       0.047051         1.2803
  21   0.0000       0.067389         1.8337

MULLIKEN ATOMIC CHARGES
-----------------------
   0 C :    0.655377
   1 C :   -0.526843
   2 H :   -0.075471
   3 H :   -0.056209
   4 C :    0.715229
   5 F :   -0.414361
   6 H :   -0.090907
   7 H :   -0.037572
   8 H :   -0.061843
   9 H :   -0.080897
  10 H :   -0.026505
Sum of atomic charges:   -0.0000000

LOEWDIN ATOMIC CHARGES
----------------------
   0 C :    0.120341
   1 C :   -0.073973
   2 H :    0.028585
   3 H :    0.022639
   4 C :    0.080314
   5 F :   -0.189347
   6 H :    0.028262
   7 H :    0.035098
   8 H :   -0.015827
   9 H :   -0.018718
  10 H :   -0.017374

  Mayer bond orders larger than 0.100000
B(  0-C ,  1-C ) :   1.3522 B(  0-C ,  8-H ) :   0.8068 B(  0-C ,  9-H ) :   0.8022
B(  0-C , 10-H ) :   0.8123 B(  1-C ,  2-H ) :   0.9604 B(  1-C ,  3-H ) :   0.9333
B(  1-C ,  4-C ) :   1.2198 B(  1-C ,  6-H ) :   0.1254 B(  1-C ,  7-H ) :   0.1210
B(  1-C ,  8-H ) :   0.1945 B(  1-C ,  9-H ) :   0.2011 B(  1-C , 10-H ) :   0.1946
B(  4-C ,  5-F ) :   0.7587 B(  4-C ,  6-H ) :   0.8964 B(  4-C ,  7-H ) :   0.8855

Dispersion correction           -0.006275968
FINAL SINGLE POINT ENERGY      -217.960172750143

DIPOLE MOMENT
-------------
                                X             Y             Z
Electronic contribution:      5.52466       0.32668       2.76112
Nuclear contribution   :     -6.00193       0.02246      -3.08821
                        -----------------------------------------
Total Dipole Moment    :     -0.47727       0.34914      -0.32709
                        -----------------------------------------
Magnitude (a.u.)       :      0.67577
Magnitude (Debye)      :      1.71768

Rotational constants in cm-1:     0.475356     0.173608     0.142756
Rotational constants in MHz : 14250.818869  5204.623090  4279.716550

                             ****ORCA TERMINATED NORMALLY****
TOTAL RUN TIME: 0 days 0 hours 0 minutes 3 seconds 987 msec
