                         Program Version 5.0.0 -  RELEASE  -
|  1> !PBE D3BJ RIJCOSX def2-SVPD def2/J TightSCF
|  2> *xyz 0 1
|  3> C          3.95643        0.50147       -0.37910
|  4> H          3.16840        0.02920        0.20738
|  5> C          3.80389        1.96157       -0.15675
|  6> C          3.84232        0.14849       -1.85406
|  7> H          4.92323        0.17798        0.00937
|  8> H          4.62002        0.69450       -2.40215
|  9> H          4.09601       -0.91093       -1.95510
| 10> C          2.47562        0.41271       -2.48538
| 11> H          4.20643        2.24441        0.74536
| 12> H          2.80827        2.21132       -0.09610
| 13> H          4.28076        2.50155       -0.89104
| 14> H          2.49958        0.13290       -3.51787
| 15> H          2.23992        1.45318       -2.40319
| 16> H          1.73061       -0.16300       -1.97702
| 17> *
| 18>
| 19> %MaxCore 64000
| 20> %pal nprocs 4
| 21> end
| 22>
| 23> %scf
| 24>   MaxIter 150
| 25> end
| 26>
| 27>
| 28>                          ****END OF INPUT****

CARTESIAN COORDINATES (ANGSTROEM)
---------------------------------
  C      3.956430    0.501470   -0.379100
  H      3.168400    0.029200    0.207380
  C      3.803890    1.961570   -0.156750
  C      3.842320    0.148490   -1.854060
  H      4.923230    0.177980    0.009370
  H      4.620020    0.694500   -2.402150
  H      4.096010   -0.910930   -1.955100
  C      2.475620    0.412710   -2.485380
  H      4.206430    2.244410    0.745360
  H      2.808270    2.211320   -0.096100
  H      4.280760    2.501550   -0.891040
  H      2.499580    0.132900   -3.517870
  H      2.239920    1.453180   -2.403190
  H      1.730610   -0.163000   -1.977020

 Total Charge           Charge          ....    0
 Multiplicity           Mult            ....    1
 Number of Electrons    NEL             ....   34
 Basis Dimension        Dim             ....  160

ORBITAL ENERGIES
----------------

  NO   OCC          E(Eh)            E(eV)
   0   2.0000      -9.886149      -269.0158
   1   2.0000      -9.881931      -268.9010
   2   2.0000      -9.876130      -268.7432
   3   2.0000      -9.857735      -268.2426
   4   2.0000      -0.723835       -19.6966
   5   2.0000      -0.654485       -17.8094
   6   2.0000      -0.575466       -15.6592
   7   2.0000      -0.504010       -13.7148
   8   2.0000      -0.416046       -11.3212
   9   2.0000      -0.413204       -11.2439
  10   2.0000      -0.379782       -10.3344
  11   2.0000      -0.344838        -9.3835
  12   2.0000      -0.339355        -9.2343
  13   2.0000      -0.319925        -8.7056
  14   2.0000      -0.283509        -7.7147
  15   2.0000      -0.280329        -7.6282
  16   2.0000      -0.278265        -7.5720
  17   0.0000       0.007684         0.2091
  18   0.0000       0.035407         0.9635
  19   0.0000       0.036275         0.9871
  20   0.0000       0.043691         1.1889
  21   0.0000       0.073712         2.0058

MULLIKEN ATOMIC CHARGES
-----------------------
   0 C :   -0.244388
   1 H :   -0.063220
   2 C :    1.019454
   3 C :   -0.384980
   4 H :   -0.118170
   5 H :    0.011222
   6 H :   -0.125913
   7 C :    0.722843
   8 H :   -0.332618
   9 H :   -0.118366
  10 H :   -0.196495
  11 H :   -0.066155
  12 H :   -0.079885
  13 H :   -0.023328
Sum of atomic charges:    0.0000000

LOEWDIN ATOMIC CHARGES
----------------------
   0 C :   -0.083355
   1 H :    0.024682
   2 C :    0.116537
   3 C :   -0.090834
   4 H :    0.023170
   5 H :    0.023004
   6 H :    0.015388
   7 C :    0.126362
   8 H :   -0.035184
   9 H :   -0.030967
  10 H :   -0.028101
  11 H :   -0.019708
  12 H :   -0.024673
  13 H :   -0.016320

  Mayer bond orders larger than 0.100000
B(  0-C ,  1-H ) :   0.8584 B(  0-C ,  2-C ) :   1.2912 B(  0-C ,  3-C ) :   1.1949
B(  0-C ,  4-H ) :   0.9133 B(  0-C ,  5-H ) :   0.1165 B(  0-C ,  6-H ) :   0.1488
B(  0-C ,  8-H ) :   0.2536 B(  0-C ,  9-H ) :   0.2767 B(  0-C , 10-H ) :   0.2592
B(  1-H ,  2-C ) :   0.1536 B(  1-H ,  3-C ) :   0.1308 B(  2-C ,  8-H ) :   0.6756
B(  2-C ,  9-H ) :   0.6611 B(  2-C , 10-H ) :   0.7085 B(  3-C ,  5-H ) :   0.8739
B(  3-C ,  6-H ) :   0.9555 B(  3-C ,  7-C ) :   1.3342 B(  3-C , 11-H ) :   0.2253
B(  3-C , 12-H ) :   0.2144 B(  3-C , 13-H ) :   0.2068 B(  7-C , 11-H ) :   0.7406
B(  7-C , 12-H ) :   0.8337 B(  7-C , 13-H ) :   0.7856

Dispersion correction           -0.009379925
FINAL SINGLE POINT ENERGY      -158.097092602336

DIPOLE MOMENT
-------------
                                X             Y             Z
Electronic contribution:      0.49892      -0.62720       0.09882
Nuclear contribution   :     -0.48267       0.62853      -0.07145
                        -----------------------------------------
Total Dipole Moment    :      0.01625       0.00133       0.02737
                        -----------------------------------------
Magnitude (a.u.)       :      0.03186
Magnitude (Debye)      :      0.08098

Rotational constants in cm-1:     0.457318     0.164089     0.140183
Rotational constants in MHz : 13710.038687  4919.250587  4202.581436

                             ****ORCA TERMINATED NORMALLY****
TOTAL RUN TIME: 0 days 0 hours 0 minutes 5 seconds 21 msec
