                         Program Version 5.0.0 -  RELEASE  -
|  1> !PBE D3BJ RIJCOSX def2-SVPD def2/J TightSCF xyzfile
|  2>
|  3> *xyzfile 0 1 D.xyz
|  4>
|  5> %MaxCore 64000
|  6>
|  7> %pal nprocs 4
|  8> end
|  9>
| 10> %scf
| 11>   MaxIter 150
| 12> end
| 13>
| 14>
| 15>                          ****END OF INPUT****

CARTESIAN COORDINATES (ANGSTROEM)
---------------------------------
  C      3.956426    0.501466   -0.379100
  H      3.168398    0.029201    0.207383
  C      3.803893    1.961572   -0.156747
  C      3.842322    0.148490   -1.854058
  H      4.923231    0.177982    0.009371
  H      4.620021    0.694502   -2.402150
  H      4.096015   -0.910930   -1.955103
  C      2.475619    0.412708   -2.485377
  H      2.174689    1.445076   -2.287971
  C      1.383931   -0.532740   -1.995203
  H      2.575613    0.318574   -3.571460
  H      1.264698   -0.412309   -0.915491
  H      1.705223   -1.566885   -2.164984
  C      0.031398   -0.317260   -2.677791
  C     -0.587292    1.060853   -2.436460
  H     -0.662815   -1.089530   -2.329985
  H      0.149465   -0.478040   -3.755648
  H      0.104376    1.828590   -2.793130
  C     -0.951213    1.334978   -0.972500
  H     -1.478832    1.161355   -3.062484
  H     -0.317007    0.741648   -0.311389
  H     -1.980916    1.012842   -0.788958
  C     -0.774550    2.788332   -0.543943
  H     -1.352609    3.459372   -1.192585
  H     -1.171014    2.902331    0.469968
  C      0.697208    3.227911   -0.525126
  F      1.489294    2.374703    0.199189
  H      0.715998    4.264030   -0.130774
  H      1.036148    3.330920   -1.583669
  H      4.206425    2.244406    0.745359
  H      2.808269    2.211323   -0.096097
  H      4.280757    2.501552   -0.891037

 Total Charge           Charge          ....    0
 Multiplicity           Mult            ....    1
 Number of Electrons    NEL             ....   90
 Basis Dimension        Dim             ....  391

ORBITAL ENERGIES
----------------

  NO   OCC          E(Eh)            E(eV)
   0   2.0000     -24.286669      -660.8739
   1   2.0000      -9.982331      -271.6330
   2   2.0000      -9.907979      -269.6098
   3   2.0000      -9.895024      -269.2573
   4   2.0000      -9.891565      -269.1632
   5   2.0000      -9.888363      -269.0760
   6   2.0000      -9.882862      -268.9264
   7   2.0000      -9.880787      -268.8699
   8   2.0000      -9.874742      -268.7054
   9   2.0000      -9.864861      -268.4365
  10   2.0000      -9.813180      -267.0302
  11   2.0000      -1.118812       -30.4444
  12   2.0000      -0.741407       -20.1747
  13   2.0000      -0.722711       -19.6660
  14   2.0000      -0.691729       -18.8229
  15   2.0000      -0.663260       -18.0482
  16   2.0000      -0.618671       -16.8349
  17   2.0000      -0.596107       -16.2209
  18   2.0000      -0.556433       -15.1413
  19   2.0000      -0.538268       -14.6470
  20   2.0000      -0.503185       -13.6924
  21   2.0000      -0.494990       -13.4694
  22   2.0000      -0.470935       -12.8148
  23   2.0000      -0.459487       -12.5033
  24   2.0000      -0.442990       -12.0544
  25   2.0000      -0.419756       -11.4221
  26   2.0000      -0.409059       -11.1311
  27   2.0000      -0.401006       -10.9119
  28   2.0000      -0.383437       -10.4339
  29   2.0000      -0.378587       -10.3019
  30   2.0000      -0.364650        -9.9226
  31   2.0000      -0.349234        -9.5031
  32   2.0000      -0.341318        -9.2877
  33   2.0000      -0.332478        -9.0472
  34   2.0000      -0.322519        -8.7762
  35   2.0000      -0.311619        -8.4796
  36   2.0000      -0.306944        -8.3524
  37   2.0000      -0.300409        -8.1745
  38   2.0000      -0.284456        -7.7404
  39   2.0000      -0.280215        -7.6250
  40   2.0000      -0.274903        -7.4805
  41   2.0000      -0.274110        -7.4589
  42   2.0000      -0.259420        -7.0592
  43   2.0000      -0.258112        -7.0236
  44   2.0000      -0.232037        -6.3140
  45   0.0000      -0.000517        -0.0141
  46   0.0000       0.007625         0.2075
  47   0.0000       0.015689         0.4269
  48   0.0000       0.021229         0.5777
  49   0.0000       0.032887         0.8949

MULLIKEN ATOMIC CHARGES
-----------------------
   0 C :   -0.102616
   1 H :    0.055894
   2 C :    2.862322
   3 C :    0.323406
   4 H :   -0.363581
   5 H :   -0.006466
   6 H :   -0.063087
   7 C :    0.316368
   8 H :   -0.510758
   9 C :   -0.050135
  10 H :   -0.050511
  11 H :   -0.054947
  12 H :   -0.170243
  13 C :    0.564390
  14 C :    0.152257
  15 H :   -0.216656
  16 H :    0.045580
  17 H :   -0.106524
  18 C :    0.094372
  19 H :   -0.243728
  20 H :   -0.015013
  21 H :   -0.151864
  22 C :    0.194720
  23 H :   -0.105500
  24 H :    0.018627
  25 C :    0.645172
  26 F :   -0.521982
  27 H :   -0.266366
  28 H :    0.134281
  29 H :    0.073423
  30 H :   -2.362940
  31 H :   -0.117894
Sum of atomic charges:   -0.0000000

LOEWDIN ATOMIC CHARGES
----------------------
   0 C :   -0.056687
   1 H :    0.014764
   2 C :    0.136608
   3 C :   -0.037710
   4 H :    0.019198
   5 H :    0.024001
   6 H :    0.016890
   7 C :   -0.024653
   8 H :   -0.007267
   9 C :   -0.031207
  10 H :    0.027210
  11 H :    0.000565
  12 H :    0.028175
  13 C :   -0.033066
  14 C :   -0.023834
  15 H :    0.023561
  16 H :    0.023397
  17 H :   -0.003943
  18 C :   -0.023425
  19 H :    0.022391
  20 H :    0.002692
  21 H :    0.026484
  22 C :   -0.016537
  23 H :    0.036295
  24 H :    0.027395
  25 C :    0.141128
  26 F :   -0.154335
  27 H :    0.039419
  28 H :    0.029735
  29 H :   -0.025238
  30 H :   -0.176854
  31 H :   -0.025151

  Mayer bond orders larger than 0.100000
B(  0-C ,  1-H ) :   0.7596 B(  0-C ,  2-C ) :   0.6266 B(  0-C ,  3-C ) :   1.1703
B(  0-C ,  4-H ) :   0.9824 B(  0-C ,  5-H ) :   0.1311 B(  0-C ,  6-H ) :   0.1772
B(  0-C , 29-H ) :   0.1616 B(  0-C , 30-H ) :   0.8763 B(  0-C , 31-H ) :   0.3787
B(  1-H ,  2-C ) :   0.3236 B(  1-H ,  3-C ) :   0.1836 B(  1-H ,  4-H ) :  -0.2010
B(  1-H , 30-H ) :  -0.1712 B(  1-H , 31-H ) :  -0.1172 B(  2-C ,  4-H ) :  -0.1879
B(  2-C , 26-F ) :  -0.3010 B(  2-C , 29-H ) :   0.6721 B(  2-C , 30-H ) :  -4.2000
B(  2-C , 31-H ) :  -0.1470 B(  3-C ,  5-H ) :   0.6672 B(  3-C ,  6-H ) :   0.8309
B(  3-C ,  7-C ) :   1.2252 B(  3-C ,  8-H ) :   0.1305 B(  4-H , 29-H ) :  -0.1587
B(  4-H , 30-H ) :   0.1752 B(  4-H , 31-H ) :   0.2808 B(  5-H ,  6-H ) :  -0.1410
B(  5-H ,  7-C ) :   0.2741 B(  5-H , 31-H ) :   0.1491 B(  6-H , 31-H ) :  -0.1837
B(  7-C ,  8-H ) :   0.8268 B(  7-C ,  9-C ) :   1.2165 B(  7-C , 10-H ) :   0.6435
B(  7-C , 11-H ) :   0.1205 B(  7-C , 12-H ) :   0.1659 B(  8-H ,  9-C ) :   0.2064
B(  8-H , 10-H ) :   0.1174 B(  8-H , 30-H ) :   0.1074 B(  9-C , 10-H ) :   0.1835
B(  9-C , 11-H ) :   0.8413 B(  9-C , 12-H ) :   0.8721 B(  9-C , 13-C ) :   1.1981
B(  9-C , 14-C ) :   0.1254 B(  9-C , 15-H ) :   0.3016 B(  9-C , 16-H ) :   0.1497
B( 11-H , 13-C ) :   0.1034 B( 11-H , 20-H ) :   0.1467 B( 13-C , 14-C ) :   1.2064
B( 13-C , 15-H ) :   0.7086 B( 13-C , 16-H ) :   0.6457 B( 13-C , 17-H ) :   0.1341
B( 13-C , 19-H ) :   0.1158 B( 14-C , 15-H ) :   0.1127 B( 14-C , 16-H ) :   0.2330
B( 14-C , 17-H ) :   0.8366 B( 14-C , 18-C ) :   1.2291 B( 14-C , 19-H ) :   0.7961
B( 14-C , 20-H ) :   0.1097 B( 14-C , 21-H ) :   0.2284 B( 15-H , 16-H ) :  -0.1391
B( 17-H , 18-C ) :   0.1254 B( 18-C , 19-H ) :   0.1923 B( 18-C , 20-H ) :   0.8025
B( 18-C , 21-H ) :   0.8133 B( 18-C , 22-C ) :   1.2513 B( 18-C , 23-H ) :   0.1075
B( 18-C , 24-H ) :   0.2214 B( 18-C , 25-C ) :   0.1134 B( 20-H , 22-C ) :   0.1347
B( 21-H , 22-C ) :   0.1032 B( 22-C , 23-H ) :   0.8110 B( 22-C , 24-H ) :   0.6674
B( 22-C , 25-C ) :   1.2972 B( 22-C , 26-F ) :   0.1106 B( 22-C , 27-H ) :   0.1268
B( 23-H , 25-C ) :   0.1730 B( 24-H , 25-C ) :   0.1231 B( 25-C , 26-F ) :   0.6104
B( 25-C , 27-H ) :   0.9232 B( 25-C , 28-H ) :   0.7519 B( 25-C , 30-H ) :   0.2219
B( 26-F , 27-H ) :  -0.1044 B( 26-F , 30-H ) :   0.4770 B( 29-H , 30-H ) :   0.1687
B( 29-H , 31-H ) :  -0.2320 B( 30-H , 31-H ) :   0.8645

Dispersion correction           -0.032480341
FINAL SINGLE POINT ENERGY      -492.535907326002

DIPOLE MOMENT
-------------
                                X             Y             Z
Electronic contribution:     -1.94465       3.26722       4.29267
Nuclear contribution   :      1.09293      -2.80761      -4.51228
                        -----------------------------------------
Total Dipole Moment    :     -0.85172       0.45961      -0.21961
                        -----------------------------------------
Magnitude (a.u.)       :      0.99242
Magnitude (Debye)      :      2.52253

Rotational constants in cm-1:     0.040502     0.027818     0.018259
Rotational constants in MHz :  1214.218058   833.972871   547.398614

                             ****ORCA TERMINATED NORMALLY****
TOTAL RUN TIME: 0 days 0 hours 0 minutes 34 seconds 452 msec
