                         Program Version 5.0.0 -  RELEASE  -
|  1> !LC-BLYP RIJCOSX def2-SVP def2/J TightSCF
|  2> *xyz -1 1
|  3> C         -0.87096        0.24804       -2.66280
|  4> C         -0.47749        0.60819       -4.10105
|  5> H          0.20677        1.45830       -4.11875
|  6> H         -1.36844        0.92942       -4.64785
|  7> C          0.18467       -0.50664       -4.91676
|  8> O         -0.15869       -1.70109       -4.65798
|  9> O          1.05594       -0.17441       -5.74037
| 10> H         -1.54056       -0.58646       -2.67455
| 11> H         -1.35339        1.08600       -2.20455
| 12> H          0.00660       -0.00662       -2.10609
| 13> *
| 14>
| 15> %MaxCore 64000
| 16>
| 17> %pal nprocs 4
| 18> end
| 19>
| 20> %scf
| 21>   MaxIter 150
| 22> end
| 23>
| 24>
| 25>                          ****END OF INPUT****

CARTESIAN COORDINATES (ANGSTROEM)
---------------------------------
  C     -0.870960    0.248040   -2.662800
  C     -0.477490    0.608190   -4.101050
  H      0.206770    1.458300   -4.118750
  H     -1.368440    0.929420   -4.647850
  C      0.184670   -0.506640   -4.916760
  O     -0.158690   -1.701090   -4.657980
  O      1.055940   -0.174410   -5.740370
  H     -1.540560   -0.586460   -2.674550
  H     -1.353390    1.086000   -2.204550
  H      0.006600   -0.006620   -2.106090

 Total Charge           Charge          ....   -1
 Multiplicity           Mult            ....    1
 Number of Electrons    NEL             ....   40
 Basis Dimension        Dim             ....   95

ORBITAL ENERGIES
----------------

  NO   OCC          E(Eh)            E(eV)
   0   2.0000     -18.646425      -507.3950
   1   2.0000     -18.643735      -507.3218
   2   2.0000      -9.935371      -270.3552
   3   2.0000      -9.911190      -269.6972
   4   2.0000      -9.892956      -269.2010
   5   2.0000      -0.863562       -23.4987
   6   2.0000      -0.766335       -20.8530
   7   2.0000      -0.691195       -18.8084
   8   2.0000      -0.560906       -15.2630
   9   2.0000      -0.400514       -10.8985
  10   2.0000      -0.384528       -10.4635
  11   2.0000      -0.336025        -9.1437
  12   2.0000      -0.308426        -8.3927
  13   2.0000      -0.296718        -8.0741
  14   2.0000      -0.278536        -7.5793
  15   2.0000      -0.245885        -6.6909
  16   2.0000      -0.234619        -6.3843
  17   2.0000      -0.104940        -2.8556
  18   2.0000      -0.103295        -2.8108
  19   2.0000      -0.086076        -2.3423
  20   0.0000       0.287795         7.8313
  21   0.0000       0.339837         9.2474
  22   0.0000       0.351308         9.5596
  23   0.0000       0.357710         9.7338
  24   0.0000       0.369766        10.0618

MULLIKEN ATOMIC CHARGES
-----------------------
   0 C :    0.043450
   1 C :    0.011750
   2 H :   -0.058473
   3 H :   -0.045369
   4 C :   -0.114981
   5 O :   -0.385432
   6 O :   -0.350848
   7 H :   -0.014044
   8 H :   -0.064039
   9 H :   -0.022015
Sum of atomic charges:   -1.0000000

LOEWDIN ATOMIC CHARGES
----------------------
   0 C :   -0.077441
   1 C :   -0.102959
   2 H :    0.000874
   3 H :    0.009036
   4 C :   -0.089238
   5 O :   -0.395736
   6 O :   -0.364182
   7 H :    0.012703
   8 H :   -0.005664
   9 H :    0.012607

  Mayer bond orders larger than 0.100000
B(  0-C ,  1-C ) :   1.0834 B(  0-C ,  7-H ) :   0.9564 B(  0-C ,  8-H ) :   0.9546
B(  0-C ,  9-H ) :   0.9734 B(  1-C ,  2-H ) :   0.9353 B(  1-C ,  3-H ) :   0.9332
B(  1-C ,  4-C ) :   0.9077 B(  4-C ,  5-O ) :   1.9005 B(  4-C ,  6-O ) :   1.9529
B(  5-O ,  6-O ) :   0.1221

FINAL SINGLE POINT ENERGY      -267.007117999195

DIPOLE MOMENT
-------------
                                X             Y             Z
Electronic contribution:      2.71584      -3.05491      -4.70881
Nuclear contribution   :     -3.54611       4.15440       5.90446
                        -----------------------------------------
Total Dipole Moment    :     -0.83027       1.09949       1.19565
                        -----------------------------------------
Magnitude (a.u.)       :      1.82423
Magnitude (Debye)      :      4.63682

Rotational constants in cm-1:     0.332789     0.132085     0.101080
Rotational constants in MHz :  9976.755824  3959.803182  3030.288811

                             ****ORCA TERMINATED NORMALLY****
TOTAL RUN TIME: 0 days 0 hours 0 minutes 12 seconds 580 msec
