                         Program Version 5.0.0 -  RELEASE  -
|  1> !LC-BLYP RIJCOSX def2-SVP def2/J TightSCF
|  2> *xyz 1 1
|  3> C          2.48645       -2.67712       -2.56345
|  4> C          3.03764       -2.36672       -3.92351
|  5> N          2.28036       -2.45441       -4.96769
|  6> N          4.32174       -2.01793       -4.01664
|  7> H          4.87994       -1.91167       -3.17382
|  8> H          4.71015       -1.67088       -4.88356
|  9> H          1.27042       -2.41265       -4.86614
| 10> H          2.58183       -2.05528       -5.84688
| 11> C          2.49799       -1.46946       -1.61030
| 12> H          1.47259       -3.05153       -2.69437
| 13> H          3.08320       -3.49064       -2.14147
| 14> H          1.91240       -0.67831       -2.02991
| 15> H          3.50450       -1.13364       -1.47227
| 16> H          2.08509       -1.75655       -0.66585
| 17> *
| 18>
| 19> %MaxCore 64000
| 20>
| 21> %pal nprocs 4
| 22> end
| 23>
| 24> %scf
| 25>   MaxIter 150
| 26> end
| 27>
| 28>
| 29>                          ****END OF INPUT****

CARTESIAN COORDINATES (ANGSTROEM)
---------------------------------
  C      2.486450   -2.677120   -2.563450
  C      3.037640   -2.366720   -3.923510
  N      2.280360   -2.454410   -4.967690
  N      4.321740   -2.017930   -4.016640
  H      4.879940   -1.911670   -3.173820
  H      4.710150   -1.670880   -4.883560
  H      1.270420   -2.412650   -4.866140
  H      2.581830   -2.055280   -5.846880
  C      2.497990   -1.469460   -1.610300
  H      1.472590   -3.051530   -2.694370
  H      3.083200   -3.490640   -2.141470
  H      1.912400   -0.678310   -2.029910
  H      3.504500   -1.133640   -1.472270
  H      2.085090   -1.756550   -0.665850

 Total Charge           Charge          ....    1
 Multiplicity           Mult            ....    1
 Number of Electrons    NEL             ....   40
 Basis Dimension        Dim             ....  115

ORBITAL ENERGIES
----------------

  NO   OCC          E(Eh)            E(eV)
   0   2.0000     -14.436213      -392.8293
   1   2.0000     -14.430558      -392.6755
   2   2.0000     -10.410014      -283.2709
   3   2.0000     -10.281883      -279.7843
   4   2.0000     -10.242192      -278.7042
   5   2.0000      -1.299765       -35.3684
   6   2.0000      -1.201301       -32.6891
   7   2.0000      -1.071340       -29.1527
   8   2.0000      -0.965745       -26.2793
   9   2.0000      -0.918480       -24.9931
  10   2.0000      -0.878568       -23.9070
  11   2.0000      -0.851092       -23.1594
  12   2.0000      -0.801238       -21.8028
  13   2.0000      -0.759892       -20.6777
  14   2.0000      -0.724930       -19.7263
  15   2.0000      -0.711908       -19.3720
  16   2.0000      -0.646994       -17.6056
  17   2.0000      -0.635396       -17.2900
  18   2.0000      -0.624179       -16.9848
  19   2.0000      -0.592197       -16.1145
  20   0.0000      -0.123667        -3.3651
  21   0.0000      -0.072935        -1.9846
  22   0.0000      -0.028988        -0.7888
  23   0.0000      -0.027375        -0.7449
  24   0.0000       0.007450         0.2027

MULLIKEN ATOMIC CHARGES
-----------------------
   0 C :   -0.000679
   1 C :   -0.163637
   2 N :    0.092943
   3 N :    0.044079
   4 H :    0.181206
   5 H :    0.173032
   6 H :    0.187550
   7 H :    0.168623
   8 C :    0.009505
   9 H :    0.049584
  10 H :    0.096053
  11 H :    0.046823
  12 H :    0.033929
  13 H :    0.080988
Sum of atomic charges:    1.0000000

LOEWDIN ATOMIC CHARGES
----------------------
   0 C :   -0.042544
   1 C :    0.142279
   2 N :    0.111245
   3 N :    0.088863
   4 H :    0.122002
   5 H :    0.113322
   6 H :    0.127716
   7 H :    0.115430
   8 C :   -0.037976
   9 H :    0.054724
  10 H :    0.072489
  11 H :    0.041452
  12 H :    0.032476
  13 H :    0.058522

  Mayer bond orders larger than 0.100000
B(  0-C ,  1-C ) :   1.0337 B(  0-C ,  8-C ) :   1.0803 B(  0-C ,  9-H ) :   0.9216
B(  0-C , 10-H ) :   0.9174 B(  1-C ,  2-N ) :   1.5480 B(  1-C ,  3-N ) :   1.5117
B(  2-N ,  6-H ) :   0.9164 B(  2-N ,  7-H ) :   0.9292 B(  3-N ,  4-H ) :   0.9222
B(  3-N ,  5-H ) :   0.9288 B(  8-C , 11-H ) :   0.9696 B(  8-C , 12-H ) :   0.9708
B(  8-C , 13-H ) :   0.9597

FINAL SINGLE POINT ENERGY      -228.242947852303

DIPOLE MOMENT
-------------
                                X             Y             Z
Electronic contribution:      1.07847      -1.05847      -3.98842
Nuclear contribution   :     -0.84604       1.34287       2.92710
                        -----------------------------------------
Total Dipole Moment    :      0.23243       0.28440      -1.06132
                        -----------------------------------------
Magnitude (a.u.)       :      1.12308
Magnitude (Debye)      :      2.85463

Rotational constants in cm-1:     0.265816     0.126189     0.097583
Rotational constants in MHz :  7968.948902  3783.040103  2925.457702

                             ****ORCA TERMINATED NORMALLY****
TOTAL RUN TIME: 0 days 0 hours 0 minutes 14 seconds 237 msec
