                         Program Version 5.0.0 -  RELEASE  -
|  1> !LC-BLYP RIJCOSX def2-SVP def2/J TightSCF
|  2> *xyz 0 1
|  3> C         -0.87096        0.24804       -2.66280
|  4> C         -0.47749        0.60819       -4.10105
|  5> H          0.20677        1.45830       -4.11875
|  6> H         -1.36844        0.92942       -4.64785
|  7> C          0.18467       -0.50664       -4.91676
|  8> F         -0.15869       -1.70109       -4.65798
|  9> O          1.05594       -0.17441       -5.74037
| 10> H         -1.54056       -0.58646       -2.67455
| 11> H         -1.35339        1.08600       -2.20455
| 12> H          0.00660       -0.00662       -2.10609
| 13> *
| 14>
| 15> %MaxCore 64000
| 16>
| 17> %pal nprocs 4
| 18> end
| 19>
| 20> %scf
| 21>   MaxIter 150
| 22> end
| 23>
| 24>
| 25>                          ****END OF INPUT****

CARTESIAN COORDINATES (ANGSTROEM)
---------------------------------
  C     -0.870960    0.248040   -2.662800
  C     -0.477490    0.608190   -4.101050
  H      0.206770    1.458300   -4.118750
  H     -1.368440    0.929420   -4.647850
  C      0.184670   -0.506640   -4.916760
  F     -0.158690   -1.701090   -4.657980
  O      1.055940   -0.174410   -5.740370
  H     -1.540560   -0.586460   -2.674550
  H     -1.353390    1.086000   -2.204550
  H      0.006600   -0.006620   -2.106090

 Total Charge           Charge          ....    0
 Multiplicity           Mult            ....    1
 Number of Electrons    NEL             ....   40
 Basis Dimension        Dim             ....   95

ORBITAL ENERGIES
----------------

  NO   OCC          E(Eh)            E(eV)
   0   2.0000     -24.521413      -667.2616
   1   2.0000     -18.949394      -515.6392
   2   2.0000     -10.253637      -279.0156
   3   2.0000     -10.111774      -275.1554
   4   2.0000     -10.091131      -274.5936
   5   2.0000      -1.361286       -37.0425
   6   2.0000      -1.110226       -30.2108
   7   2.0000      -0.900592       -24.5063
   8   2.0000      -0.777755       -21.1638
   9   2.0000      -0.732008       -19.9190
  10   2.0000      -0.643452       -17.5092
  11   2.0000      -0.634282       -17.2597
  12   2.0000      -0.584798       -15.9132
  13   2.0000      -0.563981       -15.3467
  14   2.0000      -0.528524       -14.3819
  15   2.0000      -0.497080       -13.5262
  16   2.0000      -0.481042       -13.0898
  17   2.0000      -0.471598       -12.8328
  18   2.0000      -0.440925       -11.9982
  19   2.0000      -0.381125       -10.3709
  20   0.0000       0.070869         1.9284
  21   0.0000       0.124409         3.3853
  22   0.0000       0.176157         4.7935
  23   0.0000       0.188399         5.1266
  24   0.0000       0.202748         5.5170

MULLIKEN ATOMIC CHARGES
-----------------------
   0 C :   -0.003770
   1 C :   -0.071269
   2 H :    0.049743
   3 H :    0.052130
   4 C :    0.115260
   5 F :   -0.042363
   6 O :   -0.175897
   7 H :    0.025181
   8 H :    0.023427
   9 H :    0.027556
Sum of atomic charges:   -0.0000000

LOEWDIN ATOMIC CHARGES
----------------------
   0 C :   -0.065194
   1 C :   -0.082491
   2 H :    0.049734
   3 H :    0.051532
   4 C :    0.068455
   5 F :    0.046151
   6 O :   -0.161061
   7 H :    0.028192
   8 H :    0.034177
   9 H :    0.030505

  Mayer bond orders larger than 0.100000
B(  0-C ,  1-C ) :   1.0740 B(  0-C ,  7-H ) :   0.9710 B(  0-C ,  8-H ) :   0.9628
B(  0-C ,  9-H ) :   0.9790 B(  1-C ,  2-H ) :   0.9470 B(  1-C ,  3-H ) :   0.9300
B(  1-C ,  4-C ) :   0.9948 B(  4-C ,  5-F ) :   1.2418 B(  4-C ,  6-O ) :   2.1713

FINAL SINGLE POINT ENERGY      -291.554669858155

DIPOLE MOMENT
-------------
                                X             Y             Z
Electronic contribution:      2.66706      -5.40432      -5.38589
Nuclear contribution   :     -3.42837       5.66737       6.17046
                        -----------------------------------------
Total Dipole Moment    :     -0.76131       0.26305       0.78456
                        -----------------------------------------
Magnitude (a.u.)       :      1.12442
Magnitude (Debye)      :      2.85805

Rotational constants in cm-1:     0.304660     0.130969     0.097716
Rotational constants in MHz :  9133.464515  3926.366384  2929.457090

                             ****ORCA TERMINATED NORMALLY****
TOTAL RUN TIME: 0 days 0 hours 0 minutes 12 seconds 256 msec
