                         Program Version 5.0.0 -  RELEASE  -
|  1> !LC-BLYP RIJCOSX def2-SVP def2/J TightSCF
|  2> *xyz 0 1
|  3> C          2.48645       -2.67712       -2.56345
|  4> C          3.03764       -2.36672       -3.92351
|  5> C          2.28036       -2.45441       -4.96769
|  6> N          4.32174       -2.01793       -4.01664
|  7> H          4.87994       -1.91167       -3.17382
|  8> H          4.71015       -1.67088       -4.88356
|  9> H          1.27042       -2.41265       -4.86614
| 10> H          2.58183       -2.05528       -5.84688
| 11> C          2.49799       -1.46946       -1.61030
| 12> H          1.47259       -3.05153       -2.69437
| 13> H          3.08320       -3.49064       -2.14147
| 14> H          1.91240       -0.67831       -2.02991
| 15> H          3.50450       -1.13364       -1.47227
| 16> H          2.08509       -1.75655       -0.66585
| 17> *
| 18>
| 19> %MaxCore 64000
| 20>
| 21> %pal nprocs 4
| 22> end
| 23>
| 24> %scf
| 25>   MaxIter 150
| 26> end
| 27>
| 28>
| 29>                          ****END OF INPUT****

CARTESIAN COORDINATES (ANGSTROEM)
---------------------------------
  C      2.486450   -2.677120   -2.563450
  C      3.037640   -2.366720   -3.923510
  C      2.280360   -2.454410   -4.967690
  N      4.321740   -2.017930   -4.016640
  H      4.879940   -1.911670   -3.173820
  H      4.710150   -1.670880   -4.883560
  H      1.270420   -2.412650   -4.866140
  H      2.581830   -2.055280   -5.846880
  C      2.497990   -1.469460   -1.610300
  H      1.472590   -3.051530   -2.694370
  H      3.083200   -3.490640   -2.141470
  H      1.912400   -0.678310   -2.029910
  H      3.504500   -1.133640   -1.472270
  H      2.085090   -1.756550   -0.665850

 Total Charge           Charge          ....    0
 Multiplicity           Mult            ....    1
 Number of Electrons    NEL             ....   40
 Basis Dimension        Dim             ....  115

ORBITAL ENERGIES
----------------

  NO   OCC          E(Eh)            E(eV)
   0   2.0000     -14.179411      -385.8414
   1   2.0000     -10.099870      -274.8314
   2   2.0000     -10.080202      -274.2962
   3   2.0000     -10.073348      -274.1097
   4   2.0000     -10.010812      -272.4080
   5   2.0000      -1.010152       -27.4876
   6   2.0000      -0.876295       -23.8452
   7   2.0000      -0.819531       -22.3006
   8   2.0000      -0.733821       -19.9683
   9   2.0000      -0.663060       -18.0428
  10   2.0000      -0.621271       -16.9056
  11   2.0000      -0.576751       -15.6942
  12   2.0000      -0.535750       -14.5785
  13   2.0000      -0.530850       -14.4452
  14   2.0000      -0.483625       -13.1601
  15   2.0000      -0.479283       -13.0420
  16   2.0000      -0.448772       -12.2117
  17   2.0000      -0.427481       -11.6323
  18   2.0000      -0.419428       -11.4132
  19   2.0000      -0.283059        -7.7024
  20   0.0000       0.118419         3.2223
  21   0.0000       0.140373         3.8197
  22   0.0000       0.171425         4.6647
  23   0.0000       0.175428         4.7736
  24   0.0000       0.193017         5.2523

MULLIKEN ATOMIC CHARGES
-----------------------
   0 C :    0.049456
   1 C :   -0.116198
   2 C :   -0.045507
   3 N :   -0.039374
   4 H :    0.099368
   5 H :    0.109882
   6 H :   -0.044415
   7 H :   -0.066437
   8 C :    0.023015
   9 H :    0.000279
  10 H :    0.007726
  11 H :    0.014264
  12 H :   -0.006188
  13 H :    0.014130
Sum of atomic charges:    0.0000000

LOEWDIN ATOMIC CHARGES
----------------------
   0 C :   -0.037212
   1 C :    0.011953
   2 C :   -0.183700
   3 N :   -0.014280
   4 H :    0.069662
   5 H :    0.076940
   6 H :    0.004071
   7 H :   -0.005100
   8 C :   -0.061232
   9 H :    0.036167
  10 H :    0.029284
  11 H :    0.028665
  12 H :    0.017041
  13 H :    0.027741

  Mayer bond orders larger than 0.100000
B(  0-C ,  1-C ) :   1.0410 B(  0-C ,  8-C ) :   1.0928 B(  0-C ,  9-H ) :   0.9305
B(  0-C , 10-H ) :   0.9308 B(  1-C ,  2-C ) :   1.9135 B(  1-C ,  3-N ) :   1.2657
B(  2-C ,  6-H ) :   0.9295 B(  2-C ,  7-H ) :   0.9424 B(  3-N ,  4-H ) :   0.9540
B(  3-N ,  5-H ) :   0.9503 B(  8-C , 11-H ) :   0.9687 B(  8-C , 12-H ) :   0.9695
B(  8-C , 13-H ) :   0.9666

FINAL SINGLE POINT ENERGY      -211.786049702918

DIPOLE MOMENT
-------------
                                X             Y             Z
Electronic contribution:      1.61227      -0.87494      -2.11877
Nuclear contribution   :     -0.99743       1.27863       2.57190
                        -----------------------------------------
Total Dipole Moment    :      0.61484       0.40368       0.45313
                        -----------------------------------------
Magnitude (a.u.)       :      0.86390
Magnitude (Debye)      :      2.19585

Rotational constants in cm-1:     0.274050     0.130114     0.100964
Rotational constants in MHz :  8215.815505  3900.722919  3026.834930

                             ****ORCA TERMINATED NORMALLY****
TOTAL RUN TIME: 0 days 0 hours 0 minutes 15 seconds 853 msec
