                         Program Version 5.0.0 -  RELEASE  -
|  1> !LC-BLYP RIJCOSX def2-SVP def2/J TightSCF
|  2> *xyz 0 1
|  3> C         -0.87096        0.24804       -2.66280
|  4> C         -0.47749        0.60819       -4.10105
|  5> H          0.20677        1.45830       -4.11875
|  6> H         -1.36844        0.92942       -4.64785
|  7> C          0.18467       -0.50664       -4.91676
|  8> O         -0.15869       -1.70109       -4.65798
|  9> F          1.05594       -0.17441       -5.74037
| 10> H         -1.54056       -0.58646       -2.67455
| 11> H         -1.35339        1.08600       -2.20455
| 12> H          0.00660       -0.00662       -2.10609
| 13> *
| 14>
| 15> %MaxCore 64000
| 16>
| 17> %pal nprocs 4
| 18> end
| 19>
| 20> %scf
| 21>   MaxIter 150
| 22> end
| 23>
| 24>
| 25>                          ****END OF INPUT****

CARTESIAN COORDINATES (ANGSTROEM)
---------------------------------
  C     -0.870960    0.248040   -2.662800
  C     -0.477490    0.608190   -4.101050
  H      0.206770    1.458300   -4.118750
  H     -1.368440    0.929420   -4.647850
  C      0.184670   -0.506640   -4.916760
  O     -0.158690   -1.701090   -4.657980
  F      1.055940   -0.174410   -5.740370
  H     -1.540560   -0.586460   -2.674550
  H     -1.353390    1.086000   -2.204550
  H      0.006600   -0.006620   -2.106090

 Total Charge           Charge          ....    0
 Multiplicity           Mult            ....    1
 Number of Electrons    NEL             ....   40
 Basis Dimension        Dim             ....   95

ORBITAL ENERGIES
----------------

  NO   OCC          E(Eh)            E(eV)
   0   2.0000     -24.530388      -667.5058
   1   2.0000     -18.946493      -515.5603
   2   2.0000     -10.256067      -279.0818
   3   2.0000     -10.113225      -275.1949
   4   2.0000     -10.085057      -274.4284
   5   2.0000      -1.379900       -37.5490
   6   2.0000      -1.096218       -29.8296
   7   2.0000      -0.896403       -24.3924
   8   2.0000      -0.786523       -21.4024
   9   2.0000      -0.731894       -19.9159
  10   2.0000      -0.650822       -17.7098
  11   2.0000      -0.633628       -17.2419
  12   2.0000      -0.597448       -16.2574
  13   2.0000      -0.564774       -15.3683
  14   2.0000      -0.525311       -14.2944
  15   2.0000      -0.490459       -13.3461
  16   2.0000      -0.468872       -12.7586
  17   2.0000      -0.465933       -12.6787
  18   2.0000      -0.436550       -11.8791
  19   2.0000      -0.379066       -10.3149
  20   0.0000       0.067942         1.8488
  21   0.0000       0.129772         3.5313
  22   0.0000       0.177904         4.8410
  23   0.0000       0.187406         5.0996
  24   0.0000       0.204450         5.5634

MULLIKEN ATOMIC CHARGES
-----------------------
   0 C :    0.022827
   1 C :   -0.073654
   2 H :    0.023184
   3 H :    0.053349
   4 C :    0.112874
   5 O :   -0.207877
   6 F :   -0.008642
   7 H :    0.038692
   8 H :    0.015512
   9 H :    0.023736
Sum of atomic charges:    0.0000000

LOEWDIN ATOMIC CHARGES
----------------------
   0 C :   -0.052772
   1 C :   -0.085164
   2 H :    0.034084
   3 H :    0.053364
   4 C :    0.064833
   5 O :   -0.189699
   6 F :    0.078206
   7 H :    0.035106
   8 H :    0.030832
   9 H :    0.031209

  Mayer bond orders larger than 0.100000
B(  0-C ,  1-C ) :   1.1017 B(  0-C ,  7-H ) :   0.9657 B(  0-C ,  8-H ) :   0.9624
B(  0-C ,  9-H ) :   0.9786 B(  1-C ,  2-H ) :   0.9374 B(  1-C ,  3-H ) :   0.9238
B(  1-C ,  4-C ) :   0.9915 B(  4-C ,  5-O ) :   2.1306 B(  4-C ,  6-F ) :   1.2801

FINAL SINGLE POINT ENERGY      -291.548168423811

DIPOLE MOMENT
-------------
                                X             Y             Z
Electronic contribution:      4.66848      -2.91990      -7.18727
Nuclear contribution   :     -4.75269       4.00281       7.35060
                        -----------------------------------------
Total Dipole Moment    :     -0.08422       1.08291       0.16333
                        -----------------------------------------
Magnitude (a.u.)       :      1.09839
Magnitude (Debye)      :      2.79189

Rotational constants in cm-1:     0.323805     0.124913     0.096140
Rotational constants in MHz :  9707.430323  3744.789513  2882.191141

                             ****ORCA TERMINATED NORMALLY****
TOTAL RUN TIME: 0 days 0 hours 0 minutes 12 seconds 270 msec
