                         Program Version 5.0.0 -  RELEASE  -
|  1> !LC-BLYP RIJCOSX def2-SVP def2/J TightSCF
|  2> *xyz 0 1
|  3> C          2.48645       -2.67712       -2.56345
|  4> C          3.03764       -2.36672       -3.92351
|  5> N          2.28036       -2.45441       -4.96769
|  6> C          4.32174       -2.01793       -4.01664
|  7> H          4.87994       -1.91167       -3.17382
|  8> H          4.71015       -1.67088       -4.88356
|  9> H          1.27042       -2.41265       -4.86614
| 10> H          2.58183       -2.05528       -5.84688
| 11> C          2.49799       -1.46946       -1.61030
| 12> H          1.47259       -3.05153       -2.69437
| 13> H          3.08320       -3.49064       -2.14147
| 14> H          1.91240       -0.67831       -2.02991
| 15> H          3.50450       -1.13364       -1.47227
| 16> H          2.08509       -1.75655       -0.66585
| 17> *
| 18>
| 19> %MaxCore 64000
| 20>
| 21> %pal nprocs 4
| 22> end
| 23>
| 24> %scf
| 25>   MaxIter 150
| 26> end
| 27>
| 28>
| 29>                          ****END OF INPUT****

CARTESIAN COORDINATES (ANGSTROEM)
---------------------------------
  C      2.486450   -2.677120   -2.563450
  C      3.037640   -2.366720   -3.923510
  N      2.280360   -2.454410   -4.967690
  C      4.321740   -2.017930   -4.016640
  H      4.879940   -1.911670   -3.173820
  H      4.710150   -1.670880   -4.883560
  H      1.270420   -2.412650   -4.866140
  H      2.581830   -2.055280   -5.846880
  C      2.497990   -1.469460   -1.610300
  H      1.472590   -3.051530   -2.694370
  H      3.083200   -3.490640   -2.141470
  H      1.912400   -0.678310   -2.029910
  H      3.504500   -1.133640   -1.472270
  H      2.085090   -1.756550   -0.665850

 Total Charge           Charge          ....    0
 Multiplicity           Mult            ....    1
 Number of Electrons    NEL             ....   40
 Basis Dimension        Dim             ....  115

ORBITAL ENERGIES
----------------

  NO   OCC          E(Eh)            E(eV)
   0   2.0000     -14.183293      -385.9470
   1   2.0000     -10.100524      -274.8492
   2   2.0000     -10.080997      -274.3179
   3   2.0000     -10.068780      -273.9854
   4   2.0000     -10.010744      -272.4062
   5   2.0000      -1.024785       -27.8858
   6   2.0000      -0.878417       -23.9030
   7   2.0000      -0.803196       -21.8561
   8   2.0000      -0.739482       -20.1223
   9   2.0000      -0.666092       -18.1253
  10   2.0000      -0.618378       -16.8269
  11   2.0000      -0.580370       -15.7927
  12   2.0000      -0.546277       -14.8650
  13   2.0000      -0.505440       -13.7537
  14   2.0000      -0.492092       -13.3905
  15   2.0000      -0.472439       -12.8557
  16   2.0000      -0.446910       -12.1610
  17   2.0000      -0.429865       -11.6972
  18   2.0000      -0.428552       -11.6615
  19   2.0000      -0.273417        -7.4401
  20   0.0000       0.122003         3.3199
  21   0.0000       0.134878         3.6702
  22   0.0000       0.170426         4.6375
  23   0.0000       0.173858         4.7309
  24   0.0000       0.196527         5.3478

MULLIKEN ATOMIC CHARGES
-----------------------
   0 C :    0.047013
   1 C :   -0.176978
   2 N :    0.011115
   3 C :   -0.039746
   4 H :   -0.048913
   5 H :   -0.064826
   6 H :    0.101177
   7 H :    0.105126
   8 C :    0.030107
   9 H :   -0.024314
  10 H :    0.028978
  11 H :    0.005628
  12 H :    0.018207
  13 H :    0.007427
Sum of atomic charges:   -0.0000000

LOEWDIN ATOMIC CHARGES
----------------------
   0 C :   -0.038357
   1 C :   -0.002678
   2 N :    0.008906
   3 C :   -0.190445
   4 H :   -0.001087
   5 H :   -0.007707
   6 H :    0.071176
   7 H :    0.078019
   8 C :   -0.054241
   9 H :    0.018226
  10 H :    0.042156
  11 H :    0.024330
  12 H :    0.027650
  13 H :    0.024051

  Mayer bond orders larger than 0.100000
B(  0-C ,  1-C ) :   1.0109 B(  0-C ,  8-C ) :   1.1066 B(  0-C ,  9-H ) :   0.9305
B(  0-C , 10-H ) :   0.9356 B(  1-C ,  2-N ) :   1.2946 B(  1-C ,  3-C ) :   1.8768
B(  2-N ,  6-H ) :   0.9485 B(  2-N ,  7-H ) :   0.9509 B(  3-C ,  4-H ) :   0.9426
B(  3-C ,  5-H ) :   0.9433 B(  8-C , 11-H ) :   0.9691 B(  8-C , 12-H ) :   0.9718
B(  8-C , 13-H ) :   0.9650

FINAL SINGLE POINT ENERGY      -211.786235558702

DIPOLE MOMENT
-------------
                                X             Y             Z
Electronic contribution:     -0.31664      -1.21571      -3.01753
Nuclear contribution   :     -0.52463       1.37972       2.79217
                        -----------------------------------------
Total Dipole Moment    :     -0.84127       0.16401      -0.22535
                        -----------------------------------------
Magnitude (a.u.)       :      0.88624
Magnitude (Debye)      :      2.25264

Rotational constants in cm-1:     0.281086     0.127387     0.100311
Rotational constants in MHz :  8426.743103  3818.969834  3007.238026

                             ****ORCA TERMINATED NORMALLY****
TOTAL RUN TIME: 0 days 0 hours 0 minutes 17 seconds 420 msec
