                         Program Version 5.0.0 -  RELEASE  -
|  1> !LC-BLYP RIJCOSX def2-TZVP def2/J TightSCF xyzfile
|  2>
|  3> *xyzfile 0 1 D1.xyz
|  4>
|  5> %MaxCore 64000
|  6>
|  7> %pal nprocs 18
|  8> end
|  9>
| 10> %scf
| 11>   MaxIter 150
| 12> end
| 13>
| 14>
| 15>                          ****END OF INPUT****

CARTESIAN COORDINATES (ANGSTROEM)
---------------------------------
  C      2.486452   -2.677121   -2.563447
  C     -0.870963    0.248043   -2.662804
  C     -0.477492    0.608191   -4.101052
  H      0.206773    1.458299   -4.118748
  H     -1.368442    0.929419   -4.647855
  C      0.184673   -0.506640   -4.916760
  C      3.037640   -2.366715   -3.923509
  C      2.280360   -2.454408   -4.967692
  N      4.321736   -2.017932   -4.016641
  H      4.879940   -1.911668   -3.173823
  H      4.710148   -1.670882   -4.883561
  H      1.270423   -2.412650   -4.866143
  H      2.581829   -2.055282   -5.846878
  F     -0.158685   -1.701088   -4.657981
  O      1.055938   -0.174410   -5.740373
  C      2.497991   -1.469464   -1.610303
  C      1.582841   -0.321986   -2.042619
  H      2.193083   -1.833912   -0.625420
  H      3.523356   -1.103982   -1.490392
  C      0.100160   -0.673551   -1.915815
  H      1.822311   -0.040361   -3.072834
  H      1.813180    0.557019   -1.433266
  H     -0.063284   -1.679120   -2.301112
  H     -0.168820   -0.691680   -0.853831
  H     -1.001048    1.181040   -2.104071
  H     -1.844645   -0.246592   -2.663281
  H      1.472592   -3.051527   -2.694366
  H      3.083201   -3.490638   -2.141472

 Total Charge           Charge          ....    0
 Multiplicity           Mult            ....    1
 Number of Electrons    NEL             ....   94
 Basis Dimension        Dim             ....  468

ORBITAL ENERGIES
----------------

  NO   OCC          E(Eh)            E(eV)
   0   2.0000     -24.520796      -667.2448
   1   2.0000     -18.942590      -515.4541
   2   2.0000     -14.155155      -385.1813
   3   2.0000     -10.247576      -278.8507
   4   2.0000     -10.097399      -274.7642
   5   2.0000     -10.081991      -274.3449
   6   2.0000     -10.074344      -274.1368
   7   2.0000     -10.069888      -274.0156
   8   2.0000     -10.067230      -273.9432
   9   2.0000     -10.065623      -273.8995
  10   2.0000     -10.060916      -273.7714
  11   2.0000      -9.975302      -271.4418
  12   2.0000      -1.397071       -38.0162
  13   2.0000      -1.131811       -30.7982
  14   2.0000      -1.014545       -27.6072
  15   2.0000      -0.938044       -25.5255
  16   2.0000      -0.901963       -24.5437
  17   2.0000      -0.851369       -23.1669
  18   2.0000      -0.829005       -22.5584
  19   2.0000      -0.784030       -21.3346
  20   2.0000      -0.761917       -20.7328
  21   2.0000      -0.725594       -19.7444
  22   2.0000      -0.688398       -18.7323
  23   2.0000      -0.679504       -18.4902
  24   2.0000      -0.655458       -17.8359
  25   2.0000      -0.640913       -17.4401
  26   2.0000      -0.613364       -16.6905
  27   2.0000      -0.597126       -16.2486
  28   2.0000      -0.587827       -15.9956
  29   2.0000      -0.576493       -15.6872
  30   2.0000      -0.562113       -15.2959
  31   2.0000      -0.545173       -14.8349
  32   2.0000      -0.534775       -14.5520
  33   2.0000      -0.512662       -13.9502
  34   2.0000      -0.506224       -13.7751
  35   2.0000      -0.489370       -13.3164
  36   2.0000      -0.477335       -12.9889
  37   2.0000      -0.474123       -12.9015
  38   2.0000      -0.455280       -12.3888
  39   2.0000      -0.450471       -12.2579
  40   2.0000      -0.438831       -11.9412
  41   2.0000      -0.432397       -11.7661
  42   2.0000      -0.415582       -11.3086
  43   2.0000      -0.411216       -11.1897
  44   2.0000      -0.405890       -11.0448
  45   2.0000      -0.386524       -10.5179
  46   2.0000      -0.276347        -7.5198
  47   0.0000       0.056267         1.5311
  48   0.0000       0.087339         2.3766
  49   0.0000       0.097245         2.6462
  50   0.0000       0.116426         3.1681
  51   0.0000       0.121088         3.2950

MULLIKEN ATOMIC CHARGES
-----------------------
   0 C :   -0.359544
   1 C :   -0.216492
   2 C :   -0.327819
   3 H :    0.180123
   4 H :    0.164800
   5 C :    0.271454
   6 C :    0.232192
   7 C :   -0.429017
   8 N :   -0.431519
   9 H :    0.217007
  10 H :    0.228363
  11 H :    0.089226
  12 H :    0.111610
  13 F :   -0.078996
  14 O :   -0.243420
  15 C :   -0.232891
  16 C :   -0.273363
  17 H :    0.125941
  18 H :    0.124591
  19 C :   -0.316260
  20 H :    0.177578
  21 H :    0.128477
  22 H :    0.147014
  23 H :    0.134722
  24 H :    0.136678
  25 H :    0.140786
  26 H :    0.153317
  27 H :    0.145444
Sum of atomic charges:    0.0000000

LOEWDIN ATOMIC CHARGES
----------------------
   0 C :   -0.226973
   1 C :   -0.275044
   2 C :   -0.246083
   3 H :    0.161922
   4 H :    0.160600
   5 C :   -0.520243
   6 C :   -0.379971
   7 C :   -0.273494
   8 N :   -0.013914
   9 H :    0.165335
  10 H :    0.171084
  11 H :    0.099662
  12 H :    0.105767
  13 F :    0.337495
  14 O :    0.113820
  15 C :   -0.270537
  16 C :   -0.268771
  17 H :    0.141712
  18 H :    0.135410
  19 C :   -0.279631
  20 H :    0.152246
  21 H :    0.140043
  22 H :    0.139683
  23 H :    0.142955
  24 H :    0.145152
  25 H :    0.144471
  26 H :    0.149395
  27 H :    0.147907

  Mayer bond orders larger than 0.100000
B(  0-C ,  6-C ) :   0.8969 B(  0-C , 15-C ) :   0.8898 B(  0-C , 26-H ) :   1.0160
B(  0-C , 27-H ) :   0.9866 B(  1-C ,  2-C ) :   0.8860 B(  1-C , 19-C ) :   0.9113
B(  1-C , 24-H ) :   0.9763 B(  1-C , 25-H ) :   0.9875 B(  2-C ,  3-H ) :   0.9665
B(  2-C ,  4-H ) :   0.9588 B(  2-C ,  5-C ) :   0.9573 B(  5-C , 13-F ) :   1.1454
B(  5-C , 14-O ) :   2.1320 B(  6-C ,  7-C ) :   1.6956 B(  6-C ,  8-N ) :   1.1000
B(  7-C , 11-H ) :   1.0364 B(  7-C , 12-H ) :   1.0129 B(  8-N ,  9-H ) :   0.9376
B(  8-N , 10-H ) :   0.9288 B( 15-C , 16-C ) :   0.9206 B( 15-C , 17-H ) :   0.9836
B( 15-C , 18-H ) :   0.9869 B( 16-C , 19-C ) :   0.8748 B( 16-C , 20-H ) :   0.9756
B( 16-C , 21-H ) :   0.9789 B( 19-C , 22-H ) :   0.9960 B( 19-C , 23-H ) :   0.9759

FINAL SINGLE POINT ENERGY      -581.158911389013

DIPOLE MOMENT
-------------
                                X             Y             Z
Electronic contribution:     -3.67840      -1.61660     -10.23689
Nuclear contribution   :      3.32973       2.37270      11.37738
                        -----------------------------------------
Total Dipole Moment    :     -0.34867       0.75611       1.14049
                        -----------------------------------------
Magnitude (a.u.)       :      1.41209
Magnitude (Debye)      :      3.58924

Rotational constants in cm-1:     0.040902     0.025807     0.019036
Rotational constants in MHz :  1226.202138   773.670450   570.681201

                             ****ORCA TERMINATED NORMALLY****
TOTAL RUN TIME: 0 days 0 hours 0 minutes 51 seconds 358 msec
