                         Program Version 5.0.0 -  RELEASE  -
|  1> !LC-BLYP RIJCOSX def2-TZVP def2/J TightSCF xyzfile
|  2>
|  3> *xyzfile 0 1 D2.xyz
|  4>
|  5> %MaxCore 64000
|  6>
|  7> %pal nprocs 18
|  8> end
|  9>
| 10> %scf
| 11>   MaxIter 150
| 12> end
| 13>
| 14>
| 15>                          ****END OF INPUT****

CARTESIAN COORDINATES (ANGSTROEM)
---------------------------------
  C      2.486452   -2.677121   -2.563447
  C     -0.870963    0.248043   -2.662804
  C     -0.477492    0.608191   -4.101052
  H      0.206773    1.458299   -4.118748
  H     -1.368442    0.929419   -4.647855
  C      0.184673   -0.506640   -4.916760
  C      3.037640   -2.366715   -3.923509
  N      2.280360   -2.454408   -4.967692
  C      4.321736   -2.017932   -4.016641
  H      4.879940   -1.911668   -3.173823
  H      4.710148   -1.670882   -4.883561
  H      1.270423   -2.412650   -4.866143
  H      2.581829   -2.055282   -5.846878
  F     -0.158685   -1.701088   -4.657981
  O      1.055938   -0.174410   -5.740373
  C      2.497991   -1.469464   -1.610303
  C      1.582841   -0.321986   -2.042619
  H      2.193083   -1.833912   -0.625420
  H      3.523356   -1.103982   -1.490392
  C      0.100160   -0.673551   -1.915815
  H      1.822311   -0.040361   -3.072834
  H      1.813180    0.557019   -1.433266
  H     -0.063284   -1.679120   -2.301112
  H     -0.168820   -0.691680   -0.853831
  H     -1.001048    1.181040   -2.104071
  H     -1.844645   -0.246592   -2.663281
  H      1.472592   -3.051527   -2.694366
  H      3.083201   -3.490638   -2.141472

 Total Charge           Charge          ....    0
 Multiplicity           Mult            ....    1
 Number of Electrons    NEL             ....   94
 Basis Dimension        Dim             ....  468

ORBITAL ENERGIES
----------------

  NO   OCC          E(Eh)            E(eV)
   0   2.0000     -24.549737      -668.0323
   1   2.0000     -18.963279      -516.0171
   2   2.0000     -14.145558      -384.9202
   3   2.0000     -10.267205      -279.3849
   4   2.0000     -10.109241      -275.0864
   5   2.0000     -10.089725      -274.5554
   6   2.0000     -10.078770      -274.2573
   7   2.0000     -10.075305      -274.1630
   8   2.0000     -10.068105      -273.9671
   9   2.0000     -10.064865      -273.8789
  10   2.0000     -10.062192      -273.8062
  11   2.0000      -9.984776      -271.6996
  12   2.0000      -1.424545       -38.7638
  13   2.0000      -1.152297       -31.3556
  14   2.0000      -1.024930       -27.8898
  15   2.0000      -0.946221       -25.7480
  16   2.0000      -0.904923       -24.6242
  17   2.0000      -0.862841       -23.4791
  18   2.0000      -0.815906       -22.2019
  19   2.0000      -0.796929       -21.6855
  20   2.0000      -0.774352       -21.0712
  21   2.0000      -0.735869       -20.0240
  22   2.0000      -0.701735       -19.0952
  23   2.0000      -0.692778       -18.8515
  24   2.0000      -0.674311       -18.3489
  25   2.0000      -0.644131       -17.5277
  26   2.0000      -0.616478       -16.7752
  27   2.0000      -0.604003       -16.4358
  28   2.0000      -0.589754       -16.0480
  29   2.0000      -0.583366       -15.8742
  30   2.0000      -0.574697       -15.6383
  31   2.0000      -0.549662       -14.9571
  32   2.0000      -0.531912       -14.4741
  33   2.0000      -0.523090       -14.2340
  34   2.0000      -0.512097       -13.9349
  35   2.0000      -0.496657       -13.5147
  36   2.0000      -0.488925       -13.3043
  37   2.0000      -0.477189       -12.9850
  38   2.0000      -0.465620       -12.6702
  39   2.0000      -0.455864       -12.4047
  40   2.0000      -0.445145       -12.1130
  41   2.0000      -0.437539       -11.9060
  42   2.0000      -0.423805       -11.5323
  43   2.0000      -0.420143       -11.4327
  44   2.0000      -0.411148       -11.1879
  45   2.0000      -0.401444       -10.9239
  46   2.0000      -0.267155        -7.2697
  47   0.0000       0.038038         1.0351
  48   0.0000       0.081129         2.2076
  49   0.0000       0.107317         2.9203
  50   0.0000       0.114679         3.1206
  51   0.0000       0.121642         3.3100

MULLIKEN ATOMIC CHARGES
-----------------------
   0 C :   -0.351031
   1 C :   -0.217913
   2 C :   -0.332155
   3 H :    0.187897
   4 H :    0.169330
   5 C :    0.262107
   6 C :    0.164064
   7 N :   -0.341904
   8 C :   -0.436470
   9 H :    0.085519
  10 H :    0.099618
  11 H :    0.206273
  12 H :    0.233340
  13 F :   -0.092811
  14 O :   -0.242398
  15 C :   -0.220731
  16 C :   -0.284576
  17 H :    0.118925
  18 H :    0.141682
  19 C :   -0.321480
  20 H :    0.177770
  21 H :    0.132814
  22 H :    0.145220
  23 H :    0.139092
  24 H :    0.141401
  25 H :    0.143502
  26 H :    0.135299
  27 H :    0.157618
Sum of atomic charges:    0.0000000

LOEWDIN ATOMIC CHARGES
----------------------
   0 C :   -0.223520
   1 C :   -0.274608
   2 C :   -0.244075
   3 H :    0.164843
   4 H :    0.162470
   5 C :   -0.524558
   6 C :   -0.388192
   7 N :    0.030907
   8 C :   -0.296543
   9 H :    0.104377
  10 H :    0.098671
  11 H :    0.143826
  12 H :    0.173281
  13 F :    0.333362
  14 O :    0.107751
  15 C :   -0.261823
  16 C :   -0.269480
  17 H :    0.139940
  18 H :    0.144584
  19 C :   -0.281420
  20 H :    0.150925
  21 H :    0.141799
  22 H :    0.137158
  23 H :    0.144458
  24 H :    0.147012
  25 H :    0.144701
  26 H :    0.136547
  27 H :    0.157605

  Mayer bond orders larger than 0.100000
B(  0-C ,  6-C ) :   0.8683 B(  0-C , 15-C ) :   0.9119 B(  0-C , 26-H ) :   1.0235
B(  0-C , 27-H ) :   0.9834 B(  1-C ,  2-C ) :   0.8845 B(  1-C , 19-C ) :   0.9053
B(  1-C , 24-H ) :   0.9749 B(  1-C , 25-H ) :   0.9887 B(  2-C ,  3-H ) :   0.9646
B(  2-C ,  4-H ) :   0.9543 B(  2-C ,  5-C ) :   0.9594 B(  5-C , 13-F ) :   1.1193
B(  5-C , 14-O ) :   2.1285 B(  6-C ,  7-N ) :   1.2248 B(  6-C ,  8-C ) :   1.7133
B(  7-N , 11-H ) :   0.9281 B(  7-N , 12-H ) :   0.9285 B(  8-C ,  9-H ) :   0.9980
B(  8-C , 10-H ) :   0.9952 B( 15-C , 16-C ) :   0.9359 B( 15-C , 17-H ) :   0.9805
B( 15-C , 18-H ) :   0.9784 B( 16-C , 19-C ) :   0.8631 B( 16-C , 20-H ) :   0.9718
B( 16-C , 21-H ) :   0.9776 B( 19-C , 22-H ) :   0.9977 B( 19-C , 23-H ) :   0.9770

FINAL SINGLE POINT ENERGY      -581.170545299670

DIPOLE MOMENT
-------------
                                X             Y             Z
Electronic contribution:     -5.35250      -1.78028     -10.87450
Nuclear contribution   :      3.65024       2.44123      11.52670
                        -----------------------------------------
Total Dipole Moment    :     -1.70226       0.66096       0.65220
                        -----------------------------------------
Magnitude (a.u.)       :      1.93905
Magnitude (Debye)      :      4.92867

Rotational constants in cm-1:     0.040600     0.026409     0.019262
Rotational constants in MHz :  1217.142957   791.712481   577.449390

                             ****ORCA TERMINATED NORMALLY****
TOTAL RUN TIME: 0 days 0 hours 0 minutes 59 seconds 402 msec
