                         Program Version 5.0.0 -  RELEASE  -
|  1> !LC-BLYP RIJCOSX def2-TZVP def2/J TightSCF xyzfile
|  2>
|  3> *xyzfile 0 1 D3.xyz
|  4>
|  5> %MaxCore 64000
|  6>
|  7> %pal nprocs 18
|  8> end
|  9>
| 10> %scf
| 11>   MaxIter 150
| 12> end
| 13>
| 14>
| 15>                          ****END OF INPUT****

CARTESIAN COORDINATES (ANGSTROEM)
---------------------------------
  C      2.486452   -2.677121   -2.563447
  C     -0.870963    0.248043   -2.662804
  C     -0.477492    0.608191   -4.101052
  H      0.206773    1.458299   -4.118748
  H     -1.368442    0.929419   -4.647855
  C      0.184673   -0.506640   -4.916760
  C      3.037640   -2.366715   -3.923509
  C      2.280360   -2.454408   -4.967692
  N      4.321736   -2.017932   -4.016641
  H      4.879940   -1.911668   -3.173823
  H      4.710148   -1.670882   -4.883561
  H      1.270423   -2.412650   -4.866143
  H      2.581829   -2.055282   -5.846878
  O     -0.158685   -1.701088   -4.657981
  F      1.055938   -0.174410   -5.740373
  C      2.497991   -1.469464   -1.610303
  C      1.582841   -0.321986   -2.042619
  H      2.193083   -1.833912   -0.625420
  H      3.523356   -1.103982   -1.490392
  C      0.100160   -0.673551   -1.915815
  H      1.822311   -0.040361   -3.072834
  H      1.813180    0.557019   -1.433266
  H     -0.063284   -1.679120   -2.301112
  H     -0.168820   -0.691680   -0.853831
  H     -1.001048    1.181040   -2.104071
  H     -1.844645   -0.246592   -2.663281
  H      1.472592   -3.051527   -2.694366
  H      3.083201   -3.490638   -2.141472

 Total Charge           Charge          ....    0
 Multiplicity           Mult            ....    1
 Number of Electrons    NEL             ....   94
 Basis Dimension        Dim             ....  468

ORBITAL ENERGIES
----------------

  NO   OCC          E(Eh)            E(eV)
   0   2.0000     -24.528206      -667.4464
   1   2.0000     -18.941438      -515.4227
   2   2.0000     -14.154021      -385.1505
   3   2.0000     -10.253225      -279.0044
   4   2.0000     -10.100114      -274.8381
   5   2.0000     -10.078986      -274.2631
   6   2.0000     -10.071818      -274.0681
   7   2.0000     -10.064103      -273.8582
   8   2.0000     -10.063743      -273.8484
   9   2.0000     -10.060896      -273.7709
  10   2.0000     -10.055678      -273.6289
  11   2.0000      -9.967724      -271.2356
  12   2.0000      -1.408092       -38.3161
  13   2.0000      -1.127311       -30.6757
  14   2.0000      -1.013076       -27.5672
  15   2.0000      -0.932543       -25.3758
  16   2.0000      -0.899384       -24.4735
  17   2.0000      -0.849662       -23.1205
  18   2.0000      -0.826524       -22.4909
  19   2.0000      -0.786255       -21.3951
  20   2.0000      -0.759248       -20.6602
  21   2.0000      -0.721188       -19.6245
  22   2.0000      -0.684339       -18.6218
  23   2.0000      -0.671461       -18.2714
  24   2.0000      -0.656124       -17.8541
  25   2.0000      -0.632787       -17.2190
  26   2.0000      -0.624253       -16.9868
  27   2.0000      -0.611088       -16.6285
  28   2.0000      -0.585849       -15.9418
  29   2.0000      -0.575481       -15.6596
  30   2.0000      -0.557576       -15.1724
  31   2.0000      -0.543258       -14.7828
  32   2.0000      -0.537134       -14.6161
  33   2.0000      -0.504811       -13.7366
  34   2.0000      -0.499059       -13.5801
  35   2.0000      -0.494861       -13.4659
  36   2.0000      -0.477941       -13.0054
  37   2.0000      -0.466016       -12.6809
  38   2.0000      -0.456292       -12.4163
  39   2.0000      -0.454094       -12.3565
  40   2.0000      -0.433665       -11.8006
  41   2.0000      -0.427748       -11.6396
  42   2.0000      -0.412790       -11.2326
  43   2.0000      -0.408393       -11.1129
  44   2.0000      -0.405794       -11.0422
  45   2.0000      -0.363346        -9.8872
  46   2.0000      -0.275159        -7.4874
  47   0.0000       0.050520         1.3747
  48   0.0000       0.090127         2.4525
  49   0.0000       0.099657         2.7118
  50   0.0000       0.114901         3.1266
  51   0.0000       0.126601         3.4450

MULLIKEN ATOMIC CHARGES
-----------------------
   0 C :   -0.347964
   1 C :   -0.201792
   2 C :   -0.338661
   3 H :    0.165298
   4 H :    0.166256
   5 C :    0.307151
   6 C :    0.218405
   7 C :   -0.486352
   8 N :   -0.425408
   9 H :    0.216854
  10 H :    0.222541
  11 H :    0.154998
  12 H :    0.088440
  13 O :   -0.291643
  14 F :   -0.048067
  15 C :   -0.236722
  16 C :   -0.255340
  17 H :    0.126899
  18 H :    0.121022
  19 C :   -0.304909
  20 H :    0.144154
  21 H :    0.125829
  22 H :    0.165303
  23 H :    0.130044
  24 H :    0.134301
  25 H :    0.138682
  26 H :    0.167528
  27 H :    0.143152
Sum of atomic charges:   -0.0000000

LOEWDIN ATOMIC CHARGES
----------------------
   0 C :   -0.224111
   1 C :   -0.264664
   2 C :   -0.249741
   3 H :    0.150782
   4 H :    0.162332
   5 C :   -0.515425
   6 C :   -0.382942
   7 C :   -0.277403
   8 N :   -0.017514
   9 H :    0.164741
  10 H :    0.168239
  11 H :    0.101270
  12 H :    0.097638
  13 O :    0.084354
  14 F :    0.375724
  15 C :   -0.270102
  16 C :   -0.268090
  17 H :    0.142396
  18 H :    0.133924
  19 C :   -0.277061
  20 H :    0.145126
  21 H :    0.138665
  22 H :    0.146659
  23 H :    0.141279
  24 H :    0.144136
  25 H :    0.148095
  26 H :    0.154580
  27 H :    0.147113

  Mayer bond orders larger than 0.100000
B(  0-C ,  6-C ) :   0.8916 B(  0-C , 15-C ) :   0.8893 B(  0-C , 26-H ) :   1.0128
B(  0-C , 27-H ) :   0.9872 B(  1-C ,  2-C ) :   0.9096 B(  1-C , 19-C ) :   0.9267
B(  1-C , 24-H ) :   0.9798 B(  1-C , 25-H ) :   0.9780 B(  2-C ,  3-H ) :   0.9603
B(  2-C ,  4-H ) :   0.9518 B(  2-C ,  5-C ) :   0.9651 B(  5-C , 13-O ) :   2.0028
B(  5-C , 14-F ) :   1.2266 B(  6-C ,  7-C ) :   1.6892 B(  6-C ,  8-N ) :   1.0933
B(  7-C , 11-H ) :   1.0027 B(  7-C , 12-H ) :   1.0210 B(  8-N ,  9-H ) :   0.9377
B(  8-N , 10-H ) :   0.9299 B( 15-C , 16-C ) :   0.9292 B( 15-C , 17-H ) :   0.9839
B( 15-C , 18-H ) :   0.9877 B( 16-C , 19-C ) :   0.8855 B( 16-C , 20-H ) :   0.9767
B( 16-C , 21-H ) :   0.9796 B( 19-C , 22-H ) :   0.9860 B( 19-C , 23-H ) :   0.9751

FINAL SINGLE POINT ENERGY      -581.153095636782

DIPOLE MOMENT
-------------
                                X             Y             Z
Electronic contribution:     -1.73490       0.92675     -12.10562
Nuclear contribution   :      1.88979       0.56282      12.66056
                        -----------------------------------------
Total Dipole Moment    :      0.15489       1.48957       0.55494
                        -----------------------------------------
Magnitude (a.u.)       :      1.59711
Magnitude (Debye)      :      4.05953

Rotational constants in cm-1:     0.040271     0.025954     0.018866
Rotational constants in MHz :  1207.302496   778.083475   565.600538

                             ****ORCA TERMINATED NORMALLY****
TOTAL RUN TIME: 0 days 0 hours 0 minutes 55 seconds 331 msec
