                         Program Version 5.0.0 -  RELEASE  -
|  1> !PBE0 D3BJ RIJCOSX def2-SVP def2/J TightSCF
|  2> *xyz -1 1
|  3> C         -0.05517        1.61942       -3.78858
|  4> C          1.22302        2.46987       -3.75691
|  5> H          1.11470        3.25807       -4.53300
|  6> H          1.23773        3.01124       -2.79216
|  7> O          2.35381        1.71203       -3.93448
|  8> H         -0.10198        1.08015       -4.71156
|  9> H         -0.91014        2.25726       -3.70441
| 10> H         -0.04403        0.92826       -2.97183
| 11> *
| 12>
| 13> %MaxCore 64000
| 14>
| 15> %pal nprocs 4
| 16> end
| 17>
| 18> %scf
| 19>   MaxIter 150
| 20> end
| 21>
| 22>
| 23>                          ****END OF INPUT****

CARTESIAN COORDINATES (ANGSTROEM)
---------------------------------
  C     -0.055170    1.619420   -3.788580
  C      1.223020    2.469870   -3.756910
  H      1.114700    3.258070   -4.533000
  H      1.237730    3.011240   -2.792160
  O      2.353810    1.712030   -3.934480
  H     -0.101980    1.080150   -4.711560
  H     -0.910140    2.257260   -3.704410
  H     -0.044030    0.928260   -2.971830

 Total Charge           Charge          ....   -1
 Multiplicity           Mult            ....    1
 Number of Electrons    NEL             ....   26
 Basis Dimension        Dim             ....   67

ORBITAL ENERGIES
----------------

  NO   OCC          E(Eh)            E(eV)
   0   2.0000     -18.822177      -512.1775
   1   2.0000     -10.018820      -272.6260
   2   2.0000     -10.007362      -272.3142
   3   2.0000      -0.652381       -17.7522
   4   2.0000      -0.519716       -14.1422
   5   2.0000      -0.362363        -9.8604
   6   2.0000      -0.245793        -6.6884
   7   2.0000      -0.222503        -6.0546
   8   2.0000      -0.165955        -4.5159
   9   2.0000      -0.147929        -4.0254
  10   2.0000      -0.081807        -2.2261
  11   2.0000       0.066129         1.7995
  12   2.0000       0.068627         1.8674
  13   0.0000       0.263149         7.1607
  14   0.0000       0.307032         8.3548
  15   0.0000       0.319071         8.6824
  16   0.0000       0.328191         8.9305
  17   0.0000       0.370517        10.0823

MULLIKEN ATOMIC CHARGES
-----------------------
   0 C :   -0.003240
   1 C :    0.212996
   2 H :   -0.148839
   3 H :   -0.146605
   4 O :   -0.726761
   5 H :   -0.042713
   6 H :   -0.102547
   7 H :   -0.042291
Sum of atomic charges:   -1.0000000

LOEWDIN ATOMIC CHARGES
----------------------
   0 C :   -0.119736
   1 C :    0.003263
   2 H :   -0.078725
   3 H :   -0.076228
   4 O :   -0.672234
   5 H :   -0.011111
   6 H :   -0.034300
   7 H :   -0.010928

  Mayer bond orders larger than 0.100000
B(  0-C ,  1-C ) :   0.9962 B(  0-C ,  5-H ) :   0.9599 B(  0-C ,  6-H ) :   0.9200
B(  0-C ,  7-H ) :   0.9623 B(  1-C ,  2-H ) :   0.8740 B(  1-C ,  3-H ) :   0.8760
B(  1-C ,  4-O ) :   1.4767

Dispersion correction           -0.003051143
FINAL SINGLE POINT ENERGY      -154.098279618607

DIPOLE MOMENT
-------------
                                X             Y             Z
Electronic contribution:      3.07708      -0.72268      -0.28813
Nuclear contribution   :     -4.28298       0.81046       0.39340
                        -----------------------------------------
Total Dipole Moment    :     -1.20590       0.08779       0.10527
                        -----------------------------------------
Magnitude (a.u.)       :      1.21366
Magnitude (Debye)      :      3.08489

Rotational constants in cm-1:     1.266793     0.328147     0.288309
Rotational constants in MHz : 37977.512300  9837.594308  8643.275638

                             ****ORCA TERMINATED NORMALLY****
TOTAL RUN TIME: 0 days 0 hours 0 minutes 8 seconds 283 msec
