                         Program Version 5.0.0 -  RELEASE  -
|  1> !PBE0 D3BJ RIJCOSX def2-SVP def2/J TightSCF
|  2> *xyz 1 1
|  3> C          1.63556       -1.67040       -5.29211
|  4> C          0.33848       -1.50091       -4.50540
|  5> N          2.48451       -0.50741       -5.14039
|  6> H          1.39834       -1.82924       -6.35259
|  7> H          2.15586       -2.56540       -4.93209
|  8> C          3.45115       -0.14953       -5.95259
|  9> N          3.92267        1.08956       -5.85071
| 10> N          3.96616       -1.00618       -6.86788
| 11> H          3.52139       -1.90647       -6.99527
| 12> H          4.44482       -0.62347       -7.67035
| 13> H          2.25200        0.24080       -4.49879
| 14> H          3.46428        1.64078       -5.13639
| 15> H          4.83447        1.31375       -6.22465
| 16> H         -0.17658       -0.62881       -4.85045
| 17> H          0.56384       -1.39374       -3.46490
| 18> H         -0.28102       -2.36136       -4.64938
| 19> *
| 20>
| 21> %MaxCore 64000
| 22>
| 23> %pal nprocs 4
| 24> end
| 25>
| 26> %scf
| 27>   MaxIter 150
| 28> end
| 29>
| 30>
| 31>                          ****END OF INPUT****

CARTESIAN COORDINATES (ANGSTROEM)
---------------------------------
  C      1.635560   -1.670400   -5.292110
  C      0.338480   -1.500910   -4.505400
  N      2.484510   -0.507410   -5.140390
  H      1.398340   -1.829240   -6.352590
  H      2.155860   -2.565400   -4.932090
  C      3.451150   -0.149530   -5.952590
  N      3.922670    1.089560   -5.850710
  N      3.966160   -1.006180   -6.867880
  H      3.521390   -1.906470   -6.995270
  H      4.444820   -0.623470   -7.670350
  H      2.252000    0.240800   -4.498790
  H      3.464280    1.640780   -5.136390
  H      4.834470    1.313750   -6.224650
  H     -0.176580   -0.628810   -4.850450
  H      0.563840   -1.393740   -3.464900
  H     -0.281020   -2.361360   -4.649380

 Total Charge           Charge          ....    1
 Multiplicity           Mult            ....    1
 Number of Electrons    NEL             ....   48
 Basis Dimension        Dim             ....  134

ORBITAL ENERGIES
----------------

  NO   OCC          E(Eh)            E(eV)
   0   2.0000     -14.621688      -397.8763
   1   2.0000     -14.616898      -397.7460
   2   2.0000     -14.614209      -397.6728
   3   2.0000     -10.562166      -287.4111
   4   2.0000     -10.441176      -284.1189
   5   2.0000     -10.371007      -282.2094
   6   2.0000      -1.238757       -33.7083
   7   2.0000      -1.123519       -30.5725
   8   2.0000      -1.108513       -30.1642
   9   2.0000      -0.952383       -25.9157
  10   2.0000      -0.845936       -23.0191
  11   2.0000      -0.829070       -22.5601
  12   2.0000      -0.792383       -21.5618
  13   2.0000      -0.760229       -20.6869
  14   2.0000      -0.705039       -19.1851
  15   2.0000      -0.698779       -19.0147
  16   2.0000      -0.676283       -18.4026
  17   2.0000      -0.656531       -17.8651
  18   2.0000      -0.615318       -16.7437
  19   2.0000      -0.559351       -15.2207
  20   2.0000      -0.542441       -14.7606
  21   2.0000      -0.531920       -14.4743
  22   2.0000      -0.487973       -13.2784
  23   2.0000      -0.464269       -12.6334
  24   0.0000      -0.155154        -4.2220
  25   0.0000      -0.129223        -3.5163
  26   0.0000      -0.093718        -2.5502
  27   0.0000      -0.075747        -2.0612
  28   0.0000      -0.054957        -1.4955

MULLIKEN ATOMIC CHARGES
-----------------------
   0 C :   -0.003489
   1 C :   -0.087170
   2 N :   -0.168741
   3 H :    0.082552
   4 H :    0.097050
   5 C :    0.122731
   6 N :   -0.073512
   7 N :   -0.108378
   8 H :    0.180751
   9 H :    0.184393
  10 H :    0.169786
  11 H :    0.175972
  12 H :    0.191885
  13 H :    0.069681
  14 H :    0.074959
  15 H :    0.091530
Sum of atomic charges:    1.0000000

LOEWDIN ATOMIC CHARGES
----------------------
   0 C :    0.027872
   1 C :   -0.047488
   2 N :    0.031647
   3 H :    0.037986
   4 H :    0.043698
   5 C :    0.145976
   6 N :    0.044053
   7 N :    0.032571
   8 H :    0.108643
   9 H :    0.112234
  10 H :    0.103917
  11 H :    0.108909
  12 H :    0.116409
  13 H :    0.037480
  14 H :    0.040198
  15 H :    0.055896

  Mayer bond orders larger than 0.100000
B(  0-C ,  1-C ) :   1.0991 B(  0-C ,  2-N ) :   0.9036 B(  0-C ,  3-H ) :   0.9477
B(  0-C ,  4-H ) :   0.9455 B(  1-C , 13-H ) :   0.9729 B(  1-C , 14-H ) :   0.9696
B(  1-C , 15-H ) :   0.9600 B(  2-N ,  5-C ) :   1.3908 B(  2-N , 10-H ) :   0.9052
B(  5-C ,  6-N ) :   1.3858 B(  5-C ,  7-N ) :   1.3717 B(  6-N , 11-H ) :   0.9212
B(  6-N , 12-H ) :   0.9231 B(  7-N ,  8-H ) :   0.9245 B(  7-N ,  9-H ) :   0.9267

Dispersion correction           -0.010111558
FINAL SINGLE POINT ENERGY      -283.870145957784

DIPOLE MOMENT
-------------
                                X             Y             Z
Electronic contribution:      4.75935       2.52810      -1.73480
Nuclear contribution   :     -3.96322      -1.85512       1.24891
                        -----------------------------------------
Total Dipole Moment    :      0.79613       0.67299      -0.48589
                        -----------------------------------------
Magnitude (a.u.)       :      1.15014
Magnitude (Debye)      :      2.92342

Rotational constants in cm-1:     0.261404     0.067000     0.054949
Rotational constants in MHz :  7836.702504  2008.609425  1647.329138

                             ****ORCA TERMINATED NORMALLY****
TOTAL RUN TIME: 0 days 0 hours 0 minutes 16 seconds 212 msec
