                         Program Version 5.0.0 -  RELEASE  -
|  1> !PBE0 D3BJ RIJCOSX def2-SVP def2/J TightSCF
|  2> *xyz 0 1
|  3> C         -0.05517        1.61942       -3.78858
|  4> C          1.22302        2.46987       -3.75691
|  5> H          1.11470        3.25807       -4.53300
|  6> H          1.23773        3.01124       -2.79216
|  7> F          2.35381        1.71203       -3.93448
|  8> H         -0.10198        1.08015       -4.71156
|  9> H         -0.91014        2.25726       -3.70441
| 10> H         -0.04403        0.92826       -2.97183
| 11> *
| 12>
| 13> %MaxCore 64000
| 14>
| 15> %pal nprocs 4
| 16> end
| 17>
| 18> %scf
| 19>   MaxIter 150
| 20> end
| 21>
| 22>
| 23>                          ****END OF INPUT****

CARTESIAN COORDINATES (ANGSTROEM)
---------------------------------
  C     -0.055170    1.619420   -3.788580
  C      1.223020    2.469870   -3.756910
  H      1.114700    3.258070   -4.533000
  H      1.237730    3.011240   -2.792160
  F      2.353810    1.712030   -3.934480
  H     -0.101980    1.080150   -4.711560
  H     -0.910140    2.257260   -3.704410
  H     -0.044030    0.928260   -2.971830

 Total Charge           Charge          ....    0
 Multiplicity           Mult            ....    1
 Number of Electrons    NEL             ....   26
 Basis Dimension        Dim             ....   67

ORBITAL ENERGIES
----------------

  NO   OCC          E(Eh)            E(eV)
   0   2.0000     -24.749186      -673.4596
   1   2.0000     -10.305487      -280.4266
   2   2.0000     -10.225553      -278.2515
   3   2.0000      -1.199173       -32.6311
   4   2.0000      -0.777580       -21.1590
   5   2.0000      -0.640172       -17.4200
   6   2.0000      -0.515608       -14.0304
   7   2.0000      -0.505215       -13.7476
   8   2.0000      -0.465679       -12.6718
   9   2.0000      -0.412664       -11.2292
  10   2.0000      -0.410394       -11.1674
  11   2.0000      -0.342624        -9.3233
  12   2.0000      -0.337464        -9.1829
  13   0.0000       0.075206         2.0465
  14   0.0000       0.120489         3.2787
  15   0.0000       0.126347         3.4381
  16   0.0000       0.142419         3.8754
  17   0.0000       0.157225         4.2783

MULLIKEN ATOMIC CHARGES
-----------------------
   0 C :   -0.115460
   1 C :    0.190325
   2 H :    0.031265
   3 H :    0.030317
   4 F :   -0.276069
   5 H :    0.051146
   6 H :    0.038277
   7 H :    0.050201
Sum of atomic charges:    0.0000000

LOEWDIN ATOMIC CHARGES
----------------------
   0 C :   -0.083745
   1 C :    0.106043
   2 H :    0.013882
   3 H :    0.013336
   4 F :   -0.140996
   5 H :    0.029655
   6 H :    0.033059
   7 H :    0.028766

  Mayer bond orders larger than 0.100000
B(  0-C ,  1-C ) :   1.0886 B(  0-C ,  5-H ) :   0.9712 B(  0-C ,  6-H ) :   0.9615
B(  0-C ,  7-H ) :   0.9723 B(  1-C ,  2-H ) :   0.9584 B(  1-C ,  3-H ) :   0.9584
B(  1-C ,  4-F ) :   0.9811

Dispersion correction           -0.002811665
FINAL SINGLE POINT ENERGY      -178.727519090351

DIPOLE MOMENT
-------------
                                X             Y             Z
Electronic contribution:      5.06273      -0.74737      -0.43513
Nuclear contribution   :     -5.66833       1.07099       0.52006
                        -----------------------------------------
Total Dipole Moment    :     -0.60560       0.32362       0.08493
                        -----------------------------------------
Magnitude (a.u.)       :      0.69188
Magnitude (Debye)      :      1.75861

Rotational constants in cm-1:     1.245689     0.305293     0.269541
Rotational constants in MHz : 37344.801915  9152.442838  8080.640229

                             ****ORCA TERMINATED NORMALLY****
TOTAL RUN TIME: 0 days 0 hours 0 minutes 7 seconds 561 msec
