                         Program Version 5.0.0 -  RELEASE  -
|  1> !PBE0 D3BJ RIJCOSX def2-SVP def2/J TightSCF
|  2> *xyz 0 1
|  3> C          1.63556       -1.67040       -5.29211
|  4> C          0.33848       -1.50091       -4.50540
|  5> C          2.48451       -0.50741       -5.14039
|  6> H          1.39834       -1.82924       -6.35259
|  7> H          2.15586       -2.56540       -4.93209
|  8> C          3.45115       -0.14953       -5.95259
|  9> N          3.92267        1.08956       -5.85071
| 10> N          3.96616       -1.00618       -6.86788
| 11> H          3.52139       -1.90647       -6.99527
| 12> H          4.44482       -0.62347       -7.67035
| 13> H          2.25200        0.24080       -4.49879
| 14> H          3.46428        1.64078       -5.13639
| 15> H          4.83447        1.31375       -6.22465
| 16> H         -0.17658       -0.62881       -4.85045
| 17> H          0.56384       -1.39374       -3.46490
| 18> H         -0.28102       -2.36136       -4.64938
| 19> *
| 20>
| 21> %MaxCore 64000
| 22>
| 23> %pal nprocs 4
| 24> end
| 25>
| 26> %scf
| 27>   MaxIter 150
| 28> end
| 29>
| 30>
| 31>                          ****END OF INPUT****

CARTESIAN COORDINATES (ANGSTROEM)
---------------------------------
  C      1.635560   -1.670400   -5.292110
  C      0.338480   -1.500910   -4.505400
  C      2.484510   -0.507410   -5.140390
  H      1.398340   -1.829240   -6.352590
  H      2.155860   -2.565400   -4.932090
  C      3.451150   -0.149530   -5.952590
  N      3.922670    1.089560   -5.850710
  N      3.966160   -1.006180   -6.867880
  H      3.521390   -1.906470   -6.995270
  H      4.444820   -0.623470   -7.670350
  H      2.252000    0.240800   -4.498790
  H      3.464280    1.640780   -5.136390
  H      4.834470    1.313750   -6.224650
  H     -0.176580   -0.628810   -4.850450
  H      0.563840   -1.393740   -3.464900
  H     -0.281020   -2.361360   -4.649380

 Total Charge           Charge          ....    0
 Multiplicity           Mult            ....    1
 Number of Electrons    NEL             ....   48
 Basis Dimension        Dim             ....  134

ORBITAL ENERGIES
----------------

  NO   OCC          E(Eh)            E(eV)
   0   2.0000     -14.386764      -391.4838
   1   2.0000     -14.382163      -391.3586
   2   2.0000     -10.262157      -279.2475
   3   2.0000     -10.203891      -277.6620
   4   2.0000     -10.196714      -277.4667
   5   2.0000     -10.145133      -276.0631
   6   2.0000      -0.967782       -26.3347
   7   2.0000      -0.878119       -23.8948
   8   2.0000      -0.786155       -21.3924
   9   2.0000      -0.706434       -19.2230
  10   2.0000      -0.619087       -16.8462
  11   2.0000      -0.588376       -16.0105
  12   2.0000      -0.542447       -14.7607
  13   2.0000      -0.520068       -14.1518
  14   2.0000      -0.474545       -12.9130
  15   2.0000      -0.447825       -12.1859
  16   2.0000      -0.435768       -11.8579
  17   2.0000      -0.401564       -10.9271
  18   2.0000      -0.384443       -10.4612
  19   2.0000      -0.347860        -9.4658
  20   2.0000      -0.336439        -9.1550
  21   2.0000      -0.335991        -9.1428
  22   2.0000      -0.266747        -7.2585
  23   2.0000      -0.162947        -4.4340
  24   0.0000       0.060811         1.6547
  25   0.0000       0.089129         2.4253
  26   0.0000       0.101743         2.7686
  27   0.0000       0.105325         2.8660
  28   0.0000       0.117799         3.2055

MULLIKEN ATOMIC CHARGES
-----------------------
   0 C :   -0.038808
   1 C :   -0.037059
   2 C :   -0.139561
   3 H :    0.013763
   4 H :    0.024252
   5 C :   -0.047192
   6 N :   -0.107515
   7 N :   -0.148321
   8 H :    0.130207
   9 H :    0.113681
  10 H :   -0.083887
  11 H :    0.130805
  12 H :    0.115412
  13 H :    0.026182
  14 H :    0.029951
  15 H :    0.018088
Sum of atomic charges:   -0.0000000

LOEWDIN ATOMIC CHARGES
----------------------
   0 C :   -0.051356
   1 C :   -0.054908
   2 C :   -0.227601
   3 H :    0.011479
   4 H :    0.015105
   5 C :    0.024308
   6 N :   -0.030401
   7 N :   -0.037209
   8 H :    0.079818
   9 H :    0.064929
  10 H :   -0.007663
  11 H :    0.084508
  12 H :    0.066328
  13 H :    0.020967
  14 H :    0.022716
  15 H :    0.018979

  Mayer bond orders larger than 0.100000
B(  0-C ,  1-C ) :   1.1035 B(  0-C ,  2-C ) :   1.0367 B(  0-C ,  3-H ) :   0.9430
B(  0-C ,  4-H ) :   0.9279 B(  1-C , 13-H ) :   0.9760 B(  1-C , 14-H ) :   0.9710
B(  1-C , 15-H ) :   0.9686 B(  2-C ,  5-C ) :   1.6888 B(  2-C , 10-H ) :   0.9400
B(  5-C ,  6-N ) :   1.2409 B(  5-C ,  7-N ) :   1.2346 B(  6-N , 11-H ) :   0.9315
B(  6-N , 12-H ) :   0.9447 B(  7-N ,  8-H ) :   0.9392 B(  7-N ,  9-H ) :   0.9463

Dispersion correction           -0.010530562
FINAL SINGLE POINT ENERGY      -267.408668902764

DIPOLE MOMENT
-------------
                                X             Y             Z
Electronic contribution:      4.65415       2.22971      -1.99499
Nuclear contribution   :     -3.99655      -1.83277       1.34879
                        -----------------------------------------
Total Dipole Moment    :      0.65760       0.39694      -0.64621
                        -----------------------------------------
Magnitude (a.u.)       :      1.00379
Magnitude (Debye)      :      2.55142

Rotational constants in cm-1:     0.262971     0.067064     0.055026
Rotational constants in MHz :  7883.664566  2010.513309  1649.636654

                             ****ORCA TERMINATED NORMALLY****
TOTAL RUN TIME: 0 days 0 hours 0 minutes 16 seconds 867 msec
