                         Program Version 5.0.0 -  RELEASE  -
|  1> !PBE0 D3BJ RIJCOSX def2-SVP def2/J TightSCF
|  2> *xyz 0 1
|  3> C          1.63556       -1.67040       -5.29211
|  4> C          0.33848       -1.50091       -4.50540
|  5> N          2.48451       -0.50741       -5.14039
|  6> H          1.39834       -1.82924       -6.35259
|  7> H          2.15586       -2.56540       -4.93209
|  8> C          3.45115       -0.14953       -5.95259
|  9> C          3.92267        1.08956       -5.85071
| 10> N          3.96616       -1.00618       -6.86788
| 11> H          3.52139       -1.90647       -6.99527
| 12> H          4.44482       -0.62347       -7.67035
| 13> H          2.25200        0.24080       -4.49879
| 14> H          3.46428        1.64078       -5.13639
| 15> H          4.83447        1.31375       -6.22465
| 16> H         -0.17658       -0.62881       -4.85045
| 17> H          0.56384       -1.39374       -3.46490
| 18> H         -0.28102       -2.36136       -4.64938
| 19> *
| 20>
| 21> %MaxCore 64000
| 22>
| 23> %pal nprocs 4
| 24> end
| 25>
| 26> %scf
| 27>   MaxIter 150
| 28> end
| 29>
| 30>
| 31>                          ****END OF INPUT****

CARTESIAN COORDINATES (ANGSTROEM)
---------------------------------
  C      1.635560   -1.670400   -5.292110
  C      0.338480   -1.500910   -4.505400
  N      2.484510   -0.507410   -5.140390
  H      1.398340   -1.829240   -6.352590
  H      2.155860   -2.565400   -4.932090
  C      3.451150   -0.149530   -5.952590
  C      3.922670    1.089560   -5.850710
  N      3.966160   -1.006180   -6.867880
  H      3.521390   -1.906470   -6.995270
  H      4.444820   -0.623470   -7.670350
  H      2.252000    0.240800   -4.498790
  H      3.464280    1.640780   -5.136390
  H      4.834470    1.313750   -6.224650
  H     -0.176580   -0.628810   -4.850450
  H      0.563840   -1.393740   -3.464900
  H     -0.281020   -2.361360   -4.649380

 Total Charge           Charge          ....    0
 Multiplicity           Mult            ....    1
 Number of Electrons    NEL             ....   48
 Basis Dimension        Dim             ....  134

ORBITAL ENERGIES
----------------

  NO   OCC          E(Eh)            E(eV)
   0   2.0000     -14.388813      -391.5395
   1   2.0000     -14.385227      -391.4419
   2   2.0000     -10.272152      -279.5195
   3   2.0000     -10.266615      -279.3688
   4   2.0000     -10.232011      -278.4272
   5   2.0000     -10.134760      -275.7808
   6   2.0000      -0.982483       -26.7347
   7   2.0000      -0.892951       -24.2984
   8   2.0000      -0.791954       -21.5502
   9   2.0000      -0.712555       -19.3896
  10   2.0000      -0.638977       -17.3875
  11   2.0000      -0.606140       -16.4939
  12   2.0000      -0.544402       -14.8139
  13   2.0000      -0.506541       -13.7837
  14   2.0000      -0.491987       -13.3876
  15   2.0000      -0.473187       -12.8761
  16   2.0000      -0.428283       -11.6542
  17   2.0000      -0.405522       -11.0348
  18   2.0000      -0.388434       -10.5698
  19   2.0000      -0.385544       -10.4912
  20   2.0000      -0.383113       -10.4250
  21   2.0000      -0.356423        -9.6988
  22   2.0000      -0.261730        -7.1220
  23   2.0000      -0.162110        -4.4112
  24   0.0000       0.060584         1.6486
  25   0.0000       0.081367         2.2141
  26   0.0000       0.087753         2.3879
  27   0.0000       0.099848         2.7170
  28   0.0000       0.122778         3.3410

MULLIKEN ATOMIC CHARGES
-----------------------
   0 C :    0.050235
   1 C :   -0.082608
   2 N :   -0.195241
   3 H :    0.033554
   4 H :    0.038876
   5 C :   -0.013501
   6 C :   -0.119803
   7 N :   -0.156494
   8 H :    0.113357
   9 H :    0.136657
  10 H :    0.137007
  11 H :   -0.050753
  12 H :   -0.029097
  13 H :    0.047699
  14 H :    0.046254
  15 H :    0.043856
Sum of atomic charges:   -0.0000000

LOEWDIN ATOMIC CHARGES
----------------------
   0 C :    0.022644
   1 C :   -0.061876
   2 N :   -0.033364
   3 H :    0.015906
   4 H :    0.015870
   5 C :    0.035375
   6 C :   -0.267555
   7 N :   -0.034922
   8 H :    0.064420
   9 H :    0.083429
  10 H :    0.086375
  11 H :   -0.009536
  12 H :   -0.005322
  13 H :    0.027967
  14 H :    0.027677
  15 H :    0.032911

  Mayer bond orders larger than 0.100000
B(  0-C ,  1-C ) :   1.1040 B(  0-C ,  2-N ) :   0.9806 B(  0-C ,  3-H ) :   0.9435
B(  0-C ,  4-H ) :   0.9459 B(  1-C , 13-H ) :   0.9733 B(  1-C , 14-H ) :   0.9713
B(  1-C , 15-H ) :   0.9671 B(  2-N ,  5-C ) :   1.2221 B(  2-N , 10-H ) :   0.9189
B(  5-C ,  6-C ) :   1.7306 B(  5-C ,  7-N ) :   1.2041 B(  6-C , 11-H ) :   0.9287
B(  6-C , 12-H ) :   0.9553 B(  7-N ,  8-H ) :   0.9530 B(  7-N ,  9-H ) :   0.9483

Dispersion correction           -0.010433951
FINAL SINGLE POINT ENERGY      -267.397658256208

DIPOLE MOMENT
-------------
                                X             Y             Z
Electronic contribution:      2.96981       0.52450      -1.33033
Nuclear contribution   :     -3.69145      -1.49398       1.19810
                        -----------------------------------------
Total Dipole Moment    :     -0.72164      -0.96948      -0.13223
                        -----------------------------------------
Magnitude (a.u.)       :      1.21579
Magnitude (Debye)      :      3.09029

Rotational constants in cm-1:     0.270790     0.068966     0.056679
Rotational constants in MHz :  8118.084803  2067.559423  1699.196934

                             ****ORCA TERMINATED NORMALLY****
TOTAL RUN TIME: 0 days 0 hours 0 minutes 15 seconds 740 msec
