                         Program Version 5.0.0 -  RELEASE  -
|  1> !PBE0 D3BJ RIJCOSX def2-SVP def2/J TightSCF
|  2> *xyz 0 1
|  3> C          1.63556       -1.67040       -5.29211
|  4> C          0.33848       -1.50091       -4.50540
|  5> N          2.48451       -0.50741       -5.14039
|  6> H          1.39834       -1.82924       -6.35259
|  7> H          2.15586       -2.56540       -4.93209
|  8> C          3.45115       -0.14953       -5.95259
|  9> N          3.92267        1.08956       -5.85071
| 10> C          3.96616       -1.00618       -6.86788
| 11> H          3.52139       -1.90647       -6.99527
| 12> H          4.44482       -0.62347       -7.67035
| 13> H          2.25200        0.24080       -4.49879
| 14> H          3.46428        1.64078       -5.13639
| 15> H          4.83447        1.31375       -6.22465
| 16> H         -0.17658       -0.62881       -4.85045
| 17> H          0.56384       -1.39374       -3.46490
| 18> H         -0.28102       -2.36136       -4.64938
| 19> *
| 20>
| 21> %MaxCore 64000
| 22>
| 23> %pal nprocs 4
| 24> end
| 25>
| 26> %scf
| 27>   MaxIter 150
| 28> end
| 29>
| 30>
| 31>                          ****END OF INPUT****

CARTESIAN COORDINATES (ANGSTROEM)
---------------------------------
  C      1.635560   -1.670400   -5.292110
  C      0.338480   -1.500910   -4.505400
  N      2.484510   -0.507410   -5.140390
  H      1.398340   -1.829240   -6.352590
  H      2.155860   -2.565400   -4.932090
  C      3.451150   -0.149530   -5.952590
  N      3.922670    1.089560   -5.850710
  C      3.966160   -1.006180   -6.867880
  H      3.521390   -1.906470   -6.995270
  H      4.444820   -0.623470   -7.670350
  H      2.252000    0.240800   -4.498790
  H      3.464280    1.640780   -5.136390
  H      4.834470    1.313750   -6.224650
  H     -0.176580   -0.628810   -4.850450
  H      0.563840   -1.393740   -3.464900
  H     -0.281020   -2.361360   -4.649380

 Total Charge           Charge          ....    0
 Multiplicity           Mult            ....    1
 Number of Electrons    NEL             ....   48
 Basis Dimension        Dim             ....  134

ORBITAL ENERGIES
----------------

  NO   OCC          E(Eh)            E(eV)
   0   2.0000     -14.394705      -391.6998
   1   2.0000     -14.388017      -391.5178
   2   2.0000     -10.268125      -279.4099
   3   2.0000     -10.263984      -279.2972
   4   2.0000     -10.227684      -278.3094
   5   2.0000     -10.134840      -275.7830
   6   2.0000      -0.990781       -26.9605
   7   2.0000      -0.898405       -24.4468
   8   2.0000      -0.777538       -21.1579
   9   2.0000      -0.711025       -19.3480
  10   2.0000      -0.656325       -17.8595
  11   2.0000      -0.577195       -15.7063
  12   2.0000      -0.545589       -14.8462
  13   2.0000      -0.533260       -14.5107
  14   2.0000      -0.485408       -13.2086
  15   2.0000      -0.477493       -12.9933
  16   2.0000      -0.409759       -11.1501
  17   2.0000      -0.405375       -11.0308
  18   2.0000      -0.400336       -10.8937
  19   2.0000      -0.377670       -10.2769
  20   2.0000      -0.369135       -10.0447
  21   2.0000      -0.356664        -9.7053
  22   2.0000      -0.256598        -6.9824
  23   2.0000      -0.164408        -4.4738
  24   0.0000       0.052538         1.4296
  25   0.0000       0.077319         2.1040
  26   0.0000       0.097030         2.6403
  27   0.0000       0.107123         2.9150
  28   0.0000       0.129342         3.5196

MULLIKEN ATOMIC CHARGES
-----------------------
   0 C :    0.074212
   1 C :   -0.081259
   2 N :   -0.214853
   3 H :    0.049079
   4 H :    0.044094
   5 C :   -0.003638
   6 N :   -0.128124
   7 C :   -0.159073
   8 H :   -0.030240
   9 H :   -0.032051
  10 H :    0.106303
  11 H :    0.106714
  12 H :    0.143385
  13 H :    0.039967
  14 H :    0.039481
  15 H :    0.046004
Sum of atomic charges:    0.0000000

LOEWDIN ATOMIC CHARGES
----------------------
   0 C :    0.038596
   1 C :   -0.065311
   2 N :   -0.028874
   3 H :    0.025440
   4 H :    0.021573
   5 C :    0.028372
   6 N :   -0.024526
   7 C :   -0.278268
   8 H :   -0.007835
   9 H :   -0.007051
  10 H :    0.063830
  11 H :    0.063047
  12 H :    0.088031
  13 H :    0.024452
  14 H :    0.024370
  15 H :    0.034153

  Mayer bond orders larger than 0.100000
B(  0-C ,  1-C ) :   1.0938 B(  0-C ,  2-N ) :   0.9770 B(  0-C ,  3-H ) :   0.9408
B(  0-C ,  4-H ) :   0.9488 B(  1-C , 13-H ) :   0.9725 B(  1-C , 14-H ) :   0.9709
B(  1-C , 15-H ) :   0.9676 B(  2-N ,  5-C ) :   1.1946 B(  2-N , 10-H ) :   0.9320
B(  5-C ,  6-N ) :   1.2238 B(  5-C ,  7-C ) :   1.7174 B(  6-N , 11-H ) :   0.9505
B(  6-N , 12-H ) :   0.9431 B(  7-C ,  8-H ) :   0.9455 B(  7-C ,  9-H ) :   0.9509

Dispersion correction           -0.010470985
FINAL SINGLE POINT ENERGY      -267.397553864152

DIPOLE MOMENT
-------------
                                X             Y             Z
Electronic contribution:      3.05198       2.72628      -0.14954
Nuclear contribution   :     -3.68222      -1.93858       0.98231
                        -----------------------------------------
Total Dipole Moment    :     -0.63025       0.78770       0.83277
                        -----------------------------------------
Magnitude (a.u.)       :      1.30812
Magnitude (Debye)      :      3.32499

Rotational constants in cm-1:     0.275407     0.068040     0.056255
Rotational constants in MHz :  8256.498401  2039.796466  1686.484500

                             ****ORCA TERMINATED NORMALLY****
TOTAL RUN TIME: 0 days 0 hours 0 minutes 15 seconds 781 msec
