                         Program Version 5.0.0 -  RELEASE  -
|  1> !PBE0 D3BJ RIJCOSX def2-TZVP def2/J TightSCF xyzfile
|  2>
|  3> *xyzfile 0 1 D1.xyz
|  4>
|  5> %MaxCore 64000
|  6>
|  7> %pal nprocs 18
|  8> end
|  9>
| 10> %scf
| 11>   MaxIter 150
| 12> end
| 13>
| 14>
| 15>                          ****END OF INPUT****

CARTESIAN COORDINATES (ANGSTROEM)
---------------------------------
  C      1.635557   -1.670396   -5.292109
  C      0.338484   -1.500907   -4.505398
  C      2.484511   -0.507410   -5.140392
  C     -0.684873   -0.528026   -5.099889
  C     -0.290406    0.951335   -5.153423
  H      0.607991    1.070692   -5.764412
  C     -0.055168    1.619420   -3.788577
  H     -1.080912    1.483775   -5.689436
  H      0.045006    0.862302   -3.003015
  H     -0.922936    2.230329   -3.517028
  C      1.223022    2.469865   -3.756911
  H      1.114701    3.258074   -4.532999
  H      1.237732    3.011242   -2.792157
  F      2.353815    1.712032   -3.934477
  H      1.398337   -1.829239   -6.352591
  H      2.155864   -2.565398   -4.932091
  C      3.451149   -0.149530   -5.952589
  N      3.922667    1.089559   -5.850711
  N      3.966162   -1.006183   -6.867880
  H      3.521391   -1.906467   -6.995270
  H      4.444824   -0.623472   -7.670348
  H      2.251995    0.240804   -4.498792
  H      3.464277    1.640782   -5.136392
  H      4.834470    1.313745   -6.224653
  H     -0.937999   -0.869056   -6.110838
  H     -1.604638   -0.622496   -4.513132
  H      0.594887   -1.211578   -3.482312
  H     -0.126530   -2.487656   -4.434176

 Total Charge           Charge          ....    0
 Multiplicity           Mult            ....    1
 Number of Electrons    NEL             ....   88
 Basis Dimension        Dim             ....  443

ORBITAL ENERGIES
----------------

  NO   OCC          E(Eh)            E(eV)
   0   2.0000     -24.784644      -674.4244
   1   2.0000     -14.366948      -390.9445
   2   2.0000     -14.351349      -390.5200
   3   2.0000     -10.307419      -280.4791
   4   2.0000     -10.238530      -278.6046
   5   2.0000     -10.226496      -278.2771
   6   2.0000     -10.209044      -277.8022
   7   2.0000     -10.206250      -277.7262
   8   2.0000     -10.196505      -277.4610
   9   2.0000     -10.185777      -277.1691
  10   2.0000     -10.113216      -275.1946
  11   2.0000      -1.266405       -34.4606
  12   2.0000      -0.965375       -26.2692
  13   2.0000      -0.877239       -23.8709
  14   2.0000      -0.831672       -22.6310
  15   2.0000      -0.797914       -21.7123
  16   2.0000      -0.747938       -20.3524
  17   2.0000      -0.711668       -19.3655
  18   2.0000      -0.659514       -17.9463
  19   2.0000      -0.624941       -17.0055
  20   2.0000      -0.593517       -16.1504
  21   2.0000      -0.570523       -15.5247
  22   2.0000      -0.551260       -15.0006
  23   2.0000      -0.536235       -14.5917
  24   2.0000      -0.520494       -14.1634
  25   2.0000      -0.517566       -14.0837
  26   2.0000      -0.498559       -13.5665
  27   2.0000      -0.469731       -12.7820
  28   2.0000      -0.451965       -12.2986
  29   2.0000      -0.451306       -12.2807
  30   2.0000      -0.429136       -11.6774
  31   2.0000      -0.413893       -11.2626
  32   2.0000      -0.402770       -10.9599
  33   2.0000      -0.389464       -10.5979
  34   2.0000      -0.372629       -10.1397
  35   2.0000      -0.369020       -10.0415
  36   2.0000      -0.359845        -9.7919
  37   2.0000      -0.346813        -9.4373
  38   2.0000      -0.329420        -8.9640
  39   2.0000      -0.318065        -8.6550
  40   2.0000      -0.312213        -8.4958
  41   2.0000      -0.300687        -8.1821
  42   2.0000      -0.257886        -7.0174
  43   2.0000      -0.153069        -4.1652
  44   0.0000       0.042747         1.1632
  45   0.0000       0.049967         1.3597
  46   0.0000       0.060838         1.6555
  47   0.0000       0.073531         2.0009
  48   0.0000       0.080329         2.1859

MULLIKEN ATOMIC CHARGES
-----------------------
   0 C :   -0.161300
   1 C :   -0.208584
   2 C :   -0.362000
   3 C :   -0.195858
   4 C :   -0.226984
   5 H :    0.152309
   6 C :   -0.213375
   7 H :    0.098051
   8 H :    0.113980
   9 H :    0.119162
  10 C :   -0.019595
  11 H :    0.108617
  12 H :    0.113862
  13 F :   -0.215461
  14 H :    0.061999
  15 H :    0.088929
  16 C :    0.239034
  17 N :   -0.488587
  18 N :   -0.494110
  19 H :    0.244058
  20 H :    0.217445
  21 H :    0.171445
  22 H :    0.252906
  23 H :    0.214070
  24 H :    0.095352
  25 H :    0.097859
  26 H :    0.097410
  27 H :    0.099364
Sum of atomic charges:   -0.0000000

LOEWDIN ATOMIC CHARGES
----------------------
   0 C :   -0.289037
   1 C :   -0.266717
   2 C :   -0.289985
   3 C :   -0.270537
   4 C :   -0.273848
   5 H :    0.148489
   6 C :   -0.273614
   7 H :    0.133433
   8 H :    0.142652
   9 H :    0.143306
  10 C :   -0.344233
  11 H :    0.127230
  12 H :    0.125336
  13 F :    0.144107
  14 H :    0.130918
  15 H :    0.133658
  16 C :   -0.471729
  17 N :   -0.028392
  18 N :   -0.030902
  19 H :    0.171549
  20 H :    0.155755
  21 H :    0.120084
  22 H :    0.162253
  23 H :    0.155695
  24 H :    0.138476
  25 H :    0.136458
  26 H :    0.134931
  27 H :    0.134661

  Mayer bond orders larger than 0.100000
B(  0-C ,  1-C ) :   1.0194 B(  0-C ,  2-C ) :   0.9856 B(  0-C , 14-H ) :   0.9469
B(  0-C , 15-H ) :   0.9487 B(  1-C ,  3-C ) :   1.0207 B(  1-C , 26-H ) :   0.9710
B(  1-C , 27-H ) :   0.9632 B(  2-C , 16-C ) :   1.6570 B(  2-C , 21-H ) :   0.9868
B(  3-C ,  4-C ) :   0.9961 B(  3-C , 24-H ) :   0.9529 B(  3-C , 25-H ) :   0.9602
B(  4-C ,  5-H ) :   0.9711 B(  4-C ,  6-C ) :   0.9678 B(  4-C ,  7-H ) :   0.9543
B(  6-C ,  8-H ) :   0.9580 B(  6-C ,  9-H ) :   0.9432 B(  6-C , 10-C ) :   1.0144
B( 10-C , 11-H ) :   0.9696 B( 10-C , 12-H ) :   0.9612 B( 10-C , 13-F ) :   0.9384
B( 16-C , 17-N ) :   1.2293 B( 16-C , 18-N ) :   1.1713 B( 17-N , 22-H ) :   0.8777
B( 17-N , 23-H ) :   0.9187 B( 18-N , 19-H ) :   0.9164 B( 18-N , 20-H ) :   0.9160

Dispersion correction           -0.025097612
FINAL SINGLE POINT ENERGY      -523.983970096893

DIPOLE MOMENT
-------------
                                X             Y             Z
Electronic contribution:      7.90892       3.85427       1.08924
Nuclear contribution   :     -8.11591      -2.99033      -1.35383
                        -----------------------------------------
Total Dipole Moment    :     -0.20699       0.86394      -0.26460
                        -----------------------------------------
Magnitude (a.u.)       :      0.92696
Magnitude (Debye)      :      2.35615

Rotational constants in cm-1:     0.043530     0.028984     0.019589
Rotational constants in MHz :  1305.007140   868.923804   587.262638

                             ****ORCA TERMINATED NORMALLY****
TOTAL RUN TIME: 0 days 0 hours 0 minutes 32 seconds 639 msec
