                         Program Version 5.0.0 -  RELEASE  -
|  1> !PBE0 D3BJ RIJCOSX def2-TZVP def2/J TightSCF xyzfile
|  2>
|  3> *xyzfile 0 1 D2.xyz
|  4>
|  5> %MaxCore 64000
|  6>
|  7> %pal nprocs 18
|  8> end
|  9>
| 10> %scf
| 11>   MaxIter 150
| 12> end
| 13>
| 14>
| 15>                          ****END OF INPUT****

CARTESIAN COORDINATES (ANGSTROEM)
---------------------------------
  C      1.635557   -1.670396   -5.292109
  C      0.338484   -1.500907   -4.505398
  N      2.484511   -0.507410   -5.140392
  C     -0.684873   -0.528026   -5.099889
  C     -0.290406    0.951335   -5.153423
  H      0.607991    1.070692   -5.764412
  C     -0.055168    1.619420   -3.788577
  H     -1.080912    1.483775   -5.689436
  H      0.045006    0.862302   -3.003015
  H     -0.922936    2.230329   -3.517028
  C      1.223022    2.469865   -3.756911
  H      1.114701    3.258074   -4.532999
  H      1.237732    3.011242   -2.792157
  F      2.353815    1.712032   -3.934477
  H      1.398337   -1.829239   -6.352591
  H      2.155864   -2.565398   -4.932091
  C      3.451149   -0.149530   -5.952589
  C      3.922667    1.089559   -5.850711
  N      3.966162   -1.006183   -6.867880
  H      3.521391   -1.906467   -6.995270
  H      4.444824   -0.623472   -7.670348
  H      2.251995    0.240804   -4.498792
  H      3.464277    1.640782   -5.136392
  H      4.834470    1.313745   -6.224653
  H     -0.937999   -0.869056   -6.110838
  H     -1.604638   -0.622496   -4.513132
  H      0.594887   -1.211578   -3.482312
  H     -0.126530   -2.487656   -4.434176

 Total Charge           Charge          ....    0
 Multiplicity           Mult            ....    1
 Number of Electrons    NEL             ....   88
 Basis Dimension        Dim             ....  443

ORBITAL ENERGIES
----------------

  NO   OCC          E(Eh)            E(eV)
   0   2.0000     -24.786532      -674.4758
   1   2.0000     -14.365412      -390.9027
   2   2.0000     -14.357224      -390.6799
   3   2.0000     -10.309498      -280.5357
   4   2.0000     -10.249610      -278.9061
   5   2.0000     -10.243555      -278.7413
   6   2.0000     -10.235757      -278.5291
   7   2.0000     -10.224956      -278.2352
   8   2.0000     -10.224530      -278.2236
   9   2.0000     -10.222437      -278.1667
  10   2.0000     -10.101620      -274.8791
  11   2.0000      -1.267679       -34.4953
  12   2.0000      -0.978914       -26.6376
  13   2.0000      -0.893464       -24.3124
  14   2.0000      -0.842621       -22.9289
  15   2.0000      -0.800218       -21.7750
  16   2.0000      -0.759267       -20.6607
  17   2.0000      -0.706281       -19.2189
  18   2.0000      -0.671475       -18.2718
  19   2.0000      -0.640879       -17.4392
  20   2.0000      -0.601350       -16.3636
  21   2.0000      -0.585637       -15.9360
  22   2.0000      -0.559016       -15.2116
  23   2.0000      -0.532619       -14.4933
  24   2.0000      -0.525421       -14.2974
  25   2.0000      -0.518149       -14.0995
  26   2.0000      -0.499904       -13.6031
  27   2.0000      -0.486339       -13.2339
  28   2.0000      -0.464230       -12.6324
  29   2.0000      -0.455523       -12.3954
  30   2.0000      -0.436303       -11.8724
  31   2.0000      -0.424094       -11.5402
  32   2.0000      -0.412514       -11.2251
  33   2.0000      -0.393445       -10.7062
  34   2.0000      -0.382320       -10.4034
  35   2.0000      -0.374827       -10.1996
  36   2.0000      -0.363763        -9.8985
  37   2.0000      -0.360099        -9.7988
  38   2.0000      -0.344313        -9.3692
  39   2.0000      -0.334969        -9.1150
  40   2.0000      -0.333673        -9.0797
  41   2.0000      -0.329537        -8.9672
  42   2.0000      -0.250851        -6.8260
  43   2.0000      -0.152358        -4.1459
  44   0.0000       0.036325         0.9884
  45   0.0000       0.047638         1.2963
  46   0.0000       0.058147         1.5823
  47   0.0000       0.062686         1.7058
  48   0.0000       0.077498         2.1088

MULLIKEN ATOMIC CHARGES
-----------------------
   0 C :   -0.126638
   1 C :   -0.232406
   2 N :   -0.272711
   3 C :   -0.186797
   4 C :   -0.271698
   5 H :    0.167305
   6 C :   -0.226588
   7 H :    0.108469
   8 H :    0.113265
   9 H :    0.122224
  10 C :   -0.005425
  11 H :    0.114945
  12 H :    0.116253
  13 F :   -0.210255
  14 H :    0.087076
  15 H :    0.113233
  16 C :    0.329873
  17 C :   -0.622656
  18 N :   -0.503909
  19 H :    0.226073
  20 H :    0.246895
  21 H :    0.240420
  22 H :    0.137023
  23 H :    0.098543
  24 H :    0.102788
  25 H :    0.106575
  26 H :    0.112696
  27 H :    0.115426
Sum of atomic charges:   -0.0000000

LOEWDIN ATOMIC CHARGES
----------------------
   0 C :   -0.298984
   1 C :   -0.274100
   2 N :    0.121243
   3 C :   -0.272238
   4 C :   -0.275605
   5 H :    0.149732
   6 C :   -0.276617
   7 H :    0.137487
   8 H :    0.140577
   9 H :    0.144912
  10 C :   -0.341488
  11 H :    0.130851
  12 H :    0.126500
  13 F :    0.150446
  14 H :    0.127485
  15 H :    0.126480
  16 C :   -0.473625
  17 C :   -0.368053
  18 N :   -0.027526
  19 H :    0.157688
  20 H :    0.172532
  21 H :    0.175049
  22 H :    0.095048
  23 H :    0.092865
  24 H :    0.140337
  25 H :    0.139578
  26 H :    0.136567
  27 H :    0.142858

  Mayer bond orders larger than 0.100000
B(  0-C ,  1-C ) :   1.0151 B(  0-C ,  2-N ) :   0.9727 B(  0-C , 14-H ) :   0.9458
B(  0-C , 15-H ) :   0.9462 B(  1-C ,  3-C ) :   1.0142 B(  1-C , 26-H ) :   0.9689
B(  1-C , 27-H ) :   0.9583 B(  2-N , 16-C ) :   1.2425 B(  2-N , 21-H ) :   0.8829
B(  3-C ,  4-C ) :   0.9996 B(  3-C , 24-H ) :   0.9541 B(  3-C , 25-H ) :   0.9584
B(  4-C ,  5-H ) :   0.9663 B(  4-C ,  6-C ) :   0.9619 B(  4-C ,  7-H ) :   0.9549
B(  6-C ,  8-H ) :   0.9625 B(  6-C ,  9-H ) :   0.9431 B(  6-C , 10-C ) :   1.0148
B( 10-C , 11-H ) :   0.9710 B( 10-C , 12-H ) :   0.9597 B( 10-C , 13-F ) :   0.9320
B( 16-C , 17-C ) :   1.6239 B( 16-C , 18-N ) :   1.1195 B( 17-C , 22-H ) :   0.9869
B( 17-C , 23-H ) :   0.9864 B( 18-N , 19-H ) :   0.9228 B( 18-N , 20-H ) :   0.9158

Dispersion correction           -0.024923447
FINAL SINGLE POINT ENERGY      -523.975104548179

DIPOLE MOMENT
-------------
                                X             Y             Z
Electronic contribution:      6.36610       2.41499       1.68393
Nuclear contribution   :     -7.85451      -2.70006      -1.48294
                        -----------------------------------------
Total Dipole Moment    :     -1.48841      -0.28507       0.20099
                        -----------------------------------------
Magnitude (a.u.)       :      1.52873
Magnitude (Debye)      :      3.88573

Rotational constants in cm-1:     0.044065     0.029250     0.019826
Rotational constants in MHz :  1321.026981   876.903192   594.367265

                             ****ORCA TERMINATED NORMALLY****
TOTAL RUN TIME: 0 days 0 hours 0 minutes 38 seconds 288 msec
