                         Program Version 5.0.0 -  RELEASE  -
|  1> !TPSS D3BJ RIJCOSX def2-TZVPD def2/J TightSCF
|  2> *xyz -1 1
|  3> C         -0.72184       -0.99951       -3.43931
|  4> C          0.28725       -1.71177       -2.52740
|  5> H          1.13178       -2.06738       -3.15940
|  6> H         -0.20414       -2.63733       -2.17048
|  7> O          0.71050       -0.92751       -1.48177
|  8> H         -1.01315       -1.65739       -4.23129
|  9> H         -0.27123       -0.12142       -3.85259
| 10> H         -1.58442       -0.72333       -2.86958
| 11> *
| 12> %MaxCore 64000
| 13>
| 14> %pal nprocs 4
| 15> end
| 16>
| 17> %scf
| 18>   MaxIter 150
| 19> end
| 20>
| 21>
| 22>                          ****END OF INPUT****

CARTESIAN COORDINATES (ANGSTROEM)
---------------------------------
  C     -0.721840   -0.999510   -3.439310
  C      0.287250   -1.711770   -2.527400
  H      1.131780   -2.067380   -3.159400
  H     -0.204140   -2.637330   -2.170480
  O      0.710500   -0.927510   -1.481770
  H     -1.013150   -1.657390   -4.231290
  H     -0.271230   -0.121420   -3.852590
  H     -1.584420   -0.723330   -2.869580

 Total Charge           Charge          ....   -1
 Multiplicity           Mult            ....    1
 Number of Electrons    NEL             ....   26
 Basis Dimension        Dim             ....  159

ORBITAL ENERGIES
----------------

  NO   OCC          E(Eh)            E(eV)
   0   2.0000     -18.560839      -505.0661
   1   2.0000      -9.801014      -266.6991
   2   2.0000      -9.777448      -266.0579
   3   2.0000      -0.619602       -16.8602
   4   2.0000      -0.474607       -12.9147
   5   2.0000      -0.328715        -8.9448
   6   2.0000      -0.211204        -5.7472
   7   2.0000      -0.189834        -5.1657
   8   2.0000      -0.136559        -3.7160
   9   2.0000      -0.122369        -3.3298
  10   2.0000      -0.075136        -2.0446
  11   2.0000       0.062629         1.7042
  12   2.0000       0.065744         1.7890
  13   0.0000       0.146182         3.9778
  14   0.0000       0.168888         4.5957
  15   0.0000       0.194000         5.2790
  16   0.0000       0.197470         5.3734
  17   0.0000       0.218216         5.9380

MULLIKEN ATOMIC CHARGES
-----------------------
   0 C :   -1.056398
   1 C :   -0.050725
   2 H :    0.144718
   3 H :    0.137057
   4 O :   -1.015542
   5 H :    0.347848
   6 H :    0.246821
   7 H :    0.246221
Sum of atomic charges:   -1.0000000

LOEWDIN ATOMIC CHARGES
----------------------
   0 C :   -0.174353
   1 C :   -0.608174
   2 H :    0.048539
   3 H :    0.045849
   4 O :   -0.399907
   5 H :    0.018926
   6 H :    0.034245
   7 H :    0.034876

  Mayer bond orders larger than 0.100000
B(  0-C ,  1-C ) :   0.9327 B(  0-C ,  4-O ) :   0.6501 B(  0-C ,  5-H ) :   0.9241
B(  0-C ,  6-H ) :   0.9772 B(  0-C ,  7-H ) :   0.9735 B(  1-C ,  2-H ) :   1.0438
B(  1-C ,  3-H ) :   1.0527 B(  1-C ,  4-O ) :   0.6464 B(  4-O ,  5-H ) :  -0.1041

Dispersion correction           -0.004554556
FINAL SINGLE POINT ENERGY      -154.514952845373

DIPOLE MOMENT
-------------
                                X             Y             Z
Electronic contribution:      1.56153       0.73333       2.51506
Nuclear contribution   :     -2.24828      -1.06600      -3.62481
                        -----------------------------------------
Total Dipole Moment    :     -0.68675      -0.33267      -1.10975
                        -----------------------------------------
Magnitude (a.u.)       :      1.34679
Magnitude (Debye)      :      3.42326

Rotational constants in cm-1:     1.278116     0.325414     0.286672
Rotational constants in MHz : 38316.964654  9755.653004  8594.216906

                             ****ORCA TERMINATED NORMALLY****
TOTAL RUN TIME: 0 days 0 hours 0 minutes 12 seconds 915 msec
