                         Program Version 5.0.0 -  RELEASE  -
|  1> !TPSS D3BJ RIJCOSX def2-TZVPD def2/J TightSCF
|  2> *xyz 1 1
|  3> C          3.48828        1.60092       -1.52204
|  4> C          4.34297        1.31342       -2.75683
|  5> N          2.81029        0.42878       -1.01420
|  6> H          2.71455        2.33145       -1.76030
|  7> H          4.09099        2.06315       -0.73338
|  8> C          3.29098       -0.41802       -0.12908
|  9> N          2.51754       -1.43202        0.23936
| 10> N          4.53549       -0.28441        0.39580
| 11> H          5.04363        0.57189        0.22290
| 12> H          4.72335       -0.73327        1.28180
| 13> H          1.93479        0.10230       -1.40379
| 14> H          1.67464       -1.50562       -0.31610
| 15> H          2.92850       -2.21850        0.72549
| 16> H          3.73575        0.86277       -3.51385
| 17> H          5.13754        0.64699       -2.49333
| 18> H          4.75374        2.22930       -3.12740
| 19> *
| 20> %MaxCore 64000
| 21>
| 22> %pal nprocs 4
| 23> end
| 24>
| 25> %scf
| 26>   MaxIter 150
| 27> end
| 28>
| 29>
| 30>                          ****END OF INPUT****

CARTESIAN COORDINATES (ANGSTROEM)
---------------------------------
  C      3.488280    1.600920   -1.522040
  C      4.342970    1.313420   -2.756830
  N      2.810290    0.428780   -1.014200
  H      2.714550    2.331450   -1.760300
  H      4.090990    2.063150   -0.733380
  C      3.290980   -0.418020   -0.129080
  N      2.517540   -1.432020    0.239360
  N      4.535490   -0.284410    0.395800
  H      5.043630    0.571890    0.222900
  H      4.723350   -0.733270    1.281800
  H      1.934790    0.102300   -1.403790
  H      1.674640   -1.505620   -0.316100
  H      2.928500   -2.218500    0.725490
  H      3.735750    0.862770   -3.513850
  H      5.137540    0.646990   -2.493330
  H      4.753740    2.229300   -3.127400

 Total Charge           Charge          ....    1
 Multiplicity           Mult            ....    1
 Number of Electrons    NEL             ....   48
 Basis Dimension        Dim             ....  312

ORBITAL ENERGIES
----------------

  NO   OCC          E(Eh)            E(eV)
   0   2.0000     -14.328368      -389.8947
   1   2.0000     -14.324198      -389.7812
   2   2.0000     -14.322381      -389.7318
   3   2.0000     -10.306809      -280.4625
   4   2.0000     -10.196653      -277.4650
   5   2.0000     -10.122925      -275.4588
   6   2.0000      -1.151569       -31.3358
   7   2.0000      -1.046094       -28.4657
   8   2.0000      -1.033705       -28.1285
   9   2.0000      -0.879146       -23.9228
  10   2.0000      -0.788822       -21.4649
  11   2.0000      -0.759587       -20.6694
  12   2.0000      -0.732080       -19.9209
  13   2.0000      -0.701819       -19.0975
  14   2.0000      -0.647721       -17.6254
  15   2.0000      -0.640942       -17.4409
  16   2.0000      -0.611305       -16.6344
  17   2.0000      -0.593612       -16.1530
  18   2.0000      -0.564604       -15.3637
  19   2.0000      -0.521830       -14.1997
  20   2.0000      -0.497734       -13.5440
  21   2.0000      -0.480037       -13.0625
  22   2.0000      -0.439736       -11.9658
  23   2.0000      -0.416568       -11.3354
  24   0.0000      -0.197730        -5.3805
  25   0.0000      -0.177864        -4.8399
  26   0.0000      -0.146967        -3.9992
  27   0.0000      -0.132768        -3.6128
  28   0.0000      -0.107832        -2.9342

MULLIKEN ATOMIC CHARGES
-----------------------
   0 C :   -0.453321
   1 C :   -0.759978
   2 N :   -0.137568
   3 H :    0.181692
   4 H :    0.320231
   5 C :    0.809144
   6 N :   -0.343401
   7 N :   -0.365540
   8 H :    0.196392
   9 H :    0.202794
  10 H :    0.158123
  11 H :    0.187648
  12 H :    0.205019
  13 H :    0.260133
  14 H :    0.272247
  15 H :    0.266386
Sum of atomic charges:    1.0000000

LOEWDIN ATOMIC CHARGES
----------------------
   0 C :   -0.197242
   1 C :   -0.047375
   2 N :    0.088480
   3 H :    0.129094
   4 H :    0.119214
   5 C :   -0.439465
   6 N :    0.208551
   7 N :    0.218351
   8 H :    0.116142
   9 H :    0.134237
  10 H :    0.167186
  11 H :    0.135331
  12 H :    0.142459
  13 H :    0.075791
  14 H :    0.068667
  15 H :    0.080580

  Mayer bond orders larger than 0.100000
B(  0-C ,  1-C ) :   0.9444 B(  0-C ,  2-N ) :   0.9396 B(  0-C ,  3-H ) :   0.9830
B(  0-C ,  4-H ) :   0.8289 B(  1-C , 13-H ) :   0.9583 B(  1-C , 14-H ) :   0.9498
B(  1-C , 15-H ) :   0.9553 B(  2-N ,  5-C ) :   1.1668 B(  2-N ,  6-N ) :   0.1190
B(  2-N , 10-H ) :   1.0267 B(  5-C ,  6-N ) :   1.0871 B(  5-C ,  7-N ) :   1.1087
B(  6-N , 11-H ) :   0.9753 B(  6-N , 12-H ) :   0.9832 B(  7-N ,  8-H ) :   0.9348
B(  7-N ,  9-H ) :   0.9919

Dispersion correction           -0.015193734
FINAL SINGLE POINT ENERGY      -284.556816028798

DIPOLE MOMENT
-------------
                                X             Y             Z
Electronic contribution:     -1.91333      -2.98723       3.71357
Nuclear contribution   :      1.59382       2.33278      -3.02574
                        -----------------------------------------
Total Dipole Moment    :     -0.31951      -0.65445       0.68784
                        -----------------------------------------
Magnitude (a.u.)       :      1.00175
Magnitude (Debye)      :      2.54626

Rotational constants in cm-1:     0.232230     0.073139     0.063030
Rotational constants in MHz :  6962.079716  2192.649203  1889.578947

                             ****ORCA TERMINATED NORMALLY****
TOTAL RUN TIME: 0 days 0 hours 0 minutes 30 seconds 707 msec
