                         Program Version 5.0.0 -  RELEASE  -
|  1> !TPSS D3BJ RIJCOSX def2-TZVPD def2/J TightSCF xyzfile
|  2>
|  3> *xyzfile 0 1 B.xyz
|  4>
|  5> %MaxCore 64000
|  6>
|  7> %pal nprocs 4
|  8> end
|  9>
| 10> %scf
| 11>   MaxIter 150
| 12> end
| 13>
| 14>
| 15>                          ****END OF INPUT****

CARTESIAN COORDINATES (ANGSTROEM)
---------------------------------
  C      3.488276    1.600919   -1.522040
  C      4.342970    1.313419   -2.756826
  N      2.810285    0.428783   -1.014196
  H      5.132033    0.604994   -2.484466
  C      3.535896    0.749253   -3.924604
  H      4.841247    2.242136   -3.054083
  H      2.991617   -0.132199   -3.574137
  H      4.225505    0.392784   -4.695962
  C      2.564776    1.750890   -4.544523
  H      1.918749    2.171679   -3.769419
  C      1.686235    1.161657   -5.650111
  H      3.132494    2.594775   -4.951604
  C      0.839616   -0.037582   -5.220473
  H      2.323886    0.866395   -6.490796
  H      1.029518    1.951850   -6.029329
  C     -0.151019    0.254955   -4.094256
  H      1.499442   -0.857141   -4.922958
  H      0.290097   -0.410143   -6.091131
  H      0.328265    0.833022   -3.299125
  C     -0.721843   -0.999513   -3.439309
  H     -0.957367    0.884951   -4.485450
  H     -1.083403   -1.697555   -4.205656
  H     -1.581056   -0.723848   -2.820490
  C      0.287250   -1.711771   -2.527405
  H      1.131780   -2.067380   -3.159396
  H     -0.204137   -2.637326   -2.170480
  O      0.710505   -0.927506   -1.481767
  H      2.714548    2.331455   -1.760302
  H      4.090991    2.063151   -0.733382
  C      3.290978   -0.418021   -0.129083
  N      2.517536   -1.432017    0.239360
  N      4.535490   -0.284410    0.395800
  H      5.043627    0.571888    0.222899
  H      4.723346   -0.733273    1.281800
  H      1.934787    0.102305   -1.403788
  H      1.674638   -1.505616   -0.316095
  H      2.928503   -2.218502    0.725494

 Total Charge           Charge          ....    0
 Multiplicity           Mult            ....    1
 Number of Electrons    NEL             ....  112
 Basis Dimension        Dim             ....  728

ORBITAL ENERGIES
----------------

  NO   OCC          E(Eh)            E(eV)
   0   2.0000     -18.757588      -510.4199
   1   2.0000     -14.158811      -385.2808
   2   2.0000     -14.121313      -384.2605
   3   2.0000     -14.115160      -384.0930
   4   2.0000     -10.120517      -275.3933
   5   2.0000     -10.039192      -273.1803
   6   2.0000      -9.994731      -271.9705
   7   2.0000      -9.977925      -271.5131
   8   2.0000      -9.972397      -271.3627
   9   2.0000      -9.965694      -271.1803
  10   2.0000      -9.964668      -271.1524
  11   2.0000      -9.954045      -270.8633
  12   2.0000      -9.943835      -270.5855
  13   2.0000      -9.932195      -270.2688
  14   2.0000      -0.964875       -26.2556
  15   2.0000      -0.867214       -23.5981
  16   2.0000      -0.848359       -23.0850
  17   2.0000      -0.820404       -22.3243
  18   2.0000      -0.753374       -20.5003
  19   2.0000      -0.720629       -19.6093
  20   2.0000      -0.684373       -18.6227
  21   2.0000      -0.649076       -17.6623
  22   2.0000      -0.610060       -16.6006
  23   2.0000      -0.598658       -16.2903
  24   2.0000      -0.562451       -15.3051
  25   2.0000      -0.550737       -14.9863
  26   2.0000      -0.547598       -14.9009
  27   2.0000      -0.518787       -14.1169
  28   2.0000      -0.499719       -13.5980
  29   2.0000      -0.475330       -12.9344
  30   2.0000      -0.466749       -12.7009
  31   2.0000      -0.451025       -12.2730
  32   2.0000      -0.440046       -11.9742
  33   2.0000      -0.428565       -11.6618
  34   2.0000      -0.418631       -11.3915
  35   2.0000      -0.408101       -11.1050
  36   2.0000      -0.394570       -10.7368
  37   2.0000      -0.378285       -10.2936
  38   2.0000      -0.372762       -10.1434
  39   2.0000      -0.355802        -9.6819
  40   2.0000      -0.351858        -9.5745
  41   2.0000      -0.340098        -9.2545
  42   2.0000      -0.322224        -8.7682
  43   2.0000      -0.316631        -8.6160
  44   2.0000      -0.307456        -8.3663
  45   2.0000      -0.297423        -8.0933
  46   2.0000      -0.286982        -7.8092
  47   2.0000      -0.276844        -7.5333
  48   2.0000      -0.272268        -7.4088
  49   2.0000      -0.267363        -7.2753
  50   2.0000      -0.255850        -6.9620
  51   2.0000      -0.250647        -6.8205
  52   2.0000      -0.246607        -6.7105
  53   2.0000      -0.230839        -6.2814
  54   2.0000      -0.142717        -3.8835
  55   2.0000      -0.135387        -3.6841
  56   0.0000      -0.034915        -0.9501
  57   0.0000      -0.020380        -0.5546
  58   0.0000      -0.005208        -0.1417
  59   0.0000       0.009799         0.2666
  60   0.0000       0.010100         0.2748

MULLIKEN ATOMIC CHARGES
-----------------------
   0 C :   -0.956725
   1 C :   -0.002803
   2 N :   -0.138956
   3 H :    0.167184
   4 C :   -0.326171
   5 H :    0.124713
   6 H :    0.238076
   7 H :    0.086537
   8 C :   -0.459063
   9 H :    0.348471
  10 C :   -0.392666
  11 H :    0.104125
  12 C :   -0.440319
  13 H :    0.159037
  14 H :    0.165161
  15 C :   -0.203101
  16 H :    0.282566
  17 H :    0.151480
  18 H :    0.157901
  19 C :   -0.419443
  20 H :    0.113822
  21 H :    0.134356
  22 H :    0.175006
  23 C :   -0.267982
  24 H :    0.245309
  25 H :    0.166230
  26 O :   -1.252770
  27 H :    0.201106
  28 H :    0.346070
  29 C :    0.723373
  30 N :   -0.362084
  31 N :   -0.416294
  32 H :    0.185451
  33 H :    0.175211
  34 H :    0.690674
  35 H :    0.353526
  36 H :    0.142992
Sum of atomic charges:    0.0000000

LOEWDIN ATOMIC CHARGES
----------------------
   0 C :   -0.168040
   1 C :   -0.179238
   2 N :    0.099371
   3 H :    0.103714
   4 C :   -0.198509
   5 H :    0.110143
   6 H :    0.098941
   7 H :    0.115569
   8 C :   -0.210705
   9 H :    0.092245
  10 C :   -0.205135
  11 H :    0.109519
  12 C :   -0.213398
  13 H :    0.103678
  14 H :    0.105398
  15 C :   -0.212702
  16 H :    0.089626
  17 H :    0.108337
  18 H :    0.088677
  19 C :   -0.198937
  20 H :    0.107106
  21 H :    0.102535
  22 H :    0.101546
  23 C :   -0.401661
  24 H :    0.088612
  25 H :    0.093184
  26 O :   -0.302131
  27 H :    0.116743
  28 H :    0.106840
  29 C :   -0.452379
  30 N :    0.188485
  31 N :    0.174423
  32 H :    0.094750
  33 H :    0.111457
  34 H :    0.068891
  35 H :    0.044984
  36 H :    0.118063

  Mayer bond orders larger than 0.100000
B(  0-C ,  1-C ) :   0.8773 B(  0-C ,  2-N ) :   1.1645 B(  0-C ,  8-C ) :   0.2151
B(  0-C , 27-H ) :   0.9118 B(  0-C , 28-H ) :   0.7486 B(  0-C , 29-C ) :  -0.2000
B(  0-C , 34-H ) :  -0.2310 B(  1-C ,  3-H ) :   0.8645 B(  1-C ,  4-C ) :   1.2039
B(  1-C ,  5-H ) :   0.9132 B(  1-C ,  8-C ) :   0.1193 B(  2-N , 29-C ) :   1.1710
B(  2-N , 34-H ) :   0.7342 B(  4-C ,  6-H ) :   1.1265 B(  4-C ,  7-H ) :   0.8053
B(  4-C ,  8-C ) :   0.5946 B(  4-C , 10-C ) :   0.1648 B(  4-C , 12-C ) :   0.1615
B(  8-C ,  9-H ) :   0.8175 B(  8-C , 10-C ) :   1.1959 B(  8-C , 11-H ) :   0.9252
B(  8-C , 15-C ) :   0.1589 B( 10-C , 12-C ) :   1.1296 B( 10-C , 13-H ) :   0.8885
B( 10-C , 14-H ) :   0.8780 B( 10-C , 15-C ) :   0.2445 B( 12-C , 15-C ) :   0.5631
B( 12-C , 16-H ) :   0.8803 B( 12-C , 17-H ) :   0.9009 B( 12-C , 19-C ) :   0.2801
B( 12-C , 23-C ) :   0.1021 B( 15-C , 18-H ) :   1.0417 B( 15-C , 19-C ) :   1.1718
B( 15-C , 20-H ) :   0.8377 B( 18-H , 26-O ) :   0.1669 B( 19-C , 21-H ) :   0.9336
B( 19-C , 22-H ) :   0.8373 B( 19-C , 23-C ) :   1.1003 B( 19-C , 26-O ) :   0.2545
B( 23-C , 24-H ) :   0.9272 B( 23-C , 25-H ) :   0.9308 B( 23-C , 26-O ) :   0.6655
B( 26-O , 34-H ) :  -0.3075 B( 26-O , 35-H ) :   0.2006 B( 29-C , 30-N ) :   1.1814
B( 29-C , 31-N ) :   1.0183 B( 30-N , 35-H ) :   0.6676 B( 30-N , 36-H ) :   1.0355
B( 31-N , 32-H ) :   0.9538 B( 31-N , 33-H ) :   1.0147

Dispersion correction           -0.050218907
FINAL SINGLE POINT ENERGY      -634.765882571224

DIPOLE MOMENT
-------------
                                X             Y             Z
Electronic contribution:      3.53565      -2.05441      11.32927
Nuclear contribution   :     -0.74583       2.62534      -9.91488
                        -----------------------------------------
Total Dipole Moment    :      2.78982       0.57093       1.41439
                        -----------------------------------------
Magnitude (a.u.)       :      3.17955
Magnitude (Debye)      :      8.08178

Rotational constants in cm-1:     0.027028     0.016098     0.010898
Rotational constants in MHz :   810.278072   482.590922   326.703462

                             ****ORCA TERMINATED NORMALLY****
TOTAL RUN TIME: 0 days 0 hours 2 minutes 36 seconds 800 msec
