                         Program Version 5.0.0 -  RELEASE  -
|  1> !TPSS D3BJ RIJCOSX def2-TZVPD def2/J TightSCF
|  2> *xyz 0 1
|  3> C         -0.72184       -0.99951       -3.43931
|  4> C          0.28725       -1.71177       -2.52740
|  5> H          1.13178       -2.06738       -3.15940
|  6> H         -0.20414       -2.63733       -2.17048
|  7> F          0.71050       -0.92751       -1.48177
|  8> H         -1.01315       -1.65739       -4.23129
|  9> H         -0.27123       -0.12142       -3.85259
| 10> H         -1.58442       -0.72333       -2.86958
| 11> *
| 12> %MaxCore 64000
| 13>
| 14> %pal nprocs 4
| 15> end
| 16>
| 17> %scf
| 18>   MaxIter 150
| 19> end
| 20>
| 21>
| 22>                          ****END OF INPUT****

CARTESIAN COORDINATES (ANGSTROEM)
---------------------------------
  C     -0.721840   -0.999510   -3.439310
  C      0.287250   -1.711770   -2.527400
  H      1.131780   -2.067380   -3.159400
  H     -0.204140   -2.637330   -2.170480
  F      0.710500   -0.927510   -1.481770
  H     -1.013150   -1.657390   -4.231290
  H     -0.271230   -0.121420   -3.852590
  H     -1.584420   -0.723330   -2.869580

 Total Charge           Charge          ....    0
 Multiplicity           Mult            ....    1
 Number of Electrons    NEL             ....   26
 Basis Dimension        Dim             ....  159

ORBITAL ENERGIES
----------------

  NO   OCC          E(Eh)            E(eV)
   0   2.0000     -24.397079      -663.8783
   1   2.0000     -10.062168      -273.8055
   2   2.0000      -9.981004      -271.5969
   3   2.0000      -1.120832       -30.4994
   4   2.0000      -0.710104       -19.3229
   5   2.0000      -0.581997       -15.8369
   6   2.0000      -0.459034       -12.4910
   7   2.0000      -0.446501       -12.1499
   8   2.0000      -0.406644       -11.0653
   9   2.0000      -0.363251        -9.8846
  10   2.0000      -0.360992        -9.8231
  11   2.0000      -0.292104        -7.9486
  12   2.0000      -0.289413        -7.8753
  13   0.0000       0.000575         0.0157
  14   0.0000       0.028020         0.7625
  15   0.0000       0.041019         1.1162
  16   0.0000       0.047090         1.2814
  17   0.0000       0.071526         1.9463

MULLIKEN ATOMIC CHARGES
-----------------------
   0 C :   -0.727245
   1 C :    0.032097
   2 H :    0.163605
   3 H :    0.154550
   4 F :   -0.302643
   5 H :    0.260575
   6 H :    0.207355
   7 H :    0.211706
Sum of atomic charges:   -0.0000000

LOEWDIN ATOMIC CHARGES
----------------------
   0 C :   -0.078058
   1 C :   -0.287897
   2 H :    0.109623
   3 H :    0.105999
   4 F :   -0.037364
   5 H :    0.064434
   6 H :    0.061408
   7 H :    0.061857

  Mayer bond orders larger than 0.100000
B(  0-C ,  1-C ) :   1.0029 B(  0-C ,  4-F ) :   0.1054 B(  0-C ,  5-H ) :   0.9233
B(  0-C ,  6-H ) :   0.9598 B(  0-C ,  7-H ) :   0.9568 B(  1-C ,  2-H ) :   0.9565
B(  1-C ,  3-H ) :   0.9652 B(  1-C ,  4-F ) :   0.7759

Dispersion correction           -0.004200916
FINAL SINGLE POINT ENERGY      -179.159245690902

DIPOLE MOMENT
-------------
                                X             Y             Z
Electronic contribution:      2.70980       1.06486       4.24478
Nuclear contribution   :     -2.97459      -1.40206      -4.79987
                        -----------------------------------------
Total Dipole Moment    :     -0.26479      -0.33719      -0.55509
                        -----------------------------------------
Magnitude (a.u.)       :      0.70139
Magnitude (Debye)      :      1.78278

Rotational constants in cm-1:     1.257024     0.302702     0.267953
Rotational constants in MHz : 37684.643733  9074.792567  8033.038070

                             ****ORCA TERMINATED NORMALLY****
TOTAL RUN TIME: 0 days 0 hours 0 minutes 9 seconds 135 msec
