                         Program Version 5.0.0 -  RELEASE  -
|  1> !TPSS D3BJ RIJCOSX def2-TZVPD def2/J TightSCF
|  2> *xyz 0 1
|  3> C          3.48828        1.60092       -1.52204
|  4> C          4.34297        1.31342       -2.75683
|  5> C          2.81029        0.42878       -1.01420
|  6> H          2.71455        2.33145       -1.76030
|  7> H          4.09099        2.06315       -0.73338
|  8> C          3.29098       -0.41802       -0.12908
|  9> N          2.51754       -1.43202        0.23936
| 10> N          4.53549       -0.28441        0.39580
| 11> H          5.04363        0.57189        0.22290
| 12> H          4.72335       -0.73327        1.28180
| 13> H          1.93479        0.10230       -1.40379
| 14> H          1.67464       -1.50562       -0.31610
| 15> H          2.92850       -2.21850        0.72549
| 16> H          3.73575        0.86277       -3.51385
| 17> H          5.13754        0.64699       -2.49333
| 18> H          4.75374        2.22930       -3.12740
| 19> *
| 20> %MaxCore 64000
| 21>
| 22> %pal nprocs 4
| 23> end
| 24>
| 25> %scf
| 26>   MaxIter 150
| 27> end
| 28>
| 29>
| 30>                          ****END OF INPUT****

CARTESIAN COORDINATES (ANGSTROEM)
---------------------------------
  C      3.488280    1.600920   -1.522040
  C      4.342970    1.313420   -2.756830
  C      2.810290    0.428780   -1.014200
  H      2.714550    2.331450   -1.760300
  H      4.090990    2.063150   -0.733380
  C      3.290980   -0.418020   -0.129080
  N      2.517540   -1.432020    0.239360
  N      4.535490   -0.284410    0.395800
  H      5.043630    0.571890    0.222900
  H      4.723350   -0.733270    1.281800
  H      1.934790    0.102300   -1.403790
  H      1.674640   -1.505620   -0.316100
  H      2.928500   -2.218500    0.725490
  H      3.735750    0.862770   -3.513850
  H      5.137540    0.646990   -2.493330
  H      4.753740    2.229300   -3.127400

 Total Charge           Charge          ....    0
 Multiplicity           Mult            ....    1
 Number of Electrons    NEL             ....   48
 Basis Dimension        Dim             ....  312

ORBITAL ENERGIES
----------------

  NO   OCC          E(Eh)            E(eV)
   0   2.0000     -14.103157      -383.7664
   1   2.0000     -14.099169      -383.6579
   2   2.0000     -10.018326      -272.6125
   3   2.0000      -9.963019      -271.1075
   4   2.0000      -9.950843      -270.7762
   5   2.0000      -9.908736      -269.6304
   6   2.0000      -0.894723       -24.3467
   7   2.0000      -0.812636       -22.1130
   8   2.0000      -0.718255       -19.5447
   9   2.0000      -0.642220       -17.4757
  10   2.0000      -0.565997       -15.4016
  11   2.0000      -0.532719       -14.4960
  12   2.0000      -0.491794       -13.3824
  13   2.0000      -0.467013       -12.7081
  14   2.0000      -0.424292       -11.5456
  15   2.0000      -0.398640       -10.8475
  16   2.0000      -0.376979       -10.2581
  17   2.0000      -0.354999        -9.6600
  18   2.0000      -0.341855        -9.3023
  19   2.0000      -0.313745        -8.5374
  20   2.0000      -0.296230        -8.0608
  21   2.0000      -0.287248        -7.8164
  22   2.0000      -0.226083        -6.1520
  23   2.0000      -0.134355        -3.6560
  24   0.0000      -0.011745        -0.3196
  25   0.0000       0.014090         0.3834
  26   0.0000       0.019390         0.5276
  27   0.0000       0.031160         0.8479
  28   0.0000       0.046202         1.2572

MULLIKEN ATOMIC CHARGES
-----------------------
   0 C :   -0.512880
   1 C :   -0.847781
   2 C :   -0.707720
   3 H :    0.118164
   4 H :    0.271328
   5 C :    0.923498
   6 N :   -0.496055
   7 N :   -0.489136
   8 H :    0.171865
   9 H :    0.158343
  10 H :    0.304664
  11 H :    0.168670
  12 H :    0.158450
  13 H :    0.281216
  14 H :    0.270887
  15 H :    0.226487
Sum of atomic charges:   -0.0000000

LOEWDIN ATOMIC CHARGES
----------------------
   0 C :   -0.275766
   1 C :   -0.096734
   2 C :   -0.146371
   3 H :    0.099326
   4 H :    0.094307
   5 C :   -0.541813
   6 N :    0.105548
   7 N :    0.131147
   8 H :    0.089286
   9 H :    0.092401
  10 H :    0.067689
  11 H :    0.106192
  12 H :    0.098973
  13 H :    0.063124
  14 H :    0.059109
  15 H :    0.053583

  Mayer bond orders larger than 0.100000
B(  0-C ,  1-C ) :   0.7735 B(  0-C ,  2-C ) :   1.1163 B(  0-C ,  3-H ) :   1.0921
B(  0-C ,  4-H ) :   0.8719 B(  0-C ,  5-C ) :   0.1513 B(  1-C ,  2-C ) :   0.1736
B(  1-C , 13-H ) :   0.9578 B(  1-C , 14-H ) :   0.9580 B(  1-C , 15-H ) :   0.9576
B(  2-C ,  5-C ) :   1.2770 B(  2-C , 10-H ) :   0.9101 B(  5-C ,  6-N ) :   0.9285
B(  5-C ,  7-N ) :   0.8463 B(  5-C , 10-H ) :  -0.1454 B(  6-N , 11-H ) :   0.9838
B(  6-N , 12-H ) :   1.0527 B(  7-N ,  8-H ) :   0.9431 B(  7-N ,  9-H ) :   1.0337

Dispersion correction           -0.015810076
FINAL SINGLE POINT ENERGY      -268.069894569638

DIPOLE MOMENT
-------------
                                X             Y             Z
Electronic contribution:     -1.28588      -2.92964       3.64600
Nuclear contribution   :      1.44676       2.38443      -3.07370
                        -----------------------------------------
Total Dipole Moment    :      0.16089      -0.54522       0.57230
                        -----------------------------------------
Magnitude (a.u.)       :      0.80664
Magnitude (Debye)      :      2.05032

Rotational constants in cm-1:     0.235977     0.073199     0.063283
Rotational constants in MHz :  7074.404583  2194.453291  1897.179599

                             ****ORCA TERMINATED NORMALLY****
TOTAL RUN TIME: 0 days 0 hours 0 minutes 29 seconds 820 msec
