                         Program Version 5.0.0 -  RELEASE  -
|  1> !TPSS D3BJ RIJCOSX def2-TZVPD def2/J TightSCF
|  2> *xyz 0 1
|  3> C          3.48828        1.60092       -1.52204
|  4> C          4.34297        1.31342       -2.75683
|  5> N          2.81029        0.42878       -1.01420
|  6> H          2.71455        2.33145       -1.76030
|  7> H          4.09099        2.06315       -0.73338
|  8> C          3.29098       -0.41802       -0.12908
|  9> C          2.51754       -1.43202        0.23936
| 10> N          4.53549       -0.28441        0.39580
| 11> H          5.04363        0.57189        0.22290
| 12> H          4.72335       -0.73327        1.28180
| 13> H          1.93479        0.10230       -1.40379
| 14> H          1.67464       -1.50562       -0.31610
| 15> H          2.92850       -2.21850        0.72549
| 16> H          3.73575        0.86277       -3.51385
| 17> H          5.13754        0.64699       -2.49333
| 18> H          4.75374        2.22930       -3.12740
| 19> *
| 20> %MaxCore 64000
| 21>
| 22> %pal nprocs 4
| 23> end
| 24>
| 25> %scf
| 26>   MaxIter 150
| 27> end
| 28>
| 29>
| 30>                          ****END OF INPUT****

CARTESIAN COORDINATES (ANGSTROEM)
---------------------------------
  C      3.488280    1.600920   -1.522040
  C      4.342970    1.313420   -2.756830
  N      2.810290    0.428780   -1.014200
  H      2.714550    2.331450   -1.760300
  H      4.090990    2.063150   -0.733380
  C      3.290980   -0.418020   -0.129080
  C      2.517540   -1.432020    0.239360
  N      4.535490   -0.284410    0.395800
  H      5.043630    0.571890    0.222900
  H      4.723350   -0.733270    1.281800
  H      1.934790    0.102300   -1.403790
  H      1.674640   -1.505620   -0.316100
  H      2.928500   -2.218500    0.725490
  H      3.735750    0.862770   -3.513850
  H      5.137540    0.646990   -2.493330
  H      4.753740    2.229300   -3.127400

 Total Charge           Charge          ....    0
 Multiplicity           Mult            ....    1
 Number of Electrons    NEL             ....   48
 Basis Dimension        Dim             ....  312

ORBITAL ENERGIES
----------------

  NO   OCC          E(Eh)            E(eV)
   0   2.0000     -14.102972      -383.7614
   1   2.0000     -14.102483      -383.7481
   2   2.0000     -10.028700      -272.8948
   3   2.0000     -10.021340      -272.6945
   4   2.0000      -9.976610      -271.4774
   5   2.0000      -9.894884      -269.2535
   6   2.0000      -0.904654       -24.6169
   7   2.0000      -0.824354       -22.4318
   8   2.0000      -0.719963       -19.5912
   9   2.0000      -0.648870       -17.6567
  10   2.0000      -0.581644       -15.8273
  11   2.0000      -0.550244       -14.9729
  12   2.0000      -0.490160       -13.3379
  13   2.0000      -0.456770       -12.4293
  14   2.0000      -0.437140       -11.8952
  15   2.0000      -0.401409       -10.9229
  16   2.0000      -0.388230       -10.5643
  17   2.0000      -0.364706        -9.9242
  18   2.0000      -0.340514        -9.2659
  19   2.0000      -0.335411        -9.1270
  20   2.0000      -0.326120        -8.8742
  21   2.0000      -0.318624        -8.6702
  22   2.0000      -0.220049        -5.9878
  23   2.0000      -0.132199        -3.5973
  24   0.0000      -0.012547        -0.3414
  25   0.0000       0.012403         0.3375
  26   0.0000       0.016553         0.4504
  27   0.0000       0.023674         0.6442
  28   0.0000       0.046495         1.2652

MULLIKEN ATOMIC CHARGES
-----------------------
   0 C :   -0.386822
   1 C :   -0.819561
   2 N :   -0.213156
   3 H :    0.169982
   4 H :    0.310254
   5 C :    0.897597
   6 C :   -1.257025
   7 N :   -0.473326
   8 H :    0.159106
   9 H :    0.177113
  10 H :    0.103076
  11 H :    0.296741
  12 H :    0.271382
  13 H :    0.230804
  14 H :    0.264529
  15 H :    0.269309
Sum of atomic charges:    0.0000000

LOEWDIN ATOMIC CHARGES
----------------------
   0 C :   -0.236544
   1 C :   -0.077354
   2 N :    0.017994
   3 H :    0.108025
   4 H :    0.103545
   5 C :   -0.562347
   6 C :   -0.007351
   7 N :    0.126565
   8 H :    0.079747
   9 H :    0.105681
  10 H :    0.144227
  11 H :    0.005901
  12 H :    0.007721
  13 H :    0.063807
  14 H :    0.060869
  15 H :    0.059514

  Mayer bond orders larger than 0.100000
B(  0-C ,  1-C ) :   0.8931 B(  0-C ,  2-N ) :   0.8853 B(  0-C ,  3-H ) :   1.0014
B(  0-C ,  4-H ) :   0.8515 B(  1-C , 13-H ) :   0.9751 B(  1-C , 14-H ) :   0.9823
B(  1-C , 15-H ) :   0.9555 B(  2-N ,  5-C ) :   1.0048 B(  2-N ,  6-C ) :   0.1319
B(  2-N , 10-H ) :   1.0148 B(  5-C ,  6-C ) :   1.1092 B(  5-C ,  7-N ) :   0.9323
B(  6-C , 11-H ) :   0.9554 B(  6-C , 12-H ) :   1.0313 B(  7-N ,  8-H ) :   0.9769
B(  7-N ,  9-H ) :   0.9955

Dispersion correction           -0.015662292
FINAL SINGLE POINT ENERGY      -268.059204459086

DIPOLE MOMENT
-------------
                                X             Y             Z
Electronic contribution:     -0.87950      -1.06818       2.41883
Nuclear contribution   :      1.38466       1.98967      -2.80776
                        -----------------------------------------
Total Dipole Moment    :      0.50516       0.92149      -0.38894
                        -----------------------------------------
Magnitude (a.u.)       :      1.12053
Magnitude (Debye)      :      2.84817

Rotational constants in cm-1:     0.235618     0.075969     0.065309
Rotational constants in MHz :  7063.646698  2277.495424  1957.925383

                             ****ORCA TERMINATED NORMALLY****
TOTAL RUN TIME: 0 days 0 hours 0 minutes 30 seconds 343 msec
