                         Program Version 5.0.0 -  RELEASE  -
|  1> !TPSS D3BJ RIJCOSX def2-TZVPD def2/J TightSCF
|  2> *xyz 0 1
|  3> C          3.48828        1.60092       -1.52204
|  4> C          4.34297        1.31342       -2.75683
|  5> N          2.81029        0.42878       -1.01420
|  6> H          2.71455        2.33145       -1.76030
|  7> H          4.09099        2.06315       -0.73338
|  8> C          3.29098       -0.41802       -0.12908
|  9> N          2.51754       -1.43202        0.23936
| 10> C          4.53549       -0.28441        0.39580
| 11> H          5.04363        0.57189        0.22290
| 12> H          4.72335       -0.73327        1.28180
| 13> H          1.93479        0.10230       -1.40379
| 14> H          1.67464       -1.50562       -0.31610
| 15> H          2.92850       -2.21850        0.72549
| 16> H          3.73575        0.86277       -3.51385
| 17> H          5.13754        0.64699       -2.49333
| 18> H          4.75374        2.22930       -3.12740
| 19> *
| 20> %MaxCore 64000
| 21>
| 22> %pal nprocs 4
| 23> end
| 24>
| 25> %scf
| 26>   MaxIter 150
| 27> end
| 28>
| 29>
| 30>                          ****END OF INPUT****

CARTESIAN COORDINATES (ANGSTROEM)
---------------------------------
  C      3.488280    1.600920   -1.522040
  C      4.342970    1.313420   -2.756830
  N      2.810290    0.428780   -1.014200
  H      2.714550    2.331450   -1.760300
  H      4.090990    2.063150   -0.733380
  C      3.290980   -0.418020   -0.129080
  N      2.517540   -1.432020    0.239360
  C      4.535490   -0.284410    0.395800
  H      5.043630    0.571890    0.222900
  H      4.723350   -0.733270    1.281800
  H      1.934790    0.102300   -1.403790
  H      1.674640   -1.505620   -0.316100
  H      2.928500   -2.218500    0.725490
  H      3.735750    0.862770   -3.513850
  H      5.137540    0.646990   -2.493330
  H      4.753740    2.229300   -3.127400

 Total Charge           Charge          ....    0
 Multiplicity           Mult            ....    1
 Number of Electrons    NEL             ....   48
 Basis Dimension        Dim             ....  312

ORBITAL ENERGIES
----------------

  NO   OCC          E(Eh)            E(eV)
   0   2.0000     -14.108581      -383.9140
   1   2.0000     -14.104563      -383.8047
   2   2.0000     -10.023676      -272.7581
   3   2.0000     -10.021587      -272.7012
   4   2.0000      -9.969186      -271.2753
   5   2.0000      -9.896666      -269.3020
   6   2.0000      -0.913239       -24.8505
   7   2.0000      -0.829167       -22.5628
   8   2.0000      -0.702160       -19.1067
   9   2.0000      -0.651591       -17.7307
  10   2.0000      -0.595317       -16.1994
  11   2.0000      -0.517693       -14.0871
  12   2.0000      -0.496115       -13.5000
  13   2.0000      -0.486240       -13.2313
  14   2.0000      -0.426508       -11.6059
  15   2.0000      -0.400764       -10.9053
  16   2.0000      -0.383063       -10.4237
  17   2.0000      -0.354678        -9.6513
  18   2.0000      -0.342389        -9.3169
  19   2.0000      -0.330696        -8.9987
  20   2.0000      -0.320366        -8.7176
  21   2.0000      -0.313821        -8.5395
  22   2.0000      -0.214750        -5.8436
  23   2.0000      -0.136096        -3.7034
  24   0.0000      -0.015165        -0.4127
  25   0.0000       0.010527         0.2865
  26   0.0000       0.020574         0.5599
  27   0.0000       0.025778         0.7015
  28   0.0000       0.049453         1.3457

MULLIKEN ATOMIC CHARGES
-----------------------
   0 C :   -0.341439
   1 C :   -0.836931
   2 N :   -0.266733
   3 H :    0.169134
   4 H :    0.312152
   5 C :    1.008235
   6 N :   -0.463121
   7 C :   -1.375174
   8 H :    0.272016
   9 H :    0.292676
  10 H :    0.142109
  11 H :    0.139647
  12 H :    0.173761
  13 H :    0.239674
  14 H :    0.266991
  15 H :    0.267003
Sum of atomic charges:    0.0000000

LOEWDIN ATOMIC CHARGES
----------------------
   0 C :   -0.230894
   1 C :   -0.073904
   2 N :    0.015352
   3 H :    0.107600
   4 H :    0.109534
   5 C :   -0.569845
   6 N :    0.117413
   7 C :    0.004980
   8 H :   -0.011649
   9 H :    0.001167
  10 H :    0.136005
  11 H :    0.095817
  12 H :    0.113940
  13 H :    0.061050
  14 H :    0.062491
  15 H :    0.060942

  Mayer bond orders larger than 0.100000
B(  0-C ,  1-C ) :   0.8886 B(  0-C ,  2-N ) :   0.8726 B(  0-C ,  3-H ) :   0.9489
B(  0-C ,  4-H ) :   0.8419 B(  0-C ,  7-C ) :   0.1173 B(  1-C ,  2-N ) :   0.1116
B(  1-C , 13-H ) :   0.9649 B(  1-C , 14-H ) :   1.0018 B(  1-C , 15-H ) :   0.9318
B(  2-N ,  5-C ) :   0.9723 B(  2-N , 10-H ) :   1.0484 B(  5-C ,  6-N ) :   0.8749
B(  5-C ,  7-C ) :   1.1078 B(  6-N ,  7-C ) :   0.1169 B(  6-N , 11-H ) :   1.0384
B(  6-N , 12-H ) :   1.0107 B(  7-C ,  8-H ) :   0.9943 B(  7-C ,  9-H ) :   1.0287

Dispersion correction           -0.015762636
FINAL SINGLE POINT ENERGY      -268.059579687617

DIPOLE MOMENT
-------------
                                X             Y             Z
Electronic contribution:     -2.79575      -2.28246       2.19935
Nuclear contribution   :      1.81275       2.23313      -2.77458
                        -----------------------------------------
Total Dipole Moment    :     -0.98300      -0.04934      -0.57523
                        -----------------------------------------
Magnitude (a.u.)       :      1.14001
Magnitude (Debye)      :      2.89766

Rotational constants in cm-1:     0.245202     0.073668     0.064348
Rotational constants in MHz :  7350.977980  2208.513334  1929.108541

                             ****ORCA TERMINATED NORMALLY****
TOTAL RUN TIME: 0 days 0 hours 0 minutes 31 seconds 57 msec
