                         Program Version 5.0.0 -  RELEASE  -
|  1> !TPSS D3BJ RIJCOSX def2-TZVPD def2/J TightSCF xyzfile
|  2>
|  3> *xyzfile 0 1 D1.xyz
|  4>
|  5> %MaxCore 64000
|  6>
|  7> %pal nprocs 4
|  8> end
|  9>
| 10> %scf
| 11>   MaxIter 150
| 12> end
| 13>
| 14>
| 15>                          ****END OF INPUT****

CARTESIAN COORDINATES (ANGSTROEM)
---------------------------------
  C      3.488276    1.600919   -1.522040
  C      4.342970    1.313419   -2.756826
  C      2.810285    0.428783   -1.014196
  H      5.132033    0.604994   -2.484466
  C      3.535896    0.749253   -3.924604
  H      4.841247    2.242136   -3.054083
  H      2.991617   -0.132199   -3.574137
  H      4.225505    0.392784   -4.695962
  C      2.564776    1.750890   -4.544523
  H      1.918749    2.171679   -3.769419
  C      1.686235    1.161657   -5.650111
  H      3.132494    2.594775   -4.951604
  C      0.839616   -0.037582   -5.220473
  H      2.323886    0.866395   -6.490796
  H      1.029518    1.951850   -6.029329
  C     -0.151019    0.254955   -4.094256
  H      1.499442   -0.857141   -4.922958
  H      0.290097   -0.410143   -6.091131
  H      0.328265    0.833022   -3.299125
  C     -0.721843   -0.999513   -3.439309
  H     -0.957367    0.884951   -4.485450
  H     -1.083403   -1.697555   -4.205656
  H     -1.581056   -0.723848   -2.820490
  C      0.287250   -1.711771   -2.527405
  H      1.131780   -2.067380   -3.159396
  H     -0.204137   -2.637326   -2.170480
  F      0.710505   -0.927506   -1.481767
  H      2.714548    2.331455   -1.760302
  H      4.090991    2.063151   -0.733382
  C      3.290978   -0.418021   -0.129083
  N      2.517536   -1.432017    0.239360
  N      4.535490   -0.284410    0.395800
  H      5.043627    0.571888    0.222899
  H      4.723346   -0.733273    1.281800
  H      1.934787    0.102305   -1.403788
  H      1.674638   -1.505616   -0.316095
  H      2.928503   -2.218502    0.725494

 Total Charge           Charge          ....    0
 Multiplicity           Mult            ....    1
 Number of Electrons    NEL             ....  112
 Basis Dimension        Dim             ....  728

ORBITAL ENERGIES
----------------

  NO   OCC          E(Eh)            E(eV)
   0   2.0000     -24.426803      -664.6871
   1   2.0000     -14.089055      -383.3827
   2   2.0000     -14.073761      -382.9665
   3   2.0000     -10.073254      -274.1072
   4   2.0000     -10.001664      -272.1591
   5   2.0000      -9.996929      -272.0303
   6   2.0000      -9.982274      -271.6315
   7   2.0000      -9.978336      -271.5243
   8   2.0000      -9.973798      -271.4009
   9   2.0000      -9.966241      -271.1952
  10   2.0000      -9.960840      -271.0482
  11   2.0000      -9.955716      -270.9088
  12   2.0000      -9.950187      -270.7584
  13   2.0000      -9.882962      -268.9291
  14   2.0000      -1.159750       -31.5584
  15   2.0000      -0.877466       -23.8771
  16   2.0000      -0.796188       -21.6654
  17   2.0000      -0.760447       -20.6928
  18   2.0000      -0.736578       -20.0433
  19   2.0000      -0.708773       -19.2867
  20   2.0000      -0.676468       -18.4076
  21   2.0000      -0.639844       -17.4110
  22   2.0000      -0.615122       -16.7383
  23   2.0000      -0.583327       -15.8731
  24   2.0000      -0.554732       -15.0950
  25   2.0000      -0.540728       -14.7140
  26   2.0000      -0.518121       -14.0988
  27   2.0000      -0.502227       -13.6663
  28   2.0000      -0.485694       -13.2164
  29   2.0000      -0.473916       -12.8959
  30   2.0000      -0.466826       -12.7030
  31   2.0000      -0.448116       -12.1939
  32   2.0000      -0.442719       -12.0470
  33   2.0000      -0.420112       -11.4318
  34   2.0000      -0.413340       -11.2476
  35   2.0000      -0.401531       -10.9262
  36   2.0000      -0.395095       -10.7511
  37   2.0000      -0.381903       -10.3921
  38   2.0000      -0.373875       -10.1737
  39   2.0000      -0.362343        -9.8599
  40   2.0000      -0.354594        -9.6490
  41   2.0000      -0.335707        -9.1351
  42   2.0000      -0.333757        -9.0820
  43   2.0000      -0.324691        -8.8353
  44   2.0000      -0.321569        -8.7503
  45   2.0000      -0.321165        -8.7393
  46   2.0000      -0.299349        -8.1457
  47   2.0000      -0.293531        -7.9874
  48   2.0000      -0.285397        -7.7660
  49   2.0000      -0.282962        -7.6998
  50   2.0000      -0.279481        -7.6051
  51   2.0000      -0.266863        -7.2617
  52   2.0000      -0.260662        -7.0930
  53   2.0000      -0.254762        -6.9324
  54   2.0000      -0.209770        -5.7081
  55   2.0000      -0.118586        -3.2269
  56   0.0000      -0.008067        -0.2195
  57   0.0000       0.000718         0.0195
  58   0.0000       0.005224         0.1422
  59   0.0000       0.010653         0.2899
  60   0.0000       0.021815         0.5936

MULLIKEN ATOMIC CHARGES
-----------------------
   0 C :   -0.582784
   1 C :   -0.072959
   2 C :   -2.061341
   3 H :    0.209804
   4 C :   -0.306779
   5 H :    0.071505
   6 H :    0.210671
   7 H :    0.102903
   8 C :   -0.381518
   9 H :    0.279606
  10 C :   -0.399180
  11 H :    0.102953
  12 C :   -0.456404
  13 H :    0.167747
  14 H :    0.164046
  15 C :   -0.207618
  16 H :    0.330630
  17 H :    0.143689
  18 H :    0.194532
  19 C :   -0.366294
  20 H :    0.121172
  21 H :    0.151281
  22 H :    0.172173
  23 C :   -0.184623
  24 H :    0.322479
  25 H :    0.131321
  26 F :   -0.544059
  27 H :    0.176510
  28 H :    0.195900
  29 C :    0.439140
  30 N :   -0.535182
  31 N :   -0.523008
  32 H :    0.184560
  33 H :    0.131666
  34 H :    2.153884
  35 H :    0.346290
  36 H :    0.117289
Sum of atomic charges:   -0.0000000

LOEWDIN ATOMIC CHARGES
----------------------
   0 C :   -0.219786
   1 C :   -0.196661
   2 C :   -0.128160
   3 H :    0.105240
   4 C :   -0.204782
   5 H :    0.101411
   6 H :    0.090985
   7 H :    0.111477
   8 C :   -0.208178
   9 H :    0.093023
  10 C :   -0.203458
  11 H :    0.111393
  12 C :   -0.211598
  13 H :    0.105829
  14 H :    0.105565
  15 C :   -0.201752
  16 H :    0.090929
  17 H :    0.109522
  18 H :    0.099487
  19 C :   -0.171074
  20 H :    0.114797
  21 H :    0.117430
  22 H :    0.108860
  23 C :   -0.195532
  24 H :    0.120755
  25 H :    0.119510
  26 F :   -0.065496
  27 H :    0.097626
  28 H :    0.097330
  29 C :   -0.521251
  30 N :    0.117510
  31 N :    0.130171
  32 H :    0.086335
  33 H :    0.089365
  34 H :    0.038846
  35 H :    0.066186
  36 H :    0.098143

  Mayer bond orders larger than 0.100000
B(  0-C ,  1-C ) :   0.8782 B(  0-C ,  2-C ) :   0.7577 B(  0-C ,  8-C ) :   0.1563
B(  0-C , 27-H ) :   0.8519 B(  0-C , 28-H ) :   0.9410 B(  0-C , 29-C ) :   0.2130
B(  1-C ,  3-H ) :   0.8399 B(  1-C ,  4-C ) :   1.2818 B(  1-C ,  5-H ) :   0.8643
B(  1-C ,  8-C ) :   0.1325 B(  2-C ,  4-C ) :   0.2992 B(  2-C , 26-F ) :   0.7769
B(  2-C , 29-C ) :   1.9106 B(  2-C , 34-H ) :  -2.0024 B(  4-C ,  6-H ) :   1.2114
B(  4-C ,  7-H ) :   0.7984 B(  4-C ,  8-C ) :   0.5593 B(  4-C , 10-C ) :   0.1724
B(  4-C , 12-C ) :   0.1642 B(  8-C ,  9-H ) :   0.8864 B(  8-C , 10-C ) :   1.1545
B(  8-C , 11-H ) :   0.9124 B(  8-C , 15-C ) :   0.1338 B( 10-C , 12-C ) :   1.1966
B( 10-C , 13-H ) :   0.8866 B( 10-C , 14-H ) :   0.8778 B( 10-C , 15-C ) :   0.2451
B( 12-C , 15-C ) :   0.5433 B( 12-C , 16-H ) :   0.8314 B( 12-C , 17-H ) :   0.9322
B( 12-C , 19-C ) :   0.2675 B( 12-C , 23-C ) :   0.1169 B( 15-C , 18-H ) :   1.0490
B( 15-C , 19-C ) :   1.1290 B( 15-C , 20-H ) :   0.8469 B( 18-H , 26-F ) :   0.1068
B( 19-C , 21-H ) :   0.8979 B( 19-C , 22-H ) :   0.8669 B( 19-C , 23-C ) :   1.1424
B( 19-C , 26-F ) :   0.1997 B( 23-C , 24-H ) :   0.8743 B( 23-C , 25-H ) :   0.9380
B( 23-C , 26-F ) :   0.5230 B( 26-F , 29-C ) :   0.1500 B( 26-F , 34-H ) :  -1.2076
B( 26-F , 35-H ) :   0.1358 B( 29-C , 30-N ) :   1.0103 B( 29-C , 31-N ) :   0.8688
B( 29-C , 34-H ) :  -0.1382 B( 29-C , 35-H ) :   0.1074 B( 30-N , 35-H ) :   0.7141
B( 30-N , 36-H ) :   1.1052 B( 31-N , 32-H ) :   0.9598 B( 31-N , 33-H ) :   1.0733
B( 34-H , 35-H ) :  -0.1490

Dispersion correction           -0.050132530
FINAL SINGLE POINT ENERGY      -642.687987324116

DIPOLE MOMENT
-------------
                                X             Y             Z
Electronic contribution:     -1.59231      -4.83858      10.72091
Nuclear contribution   :      1.15699       3.94991     -10.89335
                        -----------------------------------------
Total Dipole Moment    :     -0.43533      -0.88867      -0.17245
                        -----------------------------------------
Magnitude (a.u.)       :      1.00448
Magnitude (Debye)      :      2.55318

Rotational constants in cm-1:     0.026548     0.016177     0.010851
Rotational constants in MHz :   795.884848   484.988695   325.313537

                             ****ORCA TERMINATED NORMALLY****
TOTAL RUN TIME: 0 days 0 hours 2 minutes 53 seconds 170 msec
