                         Program Version 5.0.0 -  RELEASE  -
|  1> !TPSS D3BJ RIJCOSX def2-TZVPD def2/J TightSCF xyzfile
|  2>
|  3> *xyzfile 0 1 D2.xyz
|  4>
|  5> %MaxCore 64000
|  6>
|  7> %pal nprocs 4
|  8> end
|  9>
| 10> %scf
| 11>   MaxIter 150
| 12> end
| 13>
| 14>
| 15>                          ****END OF INPUT****

CARTESIAN COORDINATES (ANGSTROEM)
---------------------------------
  C      3.488276    1.600919   -1.522040
  C      4.342970    1.313419   -2.756826
  N      2.810285    0.428783   -1.014196
  H      5.132033    0.604994   -2.484466
  C      3.535896    0.749253   -3.924604
  H      4.841247    2.242136   -3.054083
  H      2.991617   -0.132199   -3.574137
  H      4.225505    0.392784   -4.695962
  C      2.564776    1.750890   -4.544523
  H      1.918749    2.171679   -3.769419
  C      1.686235    1.161657   -5.650111
  H      3.132494    2.594775   -4.951604
  C      0.839616   -0.037582   -5.220473
  H      2.323886    0.866395   -6.490796
  H      1.029518    1.951850   -6.029329
  C     -0.151019    0.254955   -4.094256
  H      1.499442   -0.857141   -4.922958
  H      0.290097   -0.410143   -6.091131
  H      0.328265    0.833022   -3.299125
  C     -0.721843   -0.999513   -3.439309
  H     -0.957367    0.884951   -4.485450
  H     -1.083403   -1.697555   -4.205656
  H     -1.581056   -0.723848   -2.820490
  C      0.287250   -1.711771   -2.527405
  H      1.131780   -2.067380   -3.159396
  H     -0.204137   -2.637326   -2.170480
  F      0.710505   -0.927506   -1.481767
  H      2.714548    2.331455   -1.760302
  H      4.090991    2.063151   -0.733382
  C      3.290978   -0.418021   -0.129083
  C      2.517536   -1.432017    0.239360
  N      4.535490   -0.284410    0.395800
  H      5.043627    0.571888    0.222899
  H      4.723346   -0.733273    1.281800
  H      1.934787    0.102305   -1.403788
  H      1.674638   -1.505616   -0.316095
  H      2.928503   -2.218502    0.725494

 Total Charge           Charge          ....    0
 Multiplicity           Mult            ....    1
 Number of Electrons    NEL             ....  112
 Basis Dimension        Dim             ....  728

ORBITAL ENERGIES
----------------

  NO   OCC          E(Eh)            E(eV)
   0   2.0000     -24.424519      -664.6250
   1   2.0000     -14.086799      -383.3213
   2   2.0000     -14.076856      -383.0507
   3   2.0000     -10.072239      -274.0796
   4   2.0000     -10.013035      -272.4685
   5   2.0000     -10.002883      -272.1923
   6   2.0000      -9.998706      -272.0786
   7   2.0000      -9.989115      -271.8176
   8   2.0000      -9.985751      -271.7261
   9   2.0000      -9.983744      -271.6715
  10   2.0000      -9.980705      -271.5888
  11   2.0000      -9.978689      -271.5339
  12   2.0000      -9.977722      -271.5076
  13   2.0000      -9.868646      -268.5395
  14   2.0000      -1.157470       -31.4963
  15   2.0000      -0.886402       -24.1202
  16   2.0000      -0.808538       -22.0014
  17   2.0000      -0.768014       -20.8987
  18   2.0000      -0.742274       -20.1983
  19   2.0000      -0.716354       -19.4930
  20   2.0000      -0.673430       -18.3250
  21   2.0000      -0.650527       -17.7017
  22   2.0000      -0.618027       -16.8174
  23   2.0000      -0.593547       -16.1512
  24   2.0000      -0.562762       -15.3135
  25   2.0000      -0.548156       -14.9161
  26   2.0000      -0.529875       -14.4186
  27   2.0000      -0.513822       -13.9818
  28   2.0000      -0.487069       -13.2538
  29   2.0000      -0.473527       -12.8853
  30   2.0000      -0.464357       -12.6358
  31   2.0000      -0.448421       -12.2022
  32   2.0000      -0.441137       -12.0039
  33   2.0000      -0.430161       -11.7053
  34   2.0000      -0.423816       -11.5326
  35   2.0000      -0.411598       -11.2002
  36   2.0000      -0.395305       -10.7568
  37   2.0000      -0.390105       -10.6153
  38   2.0000      -0.386301       -10.5118
  39   2.0000      -0.374313       -10.1856
  40   2.0000      -0.354589        -9.6489
  41   2.0000      -0.344273        -9.3681
  42   2.0000      -0.335675        -9.1342
  43   2.0000      -0.335255        -9.1228
  44   2.0000      -0.325614        -8.8604
  45   2.0000      -0.320465        -8.7203
  46   2.0000      -0.308922        -8.4062
  47   2.0000      -0.306710        -8.3460
  48   2.0000      -0.300306        -8.1717
  49   2.0000      -0.292803        -7.9676
  50   2.0000      -0.282478        -7.6866
  51   2.0000      -0.280537        -7.6338
  52   2.0000      -0.280249        -7.6260
  53   2.0000      -0.275930        -7.5084
  54   2.0000      -0.203314        -5.5325
  55   2.0000      -0.114344        -3.1114
  56   0.0000      -0.007366        -0.2004
  57   0.0000      -0.002491        -0.0678
  58   0.0000       0.002237         0.0609
  59   0.0000       0.006726         0.1830
  60   0.0000       0.020694         0.5631

MULLIKEN ATOMIC CHARGES
-----------------------
   0 C :   -0.934073
   1 C :   -0.100359
   2 N :   -0.208646
   3 H :    0.195667
   4 C :   -0.310804
   5 H :    0.142165
   6 H :    0.199077
   7 H :    0.080616
   8 C :   -0.394858
   9 H :    0.307279
  10 C :   -0.414615
  11 H :    0.104783
  12 C :   -0.456137
  13 H :    0.165709
  14 H :    0.164122
  15 C :   -0.253320
  16 H :    0.343576
  17 H :    0.143983
  18 H :    0.203279
  19 C :   -0.335104
  20 H :    0.123289
  21 H :    0.144372
  22 H :    0.175026
  23 C :   -0.246411
  24 H :    0.336448
  25 H :    0.168039
  26 F :   -0.548237
  27 H :    0.202020
  28 H :    0.351505
  29 C :    0.954711
  30 C :   -1.807447
  31 N :   -0.485484
  32 H :    0.159732
  33 H :    0.171508
  34 H :    0.531183
  35 H :    0.849246
  36 H :    0.278159
Sum of atomic charges:    0.0000000

LOEWDIN ATOMIC CHARGES
----------------------
   0 C :   -0.185966
   1 C :   -0.182318
   2 N :    0.041106
   3 H :    0.106068
   4 C :   -0.202537
   5 H :    0.106389
   6 H :    0.092933
   7 H :    0.114367
   8 C :   -0.210457
   9 H :    0.090965
  10 C :   -0.201917
  11 H :    0.112241
  12 C :   -0.210940
  13 H :    0.107118
  14 H :    0.106883
  15 C :   -0.203771
  16 H :    0.091383
  17 H :    0.111122
  18 H :    0.096015
  19 C :   -0.171348
  20 H :    0.115147
  21 H :    0.117753
  22 H :    0.109442
  23 C :   -0.193257
  24 H :    0.120636
  25 H :    0.124041
  26 F :   -0.067126
  27 H :    0.106306
  28 H :    0.106590
  29 C :   -0.542928
  30 C :    0.005304
  31 N :    0.124008
  32 H :    0.076686
  33 H :    0.102694
  34 H :    0.095785
  35 H :   -0.017616
  36 H :    0.009199

  Mayer bond orders larger than 0.100000
B(  0-C ,  1-C ) :   0.8605 B(  0-C ,  2-N ) :   1.1347 B(  0-C ,  8-C ) :   0.1870
B(  0-C , 27-H ) :   0.9132 B(  0-C , 28-H ) :   0.7837 B(  0-C , 29-C ) :  -0.1766
B(  0-C , 31-N ) :   0.1170 B(  0-C , 34-H ) :  -0.1707 B(  1-C ,  3-H ) :   0.8635
B(  1-C ,  4-C ) :   1.2260 B(  1-C ,  5-H ) :   0.9346 B(  1-C ,  6-H ) :   0.1050
B(  1-C ,  8-C ) :   0.1357 B(  2-N , 29-C ) :   0.9098 B(  2-N , 34-H ) :   0.7603
B(  4-C ,  6-H ) :   1.1790 B(  4-C ,  7-H ) :   0.8148 B(  4-C ,  8-C ) :   0.5525
B(  4-C , 10-C ) :   0.1730 B(  4-C , 12-C ) :   0.1590 B(  8-C ,  9-H ) :   0.8542
B(  8-C , 10-C ) :   1.1699 B(  8-C , 11-H ) :   0.9097 B(  8-C , 15-C ) :   0.1291
B(  9-H , 15-C ) :   0.1034 B( 10-C , 12-C ) :   1.1868 B( 10-C , 13-H ) :   0.8885
B( 10-C , 14-H ) :   0.8758 B( 10-C , 15-C ) :   0.2672 B( 12-C , 15-C ) :   0.5532
B( 12-C , 16-H ) :   0.8222 B( 12-C , 17-H ) :   0.9193 B( 12-C , 19-C ) :   0.2489
B( 12-C , 23-C ) :   0.1246 B( 15-C , 18-H ) :   1.0419 B( 15-C , 19-C ) :   1.1592
B( 15-C , 20-H ) :   0.8496 B( 18-H , 26-F ) :   0.1152 B( 19-C , 21-H ) :   0.9086
B( 19-C , 22-H ) :   0.8587 B( 19-C , 23-C ) :   1.1333 B( 19-C , 26-F ) :   0.1749
B( 23-C , 24-H ) :   0.8644 B( 23-C , 25-H ) :   0.9123 B( 23-C , 26-F ) :   0.5259
B( 26-F , 30-C ) :   0.3276 B( 26-F , 34-H ) :  -0.1063 B( 26-F , 35-H ) :  -0.2469
B( 29-C , 30-C ) :   1.1244 B( 29-C , 31-N ) :   0.8696 B( 29-C , 34-H ) :  -0.1269
B( 29-C , 36-H ) :  -0.1335 B( 30-C , 31-N ) :   0.1043 B( 30-C , 35-H ) :   0.4025
B( 30-C , 36-H ) :   1.1165 B( 31-N , 32-H ) :   1.0041 B( 31-N , 33-H ) :   1.0119

Dispersion correction           -0.049817180
FINAL SINGLE POINT ENERGY      -642.677054112570

DIPOLE MOMENT
-------------
                                X             Y             Z
Electronic contribution:     -1.27872      -3.14061       9.45675
Nuclear contribution   :      1.09892       3.58083     -10.64472
                        -----------------------------------------
Total Dipole Moment    :     -0.17980       0.44022      -1.18796
                        -----------------------------------------
Magnitude (a.u.)       :      1.27960
Magnitude (Debye)      :      3.25250

Rotational constants in cm-1:     0.026768     0.016312     0.010954
Rotational constants in MHz :   802.489946   489.033275   328.388904

                             ****ORCA TERMINATED NORMALLY****
TOTAL RUN TIME: 0 days 0 hours 2 minutes 50 seconds 744 msec
