                         Program Version 5.0.0 -  RELEASE  -
|  1> !TPSS D3BJ RIJCOSX def2-TZVPD def2/J TightSCF xyzfile
|  2>
|  3> *xyzfile 0 1 D3.xyz
|  4>
|  5> %MaxCore 64000
|  6>
|  7> %pal nprocs 4
|  8> end
|  9>
| 10> %scf
| 11>   MaxIter 150
| 12> end
| 13>
| 14>
| 15>                          ****END OF INPUT****

CARTESIAN COORDINATES (ANGSTROEM)
---------------------------------
  C      3.488276    1.600919   -1.522040
  C      4.342970    1.313419   -2.756826
  N      2.810285    0.428783   -1.014196
  H      5.132033    0.604994   -2.484466
  C      3.535896    0.749253   -3.924604
  H      4.841247    2.242136   -3.054083
  H      2.991617   -0.132199   -3.574137
  H      4.225505    0.392784   -4.695962
  C      2.564776    1.750890   -4.544523
  H      1.918749    2.171679   -3.769419
  C      1.686235    1.161657   -5.650111
  H      3.132494    2.594775   -4.951604
  C      0.839616   -0.037582   -5.220473
  H      2.323886    0.866395   -6.490796
  H      1.029518    1.951850   -6.029329
  C     -0.151019    0.254955   -4.094256
  H      1.499442   -0.857141   -4.922958
  H      0.290097   -0.410143   -6.091131
  H      0.328265    0.833022   -3.299125
  C     -0.721843   -0.999513   -3.439309
  H     -0.957367    0.884951   -4.485450
  H     -1.083403   -1.697555   -4.205656
  H     -1.581056   -0.723848   -2.820490
  C      0.287250   -1.711771   -2.527405
  H      1.131780   -2.067380   -3.159396
  H     -0.204137   -2.637326   -2.170480
  F      0.710505   -0.927506   -1.481767
  H      2.714548    2.331455   -1.760302
  H      4.090991    2.063151   -0.733382
  C      3.290978   -0.418021   -0.129083
  N      2.517536   -1.432017    0.239360
  C      4.535490   -0.284410    0.395800
  H      5.043627    0.571888    0.222899
  H      4.723346   -0.733273    1.281800
  H      1.934787    0.102305   -1.403788
  H      1.674638   -1.505616   -0.316095
  H      2.928503   -2.218502    0.725494

 Total Charge           Charge          ....    0
 Multiplicity           Mult            ....    1
 Number of Electrons    NEL             ....  112
 Basis Dimension        Dim             ....  728

ORBITAL ENERGIES
----------------

  NO   OCC          E(Eh)            E(eV)
   0   2.0000     -24.453411      -665.4111
   1   2.0000     -14.080186      -383.1413
   2   2.0000     -14.075205      -383.0058
   3   2.0000     -10.089994      -274.5627
   4   2.0000     -10.010628      -272.4030
   5   2.0000     -10.005417      -272.2612
   6   2.0000     -10.004429      -272.2344
   7   2.0000      -9.996488      -272.0183
   8   2.0000      -9.990674      -271.8601
   9   2.0000      -9.985709      -271.7250
  10   2.0000      -9.980249      -271.5764
  11   2.0000      -9.976412      -271.4720
  12   2.0000      -9.970898      -271.3219
  13   2.0000      -9.878946      -268.8198
  14   2.0000      -1.185163       -32.2499
  15   2.0000      -0.891529       -24.2597
  16   2.0000      -0.808507       -22.0006
  17   2.0000      -0.774276       -21.0691
  18   2.0000      -0.745621       -20.2894
  19   2.0000      -0.713438       -19.4136
  20   2.0000      -0.673625       -18.3303
  21   2.0000      -0.642267       -17.4770
  22   2.0000      -0.633934       -17.2502
  23   2.0000      -0.603867       -16.4321
  24   2.0000      -0.572356       -15.5746
  25   2.0000      -0.547107       -14.8875
  26   2.0000      -0.525948       -14.3118
  27   2.0000      -0.513956       -13.9855
  28   2.0000      -0.504232       -13.7209
  29   2.0000      -0.483359       -13.1529
  30   2.0000      -0.472077       -12.8459
  31   2.0000      -0.461650       -12.5621
  32   2.0000      -0.450473       -12.2580
  33   2.0000      -0.433780       -11.8038
  34   2.0000      -0.420202       -11.4343
  35   2.0000      -0.411836       -11.2066
  36   2.0000      -0.399982       -10.8841
  37   2.0000      -0.395786       -10.7699
  38   2.0000      -0.386872       -10.5273
  39   2.0000      -0.371466       -10.1081
  40   2.0000      -0.359766        -9.7897
  41   2.0000      -0.345806        -9.4099
  42   2.0000      -0.342270        -9.3137
  43   2.0000      -0.334479        -9.1016
  44   2.0000      -0.330374        -8.9899
  45   2.0000      -0.322381        -8.7724
  46   2.0000      -0.315676        -8.5900
  47   2.0000      -0.310876        -8.4594
  48   2.0000      -0.302740        -8.2380
  49   2.0000      -0.300861        -8.1868
  50   2.0000      -0.294582        -8.0160
  51   2.0000      -0.282920        -7.6986
  52   2.0000      -0.281725        -7.6661
  53   2.0000      -0.274625        -7.4729
  54   2.0000      -0.193702        -5.2709
  55   2.0000      -0.118336        -3.2201
  56   0.0000      -0.015067        -0.4100
  57   0.0000      -0.005287        -0.1439
  58   0.0000       0.002502         0.0681
  59   0.0000       0.006497         0.1768
  60   0.0000       0.016794         0.4570

MULLIKEN ATOMIC CHARGES
-----------------------
   0 C :   -0.913264
   1 C :   -0.130268
   2 N :   -0.336435
   3 H :    0.221522
   4 C :   -0.335201
   5 H :    0.137387
   6 H :    0.191538
   7 H :    0.084961
   8 C :   -0.365718
   9 H :    0.279998
  10 C :   -0.434873
  11 H :    0.104851
  12 C :   -0.444073
  13 H :    0.168574
  14 H :    0.163348
  15 C :   -0.232906
  16 H :    0.338104
  17 H :    0.145144
  18 H :    0.194216
  19 C :   -0.360979
  20 H :    0.126049
  21 H :    0.148035
  22 H :    0.169226
  23 C :   -0.169775
  24 H :    0.310447
  25 H :    0.143271
  26 F :   -0.587228
  27 H :    0.219669
  28 H :    0.356831
  29 C :    0.982922
  30 N :   -0.516470
  31 C :   -1.518365
  32 H :    0.315910
  33 H :    0.290546
  34 H :    0.696664
  35 H :    0.427336
  36 H :    0.129006
Sum of atomic charges:   -0.0000000

LOEWDIN ATOMIC CHARGES
----------------------
   0 C :   -0.180405
   1 C :   -0.175753
   2 N :    0.038505
   3 H :    0.108303
   4 C :   -0.204103
   5 H :    0.108619
   6 H :    0.090155
   7 H :    0.114248
   8 C :   -0.210548
   9 H :    0.090595
  10 C :   -0.201677
  11 H :    0.112958
  12 C :   -0.210828
  13 H :    0.107605
  14 H :    0.106935
  15 C :   -0.202480
  16 H :    0.091066
  17 H :    0.111300
  18 H :    0.096606
  19 C :   -0.169291
  20 H :    0.116460
  21 H :    0.119807
  22 H :    0.110246
  23 C :   -0.190493
  24 H :    0.122412
  25 H :    0.123526
  26 F :   -0.057240
  27 H :    0.105972
  28 H :    0.112039
  29 C :   -0.555059
  30 N :    0.125546
  31 C :    0.000622
  32 H :   -0.016001
  33 H :   -0.003220
  34 H :    0.091203
  35 H :    0.059551
  36 H :    0.112819

  Mayer bond orders larger than 0.100000
B(  0-C ,  1-C ) :   0.8928 B(  0-C ,  2-N ) :   1.1589 B(  0-C ,  4-C ) :   0.1043
B(  0-C ,  8-C ) :   0.1879 B(  0-C , 27-H ) :   0.8284 B(  0-C , 28-H ) :   0.7462
B(  0-C , 29-C ) :  -0.1577 B(  0-C , 31-C ) :   0.1554 B(  0-C , 34-H ) :  -0.2769
B(  1-C ,  3-H ) :   0.8805 B(  1-C ,  4-C ) :   1.2328 B(  1-C ,  5-H ) :   0.8990
B(  1-C ,  8-C ) :   0.1317 B(  2-N , 29-C ) :   0.8984 B(  2-N , 34-H ) :   0.6392
B(  4-C ,  6-H ) :   1.1941 B(  4-C ,  7-H ) :   0.8091 B(  4-C ,  8-C ) :   0.5553
B(  4-C , 10-C ) :   0.1864 B(  4-C , 12-C ) :   0.1557 B(  8-C ,  9-H ) :   0.8720
B(  8-C , 10-C ) :   1.1676 B(  8-C , 11-H ) :   0.9040 B(  8-C , 15-C ) :   0.1253
B(  9-H , 15-C ) :   0.1106 B( 10-C , 12-C ) :   1.2038 B( 10-C , 13-H ) :   0.8863
B( 10-C , 14-H ) :   0.8785 B( 10-C , 15-C ) :   0.2712 B( 12-C , 15-C ) :   0.5371
B( 12-C , 16-H ) :   0.8256 B( 12-C , 17-H ) :   0.9228 B( 12-C , 19-C ) :   0.2502
B( 12-C , 23-C ) :   0.1194 B( 15-C , 18-H ) :   1.0472 B( 15-C , 19-C ) :   1.1367
B( 15-C , 20-H ) :   0.8482 B( 18-H , 26-F ) :   0.1062 B( 19-C , 21-H ) :   0.8950
B( 19-C , 22-H ) :   0.8754 B( 19-C , 23-C ) :   1.1469 B( 19-C , 26-F ) :   0.2063
B( 23-C , 24-H ) :   0.8928 B( 23-C , 25-H ) :   0.9199 B( 23-C , 26-F ) :   0.5075
B( 26-F , 34-H ) :  -0.1707 B( 29-C , 30-N ) :   0.9961 B( 29-C , 31-C ) :   0.9104
B( 29-C , 33-H ) :  -0.1135 B( 30-N , 31-C ) :   0.1172 B( 30-N , 35-H ) :   0.6823
B( 30-N , 36-H ) :   1.0598 B( 31-C , 32-H ) :   1.0013 B( 31-C , 33-H ) :   1.0944

Dispersion correction           -0.049801955
FINAL SINGLE POINT ENERGY      -642.688666272801

DIPOLE MOMENT
-------------
                                X             Y             Z
Electronic contribution:     -3.22254      -4.28334       9.10208
Nuclear contribution   :      1.49917       3.80845     -10.61369
                        -----------------------------------------
Total Dipole Moment    :     -1.72337      -0.47489      -1.51160
                        -----------------------------------------
Magnitude (a.u.)       :      2.34104
Magnitude (Debye)      :      5.95045

Rotational constants in cm-1:     0.026547     0.016542     0.011018
Rotational constants in MHz :   795.873737   495.912559   330.323979

                             ****ORCA TERMINATED NORMALLY****
TOTAL RUN TIME: 0 days 0 hours 2 minutes 47 seconds 727 msec
