                         Program Version 5.0.0 -  RELEASE  -
|  1> !BLYP D3BJ RIJCOSX def2-SVPD def2/J TightSCF
|  2> *xyz -1 1
|  3> C         -0.98480        1.28474       -2.92869
|  4> C         -0.10608        1.76991       -4.08984
|  5> H         -0.34774        2.82220       -4.26294
|  6> H          0.94968        1.74588       -3.80878
|  7> C         -0.25875        1.00432       -5.40983
|  8> C          0.39596       -0.37070       -5.33994
|  9> H          0.23915        1.56939       -6.20125
| 10> H         -1.30936        0.88869       -5.68245
| 11> O         -0.32633       -1.39040       -5.49128
| 12> O          1.61941       -0.40073       -5.03683
| 13> H         -2.01317        1.31546       -3.22263
| 14> H         -0.83724        1.91975       -2.08023
| 15> H         -0.71656        0.28077       -2.67373
| 16> *
| 17> %MaxCore 64000
| 18>
| 19> %pal nprocs 4
| 20> end
| 21>
| 22> %scf
| 23>   MaxIter 150
| 24> end
| 25>
| 26>
| 27>                          ****END OF INPUT****

CARTESIAN COORDINATES (ANGSTROEM)
---------------------------------
  C     -0.984800    1.284740   -2.928690
  C     -0.106080    1.769910   -4.089840
  H     -0.347740    2.822200   -4.262940
  H      0.949680    1.745880   -3.808780
  C     -0.258750    1.004320   -5.409830
  C      0.395960   -0.370700   -5.339940
  H      0.239150    1.569390   -6.201250
  H     -1.309360    0.888690   -5.682450
  O     -0.326330   -1.390400   -5.491280
  O      1.619410   -0.400730   -5.036830
  H     -2.013170    1.315460   -3.222630
  H     -0.837240    1.919750   -2.080230
  H     -0.716560    0.280770   -2.673730

 Total Charge           Charge          ....   -1
 Multiplicity           Mult            ....    1
 Number of Electrons    NEL             ....   48
 Basis Dimension        Dim             ....  182

ORBITAL ENERGIES
----------------

  NO   OCC          E(Eh)            E(eV)
   0   2.0000     -18.534342      -504.3451
   1   2.0000     -18.533626      -504.3256
   2   2.0000      -9.804901      -266.8049
   3   2.0000      -9.774587      -265.9800
   4   2.0000      -9.773115      -265.9400
   5   2.0000      -9.750281      -265.3186
   6   2.0000      -0.719117       -19.5682
   7   2.0000      -0.630371       -17.1533
   8   2.0000      -0.552888       -15.0448
   9   2.0000      -0.467455       -12.7201
  10   2.0000      -0.376360       -10.2413
  11   2.0000      -0.273726        -7.4485
  12   2.0000      -0.253369        -6.8945
  13   2.0000      -0.232130        -6.3166
  14   2.0000      -0.210278        -5.7220
  15   2.0000      -0.180823        -4.9204
  16   2.0000      -0.171001        -4.6532
  17   2.0000      -0.158696        -4.3183
  18   2.0000      -0.145432        -3.9574
  19   2.0000      -0.128458        -3.4955
  20   2.0000      -0.117943        -3.2094
  21   2.0000      -0.011967        -0.3256
  22   2.0000      -0.000256        -0.0070
  23   2.0000       0.018792         0.5114
  24   0.0000       0.127344         3.4652
  25   0.0000       0.153141         4.1672
  26   0.0000       0.168392         4.5822
  27   0.0000       0.182929         4.9778
  28   0.0000       0.199255         5.4220

MULLIKEN ATOMIC CHARGES
-----------------------
   0 C :    1.065738
   1 C :   -0.210102
   2 H :   -0.274874
   3 H :   -0.145694
   4 C :    0.400816
   5 C :    0.223755
   6 H :   -0.157206
   7 H :   -0.155721
   8 O :   -0.575804
   9 O :   -0.632238
  10 H :   -0.134412
  11 H :   -0.217541
  12 H :   -0.186716
Sum of atomic charges:   -1.0000000

LOEWDIN ATOMIC CHARGES
----------------------
   0 C :    0.128547
   1 C :   -0.078191
   2 H :   -0.011345
   3 H :    0.003441
   4 C :    0.008424
   5 C :   -0.327604
   6 H :    0.001781
   7 H :   -0.005341
   8 O :   -0.311385
   9 O :   -0.307375
  10 H :   -0.034623
  11 H :   -0.043529
  12 H :   -0.022801

  Mayer bond orders larger than 0.100000
B(  0-C ,  1-C ) :   1.2870 B(  0-C ,  2-H ) :   0.1272 B(  0-C , 10-H ) :   0.6962
B(  0-C , 11-H ) :   0.6492 B(  0-C , 12-H ) :   0.7355 B(  1-C ,  2-H ) :   0.8627
B(  1-C ,  3-H ) :   0.8529 B(  1-C ,  4-C ) :   1.2569 B(  1-C ,  5-C ) :   0.1028
B(  1-C ,  6-H ) :   0.1833 B(  1-C ,  7-H ) :   0.1618 B(  1-C , 10-H ) :   0.2690
B(  1-C , 11-H ) :   0.2859 B(  1-C , 12-H ) :   0.2696 B(  2-H ,  4-C ) :   0.1338
B(  3-H ,  4-C ) :   0.1735 B(  4-C ,  5-C ) :   1.0094 B(  4-C ,  6-H ) :   0.7438
B(  4-C ,  7-H ) :   0.8191 B(  5-C ,  6-H ) :   0.1289 B(  5-C ,  7-H ) :   0.2496
B(  5-C ,  8-O ) :   1.5416 B(  5-C ,  9-O ) :   1.5532

Dispersion correction           -0.019921157
FINAL SINGLE POINT ENERGY      -306.857169895992

DIPOLE MOMENT
-------------
                                X             Y             Z
Electronic contribution:      3.16157      -5.72187      -3.88605
Nuclear contribution   :     -4.15791       7.87420       4.69333
                        -----------------------------------------
Total Dipole Moment    :     -0.99634       2.15234       0.80728
                        -----------------------------------------
Magnitude (a.u.)       :      2.50538
Magnitude (Debye)      :      6.36818

Rotational constants in cm-1:     0.200385     0.078723     0.072676
Rotational constants in MHz :  6007.394681  2360.059351  2178.761275

                             ****ORCA TERMINATED NORMALLY****
TOTAL RUN TIME: 0 days 0 hours 0 minutes 6 seconds 583 msec
