                         Program Version 5.0.0 -  RELEASE  -
|  1> !BLYP D3BJ RIJCOSX def2-SVPD def2/J TightSCF
|  2> *xyz 1 1
|  3> C          0.81607       -2.10149       -2.18655
|  4> H          1.69623       -2.36869       -1.60046
|  5> N          1.10055       -2.46749       -3.59927
|  6> C          0.51624       -0.61363       -2.03937
|  7> H         -0.02007       -2.71285       -1.84084
|  8> C         -0.86862       -0.19392       -2.54630
|  9> H          1.70061       -1.75723       -4.07838
| 10> H          0.29386       -2.35977       -4.25632
| 11> H          1.50132       -3.42848       -3.69491
| 12> H          1.29904       -0.05680       -2.55898
| 13> H          0.61239       -0.36558       -0.97917
| 14> H         -0.95781       -0.43872       -3.58410
| 15> H         -0.99113        0.86113       -2.41690
| 16> H         -1.62334       -0.71130       -1.99167
| 17> *
| 18> %MaxCore 64000
| 19>
| 20> %pal nprocs 4
| 21> end
| 22>
| 23> %scf
| 24>   MaxIter 150
| 25> end
| 26>
| 27>
| 28>                          ****END OF INPUT****

CARTESIAN COORDINATES (ANGSTROEM)
---------------------------------
  C      0.816070   -2.101490   -2.186550
  H      1.696230   -2.368690   -1.600460
  N      1.100550   -2.467490   -3.599270
  C      0.516240   -0.613630   -2.039370
  H     -0.020070   -2.712850   -1.840840
  C     -0.868620   -0.193920   -2.546300
  H      1.700610   -1.757230   -4.078380
  H      0.293860   -2.359770   -4.256320
  H      1.501320   -3.428480   -3.694910
  H      1.299040   -0.056800   -2.558980
  H      0.612390   -0.365580   -0.979170
  H     -0.957810   -0.438720   -3.584100
  H     -0.991130    0.861130   -2.416900
  H     -1.623340   -0.711300   -1.991670

 Total Charge           Charge          ....    1
 Multiplicity           Mult            ....    1
 Number of Electrons    NEL             ....   34
 Basis Dimension        Dim             ....  160

ORBITAL ENERGIES
----------------

  NO   OCC          E(Eh)            E(eV)
   0   2.0000     -14.355012      -390.6197
   1   2.0000     -10.168897      -276.7098
   2   2.0000     -10.102430      -274.9011
   3   2.0000     -10.068463      -273.9768
   4   2.0000      -1.111163       -30.2363
   5   2.0000      -0.890255       -24.2251
   6   2.0000      -0.809780       -22.0352
   7   2.0000      -0.745802       -20.2943
   8   2.0000      -0.718310       -19.5462
   9   2.0000      -0.700715       -19.0674
  10   2.0000      -0.642068       -17.4716
  11   2.0000      -0.576533       -15.6883
  12   2.0000      -0.558769       -15.2049
  13   2.0000      -0.537881       -14.6365
  14   2.0000      -0.481229       -13.0949
  15   2.0000      -0.475575       -12.9411
  16   2.0000      -0.471078       -12.8187
  17   0.0000      -0.219515        -5.9733
  18   0.0000      -0.167420        -4.5557
  19   0.0000      -0.162890        -4.4325
  20   0.0000      -0.140964        -3.8358
  21   0.0000      -0.114662        -3.1201

MULLIKEN ATOMIC CHARGES
-----------------------
   0 C :    0.958459
   1 H :   -0.222567
   2 N :   -0.802468
   3 C :   -0.010850
   4 H :   -0.205735
   5 C :    1.166892
   6 H :    0.434980
   7 H :    0.302733
   8 H :    0.346155
   9 H :   -0.198283
  10 H :   -0.230565
  11 H :   -0.277380
  12 H :   -0.171704
  13 H :   -0.089667
Sum of atomic charges:    1.0000000

LOEWDIN ATOMIC CHARGES
----------------------
   0 C :    0.088225
   1 H :    0.048333
   2 N :    0.322437
   3 C :   -0.033986
   4 H :    0.051149
   5 C :    0.167806
   6 H :    0.106432
   7 H :    0.101265
   8 H :    0.117260
   9 H :    0.024579
  10 H :    0.041486
  11 H :   -0.030133
  12 H :    0.000682
  13 H :   -0.005535

  Mayer bond orders larger than 0.100000
B(  0-C ,  1-H ) :   0.7755 B(  0-C ,  2-N ) :   0.6842 B(  0-C ,  3-C ) :   1.1581
B(  0-C ,  4-H ) :   0.7835 B(  0-C , 10-H ) :   0.1557 B(  1-H ,  2-N ) :   0.1497
B(  2-N ,  4-H ) :   0.1766 B(  2-N ,  6-H ) :   0.6204 B(  2-N ,  7-H ) :   0.8139
B(  2-N ,  8-H ) :   0.6888 B(  3-C ,  5-C ) :   1.2683 B(  3-C ,  9-H ) :   0.8615
B(  3-C , 10-H ) :   0.8685 B(  3-C , 11-H ) :   0.2387 B(  3-C , 12-H ) :   0.2711
B(  3-C , 13-H ) :   0.2395 B(  5-C , 11-H ) :   0.7038 B(  5-C , 12-H ) :   0.6743
B(  5-C , 13-H ) :   0.7007

Dispersion correction           -0.018743982
FINAL SINGLE POINT ENERGY      -174.635851086656

DIPOLE MOMENT
-------------
                                X             Y             Z
Electronic contribution:      1.47472      -1.82241      -0.67941
Nuclear contribution   :     -0.52914       0.42437      -0.52967
                        -----------------------------------------
Total Dipole Moment    :      0.94558      -1.39804      -1.20908
                        -----------------------------------------
Magnitude (a.u.)       :      2.07618
Magnitude (Debye)      :      5.27722

Rotational constants in cm-1:     0.462856     0.150885     0.132529
Rotational constants in MHz : 13876.083919  4523.416930  3973.119974

                             ****ORCA TERMINATED NORMALLY****
TOTAL RUN TIME: 0 days 0 hours 0 minutes 4 seconds 925 msec
