                         Program Version 5.0.0 -  RELEASE  -
|  1> !BLYP D3BJ RIJCOSX def2-SVPD def2/J TightSCF xyzfile
|  2>
|  3> *xyzfile 0 1 B.xyz
|  4>
|  5> %MaxCore 64000
|  6>
|  7> %pal nprocs 4
|  8> end
|  9>
| 10> %scf
| 11>   MaxIter 150
| 12> end
| 13>
| 14>
| 15>                          ****END OF INPUT****

CARTESIAN COORDINATES (ANGSTROEM)
---------------------------------
  C      0.816067   -2.101491   -2.186546
  H      1.696232   -2.368691   -1.600457
  N      1.100552   -2.467492   -3.599269
  C      0.516243   -0.613634   -2.039373
  H     -0.020066   -2.712849   -1.840844
  C     -0.868621   -0.193925   -2.546303
  C     -0.984801    1.284739   -2.928686
  H     -0.764939    1.904116   -2.051568
  H     -2.032613    1.478953   -3.178952
  C     -0.106085    1.769914   -4.089836
  H     -0.347744    2.822196   -4.262942
  H      0.949683    1.745875   -3.808781
  C     -0.258747    1.004323   -5.409829
  C      0.395958   -0.370696   -5.339939
  H      0.239150    1.569393   -6.201253
  H     -1.309360    0.888694   -5.682455
  H      1.700606   -1.757225   -4.078378
  H      0.293855   -2.359766   -4.256324
  H      1.501324   -3.428479   -3.694915
  O     -0.326329   -1.390398   -5.491279
  O      1.619412   -0.400726   -5.036827
  H     -1.607271   -0.412651   -1.768955
  H     -1.157234   -0.796164   -3.409254
  H      1.299044   -0.056805   -2.558982
  H      0.612393   -0.365579   -0.979171

 Total Charge           Charge          ....    0
 Multiplicity           Mult            ....    1
 Number of Electrons    NEL             ....   80
 Basis Dimension        Dim             ....  326

ORBITAL ENERGIES
----------------

  NO   OCC          E(Eh)            E(eV)
   0   2.0000     -18.730880      -509.6932
   1   2.0000     -18.729435      -509.6538
   2   2.0000     -14.107006      -383.8711
   3   2.0000      -9.993768      -271.9442
   4   2.0000      -9.993585      -271.9393
   5   2.0000      -9.936420      -270.3837
   6   2.0000      -9.918387      -269.8930
   7   2.0000      -9.914112      -269.7767
   8   2.0000      -9.907279      -269.5908
   9   2.0000      -9.898288      -269.3461
  10   2.0000      -0.927675       -25.2433
  11   2.0000      -0.882741       -24.0206
  12   2.0000      -0.831899       -22.6371
  13   2.0000      -0.729027       -19.8378
  14   2.0000      -0.689102       -18.7514
  15   2.0000      -0.645974       -17.5778
  16   2.0000      -0.587823       -15.9955
  17   2.0000      -0.558057       -15.1855
  18   2.0000      -0.519202       -14.1282
  19   2.0000      -0.503231       -13.6936
  20   2.0000      -0.481645       -13.1062
  21   2.0000      -0.460851       -12.5404
  22   2.0000      -0.423739       -11.5305
  23   2.0000      -0.414201       -11.2710
  24   2.0000      -0.402873       -10.9627
  25   2.0000      -0.392227       -10.6730
  26   2.0000      -0.373913       -10.1747
  27   2.0000      -0.365419        -9.9436
  28   2.0000      -0.349375        -9.5070
  29   2.0000      -0.341975        -9.3056
  30   2.0000      -0.336659        -9.1610
  31   2.0000      -0.327226        -8.9043
  32   2.0000      -0.307597        -8.3701
  33   2.0000      -0.304235        -8.2786
  34   2.0000      -0.282643        -7.6911
  35   2.0000      -0.270010        -7.3473
  36   2.0000      -0.266270        -7.2456
  37   2.0000      -0.211244        -5.7482
  38   2.0000      -0.193602        -5.2682
  39   2.0000      -0.181795        -4.9469
  40   0.0000      -0.030699        -0.8354
  41   0.0000       0.002023         0.0551
  42   0.0000       0.008799         0.2394
  43   0.0000       0.019120         0.5203
  44   0.0000       0.020482         0.5573

MULLIKEN ATOMIC CHARGES
-----------------------
   0 C :    1.368298
   1 H :   -0.344567
   2 N :   -0.308677
   3 C :    0.402346
   4 H :   -0.340382
   5 C :    0.500843
   6 C :    0.642575
   7 H :   -0.222720
   8 H :   -0.075885
   9 C :    0.314056
  10 H :   -0.396208
  11 H :   -0.031554
  12 C :    0.645689
  13 C :    0.088599
  14 H :   -0.150786
  15 H :   -0.203874
  16 H :    0.226975
  17 H :    0.178323
  18 H :    0.185428
  19 O :   -0.599366
  20 O :   -0.639269
  21 H :   -0.300932
  22 H :   -0.386579
  23 H :   -0.128719
  24 H :   -0.423618
Sum of atomic charges:    0.0000000

LOEWDIN ATOMIC CHARGES
----------------------
   0 C :    0.089840
   1 H :    0.024901
   2 N :    0.318833
   3 C :    0.008415
   4 H :    0.030030
   5 C :   -0.004010
   6 C :   -0.011621
   7 H :    0.015888
   8 H :    0.018638
   9 C :   -0.014501
  10 H :    0.012720
  11 H :    0.005925
  12 C :    0.054785
  13 C :   -0.225764
  14 H :    0.025477
  15 H :    0.019100
  16 H :   -0.031348
  17 H :   -0.029237
  18 H :    0.095039
  19 O :   -0.225917
  20 O :   -0.216583
  21 H :    0.018362
  22 H :   -0.007948
  23 H :    0.005843
  24 H :    0.023134

  Mayer bond orders larger than 0.100000
B(  0-C ,  1-H ) :   0.5556 B(  0-C ,  2-N ) :   0.7332 B(  0-C ,  3-C ) :   1.1001
B(  0-C ,  4-H ) :   0.6276 B(  0-C ,  5-C ) :   0.1065 B(  1-H ,  2-N ) :   0.1217
B(  1-H ,  3-C ) :   0.2902 B(  1-H ,  4-H ) :  -0.1884 B(  2-N ,  4-H ) :   0.2685
B(  2-N , 13-C ) :   0.1172 B(  2-N , 16-H ) :   0.8280 B(  2-N , 17-H ) :   0.9298
B(  2-N , 18-H ) :   0.7766 B(  3-C ,  5-C ) :   1.1332 B(  3-C , 21-H ) :   0.2754
B(  3-C , 22-H ) :   0.1770 B(  3-C , 23-H ) :   0.8005 B(  3-C , 24-H ) :   0.6969
B(  5-C ,  6-C ) :   1.1957 B(  5-C ,  7-H ) :   0.1974 B(  5-C ,  8-H ) :   0.2860
B(  5-C ,  9-C ) :   0.1527 B(  5-C , 21-H ) :   0.5998 B(  5-C , 22-H ) :   0.6436
B(  5-C , 23-H ) :   0.1501 B(  5-C , 24-H ) :   0.2011 B(  6-C ,  7-H ) :   0.6805
B(  6-C ,  8-H ) :   0.5175 B(  6-C ,  9-C ) :   1.2079 B(  6-C , 10-H ) :   0.1933
B(  6-C , 11-H ) :   0.1307 B(  6-C , 21-H ) :   0.1508 B(  6-C , 22-H ) :   0.1316
B(  7-H ,  8-H ) :  -0.1313 B(  7-H ,  9-C ) :   0.2064 B(  7-H , 15-H ) :  -0.1072
B(  8-H ,  9-C ) :   0.2040 B(  9-C , 10-H ) :   0.7172 B(  9-C , 11-H ) :   0.7375
B(  9-C , 12-C ) :   1.2152 B(  9-C , 13-C ) :   0.1296 B(  9-C , 14-H ) :   0.2262
B(  9-C , 15-H ) :   0.1494 B( 10-H , 11-H ) :  -0.1721 B( 10-H , 12-C ) :   0.1520
B( 11-H , 12-C ) :   0.1270 B( 12-C , 13-C ) :   1.1140 B( 12-C , 14-H ) :   0.5807
B( 12-C , 15-H ) :   0.7214 B( 13-C , 14-H ) :   0.2146 B( 13-C , 15-H ) :   0.3326
B( 13-C , 19-O ) :   1.5323 B( 13-C , 20-O ) :   1.4498 B( 14-H , 15-H ) :  -0.1277
B( 16-H , 20-O ) :   0.2342 B( 17-H , 19-O ) :   0.2342 B( 19-O , 20-O ) :   0.1205

Dispersion correction           -0.053750184
FINAL SINGLE POINT ENERGY      -480.514853525737

DIPOLE MOMENT
-------------
                                X             Y             Z
Electronic contribution:      2.29518      -3.07611      -6.29723
Nuclear contribution   :     -2.02598       1.95876       8.24116
                        -----------------------------------------
Total Dipole Moment    :      0.26920      -1.11734       1.94393
                        -----------------------------------------
Magnitude (a.u.)       :      2.25827
Magnitude (Debye)      :      5.74006

Rotational constants in cm-1:     0.052900     0.041948     0.028766
Rotational constants in MHz :  1585.892512  1257.572595   862.390225

                             ****ORCA TERMINATED NORMALLY****
TOTAL RUN TIME: 0 days 0 hours 0 minutes 31 seconds 519 msec
