                         Program Version 5.0.0 -  RELEASE  -
|  1> !BLYP D3BJ RIJCOSX def2-SVPD def2/J TightSCF
|  2> *xyz 0 1
|  3> C         -0.98480        1.28474       -2.92869
|  4> C         -0.10608        1.76991       -4.08984
|  5> H         -0.34774        2.82220       -4.26294
|  6> H          0.94968        1.74588       -3.80878
|  7> C         -0.25875        1.00432       -5.40983
|  8> C          0.39596       -0.37070       -5.33994
|  9> H          0.23915        1.56939       -6.20125
| 10> H         -1.30936        0.88869       -5.68245
| 11> F         -0.32633       -1.39040       -5.49128
| 12> O          1.61941       -0.40073       -5.03683
| 13> H         -2.01317        1.31546       -3.22263
| 14> H         -0.83724        1.91975       -2.08023
| 15> H         -0.71656        0.28077       -2.67373
| 16> *
| 17> %MaxCore 64000
| 18>
| 19> %pal nprocs 4
| 20> end
| 21>
| 22> %scf
| 23>   MaxIter 150
| 24> end
| 25>
| 26>
| 27>                          ****END OF INPUT****

CARTESIAN COORDINATES (ANGSTROEM)
---------------------------------
  C     -0.984800    1.284740   -2.928690
  C     -0.106080    1.769910   -4.089840
  H     -0.347740    2.822200   -4.262940
  H      0.949680    1.745880   -3.808780
  C     -0.258750    1.004320   -5.409830
  C      0.395960   -0.370700   -5.339940
  H      0.239150    1.569390   -6.201250
  H     -1.309360    0.888690   -5.682450
  F     -0.326330   -1.390400   -5.491280
  O      1.619410   -0.400730   -5.036830
  H     -2.013170    1.315460   -3.222630
  H     -0.837240    1.919750   -2.080230
  H     -0.716560    0.280770   -2.673730

 Total Charge           Charge          ....    0
 Multiplicity           Mult            ....    1
 Number of Electrons    NEL             ....   48
 Basis Dimension        Dim             ....  182

ORBITAL ENERGIES
----------------

  NO   OCC          E(Eh)            E(eV)
   0   2.0000     -24.374530      -663.2647
   1   2.0000     -18.797956      -511.5184
   2   2.0000     -10.096012      -274.7265
   3   2.0000      -9.953543      -270.8497
   4   2.0000      -9.937215      -270.4054
   5   2.0000      -9.919721      -269.9293
   6   2.0000      -1.194829       -32.5129
   7   2.0000      -0.929270       -25.2867
   8   2.0000      -0.727966       -19.8090
   9   2.0000      -0.651977       -17.7412
  10   2.0000      -0.591319       -16.0906
  11   2.0000      -0.543054       -14.7773
  12   2.0000      -0.487075       -13.2540
  13   2.0000      -0.470160       -12.7937
  14   2.0000      -0.446668       -12.1544
  15   2.0000      -0.411595       -11.2001
  16   2.0000      -0.401780       -10.9330
  17   2.0000      -0.373909       -10.1746
  18   2.0000      -0.350740        -9.5441
  19   2.0000      -0.333680        -9.0799
  20   2.0000      -0.311294        -8.4708
  21   2.0000      -0.305062        -8.3012
  22   2.0000      -0.300978        -8.1900
  23   2.0000      -0.244085        -6.6419
  24   0.0000      -0.070989        -1.9317
  25   0.0000      -0.005053        -0.1375
  26   0.0000       0.023042         0.6270
  27   0.0000       0.030061         0.8180
  28   0.0000       0.037717         1.0263

MULLIKEN ATOMIC CHARGES
-----------------------
   0 C :    1.093067
   1 C :   -0.137093
   2 H :   -0.251728
   3 H :   -0.149749
   4 C :    0.355696
   5 C :    0.575655
   6 H :   -0.113043
   7 H :   -0.131734
   8 F :   -0.300663
   9 O :   -0.415346
  10 H :   -0.118731
  11 H :   -0.201167
  12 H :   -0.205163
Sum of atomic charges:    0.0000000

LOEWDIN ATOMIC CHARGES
----------------------
   0 C :    0.148108
   1 C :   -0.052012
   2 H :    0.017428
   3 H :    0.019472
   4 C :    0.050884
   5 C :   -0.039272
   6 H :    0.035119
   7 H :    0.018448
   8 F :   -0.016121
   9 O :   -0.117442
  10 H :   -0.022122
  11 H :   -0.020160
  12 H :   -0.022331

  Mayer bond orders larger than 0.100000
B(  0-C ,  1-C ) :   1.3196 B(  0-C ,  2-H ) :   0.1168 B(  0-C , 10-H ) :   0.6867
B(  0-C , 11-H ) :   0.6521 B(  0-C , 12-H ) :   0.7299 B(  1-C ,  2-H ) :   0.8461
B(  1-C ,  3-H ) :   0.8458 B(  1-C ,  4-C ) :   1.2648 B(  1-C ,  6-H ) :   0.1748
B(  1-C ,  7-H ) :   0.1559 B(  1-C , 10-H ) :   0.2643 B(  1-C , 11-H ) :   0.2754
B(  1-C , 12-H ) :   0.2572 B(  2-H ,  4-C ) :   0.1320 B(  3-H ,  4-C ) :   0.1461
B(  4-C ,  5-C ) :   1.0508 B(  4-C ,  6-H ) :   0.7495 B(  4-C ,  7-H ) :   0.8329
B(  5-C ,  6-H ) :   0.1057 B(  5-C ,  7-H ) :   0.1340 B(  5-C ,  8-F ) :   0.8080
B(  5-C ,  9-O ) :   1.8691 B(  8-F ,  9-O ) :   0.1322

Dispersion correction           -0.019141999
FINAL SINGLE POINT ENERGY      -331.392591661505

DIPOLE MOMENT
-------------
                                X             Y             Z
Electronic contribution:      2.79171      -9.10353      -5.66769
Nuclear contribution   :     -3.72230       9.78546       5.57872
                        -----------------------------------------
Total Dipole Moment    :     -0.93059       0.68193      -0.08896
                        -----------------------------------------
Magnitude (a.u.)       :      1.15712
Magnitude (Debye)      :      2.94117

Rotational constants in cm-1:     0.192703     0.076176     0.069525
Rotational constants in MHz :  5777.081080  2283.698999  2084.312921

                             ****ORCA TERMINATED NORMALLY****
TOTAL RUN TIME: 0 days 0 hours 0 minutes 6 seconds 352 msec
