                         Program Version 5.0.0 -  RELEASE  -
|  1> !BLYP D3BJ RIJCOSX def2-SVPD def2/J TightSCF
|  2> *xyz 0 1
|  3> C          0.81607       -2.10149       -2.18655
|  4> H          1.69623       -2.36869       -1.60046
|  5> C          1.10055       -2.46749       -3.59927
|  6> C          0.51624       -0.61363       -2.03937
|  7> H         -0.02007       -2.71285       -1.84084
|  8> C         -0.86862       -0.19392       -2.54630
|  9> H          1.70061       -1.75723       -4.07838
| 10> H          0.29386       -2.35977       -4.25632
| 11> H          1.50132       -3.42848       -3.69491
| 12> H          1.29904       -0.05680       -2.55898
| 13> H          0.61239       -0.36558       -0.97917
| 14> H         -0.95781       -0.43872       -3.58410
| 15> H         -0.99113        0.86113       -2.41690
| 16> H         -1.62334       -0.71130       -1.99167
| 17> *
| 18> %MaxCore 64000
| 19>
| 20> %pal nprocs 4
| 21> end
| 22>
| 23> %scf
| 24>   MaxIter 150
| 25> end
| 26>
| 27>
| 28>                          ****END OF INPUT****

CARTESIAN COORDINATES (ANGSTROEM)
---------------------------------
  C      0.816070   -2.101490   -2.186550
  H      1.696230   -2.368690   -1.600460
  C      1.100550   -2.467490   -3.599270
  C      0.516240   -0.613630   -2.039370
  H     -0.020070   -2.712850   -1.840840
  C     -0.868620   -0.193920   -2.546300
  H      1.700610   -1.757230   -4.078380
  H      0.293860   -2.359770   -4.256320
  H      1.501320   -3.428480   -3.694910
  H      1.299040   -0.056800   -2.558980
  H      0.612390   -0.365580   -0.979170
  H     -0.957810   -0.438720   -3.584100
  H     -0.991130    0.861130   -2.416900
  H     -1.623340   -0.711300   -1.991670

 Total Charge           Charge          ....    0
 Multiplicity           Mult            ....    1
 Number of Electrons    NEL             ....   34
 Basis Dimension        Dim             ....  160

ORBITAL ENERGIES
----------------

  NO   OCC          E(Eh)            E(eV)
   0   2.0000      -9.912002      -269.7193
   1   2.0000      -9.909601      -269.6540
   2   2.0000      -9.904224      -269.5076
   3   2.0000      -9.891215      -269.1537
   4   2.0000      -0.714250       -19.4357
   5   2.0000      -0.646155       -17.5828
   6   2.0000      -0.569349       -15.4928
   7   2.0000      -0.503988       -13.7142
   8   2.0000      -0.409484       -11.1426
   9   2.0000      -0.403965       -10.9924
  10   2.0000      -0.372464       -10.1352
  11   2.0000      -0.346617        -9.4319
  12   2.0000      -0.337352        -9.1798
  13   2.0000      -0.309729        -8.4282
  14   2.0000      -0.284666        -7.7462
  15   2.0000      -0.279347        -7.6014
  16   2.0000      -0.272219        -7.4075
  17   0.0000       0.006987         0.1901
  18   0.0000       0.033623         0.9149
  19   0.0000       0.034094         0.9278
  20   0.0000       0.041036         1.1166
  21   0.0000       0.076941         2.0937

MULLIKEN ATOMIC CHARGES
-----------------------
   0 C :    0.118831
   1 H :   -0.248055
   2 C :    1.297098
   3 C :   -0.061350
   4 H :   -0.200961
   5 C :    1.154629
   6 H :   -0.254069
   7 H :   -0.421682
   8 H :   -0.338302
   9 H :   -0.148711
  10 H :   -0.294452
  11 H :   -0.288964
  12 H :   -0.194557
  13 H :   -0.119454
Sum of atomic charges:    0.0000000

LOEWDIN ATOMIC CHARGES
----------------------
   0 C :   -0.069066
   1 H :    0.016321
   2 C :    0.121958
   3 C :   -0.069997
   4 H :    0.019141
   5 C :    0.142998
   6 H :   -0.034330
   7 H :   -0.040755
   8 H :   -0.027593
   9 H :    0.012929
  10 H :    0.009107
  11 H :   -0.032055
  12 H :   -0.025890
  13 H :   -0.022766

  Mayer bond orders larger than 0.100000
B(  0-C ,  1-H ) :   0.8117 B(  0-C ,  2-C ) :   1.2376 B(  0-C ,  3-C ) :   1.2048
B(  0-C ,  4-H ) :   0.8102 B(  0-C ,  6-H ) :   0.2486 B(  0-C ,  7-H ) :   0.2523
B(  0-C ,  8-H ) :   0.2831 B(  0-C ,  9-H ) :   0.1328 B(  0-C , 10-H ) :   0.1756
B(  1-H ,  2-C ) :   0.1211 B(  1-H ,  3-C ) :   0.1076 B(  2-C ,  3-C ) :   0.1043
B(  2-C ,  4-H ) :   0.1545 B(  2-C ,  6-H ) :   0.5272 B(  2-C ,  7-H ) :   0.4981
B(  2-C ,  8-H ) :   0.5911 B(  3-C ,  4-H ) :   0.1257 B(  3-C ,  5-C ) :   1.2523
B(  3-C ,  9-H ) :   0.8257 B(  3-C , 10-H ) :   0.8666 B(  3-C , 11-H ) :   0.2586
B(  3-C , 12-H ) :   0.2684 B(  3-C , 13-H ) :   0.2579 B(  5-C ,  9-H ) :   0.1104
B(  5-C , 11-H ) :   0.7108 B(  5-C , 12-H ) :   0.6446 B(  5-C , 13-H ) :   0.6956
B(  6-H ,  7-H ) :   0.4016

Dispersion correction           -0.018870526
FINAL SINGLE POINT ENERGY      -158.230352557841

DIPOLE MOMENT
-------------
                                X             Y             Z
Electronic contribution:      0.32155      -0.06877       0.83381
Nuclear contribution   :     -0.30980       0.07990      -0.83209
                        -----------------------------------------
Total Dipole Moment    :      0.01175       0.01114       0.00172
                        -----------------------------------------
Magnitude (a.u.)       :      0.01628
Magnitude (Debye)      :      0.04137

Rotational constants in cm-1:     0.470198     0.157622     0.138278
Rotational constants in MHz : 14096.185772  4725.380109  4145.481686

                             ****ORCA TERMINATED NORMALLY****
TOTAL RUN TIME: 0 days 0 hours 0 minutes 4 seconds 970 msec
