                         Program Version 5.0.0 -  RELEASE  -
|  1> !BLYP D3BJ RIJCOSX def2-SVPD def2/J TightSCF
|  2> *xyz 0 1
|  3> C         -0.98480        1.28474       -2.92869
|  4> C         -0.10608        1.76991       -4.08984
|  5> H         -0.34774        2.82220       -4.26294
|  6> H          0.94968        1.74588       -3.80878
|  7> C         -0.25875        1.00432       -5.40983
|  8> C          0.39596       -0.37070       -5.33994
|  9> H          0.23915        1.56939       -6.20125
| 10> H         -1.30936        0.88869       -5.68245
| 11> O         -0.32633       -1.39040       -5.49128
| 12> F          1.61941       -0.40073       -5.03683
| 13> H         -2.01317        1.31546       -3.22263
| 14> H         -0.83724        1.91975       -2.08023
| 15> H         -0.71656        0.28077       -2.67373
| 16> *
| 17> %MaxCore 64000
| 18>
| 19> %pal nprocs 4
| 20> end
| 21>
| 22> %scf
| 23>   MaxIter 150
| 24> end
| 25>
| 26>
| 27>                          ****END OF INPUT****

CARTESIAN COORDINATES (ANGSTROEM)
---------------------------------
  C     -0.984800    1.284740   -2.928690
  C     -0.106080    1.769910   -4.089840
  H     -0.347740    2.822200   -4.262940
  H      0.949680    1.745880   -3.808780
  C     -0.258750    1.004320   -5.409830
  C      0.395960   -0.370700   -5.339940
  H      0.239150    1.569390   -6.201250
  H     -1.309360    0.888690   -5.682450
  O     -0.326330   -1.390400   -5.491280
  F      1.619410   -0.400730   -5.036830
  H     -2.013170    1.315460   -3.222630
  H     -0.837240    1.919750   -2.080230
  H     -0.716560    0.280770   -2.673730

 Total Charge           Charge          ....    0
 Multiplicity           Mult            ....    1
 Number of Electrons    NEL             ....   48
 Basis Dimension        Dim             ....  182

ORBITAL ENERGIES
----------------

  NO   OCC          E(Eh)            E(eV)
   0   2.0000     -24.373537      -663.2377
   1   2.0000     -18.798191      -511.5248
   2   2.0000     -10.095114      -274.7020
   3   2.0000      -9.953240      -270.8414
   4   2.0000      -9.942181      -270.5405
   5   2.0000      -9.920501      -269.9506
   6   2.0000      -1.193686       -32.4818
   7   2.0000      -0.928820       -25.2745
   8   2.0000      -0.731946       -19.9173
   9   2.0000      -0.652366       -17.7518
  10   2.0000      -0.588367       -16.0103
  11   2.0000      -0.546853       -14.8806
  12   2.0000      -0.489027       -13.3071
  13   2.0000      -0.475858       -12.9488
  14   2.0000      -0.434536       -11.8243
  15   2.0000      -0.413126       -11.2417
  16   2.0000      -0.406615       -11.0646
  17   2.0000      -0.373461       -10.1624
  18   2.0000      -0.348455        -9.4820
  19   2.0000      -0.333115        -9.0645
  20   2.0000      -0.317019        -8.6265
  21   2.0000      -0.313741        -8.5373
  22   2.0000      -0.304474        -8.2852
  23   2.0000      -0.239545        -6.5184
  24   0.0000      -0.067618        -1.8400
  25   0.0000      -0.007731        -0.2104
  26   0.0000       0.023541         0.6406
  27   0.0000       0.032342         0.8801
  28   0.0000       0.033241         0.9045

MULLIKEN ATOMIC CHARGES
-----------------------
   0 C :    1.093081
   1 C :   -0.154015
   2 H :   -0.258171
   3 H :   -0.163792
   4 C :    0.382331
   5 C :    0.584388
   6 H :   -0.117822
   7 H :   -0.149311
   8 O :   -0.367434
   9 F :   -0.336778
  10 H :   -0.118474
  11 H :   -0.193014
  12 H :   -0.200988
Sum of atomic charges:   -0.0000000

LOEWDIN ATOMIC CHARGES
----------------------
   0 C :    0.150781
   1 C :   -0.058839
   2 H :    0.016521
   3 H :    0.014690
   4 C :    0.054600
   5 C :   -0.044946
   6 H :    0.029863
   7 H :    0.030840
   8 O :   -0.115610
   9 F :   -0.017867
  10 H :   -0.018180
  11 H :   -0.020751
  12 H :   -0.021101

  Mayer bond orders larger than 0.100000
B(  0-C ,  1-C ) :   1.3234 B(  0-C ,  2-H ) :   0.1151 B(  0-C , 10-H ) :   0.6908
B(  0-C , 11-H ) :   0.6558 B(  0-C , 12-H ) :   0.7300 B(  1-C ,  2-H ) :   0.8672
B(  1-C ,  3-H ) :   0.8281 B(  1-C ,  4-C ) :   1.2486 B(  1-C ,  6-H ) :   0.1709
B(  1-C ,  7-H ) :   0.1398 B(  1-C , 10-H ) :   0.2669 B(  1-C , 11-H ) :   0.2744
B(  1-C , 12-H ) :   0.2601 B(  2-H ,  4-C ) :   0.1248 B(  3-H ,  4-C ) :   0.1390
B(  4-C ,  5-C ) :   1.0131 B(  4-C ,  6-H ) :   0.7525 B(  4-C ,  7-H ) :   0.8507
B(  5-C ,  7-H ) :   0.1779 B(  5-C ,  8-O ) :   1.8808 B(  5-C ,  9-F ) :   0.7780
B(  8-O ,  9-F ) :   0.1365

Dispersion correction           -0.019066040
FINAL SINGLE POINT ENERGY      -331.393583468023

DIPOLE MOMENT
-------------
                                X             Y             Z
Electronic contribution:      6.04343      -7.41639      -4.89429
Nuclear contribution   :     -5.92016       8.66755       5.06539
                        -----------------------------------------
Total Dipole Moment    :      0.12327       1.25117       0.17110
                        -----------------------------------------
Magnitude (a.u.)       :      1.26882
Magnitude (Debye)      :      3.22507

Rotational constants in cm-1:     0.191324     0.076691     0.070269
Rotational constants in MHz :  5735.753800  2299.148675  2106.608556

                             ****ORCA TERMINATED NORMALLY****
TOTAL RUN TIME: 0 days 0 hours 0 minutes 6 seconds 503 msec
