                         Program Version 5.0.0 -  RELEASE  -
|  1> !LC-PBE RIJCOSX def2-TZVPD def2/J TightSCF
|  2> *xyz -1 1
|  3> C          0.61188        1.65763       -4.50029
|  4> C          1.69499        1.54179       -5.57045
|  5> H          2.69733        1.73466       -5.18400
|  6> H          1.50666        2.27224       -6.35808
|  7> S          1.78029       -0.03313       -6.42874
|  8> O          2.56929        0.21366       -7.60736
|  9> O          0.41688       -0.46297       -6.61859
| 10> O          2.50513       -0.93326       -5.48257
| 11> H         -0.34424        1.45871       -4.93752
| 12> H          0.61845        2.64655       -4.09174
| 13> H          0.80247        0.94882       -3.72173
| 14> *
| 15> %MaxCore 64000
| 16>
| 17> %pal nprocs 4
| 18> end
| 19>
| 20> %scf
| 21>   MaxIter 150
| 22> end
| 23>
| 24>
| 25>                          ****END OF INPUT****

CARTESIAN COORDINATES (ANGSTROEM)
---------------------------------
  C      0.611880    1.657630   -4.500290
  C      1.694990    1.541790   -5.570450
  H      2.697330    1.734660   -5.184000
  H      1.506660    2.272240   -6.358080
  S      1.780290   -0.033130   -6.428740
  O      2.569290    0.213660   -7.607360
  O      0.416880   -0.462970   -6.618590
  O      2.505130   -0.933260   -5.482570
  H     -0.344240    1.458710   -4.937520
  H      0.618450    2.646550   -4.091740
  H      0.802470    0.948820   -3.721730

 Total Charge           Charge          ....   -1
 Multiplicity           Mult            ....    1
 Number of Electrons    NEL             ....   58
 Basis Dimension        Dim             ....  285

ORBITAL ENERGIES
----------------

  NO   OCC          E(Eh)            E(eV)
   0   2.0000     -88.270695     -2401.9677
   1   2.0000     -18.760552      -510.5006
   2   2.0000     -18.759956      -510.4843
   3   2.0000     -18.740372      -509.9514
   4   2.0000      -9.979419      -271.5538
   5   2.0000      -9.970370      -271.3076
   6   2.0000      -7.881667      -214.4711
   7   2.0000      -5.898543      -160.5075
   8   2.0000      -5.897136      -160.4692
   9   2.0000      -5.896700      -160.4574
  10   2.0000      -1.101121       -29.9630
  11   2.0000      -0.961115       -26.1533
  12   2.0000      -0.927441       -25.2370
  13   2.0000      -0.812437       -22.1075
  14   2.0000      -0.674724       -18.3602
  15   2.0000      -0.534118       -14.5341
  16   2.0000      -0.467143       -12.7116
  17   2.0000      -0.465254       -12.6602
  18   2.0000      -0.422532       -11.4977
  19   2.0000      -0.407942       -11.1007
  20   2.0000      -0.397840       -10.8258
  21   2.0000      -0.365979        -9.9588
  22   2.0000      -0.347077        -9.4444
  23   2.0000      -0.295301        -8.0355
  24   2.0000      -0.292628        -7.9628
  25   2.0000      -0.256278        -6.9737
  26   2.0000      -0.242009        -6.5854
  27   2.0000      -0.229364        -6.2413
  28   2.0000      -0.196611        -5.3500
  29   0.0000       0.170782         4.6472
  30   0.0000       0.181067         4.9271
  31   0.0000       0.182420         4.9639
  32   0.0000       0.190818         5.1924
  33   0.0000       0.216544         5.8925

MULLIKEN ATOMIC CHARGES
-----------------------
   0 C :   -1.153475
   1 C :   -0.640398
   2 H :    0.368482
   3 H :    0.372883
   4 S :    1.071148
   5 O :   -0.665344
   6 O :   -0.673474
   7 O :   -0.728804
   8 H :    0.353754
   9 H :    0.373772
  10 H :    0.321454
Sum of atomic charges:   -1.0000000

LOEWDIN ATOMIC CHARGES
----------------------
   0 C :   -0.166250
   1 C :   -0.346461
   2 H :    0.095324
   3 H :    0.089807
   4 S :    0.322802
   5 O :   -0.384354
   6 O :   -0.378537
   7 O :   -0.428615
   8 H :    0.065206
   9 H :    0.058650
  10 H :    0.072427

  Mayer bond orders larger than 0.100000
B(  0-C ,  1-C ) :   0.5808 B(  0-C ,  8-H ) :   0.9421 B(  0-C ,  9-H ) :   0.8979
B(  0-C , 10-H ) :   0.9669 B(  1-C ,  2-H ) :   0.9118 B(  1-C ,  3-H ) :   0.9047
B(  1-C ,  4-S ) :   0.9277 B(  1-C ,  5-O ) :   0.1153 B(  1-C ,  7-O ) :   0.1125
B(  4-S ,  5-O ) :   1.5209 B(  4-S ,  6-O ) :   1.5103 B(  4-S ,  7-O ) :   1.4581

FINAL SINGLE POINT ENERGY      -702.105848200168

DIPOLE MOMENT
-------------
                                X             Y             Z
Electronic contribution:      2.21600      -5.54110      -4.95802
Nuclear contribution   :     -2.69163       7.29476       5.86550
                        -----------------------------------------
Total Dipole Moment    :     -0.47563       1.75366       0.90748
                        -----------------------------------------
Magnitude (a.u.)       :      2.03103
Magnitude (Debye)      :      5.16246

Rotational constants in cm-1:     0.163060     0.082831     0.081111
Rotational constants in MHz :  4888.419330  2483.225008  2431.646841

                             ****ORCA TERMINATED NORMALLY****
TOTAL RUN TIME: 0 days 0 hours 0 minutes 39 seconds 491 msec
