                         Program Version 5.0.0 -  RELEASE  -
|  1> !LC-PBE RIJCOSX def2-TZVPD def2/J TightSCF
|  2> *xyz 1 1
|  3> C          1.96337       -1.74915       -1.89689
|  4> N          2.73849       -2.01517       -3.09711
|  5> C          4.04974       -2.15472       -3.15204
|  6> N          4.65821       -1.98629       -4.31866
|  7> N          4.76423       -2.45444       -2.05049
|  8> H          4.28736       -2.77626       -1.21750
|  9> H          5.75082       -2.65835       -2.12599
| 10> H          2.34518       -1.69027       -3.97145
| 11> H          4.10900       -1.59268       -5.07176
| 12> H          5.64910       -2.15646       -4.42724
| 13> C          2.08852       -0.30091       -1.41520
| 14> H          2.23127       -2.45162       -1.10264
| 15> H          0.93025       -1.97780       -2.15544
| 16> H          1.82118        0.36368       -2.21003
| 17> H          3.09792       -0.11068       -1.11551
| 18> H          1.43391       -0.14382       -0.58352
| 19> *
| 20> %MaxCore 64000
| 21>
| 22> %pal nprocs 4
| 23> end
| 24>
| 25> %scf
| 26>   MaxIter 150
| 27> end
| 28>
| 29>
| 30>                          ****END OF INPUT****

CARTESIAN COORDINATES (ANGSTROEM)
---------------------------------
  C      1.963370   -1.749150   -1.896890
  N      2.738490   -2.015170   -3.097110
  C      4.049740   -2.154720   -3.152040
  N      4.658210   -1.986290   -4.318660
  N      4.764230   -2.454440   -2.050490
  H      4.287360   -2.776260   -1.217500
  H      5.750820   -2.658350   -2.125990
  H      2.345180   -1.690270   -3.971450
  H      4.109000   -1.592680   -5.071760
  H      5.649100   -2.156460   -4.427240
  C      2.088520   -0.300910   -1.415200
  H      2.231270   -2.451620   -1.102640
  H      0.930250   -1.977800   -2.155440
  H      1.821180    0.363680   -2.210030
  H      3.097920   -0.110680   -1.115510
  H      1.433910   -0.143820   -0.583520

 Total Charge           Charge          ....    1
 Multiplicity           Mult            ....    1
 Number of Electrons    NEL             ....   48
 Basis Dimension        Dim             ....  312

ORBITAL ENERGIES
----------------

  NO   OCC          E(Eh)            E(eV)
   0   2.0000     -14.440542      -392.9471
   1   2.0000     -14.439750      -392.9256
   2   2.0000     -14.437372      -392.8609
   3   2.0000     -10.460139      -284.6349
   4   2.0000     -10.322970      -280.9023
   5   2.0000     -10.247707      -278.8543
   6   2.0000      -1.399004       -38.0688
   7   2.0000      -1.278739       -34.7963
   8   2.0000      -1.263553       -34.3830
   9   2.0000      -1.104288       -30.0492
  10   2.0000      -1.002505       -27.2795
  11   2.0000      -0.963925       -26.2297
  12   2.0000      -0.936749       -25.4902
  13   2.0000      -0.895260       -24.3613
  14   2.0000      -0.837276       -22.7834
  15   2.0000      -0.827041       -22.5049
  16   2.0000      -0.806718       -21.9519
  17   2.0000      -0.773088       -21.0368
  18   2.0000      -0.742235       -20.1972
  19   2.0000      -0.704013       -19.1572
  20   2.0000      -0.665197       -18.1009
  21   2.0000      -0.641991       -17.4694
  22   2.0000      -0.611851       -16.6493
  23   2.0000      -0.578279       -15.7358
  24   0.0000      -0.090197        -2.4544
  25   0.0000      -0.081150        -2.2082
  26   0.0000      -0.059174        -1.6102
  27   0.0000      -0.052045        -1.4162
  28   0.0000      -0.024558        -0.6682

MULLIKEN ATOMIC CHARGES
-----------------------
   0 C :   -0.702947
   1 N :   -0.253429
   2 C :    0.866698
   3 N :   -0.424075
   4 N :   -0.401012
   5 H :    0.237741
   6 H :    0.223543
   7 H :    0.206411
   8 H :    0.226201
   9 H :    0.226297
  10 C :   -1.140983
  11 H :    0.404098
  12 H :    0.386339
  13 H :    0.373075
  14 H :    0.346002
  15 H :    0.426041
Sum of atomic charges:    1.0000000

LOEWDIN ATOMIC CHARGES
----------------------
   0 C :   -0.221955
   1 N :    0.074169
   2 C :   -0.440820
   3 N :    0.200691
   4 N :    0.208921
   5 H :    0.133544
   6 H :    0.142467
   7 H :    0.170926
   8 H :    0.145330
   9 H :    0.147861
  10 C :   -0.079597
  11 H :    0.126927
  12 H :    0.137641
  13 H :    0.085382
  14 H :    0.078451
  15 H :    0.090062

  Mayer bond orders larger than 0.100000
B(  0-C ,  1-N ) :   0.7761 B(  0-C ,  2-C ) :  -0.1396 B(  0-C , 10-C ) :   0.6503
B(  0-C , 11-H ) :   0.8653 B(  0-C , 12-H ) :   0.8855 B(  1-N ,  2-C ) :   1.1696
B(  1-N ,  7-H ) :   1.0349 B(  2-C ,  3-N ) :   0.9600 B(  2-C ,  4-N ) :   1.0581
B(  3-N ,  8-H ) :   0.9883 B(  3-N ,  9-H ) :   1.0208 B(  4-N ,  5-H ) :   0.9435
B(  4-N ,  6-H ) :   1.0198 B( 10-C , 13-H ) :   0.9373 B( 10-C , 14-H ) :   0.9143
B( 10-C , 15-H ) :   0.9017

FINAL SINGLE POINT ENERGY      -283.602048035515

DIPOLE MOMENT
-------------
                                X             Y             Z
Electronic contribution:      3.02083      -2.71003      -3.09603
Nuclear contribution   :     -2.17768       2.37118       2.44574
                        -----------------------------------------
Total Dipole Moment    :      0.84315      -0.33885      -0.65029
                        -----------------------------------------
Magnitude (a.u.)       :      1.11740
Magnitude (Debye)      :      2.84022

Rotational constants in cm-1:     0.215650     0.075183     0.066454
Rotational constants in MHz :  6465.033740  2253.919004  1992.232519

                             ****ORCA TERMINATED NORMALLY****
TOTAL RUN TIME: 0 days 0 hours 0 minutes 56 seconds 128 msec
