                         Program Version 5.0.0 -  RELEASE  -
|  1> !LC-PBE RIJCOSX def2-TZVPD def2/J TightSCF xyzfile
|  2>
|  3> *xyzfile 0 1 B.xyz
|  4>
|  5> %MaxCore 64000
|  6>
|  7> %pal nprocs 4
|  8> end
|  9>
| 10> %scf
| 11>   MaxIter 150
| 12> end
| 13>
| 14>
| 15>                          ****END OF INPUT****

CARTESIAN COORDINATES (ANGSTROEM)
---------------------------------
  C      1.963365   -1.749150   -1.896887
  N      2.738490   -2.015170   -3.097113
  C      0.611877    1.657634   -4.500288
  C      1.694991    1.541794   -5.570447
  H      2.697326    1.734659   -5.183996
  H      1.506656    2.272239   -6.358076
  S      1.780287   -0.033128   -6.428739
  C      4.049736   -2.154717   -3.152044
  N      4.658206   -1.986293   -4.318655
  N      4.764231   -2.454435   -2.050491
  H      4.287363   -2.776259   -1.217496
  H      5.750825   -2.658351   -2.125988
  H      2.345176   -1.690274   -3.971447
  H      4.109004   -1.592677   -5.071760
  H      5.649095   -2.156462   -4.427237
  O      2.569287    0.213657   -7.607360
  O      0.416880   -0.462969   -6.618595
  C      2.088520   -0.300912   -1.415204
  H      2.231272   -2.451616   -1.102643
  H      0.930249   -1.977801   -2.155438
  C      0.680356    0.655418   -3.348038
  H     -0.356865    1.549231   -4.991128
  H      0.650228    2.675438   -4.096000
  C      1.968993    0.733582   -2.535654
  H      3.051356   -0.168602   -0.911868
  H      1.316501   -0.136231   -0.657252
  O      2.505129   -0.933263   -5.482570
  H      2.824195    0.624726   -3.208464
  H      2.058919    1.730331   -2.093112
  H      0.542252   -0.344731   -3.766662
  H     -0.174219    0.829692   -2.685182

 Total Charge           Charge          ....    0
 Multiplicity           Mult            ....    1
 Number of Electrons    NEL             ....  120
 Basis Dimension        Dim             ....  689

ORBITAL ENERGIES
----------------

  NO   OCC          E(Eh)            E(eV)
   0   2.0000     -88.418623     -2405.9931
   1   2.0000     -18.919295      -514.8202
   2   2.0000     -18.898199      -514.2461
   3   2.0000     -18.896984      -514.2131
   4   2.0000     -14.303256      -389.2114
   5   2.0000     -14.273817      -388.4103
   6   2.0000     -14.272253      -388.3678
   7   2.0000     -10.308503      -280.5086
   8   2.0000     -10.189285      -277.2645
   9   2.0000     -10.139082      -275.8984
  10   2.0000     -10.119375      -275.3622
  11   2.0000     -10.107554      -275.0405
  12   2.0000     -10.106595      -275.0144
  13   2.0000     -10.104326      -274.9527
  14   2.0000      -8.029889      -218.5044
  15   2.0000      -6.047048      -164.5485
  16   2.0000      -6.045711      -164.5121
  17   2.0000      -6.044203      -164.4711
  18   2.0000      -1.251754       -34.0620
  19   2.0000      -1.245566       -33.8936
  20   2.0000      -1.130605       -30.7653
  21   2.0000      -1.115438       -30.3526
  22   2.0000      -1.098566       -29.8935
  23   2.0000      -1.097461       -29.8634
  24   2.0000      -1.003632       -27.3102
  25   2.0000      -0.961527       -26.1645
  26   2.0000      -0.907676       -24.6991
  27   2.0000      -0.862898       -23.4807
  28   2.0000      -0.831930       -22.6380
  29   2.0000      -0.794455       -21.6182
  30   2.0000      -0.785504       -21.3747
  31   2.0000      -0.750544       -20.4233
  32   2.0000      -0.729009       -19.8373
  33   2.0000      -0.706023       -19.2119
  34   2.0000      -0.685306       -18.6481
  35   2.0000      -0.673336       -18.3224
  36   2.0000      -0.652568       -17.7573
  37   2.0000      -0.626942       -17.0600
  38   2.0000      -0.625348       -17.0166
  39   2.0000      -0.619201       -16.8493
  40   2.0000      -0.602881       -16.4052
  41   2.0000      -0.586215       -15.9517
  42   2.0000      -0.573327       -15.6010
  43   2.0000      -0.560302       -15.2466
  44   2.0000      -0.544417       -14.8143
  45   2.0000      -0.533186       -14.5087
  46   2.0000      -0.513372       -13.9696
  47   2.0000      -0.504672       -13.7328
  48   2.0000      -0.497104       -13.5269
  49   2.0000      -0.471572       -12.8321
  50   2.0000      -0.466855       -12.7038
  51   2.0000      -0.460598       -12.5335
  52   2.0000      -0.444927       -12.1071
  53   2.0000      -0.440723       -11.9927
  54   2.0000      -0.438370       -11.9287
  55   2.0000      -0.423782       -11.5317
  56   2.0000      -0.399609       -10.8739
  57   2.0000      -0.391142       -10.6435
  58   2.0000      -0.375943       -10.2299
  59   2.0000      -0.354367        -9.6428
  60   0.0000       0.022863         0.6221
  61   0.0000       0.048481         1.3192
  62   0.0000       0.053821         1.4646
  63   0.0000       0.069802         1.8994
  64   0.0000       0.075483         2.0540

MULLIKEN ATOMIC CHARGES
-----------------------
   0 C :   -1.162171
   1 N :   -0.179264
   2 C :   -0.869856
   3 C :   -0.856836
   4 H :    0.409620
   5 H :    0.424467
   6 S :    0.974476
   7 C :    0.826177
   8 N :   -0.354647
   9 N :   -0.413699
  10 H :    0.240239
  11 H :    0.203027
  12 H :    0.517768
  13 H :    0.360158
  14 H :    0.145570
  15 O :   -0.681353
  16 O :   -0.658929
  17 C :   -0.549301
  18 H :    0.474394
  19 H :    0.433332
  20 C :   -0.749178
  21 H :    0.404093
  22 H :    0.390373
  23 C :   -0.578515
  24 H :    0.339355
  25 H :    0.423584
  26 O :   -0.937686
  27 H :    0.309635
  28 H :    0.396124
  29 H :    0.359896
  30 H :    0.359146
Sum of atomic charges:   -0.0000000

LOEWDIN ATOMIC CHARGES
----------------------
   0 C :   -0.184510
   1 N :    0.087750
   2 C :   -0.244985
   3 C :   -0.265524
   4 H :    0.104107
   5 H :    0.109437
   6 S :    0.418174
   7 C :   -0.444838
   8 N :    0.198648
   9 N :    0.180659
  10 H :    0.119590
  11 H :    0.127701
  12 H :    0.087367
  13 H :    0.083465
  14 H :    0.137057
  15 O :   -0.330923
  16 O :   -0.320836
  17 C :   -0.198911
  18 H :    0.119439
  19 H :    0.134998
  20 C :   -0.231805
  21 H :    0.119685
  22 H :    0.121760
  23 C :   -0.225483
  24 H :    0.114847
  25 H :    0.124673
  26 O :   -0.415666
  27 H :    0.110526
  28 H :    0.128515
  29 H :    0.106826
  30 H :    0.128258

  Mayer bond orders larger than 0.100000
B(  0-C ,  1-N ) :   0.8652 B(  0-C ,  7-C ) :  -0.1974 B(  0-C ,  9-N ) :   0.1144
B(  0-C , 12-H ) :  -0.1635 B(  0-C , 17-C ) :   0.6437 B(  0-C , 18-H ) :   0.7856
B(  0-C , 19-H ) :   0.8848 B(  1-N ,  7-C ) :   1.2009 B(  1-N , 12-H ) :   0.7857
B(  1-N , 26-O ) :  -0.1142 B(  2-C ,  3-C ) :   0.7311 B(  2-C , 20-C ) :   0.9039
B(  2-C , 21-H ) :   0.9078 B(  2-C , 22-H ) :   0.8898 B(  3-C ,  4-H ) :   0.8485
B(  3-C ,  5-H ) :   0.8818 B(  3-C ,  6-S ) :   0.8645 B(  3-C , 15-O ) :   0.1469
B(  6-S , 15-O ) :   1.4515 B(  6-S , 16-O ) :   1.5151 B(  6-S , 26-O ) :   1.5511
B(  7-C ,  8-N ) :   0.9892 B(  7-C ,  9-N ) :   0.9649 B(  7-C , 14-H ) :  -0.1056
B(  8-N , 13-H ) :   0.8618 B(  8-N , 14-H ) :   1.1106 B(  9-N , 10-H ) :   0.9387
B(  9-N , 11-H ) :   1.0429 B( 12-H , 26-O ) :  -0.1145 B( 17-C , 23-C ) :   0.8090
B( 17-C , 24-H ) :   0.9183 B( 17-C , 25-H ) :   0.9141 B( 20-C , 23-C ) :   0.3663
B( 20-C , 29-H ) :   0.9419 B( 20-C , 30-H ) :   0.9062 B( 23-C , 27-H ) :   0.9847
B( 23-C , 28-H ) :   0.8761 B( 23-C , 29-H ) :  -0.1228

FINAL SINGLE POINT ENERGY     -1063.055912988299

DIPOLE MOMENT
-------------
                                X             Y             Z
Electronic contribution:      2.27558      -4.94562     -14.11910
Nuclear contribution   :      0.44641       3.59123      19.13564
                        -----------------------------------------
Total Dipole Moment    :      2.72200      -1.35439       5.01654
                        -----------------------------------------
Magnitude (a.u.)       :      5.86594
Magnitude (Debye)      :     14.91004

Rotational constants in cm-1:     0.029186     0.014646     0.011115
Rotational constants in MHz :   874.975540   439.070287   333.231642

                             ****ORCA TERMINATED NORMALLY****
TOTAL RUN TIME: 0 days 0 hours 7 minutes 26 seconds 315 msec
