                         Program Version 5.0.0 -  RELEASE  -
|  1> !LC-PBE RIJCOSX def2-TZVPD def2/J TightSCF
|  2> *xyz 0 1
|  3> C          0.61188        1.65763       -4.50029
|  4> C          1.69499        1.54179       -5.57045
|  5> H          2.69733        1.73466       -5.18400
|  6> H          1.50666        2.27224       -6.35808
|  7> S          1.78029       -0.03313       -6.42874
|  8> F          2.56929        0.21366       -7.60736
|  9> O          0.41688       -0.46297       -6.61859
| 10> O          2.50513       -0.93326       -5.48257
| 11> H         -0.34424        1.45871       -4.93752
| 12> H          0.61845        2.64655       -4.09174
| 13> H          0.80247        0.94882       -3.72173
| 14> *
| 15> %MaxCore 64000
| 16>
| 17> %pal nprocs 4
| 18> end
| 19>
| 20> %scf
| 21>   MaxIter 150
| 22> end
| 23>
| 24>
| 25>                          ****END OF INPUT****

CARTESIAN COORDINATES (ANGSTROEM)
---------------------------------
  C      0.611880    1.657630   -4.500290
  C      1.694990    1.541790   -5.570450
  H      2.697330    1.734660   -5.184000
  H      1.506660    2.272240   -6.358080
  S      1.780290   -0.033130   -6.428740
  F      2.569290    0.213660   -7.607360
  O      0.416880   -0.462970   -6.618590
  O      2.505130   -0.933260   -5.482570
  H     -0.344240    1.458710   -4.937520
  H      0.618450    2.646550   -4.091740
  H      0.802470    0.948820   -3.721730

 Total Charge           Charge          ....    0
 Multiplicity           Mult            ....    1
 Number of Electrons    NEL             ....   58
 Basis Dimension        Dim             ....  285

ORBITAL ENERGIES
----------------

  NO   OCC          E(Eh)            E(eV)
   0   2.0000     -88.535835     -2409.1826
   1   2.0000     -24.619486      -669.9303
   2   2.0000     -18.996307      -516.9158
   3   2.0000     -18.976141      -516.3670
   4   2.0000     -10.182387      -277.0768
   5   2.0000     -10.133335      -275.7421
   6   2.0000      -8.147262      -221.6983
   7   2.0000      -6.167555      -167.8277
   8   2.0000      -6.160669      -167.6403
   9   2.0000      -6.160128      -167.6256
  10   2.0000      -1.551279       -42.2124
  11   2.0000      -1.277312       -34.7574
  12   2.0000      -1.165383       -31.7117
  13   2.0000      -1.003630       -27.3102
  14   2.0000      -0.903713       -24.5913
  15   2.0000      -0.841223       -22.8908
  16   2.0000      -0.748376       -20.3643
  17   2.0000      -0.747185       -20.3319
  18   2.0000      -0.709119       -19.2961
  19   2.0000      -0.644051       -17.5255
  20   2.0000      -0.631970       -17.1968
  21   2.0000      -0.584687       -15.9101
  22   2.0000      -0.573333       -15.6012
  23   2.0000      -0.547243       -14.8912
  24   2.0000      -0.528188       -14.3727
  25   2.0000      -0.522371       -14.2144
  26   2.0000      -0.473294       -12.8790
  27   2.0000      -0.453260       -12.3338
  28   2.0000      -0.440745       -11.9933
  29   0.0000       0.044553         1.2123
  30   0.0000       0.059184         1.6105
  31   0.0000       0.063650         1.7320
  32   0.0000       0.069903         1.9022
  33   0.0000       0.097485         2.6527

MULLIKEN ATOMIC CHARGES
-----------------------
   0 C :   -1.212806
   1 C :   -0.637519
   2 H :    0.427007
   3 H :    0.434420
   4 S :    1.049821
   5 F :   -0.078976
   6 O :   -0.538778
   7 O :   -0.584278
   8 H :    0.394120
   9 H :    0.386292
  10 H :    0.360697
Sum of atomic charges:   -0.0000000

LOEWDIN ATOMIC CHARGES
----------------------
   0 C :   -0.122854
   1 C :   -0.303305
   2 H :    0.112600
   3 H :    0.105749
   4 S :    0.569911
   5 F :   -0.034322
   6 O :   -0.267423
   7 O :   -0.311488
   8 H :    0.080150
   9 H :    0.083361
  10 H :    0.087620

  Mayer bond orders larger than 0.100000
B(  0-C ,  1-C ) :   0.6650 B(  0-C ,  8-H ) :   0.8963 B(  0-C ,  9-H ) :   0.8961
B(  0-C , 10-H ) :   0.9286 B(  1-C ,  2-H ) :   0.8445 B(  1-C ,  3-H ) :   0.8170
B(  1-C ,  4-S ) :   0.9025 B(  4-S ,  5-F ) :   1.0394 B(  4-S ,  6-O ) :   1.7072
B(  4-S ,  7-O ) :   1.6482

FINAL SINGLE POINT ENERGY      -726.590876530010

DIPOLE MOMENT
-------------
                                X             Y             Z
Electronic contribution:      3.87607      -5.57765      -7.54943
Nuclear contribution   :     -3.66946       7.33549       7.42434
                        -----------------------------------------
Total Dipole Moment    :      0.20661       1.75784      -0.12508
                        -----------------------------------------
Magnitude (a.u.)       :      1.77435
Magnitude (Debye)      :      4.51004

Rotational constants in cm-1:     0.158379     0.080294     0.077843
Rotational constants in MHz :  4748.076444  2407.152850  2333.668303

                             ****ORCA TERMINATED NORMALLY****
TOTAL RUN TIME: 0 days 0 hours 0 minutes 34 seconds 373 msec
