                         Program Version 5.0.0 -  RELEASE  -
|  1> !LC-PBE RIJCOSX def2-TZVPD def2/J TightSCF
|  2> *xyz 0 1
|  3> C          1.96337       -1.74915       -1.89689
|  4> C          2.73849       -2.01517       -3.09711
|  5> C          4.04974       -2.15472       -3.15204
|  6> N          4.65821       -1.98629       -4.31866
|  7> N          4.76423       -2.45444       -2.05049
|  8> H          4.28736       -2.77626       -1.21750
|  9> H          5.75082       -2.65835       -2.12599
| 10> H          2.34518       -1.69027       -3.97145
| 11> H          4.10900       -1.59268       -5.07176
| 12> H          5.64910       -2.15646       -4.42724
| 13> C          2.08852       -0.30091       -1.41520
| 14> H          2.23127       -2.45162       -1.10264
| 15> H          0.93025       -1.97780       -2.15544
| 16> H          1.82118        0.36368       -2.21003
| 17> H          3.09792       -0.11068       -1.11551
| 18> H          1.43391       -0.14382       -0.58352
| 19> *
| 20> %MaxCore 64000
| 21>
| 22> %pal nprocs 4
| 23> end
| 24>
| 25> %scf
| 26>   MaxIter 150
| 27> end
| 28>
| 29>
| 30>                          ****END OF INPUT****

CARTESIAN COORDINATES (ANGSTROEM)
---------------------------------
  C      1.963370   -1.749150   -1.896890
  C      2.738490   -2.015170   -3.097110
  C      4.049740   -2.154720   -3.152040
  N      4.658210   -1.986290   -4.318660
  N      4.764230   -2.454440   -2.050490
  H      4.287360   -2.776260   -1.217500
  H      5.750820   -2.658350   -2.125990
  H      2.345180   -1.690270   -3.971450
  H      4.109000   -1.592680   -5.071760
  H      5.649100   -2.156460   -4.427240
  C      2.088520   -0.300910   -1.415200
  H      2.231270   -2.451620   -1.102640
  H      0.930250   -1.977800   -2.155440
  H      1.821180    0.363680   -2.210030
  H      3.097920   -0.110680   -1.115510
  H      1.433910   -0.143820   -0.583520

 Total Charge           Charge          ....    0
 Multiplicity           Mult            ....    1
 Number of Electrons    NEL             ....   48
 Basis Dimension        Dim             ....  312

ORBITAL ENERGIES
----------------

  NO   OCC          E(Eh)            E(eV)
   0   2.0000     -14.214747      -386.8029
   1   2.0000     -14.212162      -386.7326
   2   2.0000     -10.162823      -276.5445
   3   2.0000     -10.088403      -274.5194
   4   2.0000     -10.075280      -274.1623
   5   2.0000     -10.032889      -273.0088
   6   2.0000      -1.137584       -30.9552
   7   2.0000      -1.039184       -28.2776
   8   2.0000      -0.951465       -25.8907
   9   2.0000      -0.861997       -23.4561
  10   2.0000      -0.777203       -21.1488
  11   2.0000      -0.733122       -19.9493
  12   2.0000      -0.690764       -18.7966
  13   2.0000      -0.656969       -17.8770
  14   2.0000      -0.611160       -16.6305
  15   2.0000      -0.581004       -15.8099
  16   2.0000      -0.566034       -15.4026
  17   2.0000      -0.529935       -14.4203
  18   2.0000      -0.516217       -14.0470
  19   2.0000      -0.490656       -13.3514
  20   2.0000      -0.456918       -12.4334
  21   2.0000      -0.443995       -12.0817
  22   2.0000      -0.400388       -10.8951
  23   2.0000      -0.276093        -7.5129
  24   0.0000       0.062002         1.6872
  25   0.0000       0.086717         2.3597
  26   0.0000       0.089699         2.4408
  27   0.0000       0.098861         2.6901
  28   0.0000       0.115281         3.1370

MULLIKEN ATOMIC CHARGES
-----------------------
   0 C :   -0.731037
   1 C :   -0.688866
   2 C :    0.664917
   3 N :   -0.495244
   4 N :   -0.467087
   5 H :    0.204296
   6 H :    0.169935
   7 H :    0.282312
   8 H :    0.199184
   9 H :    0.186767
  10 C :   -1.110962
  11 H :    0.433932
  12 H :    0.307214
  13 H :    0.357878
  14 H :    0.318227
  15 H :    0.368533
Sum of atomic charges:    0.0000000

LOEWDIN ATOMIC CHARGES
----------------------
   0 C :   -0.302254
   1 C :   -0.173788
   2 C :   -0.554890
   3 N :    0.098179
   4 N :    0.118936
   5 H :    0.107683
   6 H :    0.104535
   7 H :    0.075140
   8 H :    0.116883
   9 H :    0.108502
  10 C :   -0.123270
  11 H :    0.103625
  12 H :    0.109666
  13 H :    0.074778
  14 H :    0.070491
  15 H :    0.065783

  Mayer bond orders larger than 0.100000
B(  0-C ,  1-C ) :   0.5679 B(  0-C , 10-C ) :   0.5445 B(  0-C , 11-H ) :   0.8767
B(  0-C , 12-H ) :   1.0762 B(  1-C ,  2-C ) :   1.2129 B(  1-C ,  7-H ) :   1.2048
B(  2-C ,  3-N ) :   0.9130 B(  2-C ,  4-N ) :   0.8544 B(  2-C ,  7-H ) :  -0.3144
B(  3-N ,  8-H ) :   0.9990 B(  3-N ,  9-H ) :   1.0615 B(  4-N ,  5-H ) :   0.9684
B(  4-N ,  6-H ) :   1.0791 B( 10-C , 13-H ) :   0.9640 B( 10-C , 14-H ) :   0.9570
B( 10-C , 15-H ) :   0.9348

FINAL SINGLE POINT ENERGY      -267.134960640002

DIPOLE MOMENT
-------------
                                X             Y             Z
Electronic contribution:      3.27936      -2.42755      -2.51261
Nuclear contribution   :     -2.31778       2.31977       2.35294
                        -----------------------------------------
Total Dipole Moment    :      0.96158      -0.10778      -0.15967
                        -----------------------------------------
Magnitude (a.u.)       :      0.98069
Magnitude (Debye)      :      2.49271

Rotational constants in cm-1:     0.219415     0.075373     0.066689
Rotational constants in MHz :  6577.897266  2259.621393  1999.290981

                             ****ORCA TERMINATED NORMALLY****
TOTAL RUN TIME: 0 days 0 hours 0 minutes 56 seconds 594 msec
