                         Program Version 5.0.0 -  RELEASE  -
|  1> !LC-PBE RIJCOSX def2-TZVPD def2/J TightSCF
|  2> *xyz 0 1
|  3> C          0.61188        1.65763       -4.50029
|  4> C          1.69499        1.54179       -5.57045
|  5> H          2.69733        1.73466       -5.18400
|  6> H          1.50666        2.27224       -6.35808
|  7> S          1.78029       -0.03313       -6.42874
|  8> O          2.56929        0.21366       -7.60736
|  9> F          0.41688       -0.46297       -6.61859
| 10> O          2.50513       -0.93326       -5.48257
| 11> H         -0.34424        1.45871       -4.93752
| 12> H          0.61845        2.64655       -4.09174
| 13> H          0.80247        0.94882       -3.72173
| 14> *
| 15> %MaxCore 64000
| 16>
| 17> %pal nprocs 4
| 18> end
| 19>
| 20> %scf
| 21>   MaxIter 150
| 22> end
| 23>
| 24>
| 25>                          ****END OF INPUT****

CARTESIAN COORDINATES (ANGSTROEM)
---------------------------------
  C      0.611880    1.657630   -4.500290
  C      1.694990    1.541790   -5.570450
  H      2.697330    1.734660   -5.184000
  H      1.506660    2.272240   -6.358080
  S      1.780290   -0.033130   -6.428740
  O      2.569290    0.213660   -7.607360
  F      0.416880   -0.462970   -6.618590
  O      2.505130   -0.933260   -5.482570
  H     -0.344240    1.458710   -4.937520
  H      0.618450    2.646550   -4.091740
  H      0.802470    0.948820   -3.721730

 Total Charge           Charge          ....    0
 Multiplicity           Mult            ....    1
 Number of Electrons    NEL             ....   58
 Basis Dimension        Dim             ....  285

ORBITAL ENERGIES
----------------

  NO   OCC          E(Eh)            E(eV)
   0   2.0000     -88.535474     -2409.1727
   1   2.0000     -24.618688      -669.9086
   2   2.0000     -18.995980      -516.9069
   3   2.0000     -18.976210      -516.3689
   4   2.0000     -10.182116      -277.0695
   5   2.0000     -10.139397      -275.9070
   6   2.0000      -8.146915      -221.6888
   7   2.0000      -6.167396      -167.8234
   8   2.0000      -6.160165      -167.6266
   9   2.0000      -6.159770      -167.6159
  10   2.0000      -1.549445       -42.1625
  11   2.0000      -1.278333       -34.7852
  12   2.0000      -1.165155       -31.7055
  13   2.0000      -1.007855       -27.4251
  14   2.0000      -0.898541       -24.4506
  15   2.0000      -0.847287       -23.0559
  16   2.0000      -0.759476       -20.6664
  17   2.0000      -0.746244       -20.3063
  18   2.0000      -0.698197       -18.9989
  19   2.0000      -0.644969       -17.5505
  20   2.0000      -0.624813       -17.0020
  21   2.0000      -0.596929       -16.2433
  22   2.0000      -0.580052       -15.7840
  23   2.0000      -0.552327       -15.0296
  24   2.0000      -0.533808       -14.5257
  25   2.0000      -0.521617       -14.1939
  26   2.0000      -0.471453       -12.8289
  27   2.0000      -0.453660       -12.3447
  28   2.0000      -0.441054       -12.0017
  29   0.0000       0.046767         1.2726
  30   0.0000       0.057581         1.5668
  31   0.0000       0.064951         1.7674
  32   0.0000       0.069249         1.8844
  33   0.0000       0.096040         2.6134

MULLIKEN ATOMIC CHARGES
-----------------------
   0 C :   -1.226530
   1 C :   -0.591396
   2 H :    0.407397
   3 H :    0.430219
   4 S :    1.039979
   5 O :   -0.529149
   6 F :   -0.095749
   7 O :   -0.585914
   8 H :    0.405999
   9 H :    0.377828
  10 H :    0.367316
Sum of atomic charges:   -0.0000000

LOEWDIN ATOMIC CHARGES
----------------------
   0 C :   -0.133304
   1 C :   -0.294589
   2 H :    0.122105
   3 H :    0.108758
   4 S :    0.567457
   5 O :   -0.269180
   6 F :   -0.033393
   7 O :   -0.310885
   8 H :    0.075822
   9 H :    0.082599
  10 H :    0.084609

  Mayer bond orders larger than 0.100000
B(  0-C ,  1-C ) :   0.5808 B(  0-C ,  8-H ) :   0.8666 B(  0-C ,  9-H ) :   0.9192
B(  0-C , 10-H ) :   0.9452 B(  1-C ,  2-H ) :   0.8628 B(  1-C ,  3-H ) :   0.8526
B(  1-C ,  4-S ) :   0.9106 B(  4-S ,  5-O ) :   1.7194 B(  4-S ,  6-F ) :   1.0357
B(  4-S ,  7-O ) :   1.6568

FINAL SINGLE POINT ENERGY      -726.590946531061

DIPOLE MOMENT
-------------
                                X             Y             Z
Electronic contribution:      0.20066      -6.71749      -5.83413
Nuclear contribution   :     -1.42658       8.04056       6.39401
                        -----------------------------------------
Total Dipole Moment    :     -1.22592       1.32307       0.55988
                        -----------------------------------------
Magnitude (a.u.)       :      1.88861
Magnitude (Debye)      :      4.80048

Rotational constants in cm-1:     0.153659     0.082363     0.078978
Rotational constants in MHz :  4606.587369  2469.179541  2367.702074

                             ****ORCA TERMINATED NORMALLY****
TOTAL RUN TIME: 0 days 0 hours 0 minutes 34 seconds 206 msec
