                         Program Version 5.0.0 -  RELEASE  -
|  1> !LC-PBE RIJCOSX def2-TZVPD def2/J TightSCF
|  2> *xyz 0 1
|  3> C          1.96337       -1.74915       -1.89689
|  4> N          2.73849       -2.01517       -3.09711
|  5> C          4.04974       -2.15472       -3.15204
|  6> C          4.65821       -1.98629       -4.31866
|  7> N          4.76423       -2.45444       -2.05049
|  8> H          4.28736       -2.77626       -1.21750
|  9> H          5.75082       -2.65835       -2.12599
| 10> H          2.34518       -1.69027       -3.97145
| 11> H          4.10900       -1.59268       -5.07176
| 12> H          5.64910       -2.15646       -4.42724
| 13> C          2.08852       -0.30091       -1.41520
| 14> H          2.23127       -2.45162       -1.10264
| 15> H          0.93025       -1.97780       -2.15544
| 16> H          1.82118        0.36368       -2.21003
| 17> H          3.09792       -0.11068       -1.11551
| 18> H          1.43391       -0.14382       -0.58352
| 19> *
| 20> %MaxCore 64000
| 21>
| 22> %pal nprocs 4
| 23> end
| 24>
| 25> %scf
| 26>   MaxIter 150
| 27> end
| 28>
| 29>
| 30>                          ****END OF INPUT****

CARTESIAN COORDINATES (ANGSTROEM)
---------------------------------
  C      1.963370   -1.749150   -1.896890
  N      2.738490   -2.015170   -3.097110
  C      4.049740   -2.154720   -3.152040
  C      4.658210   -1.986290   -4.318660
  N      4.764230   -2.454440   -2.050490
  H      4.287360   -2.776260   -1.217500
  H      5.750820   -2.658350   -2.125990
  H      2.345180   -1.690270   -3.971450
  H      4.109000   -1.592680   -5.071760
  H      5.649100   -2.156460   -4.427240
  C      2.088520   -0.300910   -1.415200
  H      2.231270   -2.451620   -1.102640
  H      0.930250   -1.977800   -2.155440
  H      1.821180    0.363680   -2.210030
  H      3.097920   -0.110680   -1.115510
  H      1.433910   -0.143820   -0.583520

 Total Charge           Charge          ....    0
 Multiplicity           Mult            ....    1
 Number of Electrons    NEL             ....   48
 Basis Dimension        Dim             ....  312

ORBITAL ENERGIES
----------------

  NO   OCC          E(Eh)            E(eV)
   0   2.0000     -14.214016      -386.7830
   1   2.0000     -14.213428      -386.7670
   2   2.0000     -10.165026      -276.6044
   3   2.0000     -10.155334      -276.3407
   4   2.0000     -10.100665      -274.8531
   5   2.0000     -10.023328      -272.7486
   6   2.0000      -1.147391       -31.2221
   7   2.0000      -1.054123       -28.6841
   8   2.0000      -0.946126       -25.7454
   9   2.0000      -0.870759       -23.6946
  10   2.0000      -0.791860       -21.5476
  11   2.0000      -0.753012       -20.4905
  12   2.0000      -0.685043       -18.6410
  13   2.0000      -0.643004       -17.4970
  14   2.0000      -0.620086       -16.8734
  15   2.0000      -0.582304       -15.8453
  16   2.0000      -0.575164       -15.6510
  17   2.0000      -0.540326       -14.7030
  18   2.0000      -0.519340       -14.1320
  19   2.0000      -0.508412       -13.8346
  20   2.0000      -0.495932       -13.4950
  21   2.0000      -0.485825       -13.2200
  22   2.0000      -0.385793       -10.4980
  23   2.0000      -0.281418        -7.6578
  24   0.0000       0.061847         1.6829
  25   0.0000       0.084459         2.2982
  26   0.0000       0.087258         2.3744
  27   0.0000       0.091867         2.4998
  28   0.0000       0.117570         3.1992

MULLIKEN ATOMIC CHARGES
-----------------------
   0 C :   -0.672577
   1 N :   -0.308595
   2 C :    1.000797
   3 C :   -1.391763
   4 N :   -0.471698
   5 H :    0.200645
   6 H :    0.182500
   7 H :    0.175993
   8 H :    0.291135
   9 H :    0.296827
  10 C :   -1.108620
  11 H :    0.366641
  12 H :    0.366524
  13 H :    0.332399
  14 H :    0.326809
  15 H :    0.412985
Sum of atomic charges:   -0.0000000

LOEWDIN ATOMIC CHARGES
----------------------
   0 C :   -0.258873
   1 N :    0.000498
   2 C :   -0.575947
   3 C :   -0.021694
   4 N :    0.114172
   5 H :    0.098199
   6 H :    0.115031
   7 H :    0.148147
   8 H :    0.018155
   9 H :    0.017245
  10 C :   -0.105579
  11 H :    0.112172
  12 H :    0.119214
  13 H :    0.075800
  14 H :    0.072526
  15 H :    0.070932

  Mayer bond orders larger than 0.100000
B(  0-C ,  1-N ) :   0.7727 B(  0-C ,  2-C ) :  -0.1520 B(  0-C , 10-C ) :   0.6313
B(  0-C , 11-H ) :   0.9032 B(  0-C , 12-H ) :   0.9056 B(  1-N ,  2-C ) :   0.9611
B(  1-N ,  3-C ) :   0.1162 B(  1-N ,  7-H ) :   1.0026 B(  2-C ,  3-C ) :   0.8617
B(  2-C ,  4-N ) :   0.8017 B(  2-C ,  8-H ) :  -0.1214 B(  2-C ,  9-H ) :  -0.1406
B(  3-C ,  8-H ) :   1.0130 B(  3-C ,  9-H ) :   1.0983 B(  4-N ,  5-H ) :   1.0053
B(  4-N ,  6-H ) :   1.0322 B( 10-C , 13-H ) :   0.9647 B( 10-C , 14-H ) :   0.9426
B( 10-C , 15-H ) :   0.9134

FINAL SINGLE POINT ENERGY      -267.128393344208

DIPOLE MOMENT
-------------
                                X             Y             Z
Electronic contribution:      1.38954      -2.32551      -1.19290
Nuclear contribution   :     -1.91052       2.32590       2.09379
                        -----------------------------------------
Total Dipole Moment    :     -0.52098       0.00038       0.90089
                        -----------------------------------------
Magnitude (a.u.)       :      1.04068
Magnitude (Debye)      :      2.64521

Rotational constants in cm-1:     0.219448     0.077923     0.068804
Rotational constants in MHz :  6578.886179  2336.083179  2062.700476

                             ****ORCA TERMINATED NORMALLY****
TOTAL RUN TIME: 0 days 0 hours 0 minutes 58 seconds 53 msec
