                         Program Version 5.0.0 -  RELEASE  -
|  1> !LC-PBE RIJCOSX def2-TZVPD def2/J TightSCF
|  2> *xyz 0 1
|  3> C          0.61188        1.65763       -4.50029
|  4> C          1.69499        1.54179       -5.57045
|  5> H          2.69733        1.73466       -5.18400
|  6> H          1.50666        2.27224       -6.35808
|  7> S          1.78029       -0.03313       -6.42874
|  8> O          2.56929        0.21366       -7.60736
|  9> O          0.41688       -0.46297       -6.61859
| 10> F          2.50513       -0.93326       -5.48257
| 11> H         -0.34424        1.45871       -4.93752
| 12> H          0.61845        2.64655       -4.09174
| 13> H          0.80247        0.94882       -3.72173
| 14> *
| 15> %MaxCore 64000
| 16>
| 17> %pal nprocs 4
| 18> end
| 19>
| 20> %scf
| 21>   MaxIter 150
| 22> end
| 23>
| 24>
| 25>                          ****END OF INPUT****

CARTESIAN COORDINATES (ANGSTROEM)
---------------------------------
  C      0.611880    1.657630   -4.500290
  C      1.694990    1.541790   -5.570450
  H      2.697330    1.734660   -5.184000
  H      1.506660    2.272240   -6.358080
  S      1.780290   -0.033130   -6.428740
  O      2.569290    0.213660   -7.607360
  O      0.416880   -0.462970   -6.618590
  F      2.505130   -0.933260   -5.482570
  H     -0.344240    1.458710   -4.937520
  H      0.618450    2.646550   -4.091740
  H      0.802470    0.948820   -3.721730

 Total Charge           Charge          ....    0
 Multiplicity           Mult            ....    1
 Number of Electrons    NEL             ....   58
 Basis Dimension        Dim             ....  285

ORBITAL ENERGIES
----------------

  NO   OCC          E(Eh)            E(eV)
   0   2.0000     -88.532817     -2409.1004
   1   2.0000     -24.590163      -669.1323
   2   2.0000     -18.995971      -516.9067
   3   2.0000     -18.995387      -516.8908
   4   2.0000     -10.181000      -277.0391
   5   2.0000     -10.134129      -275.7637
   6   2.0000      -8.144199      -221.6149
   7   2.0000      -6.164784      -167.7523
   8   2.0000      -6.157772      -167.5615
   9   2.0000      -6.156835      -167.5360
  10   2.0000      -1.506296       -40.9884
  11   2.0000      -1.289293       -35.0835
  12   2.0000      -1.192710       -32.4553
  13   2.0000      -1.004295       -27.3283
  14   2.0000      -0.885687       -24.1008
  15   2.0000      -0.832375       -22.6501
  16   2.0000      -0.732715       -19.9382
  17   2.0000      -0.714992       -19.4559
  18   2.0000      -0.700557       -19.0631
  19   2.0000      -0.643751       -17.5173
  20   2.0000      -0.626375       -17.0445
  21   2.0000      -0.603560       -16.4237
  22   2.0000      -0.576012       -15.6741
  23   2.0000      -0.548186       -14.9169
  24   2.0000      -0.541637       -14.7387
  25   2.0000      -0.518305       -14.1038
  26   2.0000      -0.482388       -13.1264
  27   2.0000      -0.468181       -12.7399
  28   2.0000      -0.462238       -12.5781
  29   0.0000       0.049538         1.3480
  30   0.0000       0.059942         1.6311
  31   0.0000       0.065527         1.7831
  32   0.0000       0.067511         1.8371
  33   0.0000       0.097723         2.6592

MULLIKEN ATOMIC CHARGES
-----------------------
   0 C :   -1.184192
   1 C :   -0.645447
   2 H :    0.445627
   3 H :    0.412749
   4 S :    1.062413
   5 O :   -0.540176
   6 O :   -0.544068
   7 F :   -0.145573
   8 H :    0.392029
   9 H :    0.385267
  10 H :    0.361371
Sum of atomic charges:   -0.0000000

LOEWDIN ATOMIC CHARGES
----------------------
   0 C :   -0.132642
   1 C :   -0.295309
   2 H :    0.111871
   3 H :    0.116820
   4 S :    0.569446
   5 O :   -0.270516
   6 O :   -0.265829
   7 F :   -0.077005
   8 H :    0.079284
   9 H :    0.081844
  10 H :    0.082036

  Mayer bond orders larger than 0.100000
B(  0-C ,  1-C ) :   0.6089 B(  0-C ,  8-H ) :   0.9187 B(  0-C ,  9-H ) :   0.9087
B(  0-C , 10-H ) :   0.9090 B(  1-C ,  2-H ) :   0.8176 B(  1-C ,  3-H ) :   0.8600
B(  1-C ,  4-S ) :   0.9126 B(  4-S ,  5-O ) :   1.7084 B(  4-S ,  6-O ) :   1.7045
B(  4-S ,  7-F ) :   0.9731

FINAL SINGLE POINT ENERGY      -726.615202901146

DIPOLE MOMENT
-------------
                                X             Y             Z
Electronic contribution:      3.78726      -7.56330      -3.87670
Nuclear contribution   :     -3.60260       8.53062       5.21025
                        -----------------------------------------
Total Dipole Moment    :      0.18465       0.96731       1.33355
                        -----------------------------------------
Magnitude (a.u.)       :      1.65775
Magnitude (Debye)      :      4.21367

Rotational constants in cm-1:     0.154011     0.080858     0.079602
Rotational constants in MHz :  4617.134198  2424.070332  2386.404775

                             ****ORCA TERMINATED NORMALLY****
TOTAL RUN TIME: 0 days 0 hours 0 minutes 34 seconds 230 msec
