                         Program Version 5.0.0 -  RELEASE  -
|  1> !LC-PBE RIJCOSX def2-TZVPD def2/J TightSCF
|  2> *xyz 0 1
|  3> C          1.96337       -1.74915       -1.89689
|  4> N          2.73849       -2.01517       -3.09711
|  5> C          4.04974       -2.15472       -3.15204
|  6> N          4.65821       -1.98629       -4.31866
|  7> C          4.76423       -2.45444       -2.05049
|  8> H          4.28736       -2.77626       -1.21750
|  9> H          5.75082       -2.65835       -2.12599
| 10> H          2.34518       -1.69027       -3.97145
| 11> H          4.10900       -1.59268       -5.07176
| 12> H          5.64910       -2.15646       -4.42724
| 13> C          2.08852       -0.30091       -1.41520
| 14> H          2.23127       -2.45162       -1.10264
| 15> H          0.93025       -1.97780       -2.15544
| 16> H          1.82118        0.36368       -2.21003
| 17> H          3.09792       -0.11068       -1.11551
| 18> H          1.43391       -0.14382       -0.58352
| 19> *
| 20> %MaxCore 64000
| 21>
| 22> %pal nprocs 4
| 23> end
| 24>
| 25> %scf
| 26>   MaxIter 150
| 27> end
| 28>
| 29>
| 30>                          ****END OF INPUT****

CARTESIAN COORDINATES (ANGSTROEM)
---------------------------------
  C      1.963370   -1.749150   -1.896890
  N      2.738490   -2.015170   -3.097110
  C      4.049740   -2.154720   -3.152040
  N      4.658210   -1.986290   -4.318660
  C      4.764230   -2.454440   -2.050490
  H      4.287360   -2.776260   -1.217500
  H      5.750820   -2.658350   -2.125990
  H      2.345180   -1.690270   -3.971450
  H      4.109000   -1.592680   -5.071760
  H      5.649100   -2.156460   -4.427240
  C      2.088520   -0.300910   -1.415200
  H      2.231270   -2.451620   -1.102640
  H      0.930250   -1.977800   -2.155440
  H      1.821180    0.363680   -2.210030
  H      3.097920   -0.110680   -1.115510
  H      1.433910   -0.143820   -0.583520

 Total Charge           Charge          ....    0
 Multiplicity           Mult            ....    1
 Number of Electrons    NEL             ....   48
 Basis Dimension        Dim             ....  312

ORBITAL ENERGIES
----------------

  NO   OCC          E(Eh)            E(eV)
   0   2.0000     -14.218540      -386.9061
   1   2.0000     -14.215803      -386.8317
   2   2.0000     -10.167114      -276.6612
   3   2.0000     -10.148555      -276.1562
   4   2.0000     -10.093821      -274.6668
   5   2.0000     -10.023626      -272.7567
   6   2.0000      -1.153126       -31.3782
   7   2.0000      -1.059210       -28.8226
   8   2.0000      -0.927128       -25.2284
   9   2.0000      -0.876977       -23.8637
  10   2.0000      -0.805997       -21.9323
  11   2.0000      -0.714638       -19.4463
  12   2.0000      -0.696807       -18.9611
  13   2.0000      -0.671548       -18.2738
  14   2.0000      -0.612452       -16.6657
  15   2.0000      -0.582047       -15.8383
  16   2.0000      -0.562079       -15.2949
  17   2.0000      -0.535844       -14.5811
  18   2.0000      -0.515250       -14.0207
  19   2.0000      -0.504275       -13.7220
  20   2.0000      -0.498346       -13.5607
  21   2.0000      -0.474862       -12.9217
  22   2.0000      -0.382460       -10.4073
  23   2.0000      -0.282997        -7.7007
  24   0.0000       0.062369         1.6972
  25   0.0000       0.081859         2.2275
  26   0.0000       0.090190         2.4542
  27   0.0000       0.092334         2.5125
  28   0.0000       0.118732         3.2309

MULLIKEN ATOMIC CHARGES
-----------------------
   0 C :   -0.638198
   1 N :   -0.333525
   2 C :    0.944944
   3 N :   -0.466122
   4 C :   -1.395258
   5 H :    0.300559
   6 H :    0.326538
   7 H :    0.181268
   8 H :    0.192501
   9 H :    0.193079
  10 C :   -1.147111
  11 H :    0.371554
  12 H :    0.368515
  13 H :    0.339435
  14 H :    0.343503
  15 H :    0.418318
Sum of atomic charges:   -0.0000000

LOEWDIN ATOMIC CHARGES
----------------------
   0 C :   -0.254308
   1 N :   -0.000892
   2 C :   -0.578829
   3 N :    0.105885
   4 C :   -0.014324
   5 H :    0.011236
   6 H :    0.013448
   7 H :    0.141512
   8 H :    0.107913
   9 H :    0.120430
  10 C :   -0.104528
  11 H :    0.117363
  12 H :    0.118596
  13 H :    0.072579
  14 H :    0.071983
  15 H :    0.071935

  Mayer bond orders larger than 0.100000
B(  0-C ,  1-N ) :   0.7149 B(  0-C ,  4-C ) :   0.1534 B(  0-C , 10-C ) :   0.6261
B(  0-C , 11-H ) :   0.9031 B(  0-C , 12-H ) :   0.8769 B(  1-N ,  2-C ) :   0.9246
B(  1-N ,  7-H ) :   1.0628 B(  2-C ,  3-N ) :   0.7836 B(  2-C ,  4-C ) :   1.0573
B(  2-C ,  6-H ) :  -0.1143 B(  3-N ,  4-C ) :   0.1032 B(  3-N ,  8-H ) :   1.0362
B(  3-N ,  9-H ) :   1.0251 B(  4-C ,  5-H ) :   0.9957 B(  4-C ,  6-H ) :   1.0309
B( 10-C , 13-H ) :   0.9550 B( 10-C , 14-H ) :   0.9615 B( 10-C , 15-H ) :   0.8918

FINAL SINGLE POINT ENERGY      -267.127808879003

DIPOLE MOMENT
-------------
                                X             Y             Z
Electronic contribution:      1.32619      -1.81196      -3.42355
Nuclear contribution   :     -1.88803       2.22658       2.57497
                        -----------------------------------------
Total Dipole Moment    :     -0.56184       0.41462      -0.84857
                        -----------------------------------------
Magnitude (a.u.)       :      1.09893
Magnitude (Debye)      :      2.79327

Rotational constants in cm-1:     0.226509     0.075782     0.067928
Rotational constants in MHz :  6790.555051  2271.890226  2036.439218

                             ****ORCA TERMINATED NORMALLY****
TOTAL RUN TIME: 0 days 0 hours 0 minutes 56 seconds 978 msec
