                         Program Version 5.0.0 -  RELEASE  -
|  1> !LC-PBE RIJCOSX def2-TZVPD def2/J TightSCF xyzfile
|  2>
|  3> *xyzfile 0 1 D1.xyz
|  4>
|  5> %MaxCore 64000
|  6>
|  7> %pal nprocs 4
|  8> end
|  9>
| 10> %scf
| 11>   MaxIter 150
| 12> end
| 13>
| 14>
| 15>                          ****END OF INPUT****

CARTESIAN COORDINATES (ANGSTROEM)
---------------------------------
  C      1.963365   -1.749150   -1.896887
  C      2.738490   -2.015170   -3.097113
  C      0.611877    1.657634   -4.500288
  C      1.694991    1.541794   -5.570447
  H      2.697326    1.734659   -5.183996
  H      1.506656    2.272239   -6.358076
  S      1.780287   -0.033128   -6.428739
  C      4.049736   -2.154717   -3.152044
  N      4.658206   -1.986293   -4.318655
  N      4.764231   -2.454435   -2.050491
  H      4.287363   -2.776259   -1.217496
  H      5.750825   -2.658351   -2.125988
  H      2.345176   -1.690274   -3.971447
  H      4.109004   -1.592677   -5.071760
  H      5.649095   -2.156462   -4.427237
  F      2.569287    0.213657   -7.607360
  O      0.416880   -0.462969   -6.618595
  C      2.088520   -0.300912   -1.415204
  H      2.231272   -2.451616   -1.102643
  H      0.930249   -1.977801   -2.155438
  C      0.680356    0.655418   -3.348038
  H     -0.356865    1.549231   -4.991128
  H      0.650228    2.675438   -4.096000
  C      1.968993    0.733582   -2.535654
  H      3.051356   -0.168602   -0.911868
  H      1.316501   -0.136231   -0.657252
  O      2.505129   -0.933263   -5.482570
  H      2.824195    0.624726   -3.208464
  H      2.058919    1.730331   -2.093112
  H      0.542252   -0.344731   -3.766662
  H     -0.174219    0.829692   -2.685182

 Total Charge           Charge          ....    0
 Multiplicity           Mult            ....    1
 Number of Electrons    NEL             ....  120
 Basis Dimension        Dim             ....  689

ORBITAL ENERGIES
----------------

  NO   OCC          E(Eh)            E(eV)
   0   2.0000     -88.545764     -2409.4527
   1   2.0000     -24.627559      -670.1499
   2   2.0000     -19.005296      -517.1604
   3   2.0000     -18.991293      -516.7794
   4   2.0000     -14.196335      -386.3019
   5   2.0000     -14.180739      -385.8775
   6   2.0000     -10.182941      -277.0919
   7   2.0000     -10.141131      -275.9542
   8   2.0000     -10.139239      -275.9027
   9   2.0000     -10.108501      -275.0663
  10   2.0000     -10.096872      -274.7499
  11   2.0000     -10.086866      -274.4776
  12   2.0000     -10.074499      -274.1411
  13   2.0000     -10.000843      -272.1368
  14   2.0000      -8.157626      -221.9803
  15   2.0000      -6.177948      -168.1105
  16   2.0000      -6.170819      -167.9165
  17   2.0000      -6.170632      -167.9114
  18   2.0000      -1.559890       -42.4468
  19   2.0000      -1.289556       -35.0906
  20   2.0000      -1.184015       -32.2187
  21   2.0000      -1.114416       -30.3248
  22   2.0000      -1.020081       -27.7578
  23   2.0000      -1.015648       -27.6372
  24   2.0000      -0.971451       -26.4345
  25   2.0000      -0.927559       -25.2402
  26   2.0000      -0.893399       -24.3106
  27   2.0000      -0.858585       -23.3633
  28   2.0000      -0.818698       -22.2779
  29   2.0000      -0.782744       -21.2995
  30   2.0000      -0.762556       -20.7502
  31   2.0000      -0.746462       -20.3123
  32   2.0000      -0.742772       -20.2118
  33   2.0000      -0.705749       -19.2044
  34   2.0000      -0.700944       -19.0736
  35   2.0000      -0.673989       -18.3402
  36   2.0000      -0.647305       -17.6141
  37   2.0000      -0.642387       -17.4803
  38   2.0000      -0.632842       -17.2205
  39   2.0000      -0.610352       -16.6085
  40   2.0000      -0.608359       -16.5543
  41   2.0000      -0.586454       -15.9582
  42   2.0000      -0.576218       -15.6797
  43   2.0000      -0.566975       -15.4282
  44   2.0000      -0.553825       -15.0703
  45   2.0000      -0.543590       -14.7918
  46   2.0000      -0.521555       -14.1922
  47   2.0000      -0.514600       -14.0030
  48   2.0000      -0.508885       -13.8475
  49   2.0000      -0.498045       -13.5525
  50   2.0000      -0.487199       -13.2574
  51   2.0000      -0.465515       -12.6673
  52   2.0000      -0.460979       -12.5439
  53   2.0000      -0.457025       -12.4363
  54   2.0000      -0.453329       -12.3357
  55   2.0000      -0.437782       -11.9126
  56   2.0000      -0.423214       -11.5162
  57   2.0000      -0.408956       -11.1282
  58   2.0000      -0.377521       -10.2729
  59   2.0000      -0.252979        -6.8839
  60   0.0000       0.035863         0.9759
  61   0.0000       0.054298         1.4775
  62   0.0000       0.057316         1.5597
  63   0.0000       0.070335         1.9139
  64   0.0000       0.082123         2.2347

MULLIKEN ATOMIC CHARGES
-----------------------
   0 C :   -0.883277
   1 C :   -1.018566
   2 C :   -0.895719
   3 C :   -0.843038
   4 H :    0.496402
   5 H :    0.480557
   6 S :    0.920215
   7 C :    0.228540
   8 N :   -0.432850
   9 N :   -0.459932
  10 H :    0.222614
  11 H :    0.158025
  12 H :    1.115099
  13 H :    0.308564
  14 H :    0.117515
  15 F :   -0.079279
  16 O :   -0.570030
  17 C :   -0.658116
  18 H :    0.595786
  19 H :    0.295560
  20 C :   -0.654527
  21 H :    0.398277
  22 H :    0.404806
  23 C :   -0.667663
  24 H :    0.330939
  25 H :    0.364189
  26 O :   -0.729921
  27 H :    0.377445
  28 H :    0.383043
  29 H :    0.300390
  30 H :    0.394952
Sum of atomic charges:    0.0000000

LOEWDIN ATOMIC CHARGES
----------------------
   0 C :   -0.242731
   1 C :   -0.166153
   2 C :   -0.232256
   3 C :   -0.238505
   4 H :    0.117068
   5 H :    0.111973
   6 S :    0.633908
   7 C :   -0.538196
   8 N :    0.106064
   9 N :    0.115886
  10 H :    0.104269
  11 H :    0.100751
  12 H :    0.025581
  13 H :    0.062731
  14 H :    0.107533
  15 F :   -0.022655
  16 O :   -0.239979
  17 C :   -0.213601
  18 H :    0.107449
  19 H :    0.113774
  20 C :   -0.223146
  21 H :    0.121356
  22 H :    0.131300
  23 C :   -0.227173
  24 H :    0.116691
  25 H :    0.114224
  26 O :   -0.325932
  27 H :    0.112197
  28 H :    0.122522
  29 H :    0.112886
  30 H :    0.132164

  Mayer bond orders larger than 0.100000
B(  0-C ,  1-C ) :   0.2621 B(  0-C ,  7-C ) :   0.1656 B(  0-C , 17-C ) :   0.6710
B(  0-C , 18-H ) :   0.7371 B(  0-C , 19-H ) :   1.0665 B(  0-C , 23-C ) :  -0.1008
B(  1-C ,  7-C ) :   1.5496 B(  1-C , 12-H ) :   0.3038 B(  1-C , 17-C ) :  -0.2293
B(  1-C , 18-H ) :  -0.1990 B(  1-C , 23-C ) :   0.1179 B(  1-C , 26-O ) :   0.3102
B(  2-C ,  3-C ) :   0.8099 B(  2-C , 20-C ) :   0.8467 B(  2-C , 21-H ) :   0.9035
B(  2-C , 22-H ) :   0.8786 B(  3-C ,  4-H ) :   0.7740 B(  3-C ,  5-H ) :   0.7783
B(  3-C ,  6-S ) :   0.8481 B(  3-C , 16-O ) :   0.1008 B(  6-S , 15-F ) :   0.9803
B(  6-S , 16-O ) :   1.6920 B(  6-S , 26-O ) :   1.7686 B(  7-C ,  8-N ) :   0.8315
B(  7-C ,  9-N ) :   0.8445 B(  7-C , 12-H ) :  -0.2560 B(  8-N , 13-H ) :   0.9144
B(  8-N , 14-H ) :   1.1462 B(  9-N , 10-H ) :   0.9556 B(  9-N , 11-H ) :   1.0929
B( 12-H , 26-O ) :  -0.4904 B( 17-C , 23-C ) :   0.8643 B( 17-C , 24-H ) :   0.9343
B( 17-C , 25-H ) :   0.8893 B( 20-C , 23-C ) :   0.4167 B( 20-C , 29-H ) :   0.9857
B( 20-C , 30-H ) :   0.8666 B( 23-C , 27-H ) :   0.9759 B( 23-C , 28-H ) :   0.8956
B( 27-H , 28-H ) :   0.1003

FINAL SINGLE POINT ENERGY     -1070.901029458966

DIPOLE MOMENT
-------------
                                X             Y             Z
Electronic contribution:      0.71876      -0.93425     -23.53909
Nuclear contribution   :      0.18720       2.58739      22.98820
                        -----------------------------------------
Total Dipole Moment    :      0.90596       1.65315      -0.55089
                        -----------------------------------------
Magnitude (a.u.)       :      1.96396
Magnitude (Debye)      :      4.99198

Rotational constants in cm-1:     0.028798     0.014448     0.010940
Rotational constants in MHz :   863.355869   433.126694   327.985023

                             ****ORCA TERMINATED NORMALLY****
TOTAL RUN TIME: 0 days 0 hours 7 minutes 31 seconds 347 msec
