                         Program Version 5.0.0 -  RELEASE  -
|  1> !LC-PBE RIJCOSX def2-TZVPD def2/J TightSCF xyzfile
|  2>
|  3> *xyzfile 0 1 D2.xyz
|  4>
|  5> %MaxCore 64000
|  6>
|  7> %pal nprocs 4
|  8> end
|  9>
| 10> %scf
| 11>   MaxIter 150
| 12> end
| 13>
| 14>
| 15>                          ****END OF INPUT****

CARTESIAN COORDINATES (ANGSTROEM)
---------------------------------
  C      1.963365   -1.749150   -1.896887
  N      2.738490   -2.015170   -3.097113
  C      0.611877    1.657634   -4.500288
  C      1.694991    1.541794   -5.570447
  H      2.697326    1.734659   -5.183996
  H      1.506656    2.272239   -6.358076
  S      1.780287   -0.033128   -6.428739
  C      4.049736   -2.154717   -3.152044
  C      4.658206   -1.986293   -4.318655
  N      4.764231   -2.454435   -2.050491
  H      4.287363   -2.776259   -1.217496
  H      5.750825   -2.658351   -2.125988
  H      2.345176   -1.690274   -3.971447
  H      4.109004   -1.592677   -5.071760
  H      5.649095   -2.156462   -4.427237
  F      2.569287    0.213657   -7.607360
  O      0.416880   -0.462969   -6.618595
  C      2.088520   -0.300912   -1.415204
  H      2.231272   -2.451616   -1.102643
  H      0.930249   -1.977801   -2.155438
  C      0.680356    0.655418   -3.348038
  H     -0.356865    1.549231   -4.991128
  H      0.650228    2.675438   -4.096000
  C      1.968993    0.733582   -2.535654
  H      3.051356   -0.168602   -0.911868
  H      1.316501   -0.136231   -0.657252
  O      2.505129   -0.933263   -5.482570
  H      2.824195    0.624726   -3.208464
  H      2.058919    1.730331   -2.093112
  H      0.542252   -0.344731   -3.766662
  H     -0.174219    0.829692   -2.685182

 Total Charge           Charge          ....    0
 Multiplicity           Mult            ....    1
 Number of Electrons    NEL             ....  120
 Basis Dimension        Dim             ....  689

ORBITAL ENERGIES
----------------

  NO   OCC          E(Eh)            E(eV)
   0   2.0000     -88.548370     -2409.5237
   1   2.0000     -24.628854      -670.1852
   2   2.0000     -19.007086      -517.2091
   3   2.0000     -18.990912      -516.7690
   4   2.0000     -14.194069      -386.2403
   5   2.0000     -14.180863      -385.8809
   6   2.0000     -10.186345      -277.1845
   7   2.0000     -10.149004      -276.1684
   8   2.0000     -10.140578      -275.9392
   9   2.0000     -10.137865      -275.8653
  10   2.0000     -10.122496      -275.4471
  11   2.0000     -10.112421      -275.1730
  12   2.0000     -10.107637      -275.0428
  13   2.0000      -9.992232      -271.9025
  14   2.0000      -8.160036      -222.0459
  15   2.0000      -6.180146      -168.1703
  16   2.0000      -6.173342      -167.9852
  17   2.0000      -6.173163      -167.9803
  18   2.0000      -1.560729       -42.4696
  19   2.0000      -1.291219       -35.1359
  20   2.0000      -1.184963       -32.2445
  21   2.0000      -1.123715       -30.5779
  22   2.0000      -1.036349       -28.2005
  23   2.0000      -1.024620       -27.8813
  24   2.0000      -0.970832       -26.4177
  25   2.0000      -0.932551       -25.3760
  26   2.0000      -0.889638       -24.2083
  27   2.0000      -0.865859       -23.5612
  28   2.0000      -0.825877       -22.4732
  29   2.0000      -0.790677       -21.5154
  30   2.0000      -0.764557       -20.8046
  31   2.0000      -0.753688       -20.5089
  32   2.0000      -0.744525       -20.2595
  33   2.0000      -0.720805       -19.6141
  34   2.0000      -0.710085       -19.3224
  35   2.0000      -0.666004       -18.1229
  36   2.0000      -0.652995       -17.7689
  37   2.0000      -0.648632       -17.6502
  38   2.0000      -0.624875       -17.0037
  39   2.0000      -0.620893       -16.8954
  40   2.0000      -0.608722       -16.5642
  41   2.0000      -0.600034       -16.3277
  42   2.0000      -0.585900       -15.9431
  43   2.0000      -0.572052       -15.5663
  44   2.0000      -0.556594       -15.1457
  45   2.0000      -0.541988       -14.7482
  46   2.0000      -0.527249       -14.3472
  47   2.0000      -0.519295       -14.1307
  48   2.0000      -0.506954       -13.7949
  49   2.0000      -0.502626       -13.6772
  50   2.0000      -0.489638       -13.3237
  51   2.0000      -0.486790       -13.2462
  52   2.0000      -0.482045       -13.1171
  53   2.0000      -0.467380       -12.7180
  54   2.0000      -0.456701       -12.4275
  55   2.0000      -0.450876       -12.2690
  56   2.0000      -0.445063       -12.1108
  57   2.0000      -0.435310       -11.8454
  58   2.0000      -0.362526        -9.8648
  59   2.0000      -0.256715        -6.9856
  60   0.0000       0.037446         1.0189
  61   0.0000       0.056287         1.5316
  62   0.0000       0.058601         1.5946
  63   0.0000       0.067469         1.8359
  64   0.0000       0.079765         2.1705

MULLIKEN ATOMIC CHARGES
-----------------------
   0 C :   -1.151034
   1 N :   -0.247182
   2 C :   -0.896519
   3 C :   -0.852984
   4 H :    0.500590
   5 H :    0.486712
   6 S :    0.935775
   7 C :    0.892706
   8 C :   -1.500958
   9 N :   -0.461623
  10 H :    0.209404
  11 H :    0.187063
  12 H :    0.456010
  13 H :    0.563609
  14 H :    0.311750
  15 F :   -0.078527
  16 O :   -0.579058
  17 C :   -0.594248
  18 H :    0.460027
  19 H :    0.395282
  20 C :   -0.724359
  21 H :    0.402214
  22 H :    0.400575
  23 C :   -0.663549
  24 H :    0.368174
  25 H :    0.413270
  26 O :   -0.742046
  27 H :    0.412349
  28 H :    0.378233
  29 H :    0.338877
  30 H :    0.379470
Sum of atomic charges:    0.0000000

LOEWDIN ATOMIC CHARGES
----------------------
   0 C :   -0.206816
   1 N :    0.018309
   2 C :   -0.231170
   3 C :   -0.237149
   4 H :    0.118828
   5 H :    0.112809
   6 S :    0.635663
   7 C :   -0.560524
   8 C :   -0.016132
   9 N :    0.111034
  10 H :    0.094592
  11 H :    0.111507
  12 H :    0.079420
  13 H :   -0.020215
  14 H :    0.019229
  15 F :   -0.014521
  16 O :   -0.244139
  17 C :   -0.201941
  18 H :    0.115560
  19 H :    0.122538
  20 C :   -0.227274
  21 H :    0.122094
  22 H :    0.132282
  23 C :   -0.223531
  24 H :    0.117256
  25 H :    0.117734
  26 O :   -0.326179
  27 H :    0.113732
  28 H :    0.125525
  29 H :    0.109327
  30 H :    0.132151

  Mayer bond orders larger than 0.100000
B(  0-C ,  1-N ) :   0.8795 B(  0-C ,  7-C ) :  -0.1969 B(  0-C ,  9-N ) :   0.1374
B(  0-C , 12-H ) :  -0.1434 B(  0-C , 17-C ) :   0.6134 B(  0-C , 18-H ) :   0.8160
B(  0-C , 19-H ) :   0.9342 B(  1-N ,  7-C ) :   0.8562 B(  1-N , 12-H ) :   0.7866
B(  2-C ,  3-C ) :   0.8048 B(  2-C , 20-C ) :   0.8604 B(  2-C , 21-H ) :   0.9027
B(  2-C , 22-H ) :   0.8785 B(  3-C ,  4-H ) :   0.7749 B(  3-C ,  5-H ) :   0.7763
B(  3-C ,  6-S ) :   0.8431 B(  3-C , 23-C ) :   0.1086 B(  6-S , 15-F ) :   0.9907
B(  6-S , 16-O ) :   1.6797 B(  6-S , 26-O ) :   1.7737 B(  7-C ,  8-C ) :   0.9538
B(  7-C ,  9-N ) :   0.7998 B(  7-C , 12-H ) :  -0.1058 B(  7-C , 14-H ) :  -0.1801
B(  8-C , 13-H ) :   0.8174 B(  8-C , 14-H ) :   1.1174 B(  8-C , 26-O ) :   0.1917
B(  9-N , 10-H ) :   0.9948 B(  9-N , 11-H ) :   1.0368 B( 12-H , 26-O ) :  -0.1095
B( 13-H , 26-O ) :  -0.2726 B( 17-C , 23-C ) :   0.8830 B( 17-C , 24-H ) :   0.8897
B( 17-C , 25-H ) :   0.9396 B( 20-C , 23-C ) :   0.3727 B( 20-C , 29-H ) :   0.9661
B( 20-C , 30-H ) :   0.9000 B( 23-C , 27-H ) :   0.9233 B( 23-C , 28-H ) :   0.8892
B( 23-C , 29-H ) :  -0.1017

FINAL SINGLE POINT ENERGY     -1070.895531799354

DIPOLE MOMENT
-------------
                                X             Y             Z
Electronic contribution:     -0.89736      -0.74012     -22.49861
Nuclear contribution   :      0.43347       2.59110      22.83150
                        -----------------------------------------
Total Dipole Moment    :     -0.46389       1.85098       0.33289
                        -----------------------------------------
Magnitude (a.u.)       :      1.93705
Magnitude (Debye)      :      4.92358

Rotational constants in cm-1:     0.029257     0.014415     0.010996
Rotational constants in MHz :   877.098782   432.159206   329.643335

                             ****ORCA TERMINATED NORMALLY****
TOTAL RUN TIME: 0 days 0 hours 8 minutes 6 seconds 722 msec
