                         Program Version 5.0.0 -  RELEASE  -
|  1> !LC-PBE RIJCOSX def2-TZVPD def2/J TightSCF xyzfile
|  2>
|  3> *xyzfile 0 1 D3.xyz
|  4>
|  5> %MaxCore 64000
|  6>
|  7> %pal nprocs 4
|  8> end
|  9>
| 10> %scf
| 11>   MaxIter 150
| 12> end
| 13>
| 14>
| 15>                          ****END OF INPUT****

CARTESIAN COORDINATES (ANGSTROEM)
---------------------------------
  C      1.963365   -1.749150   -1.896887
  N      2.738490   -2.015170   -3.097113
  C      0.611877    1.657634   -4.500288
  C      1.694991    1.541794   -5.570447
  H      2.697326    1.734659   -5.183996
  H      1.506656    2.272239   -6.358076
  S      1.780287   -0.033128   -6.428739
  C      4.049736   -2.154717   -3.152044
  N      4.658206   -1.986293   -4.318655
  C      4.764231   -2.454435   -2.050491
  H      4.287363   -2.776259   -1.217496
  H      5.750825   -2.658351   -2.125988
  H      2.345176   -1.690274   -3.971447
  H      4.109004   -1.592677   -5.071760
  H      5.649095   -2.156462   -4.427237
  F      2.569287    0.213657   -7.607360
  O      0.416880   -0.462969   -6.618595
  C      2.088520   -0.300912   -1.415204
  H      2.231272   -2.451616   -1.102643
  H      0.930249   -1.977801   -2.155438
  C      0.680356    0.655418   -3.348038
  H     -0.356865    1.549231   -4.991128
  H      0.650228    2.675438   -4.096000
  C      1.968993    0.733582   -2.535654
  H      3.051356   -0.168602   -0.911868
  H      1.316501   -0.136231   -0.657252
  O      2.505129   -0.933263   -5.482570
  H      2.824195    0.624726   -3.208464
  H      2.058919    1.730331   -2.093112
  H      0.542252   -0.344731   -3.766662
  H     -0.174219    0.829692   -2.685182

 Total Charge           Charge          ....    0
 Multiplicity           Mult            ....    1
 Number of Electrons    NEL             ....  120
 Basis Dimension        Dim             ....  689

ORBITAL ENERGIES
----------------

  NO   OCC          E(Eh)            E(eV)
   0   2.0000     -88.565122     -2409.9795
   1   2.0000     -24.643917      -670.5951
   2   2.0000     -19.021808      -517.6097
   3   2.0000     -19.013260      -517.3771
   4   2.0000     -14.182909      -385.9366
   5   2.0000     -14.180997      -385.8845
   6   2.0000     -10.197287      -277.4823
   7   2.0000     -10.155238      -276.3381
   8   2.0000     -10.143221      -276.0111
   9   2.0000     -10.130981      -275.6780
  10   2.0000     -10.125595      -275.5315
  11   2.0000     -10.113192      -275.1939
  12   2.0000     -10.101975      -274.8887
  13   2.0000     -10.001104      -272.1439
  14   2.0000      -8.176733      -222.5002
  15   2.0000      -6.196917      -168.6267
  16   2.0000      -6.190210      -168.4442
  17   2.0000      -6.189652      -168.4290
  18   2.0000      -1.575977       -42.8845
  19   2.0000      -1.307849       -35.5884
  20   2.0000      -1.204153       -32.7667
  21   2.0000      -1.124940       -30.6112
  22   2.0000      -1.038653       -28.2632
  23   2.0000      -1.029491       -28.0139
  24   2.0000      -0.973716       -26.4961
  25   2.0000      -0.931411       -25.3450
  26   2.0000      -0.891974       -24.2719
  27   2.0000      -0.857779       -23.3414
  28   2.0000      -0.847788       -23.0695
  29   2.0000      -0.802935       -21.8490
  30   2.0000      -0.776112       -21.1191
  31   2.0000      -0.763872       -20.7860
  32   2.0000      -0.746903       -20.3243
  33   2.0000      -0.726827       -19.7780
  34   2.0000      -0.693061       -18.8592
  35   2.0000      -0.675360       -18.3775
  36   2.0000      -0.666461       -18.1353
  37   2.0000      -0.657319       -17.8866
  38   2.0000      -0.643888       -17.5211
  39   2.0000      -0.627459       -17.0740
  40   2.0000      -0.605565       -16.4783
  41   2.0000      -0.602518       -16.3953
  42   2.0000      -0.585067       -15.9205
  43   2.0000      -0.565721       -15.3940
  44   2.0000      -0.559929       -15.2364
  45   2.0000      -0.558754       -15.2045
  46   2.0000      -0.528911       -14.3924
  47   2.0000      -0.521493       -14.1905
  48   2.0000      -0.511881       -13.9290
  49   2.0000      -0.503884       -13.7114
  50   2.0000      -0.496918       -13.5218
  51   2.0000      -0.485745       -13.2178
  52   2.0000      -0.482035       -13.1168
  53   2.0000      -0.475750       -12.9458
  54   2.0000      -0.470223       -12.7954
  55   2.0000      -0.457674       -12.4539
  56   2.0000      -0.452950       -12.3254
  57   2.0000      -0.440179       -11.9779
  58   2.0000      -0.354151        -9.6369
  59   2.0000      -0.259432        -7.0595
  60   0.0000       0.029032         0.7900
  61   0.0000       0.048295         1.3142
  62   0.0000       0.051219         1.3937
  63   0.0000       0.066612         1.8126
  64   0.0000       0.080381         2.1873

MULLIKEN ATOMIC CHARGES
-----------------------
   0 C :   -1.155184
   1 N :   -0.308846
   2 C :   -0.891212
   3 C :   -0.842282
   4 H :    0.500114
   5 H :    0.481816
   6 S :    0.936330
   7 C :    0.949249
   8 N :   -0.405259
   9 C :   -1.488629
  10 H :    0.317208
  11 H :    0.366194
  12 H :    0.533537
  13 H :    0.344385
  14 H :    0.116908
  15 F :   -0.076389
  16 O :   -0.557792
  17 C :   -0.600801
  18 H :    0.468072
  19 H :    0.407373
  20 C :   -0.708594
  21 H :    0.402851
  22 H :    0.407879
  23 C :   -0.653900
  24 H :    0.374966
  25 H :    0.413149
  26 O :   -0.778322
  27 H :    0.372771
  28 H :    0.373655
  29 H :    0.323279
  30 H :    0.377477
Sum of atomic charges:   -0.0000000

LOEWDIN ATOMIC CHARGES
----------------------
   0 C :   -0.201845
   1 N :    0.016723
   2 C :   -0.230430
   3 C :   -0.236205
   4 H :    0.118536
   5 H :    0.114181
   6 S :    0.640061
   7 C :   -0.565516
   8 N :    0.110986
   9 C :   -0.021289
  10 H :    0.005655
  11 H :    0.008053
  12 H :    0.074726
  13 H :    0.055883
  14 H :    0.119448
  15 F :   -0.014456
  16 O :   -0.235810
  17 C :   -0.197721
  18 H :    0.120683
  19 H :    0.122159
  20 C :   -0.227528
  21 H :    0.122571
  22 H :    0.133486
  23 C :   -0.224721
  24 H :    0.118036
  25 H :    0.119296
  26 O :   -0.324537
  27 H :    0.111998
  28 H :    0.125687
  29 H :    0.108658
  30 H :    0.133233

  Mayer bond orders larger than 0.100000
B(  0-C ,  1-N ) :   0.8245 B(  0-C ,  7-C ) :  -0.1166 B(  0-C ,  9-C ) :   0.1754
B(  0-C , 12-H ) :  -0.1961 B(  0-C , 17-C ) :   0.6510 B(  0-C , 18-H ) :   0.8273
B(  0-C , 19-H ) :   0.9033 B(  1-N ,  7-C ) :   0.8458 B(  1-N ,  9-C ) :   0.1377
B(  1-N , 12-H ) :   0.7132 B(  2-C ,  3-C ) :   0.8023 B(  2-C , 20-C ) :   0.8606
B(  2-C , 21-H ) :   0.9064 B(  2-C , 22-H ) :   0.8745 B(  3-C ,  4-H ) :   0.7732
B(  3-C ,  5-H ) :   0.7767 B(  3-C ,  6-S ) :   0.8451 B(  3-C , 23-C ) :   0.1003
B(  6-S , 15-F ) :   0.9954 B(  6-S , 16-O ) :   1.6972 B(  6-S , 26-O ) :   1.7530
B(  7-C ,  8-N ) :   0.7632 B(  7-C ,  9-C ) :   0.9340 B(  7-C , 10-H ) :  -0.1012
B(  7-C , 11-H ) :  -0.1231 B(  7-C , 14-H ) :  -0.1008 B(  8-N ,  9-C ) :   0.1171
B(  8-N , 13-H ) :   0.8961 B(  8-N , 14-H ) :   1.1060 B(  9-C , 10-H ) :   1.0102
B(  9-C , 11-H ) :   1.0044 B( 12-H , 26-O ) :  -0.1127 B( 17-C , 23-C ) :   0.9109
B( 17-C , 24-H ) :   0.8856 B( 17-C , 25-H ) :   0.9204 B( 20-C , 23-C ) :   0.3613
B( 20-C , 29-H ) :   0.9788 B( 20-C , 30-H ) :   0.9006 B( 23-C , 27-H ) :   0.9489
B( 23-C , 28-H ) :   0.8846 B( 23-C , 29-H ) :  -0.1047

FINAL SINGLE POINT ENERGY     -1070.907136532948

DIPOLE MOMENT
-------------
                                X             Y             Z
Electronic contribution:     -1.13393      -0.15331     -24.54960
Nuclear contribution   :      0.44707       2.53104      23.12246
                        -----------------------------------------
Total Dipole Moment    :     -0.68687       2.37774      -1.42714
                        -----------------------------------------
Magnitude (a.u.)       :      2.85695
Magnitude (Debye)      :      7.26178

Rotational constants in cm-1:     0.028906     0.014696     0.011110
Rotational constants in MHz :   866.591909   440.585554   333.081943

                             ****ORCA TERMINATED NORMALLY****
TOTAL RUN TIME: 0 days 0 hours 8 minutes 19 seconds 861 msec
