                         Program Version 5.0.0 -  RELEASE  -
|  1> !LC-PBE RIJCOSX def2-TZVPD def2/J TightSCF xyzfile
|  2>
|  3> *xyzfile 0 1 D4.xyz
|  4>
|  5> %MaxCore 64000
|  6>
|  7> %pal nprocs 4
|  8> end
|  9>
| 10> %scf
| 11>   MaxIter 150
| 12> end
| 13>
| 14>
| 15>                          ****END OF INPUT****

CARTESIAN COORDINATES (ANGSTROEM)
---------------------------------
  C      1.963365   -1.749150   -1.896887
  C      2.738490   -2.015170   -3.097113
  C      0.611877    1.657634   -4.500288
  C      1.694991    1.541794   -5.570447
  H      2.697326    1.734659   -5.183996
  H      1.506656    2.272239   -6.358076
  S      1.780287   -0.033128   -6.428739
  C      4.049736   -2.154717   -3.152044
  N      4.658206   -1.986293   -4.318655
  N      4.764231   -2.454435   -2.050491
  H      4.287363   -2.776259   -1.217496
  H      5.750825   -2.658351   -2.125988
  H      2.345176   -1.690274   -3.971447
  H      4.109004   -1.592677   -5.071760
  H      5.649095   -2.156462   -4.427237
  O      2.569287    0.213657   -7.607360
  F      0.416880   -0.462969   -6.618595
  C      2.088520   -0.300912   -1.415204
  H      2.231272   -2.451616   -1.102643
  H      0.930249   -1.977801   -2.155438
  C      0.680356    0.655418   -3.348038
  H     -0.356865    1.549231   -4.991128
  H      0.650228    2.675438   -4.096000
  C      1.968993    0.733582   -2.535654
  H      3.051356   -0.168602   -0.911868
  H      1.316501   -0.136231   -0.657252
  O      2.505129   -0.933263   -5.482570
  H      2.824195    0.624726   -3.208464
  H      2.058919    1.730331   -2.093112
  H      0.542252   -0.344731   -3.766662
  H     -0.174219    0.829692   -2.685182

 Total Charge           Charge          ....    0
 Multiplicity           Mult            ....    1
 Number of Electrons    NEL             ....  120
 Basis Dimension        Dim             ....  689

ORBITAL ENERGIES
----------------

  NO   OCC          E(Eh)            E(eV)
   0   2.0000     -88.546042     -2409.4603
   1   2.0000     -24.626751      -670.1280
   2   2.0000     -19.004699      -517.1441
   3   2.0000     -18.989273      -516.7244
   4   2.0000     -14.196918      -386.3178
   5   2.0000     -14.179938      -385.8557
   6   2.0000     -10.182639      -277.0837
   7   2.0000     -10.146301      -276.0949
   8   2.0000     -10.140067      -275.9252
   9   2.0000     -10.117359      -275.3073
  10   2.0000     -10.101437      -274.8741
  11   2.0000     -10.090074      -274.5649
  12   2.0000     -10.077403      -274.2201
  13   2.0000     -10.000758      -272.1345
  14   2.0000      -8.157789      -221.9847
  15   2.0000      -6.178147      -168.1159
  16   2.0000      -6.171151      -167.9256
  17   2.0000      -6.170608      -167.9108
  18   2.0000      -1.557545       -42.3830
  19   2.0000      -1.290390       -35.1133
  20   2.0000      -1.183254       -32.1980
  21   2.0000      -1.114473       -30.3263
  22   2.0000      -1.025215       -27.8975
  23   2.0000      -1.015999       -27.6467
  24   2.0000      -0.973703       -26.4958
  25   2.0000      -0.926477       -25.2107
  26   2.0000      -0.893225       -24.3059
  27   2.0000      -0.863690       -23.5022
  28   2.0000      -0.820197       -22.3187
  29   2.0000      -0.785470       -21.3737
  30   2.0000      -0.761514       -20.7218
  31   2.0000      -0.758517       -20.6403
  32   2.0000      -0.739895       -20.1336
  33   2.0000      -0.709710       -19.3122
  34   2.0000      -0.695933       -18.9373
  35   2.0000      -0.671061       -18.2605
  36   2.0000      -0.645656       -17.5692
  37   2.0000      -0.645162       -17.5558
  38   2.0000      -0.623506       -16.9665
  39   2.0000      -0.619800       -16.8656
  40   2.0000      -0.611636       -16.6434
  41   2.0000      -0.586931       -15.9712
  42   2.0000      -0.581114       -15.8129
  43   2.0000      -0.574738       -15.6394
  44   2.0000      -0.559815       -15.2333
  45   2.0000      -0.537415       -14.6238
  46   2.0000      -0.526049       -14.3145
  47   2.0000      -0.515577       -14.0296
  48   2.0000      -0.511374       -13.9152
  49   2.0000      -0.504769       -13.7355
  50   2.0000      -0.489578       -13.3221
  51   2.0000      -0.476239       -12.9591
  52   2.0000      -0.467753       -12.7282
  53   2.0000      -0.460414       -12.5285
  54   2.0000      -0.448106       -12.1936
  55   2.0000      -0.441410       -12.0114
  56   2.0000      -0.426828       -11.6146
  57   2.0000      -0.406037       -11.0488
  58   2.0000      -0.377326       -10.2676
  59   2.0000      -0.253672        -6.9028
  60   0.0000       0.041366         1.1256
  61   0.0000       0.054297         1.4775
  62   0.0000       0.060986         1.6595
  63   0.0000       0.068446         1.8625
  64   0.0000       0.081295         2.2121

MULLIKEN ATOMIC CHARGES
-----------------------
   0 C :   -0.876494
   1 C :   -0.978728
   2 C :   -0.892131
   3 C :   -0.772676
   4 H :    0.468036
   5 H :    0.441067
   6 S :    0.931381
   7 C :    0.227525
   8 N :   -0.430021
   9 N :   -0.460515
  10 H :    0.221677
  11 H :    0.159566
  12 H :    1.080253
  13 H :    0.297020
  14 H :    0.121417
  15 O :   -0.582078
  16 F :   -0.110031
  17 C :   -0.659632
  18 H :    0.592319
  19 H :    0.288590
  20 C :   -0.559255
  21 H :    0.399192
  22 H :    0.406296
  23 C :   -0.681965
  24 H :    0.334720
  25 H :    0.364366
  26 O :   -0.724322
  27 H :    0.374456
  28 H :    0.389004
  29 H :    0.249598
  30 H :    0.381365
Sum of atomic charges:   -0.0000000

LOEWDIN ATOMIC CHARGES
----------------------
   0 C :   -0.245080
   1 C :   -0.171174
   2 C :   -0.242058
   3 C :   -0.228996
   4 H :    0.126340
   5 H :    0.114961
   6 S :    0.632141
   7 C :   -0.537697
   8 N :    0.111571
   9 N :    0.116385
  10 H :    0.104124
  11 H :    0.101370
  12 H :    0.021041
  13 H :    0.068360
  14 H :    0.109475
  15 O :   -0.253022
  16 F :   -0.012067
  17 C :   -0.213356
  18 H :    0.107382
  19 H :    0.111810
  20 C :   -0.228227
  21 H :    0.117398
  22 H :    0.130363
  23 C :   -0.224977
  24 H :    0.117478
  25 H :    0.114110
  26 O :   -0.325787
  27 H :    0.113802
  28 H :    0.123729
  29 H :    0.108991
  30 H :    0.131608

  Mayer bond orders larger than 0.100000
B(  0-C ,  1-C ) :   0.2521 B(  0-C ,  7-C ) :   0.1630 B(  0-C , 17-C ) :   0.6680
B(  0-C , 18-H ) :   0.7439 B(  0-C , 19-H ) :   1.0684 B(  0-C , 23-C ) :  -0.1014
B(  1-C ,  7-C ) :   1.5691 B(  1-C , 12-H ) :   0.4663 B(  1-C , 17-C ) :  -0.2288
B(  1-C , 18-H ) :  -0.2000 B(  1-C , 23-C ) :   0.1080 B(  1-C , 26-O ) :   0.3644
B(  2-C ,  3-C ) :   0.7093 B(  2-C , 20-C ) :   0.7542 B(  2-C , 21-H ) :   0.9268
B(  2-C , 22-H ) :   0.8778 B(  3-C ,  4-H ) :   0.8040 B(  3-C ,  5-H ) :   0.8801
B(  3-C ,  6-S ) :   0.8668 B(  3-C , 15-O ) :   0.1064 B(  3-C , 20-C ) :  -0.1040
B(  6-S , 15-O ) :   1.6229 B(  6-S , 16-F ) :   1.0120 B(  6-S , 26-O ) :   1.7989
B(  7-C ,  8-N ) :   0.8292 B(  7-C ,  9-N ) :   0.8480 B(  7-C , 12-H ) :  -0.2674
B(  8-N , 13-H ) :   0.9166 B(  8-N , 14-H ) :   1.1417 B(  9-N , 10-H ) :   0.9556
B(  9-N , 11-H ) :   1.0919 B( 12-H , 26-O ) :  -0.5833 B( 17-C , 23-C ) :   0.8716
B( 17-C , 24-H ) :   0.9309 B( 17-C , 25-H ) :   0.8890 B( 20-C , 23-C ) :   0.4745
B( 20-C , 29-H ) :   0.9834 B( 20-C , 30-H ) :   0.8952 B( 23-C , 27-H ) :   0.9734
B( 23-C , 28-H ) :   0.8865 B( 27-H , 28-H ) :   0.1016

FINAL SINGLE POINT ENERGY     -1070.901089716900

DIPOLE MOMENT
-------------
                                X             Y             Z
Electronic contribution:     -3.06569      -2.11314     -21.72045
Nuclear contribution   :      2.64598       3.36033      21.85869
                        -----------------------------------------
Total Dipole Moment    :     -0.41970       1.24720       0.13824
                        -----------------------------------------
Magnitude (a.u.)       :      1.32316
Magnitude (Debye)      :      3.36321

Rotational constants in cm-1:     0.028973     0.014435     0.011026
Rotational constants in MHz :   868.588266   432.748309   330.548534

                             ****ORCA TERMINATED NORMALLY****
TOTAL RUN TIME: 0 days 0 hours 7 minutes 36 seconds 453 msec
