                         Program Version 5.0.0 -  RELEASE  -
|  1> !LC-PBE RIJCOSX def2-TZVPD def2/J TightSCF xyzfile
|  2>
|  3> *xyzfile 0 1 D5.xyz
|  4>
|  5> %MaxCore 64000
|  6>
|  7> %pal nprocs 4
|  8> end
|  9>
| 10> %scf
| 11>   MaxIter 150
| 12> end
| 13>
| 14>
| 15>                          ****END OF INPUT****

CARTESIAN COORDINATES (ANGSTROEM)
---------------------------------
  C      1.963365   -1.749150   -1.896887
  N      2.738490   -2.015170   -3.097113
  C      0.611877    1.657634   -4.500288
  C      1.694991    1.541794   -5.570447
  H      2.697326    1.734659   -5.183996
  H      1.506656    2.272239   -6.358076
  S      1.780287   -0.033128   -6.428739
  C      4.049736   -2.154717   -3.152044
  C      4.658206   -1.986293   -4.318655
  N      4.764231   -2.454435   -2.050491
  H      4.287363   -2.776259   -1.217496
  H      5.750825   -2.658351   -2.125988
  H      2.345176   -1.690274   -3.971447
  H      4.109004   -1.592677   -5.071760
  H      5.649095   -2.156462   -4.427237
  O      2.569287    0.213657   -7.607360
  F      0.416880   -0.462969   -6.618595
  C      2.088520   -0.300912   -1.415204
  H      2.231272   -2.451616   -1.102643
  H      0.930249   -1.977801   -2.155438
  C      0.680356    0.655418   -3.348038
  H     -0.356865    1.549231   -4.991128
  H      0.650228    2.675438   -4.096000
  C      1.968993    0.733582   -2.535654
  H      3.051356   -0.168602   -0.911868
  H      1.316501   -0.136231   -0.657252
  O      2.505129   -0.933263   -5.482570
  H      2.824195    0.624726   -3.208464
  H      2.058919    1.730331   -2.093112
  H      0.542252   -0.344731   -3.766662
  H     -0.174219    0.829692   -2.685182

 Total Charge           Charge          ....    0
 Multiplicity           Mult            ....    1
 Number of Electrons    NEL             ....  120
 Basis Dimension        Dim             ....  689

ORBITAL ENERGIES
----------------

  NO   OCC          E(Eh)            E(eV)
   0   2.0000     -88.547073     -2409.4884
   1   2.0000     -24.628059      -670.1635
   2   2.0000     -19.005764      -517.1731
   3   2.0000     -18.991707      -516.7906
   4   2.0000     -14.193943      -386.2368
   5   2.0000     -14.181124      -385.8880
   6   2.0000     -10.185576      -277.1636
   7   2.0000     -10.153976      -276.3037
   8   2.0000     -10.140776      -275.9445
   9   2.0000     -10.139899      -275.9207
  10   2.0000     -10.131196      -275.6839
  11   2.0000     -10.116936      -275.2958
  12   2.0000     -10.110843      -275.1300
  13   2.0000      -9.991873      -271.8927
  14   2.0000      -8.158824      -222.0129
  15   2.0000      -6.179303      -168.1474
  16   2.0000      -6.172182      -167.9536
  17   2.0000      -6.171554      -167.9365
  18   2.0000      -1.559150       -42.4266
  19   2.0000      -1.291202       -35.1354
  20   2.0000      -1.184747       -32.2386
  21   2.0000      -1.124161       -30.5900
  22   2.0000      -1.038058       -28.2470
  23   2.0000      -1.029259       -28.0076
  24   2.0000      -0.972946       -26.4752
  25   2.0000      -0.931175       -25.3386
  26   2.0000      -0.890193       -24.2234
  27   2.0000      -0.870200       -23.6794
  28   2.0000      -0.827369       -22.5139
  29   2.0000      -0.793196       -21.5840
  30   2.0000      -0.765307       -20.8251
  31   2.0000      -0.762639       -20.7525
  32   2.0000      -0.746961       -20.3258
  33   2.0000      -0.727128       -19.7861
  34   2.0000      -0.699460       -19.0333
  35   2.0000      -0.667409       -18.1611
  36   2.0000      -0.653679       -17.7875
  37   2.0000      -0.643327       -17.5058
  38   2.0000      -0.627418       -17.0729
  39   2.0000      -0.621079       -16.9004
  40   2.0000      -0.613048       -16.6819
  41   2.0000      -0.601418       -16.3654
  42   2.0000      -0.589447       -16.0397
  43   2.0000      -0.572643       -15.5824
  44   2.0000      -0.565714       -15.3939
  45   2.0000      -0.540138       -14.6979
  46   2.0000      -0.536711       -14.6047
  47   2.0000      -0.522779       -14.2255
  48   2.0000      -0.512441       -13.9442
  49   2.0000      -0.504798       -13.7363
  50   2.0000      -0.495069       -13.4715
  51   2.0000      -0.485752       -13.2180
  52   2.0000      -0.474159       -12.9025
  53   2.0000      -0.463437       -12.6108
  54   2.0000      -0.460878       -12.5411
  55   2.0000      -0.454269       -12.3613
  56   2.0000      -0.447779       -12.1847
  57   2.0000      -0.442017       -12.0279
  58   2.0000      -0.363280        -9.8853
  59   2.0000      -0.256319        -6.9748
  60   0.0000       0.038879         1.0579
  61   0.0000       0.052710         1.4343
  62   0.0000       0.060952         1.6586
  63   0.0000       0.066732         1.8159
  64   0.0000       0.078357         2.1322

MULLIKEN ATOMIC CHARGES
-----------------------
   0 C :   -1.149585
   1 N :   -0.253030
   2 C :   -0.896788
   3 C :   -0.788358
   4 H :    0.469567
   5 H :    0.446159
   6 S :    0.940312
   7 C :    0.912361
   8 C :   -1.569727
   9 N :   -0.463902
  10 H :    0.207825
  11 H :    0.187539
  12 H :    0.461472
  13 H :    0.629908
  14 H :    0.302233
  15 O :   -0.575473
  16 F :   -0.111681
  17 C :   -0.598985
  18 H :    0.461585
  19 H :    0.385427
  20 C :   -0.626605
  21 H :    0.402690
  22 H :    0.402185
  23 C :   -0.678112
  24 H :    0.371220
  25 H :    0.414331
  26 O :   -0.729877
  27 H :    0.413184
  28 H :    0.383472
  29 H :    0.281833
  30 H :    0.368821
Sum of atomic charges:   -0.0000000

LOEWDIN ATOMIC CHARGES
----------------------
   0 C :   -0.208767
   1 N :    0.014058
   2 C :   -0.241015
   3 C :   -0.228182
   4 H :    0.127887
   5 H :    0.115705
   6 S :    0.631958
   7 C :   -0.561171
   8 C :   -0.009403
   9 N :    0.110454
  10 H :    0.094086
  11 H :    0.111739
  12 H :    0.074852
  13 H :   -0.014137
  14 H :    0.021505
  15 O :   -0.243677
  16 F :   -0.016185
  17 C :   -0.201571
  18 H :    0.115583
  19 H :    0.120702
  20 C :   -0.232581
  21 H :    0.118183
  22 H :    0.131303
  23 C :   -0.221315
  24 H :    0.118073
  25 H :    0.117634
  26 O :   -0.324539
  27 H :    0.115332
  28 H :    0.126734
  29 H :    0.105192
  30 H :    0.131564

  Mayer bond orders larger than 0.100000
B(  0-C ,  1-N ) :   0.8749 B(  0-C ,  7-C ) :  -0.1968 B(  0-C ,  9-N ) :   0.1386
B(  0-C , 12-H ) :  -0.1455 B(  0-C , 17-C ) :   0.6112 B(  0-C , 18-H ) :   0.8124
B(  0-C , 19-H ) :   0.9442 B(  1-N ,  7-C ) :   0.8601 B(  1-N , 12-H ) :   0.7920
B(  2-C ,  3-C ) :   0.7035 B(  2-C , 20-C ) :   0.7688 B(  2-C , 21-H ) :   0.9287
B(  2-C , 22-H ) :   0.8780 B(  3-C ,  4-H ) :   0.8095 B(  3-C ,  5-H ) :   0.8778
B(  3-C ,  6-S ) :   0.8690 B(  3-C , 15-O ) :   0.1138 B(  3-C , 23-C ) :   0.1004
B(  6-S , 15-O ) :   1.6367 B(  6-S , 16-F ) :   0.9897 B(  6-S , 26-O ) :   1.7847
B(  7-C ,  8-C ) :   0.9229 B(  7-C ,  9-N ) :   0.7960 B(  7-C , 14-H ) :  -0.1838
B(  8-C , 13-H ) :   0.7398 B(  8-C , 14-H ) :   1.1337 B(  8-C , 26-O ) :   0.2240
B(  9-N , 10-H ) :   0.9967 B(  9-N , 11-H ) :   1.0365 B( 12-H , 26-O ) :  -0.1262
B( 13-H , 26-O ) :  -0.2512 B( 17-C , 23-C ) :   0.8932 B( 17-C , 24-H ) :   0.8878
B( 17-C , 25-H ) :   0.9397 B( 20-C , 23-C ) :   0.4312 B( 20-C , 29-H ) :   0.9724
B( 20-C , 30-H ) :   0.9276 B( 23-C , 27-H ) :   0.9201 B( 23-C , 28-H ) :   0.8780

FINAL SINGLE POINT ENERGY     -1070.894993038497

DIPOLE MOMENT
-------------
                                X             Y             Z
Electronic contribution:     -4.68105      -1.92527     -20.69278
Nuclear contribution   :      2.89225       3.36404      21.70199
                        -----------------------------------------
Total Dipole Moment    :     -1.78880       1.43876       1.00922
                        -----------------------------------------
Magnitude (a.u.)       :      2.50766
Magnitude (Debye)      :      6.37397

Rotational constants in cm-1:     0.029431     0.014408     0.011084
Rotational constants in MHz :   882.306106   431.946714   332.288152

                             ****ORCA TERMINATED NORMALLY****
TOTAL RUN TIME: 0 days 0 hours 8 minutes 16 seconds 232 msec
