                         Program Version 5.0.0 -  RELEASE  -
|  1> !LC-PBE RIJCOSX def2-TZVPD def2/J TightSCF xyzfile
|  2>
|  3> *xyzfile 0 1 D6.xyz
|  4>
|  5> %MaxCore 64000
|  6>
|  7> %pal nprocs 4
|  8> end
|  9>
| 10> %scf
| 11>   MaxIter 150
| 12> end
| 13>
| 14>
| 15>                          ****END OF INPUT****

CARTESIAN COORDINATES (ANGSTROEM)
---------------------------------
  C      1.963365   -1.749150   -1.896887
  N      2.738490   -2.015170   -3.097113
  C      0.611877    1.657634   -4.500288
  C      1.694991    1.541794   -5.570447
  H      2.697326    1.734659   -5.183996
  H      1.506656    2.272239   -6.358076
  S      1.780287   -0.033128   -6.428739
  C      4.049736   -2.154717   -3.152044
  N      4.658206   -1.986293   -4.318655
  C      4.764231   -2.454435   -2.050491
  H      4.287363   -2.776259   -1.217496
  H      5.750825   -2.658351   -2.125988
  H      2.345176   -1.690274   -3.971447
  H      4.109004   -1.592677   -5.071760
  H      5.649095   -2.156462   -4.427237
  O      2.569287    0.213657   -7.607360
  F      0.416880   -0.462969   -6.618595
  C      2.088520   -0.300912   -1.415204
  H      2.231272   -2.451616   -1.102643
  H      0.930249   -1.977801   -2.155438
  C      0.680356    0.655418   -3.348038
  H     -0.356865    1.549231   -4.991128
  H      0.650228    2.675438   -4.096000
  C      1.968993    0.733582   -2.535654
  H      3.051356   -0.168602   -0.911868
  H      1.316501   -0.136231   -0.657252
  O      2.505129   -0.933263   -5.482570
  H      2.824195    0.624726   -3.208464
  H      2.058919    1.730331   -2.093112
  H      0.542252   -0.344731   -3.766662
  H     -0.174219    0.829692   -2.685182

 Total Charge           Charge          ....    0
 Multiplicity           Mult            ....    1
 Number of Electrons    NEL             ....  120
 Basis Dimension        Dim             ....  689

ORBITAL ENERGIES
----------------

  NO   OCC          E(Eh)            E(eV)
   0   2.0000     -88.564637     -2409.9663
   1   2.0000     -24.642630      -670.5601
   2   2.0000     -19.021164      -517.5922
   3   2.0000     -19.012747      -517.3632
   4   2.0000     -14.183614      -385.9558
   5   2.0000     -14.179952      -385.8561
   6   2.0000     -10.196835      -277.4700
   7   2.0000     -10.160277      -276.4752
   8   2.0000     -10.143351      -276.0146
   9   2.0000     -10.134460      -275.7727
  10   2.0000     -10.134173      -275.7649
  11   2.0000     -10.117853      -275.3208
  12   2.0000     -10.105393      -274.9817
  13   2.0000     -10.001338      -272.1502
  14   2.0000      -8.176240      -222.4868
  15   2.0000      -6.196603      -168.6181
  16   2.0000      -6.189823      -168.4336
  17   2.0000      -6.188901      -168.4086
  18   2.0000      -1.573572       -42.8191
  19   2.0000      -1.308450       -35.6047
  20   2.0000      -1.203812       -32.7574
  21   2.0000      -1.125352       -30.6224
  22   2.0000      -1.042625       -28.3713
  23   2.0000      -1.031472       -28.0678
  24   2.0000      -0.975368       -26.5411
  25   2.0000      -0.928881       -25.2761
  26   2.0000      -0.896233       -24.3877
  27   2.0000      -0.859533       -23.3891
  28   2.0000      -0.849442       -23.1145
  29   2.0000      -0.805396       -21.9159
  30   2.0000      -0.777067       -21.1451
  31   2.0000      -0.773555       -21.0495
  32   2.0000      -0.745064       -20.2742
  33   2.0000      -0.729286       -19.8449
  34   2.0000      -0.688190       -18.7266
  35   2.0000      -0.675695       -18.3866
  36   2.0000      -0.660819       -17.9818
  37   2.0000      -0.656292       -17.8586
  38   2.0000      -0.645483       -17.5645
  39   2.0000      -0.633699       -17.2438
  40   2.0000      -0.612310       -16.6618
  41   2.0000      -0.603219       -16.4144
  42   2.0000      -0.585757       -15.9392
  43   2.0000      -0.575685       -15.6652
  44   2.0000      -0.565352       -15.3840
  45   2.0000      -0.552150       -15.0248
  46   2.0000      -0.534577       -14.5466
  47   2.0000      -0.528372       -14.3777
  48   2.0000      -0.514689       -14.0054
  49   2.0000      -0.504435       -13.7264
  50   2.0000      -0.499585       -13.5944
  51   2.0000      -0.495370       -13.4797
  52   2.0000      -0.481466       -13.1014
  53   2.0000      -0.472933       -12.8692
  54   2.0000      -0.469519       -12.7763
  55   2.0000      -0.460565       -12.5326
  56   2.0000      -0.456796       -12.4300
  57   2.0000      -0.443700       -12.0737
  58   2.0000      -0.354448        -9.6450
  59   2.0000      -0.259758        -7.0684
  60   0.0000       0.032665         0.8889
  61   0.0000       0.047018         1.2794
  62   0.0000       0.054812         1.4915
  63   0.0000       0.063662         1.7323
  64   0.0000       0.077037         2.0963

MULLIKEN ATOMIC CHARGES
-----------------------
   0 C :   -1.152454
   1 N :   -0.315513
   2 C :   -0.892617
   3 C :   -0.776326
   4 H :    0.473179
   5 H :    0.443545
   6 S :    0.944946
   7 C :    0.953725
   8 N :   -0.405923
   9 C :   -1.485269
  10 H :    0.315879
  11 H :    0.367129
  12 H :    0.548340
  13 H :    0.335126
  14 H :    0.120453
  15 O :   -0.571099
  16 F :   -0.103624
  17 C :   -0.604491
  18 H :    0.469351
  19 H :    0.396859
  20 C :   -0.611328
  21 H :    0.405000
  22 H :    0.408859
  23 C :   -0.670276
  24 H :    0.377783
  25 H :    0.414271
  26 O :   -0.770253
  27 H :    0.373869
  28 H :    0.379226
  29 H :    0.265977
  30 H :    0.365656
Sum of atomic charges:    0.0000000

LOEWDIN ATOMIC CHARGES
----------------------
   0 C :   -0.203633
   1 N :    0.013086
   2 C :   -0.240400
   3 C :   -0.226795
   4 H :    0.127776
   5 H :    0.117165
   6 S :    0.637496
   7 C :   -0.565743
   8 N :    0.116068
   9 C :   -0.021244
  10 H :    0.005298
  11 H :    0.008554
  12 H :    0.070297
  13 H :    0.061371
  14 H :    0.121121
  15 O :   -0.242716
  16 F :   -0.009657
  17 C :   -0.197327
  18 H :    0.120747
  19 H :    0.120379
  20 C :   -0.232751
  21 H :    0.118621
  22 H :    0.132476
  23 C :   -0.222467
  24 H :    0.118837
  25 H :    0.119242
  26 O :   -0.323637
  27 H :    0.113658
  28 H :    0.126930
  29 H :    0.104566
  30 H :    0.132681

  Mayer bond orders larger than 0.100000
B(  0-C ,  1-N ) :   0.8213 B(  0-C ,  7-C ) :  -0.1178 B(  0-C ,  9-C ) :   0.1748
B(  0-C , 12-H ) :  -0.1975 B(  0-C , 17-C ) :   0.6491 B(  0-C , 18-H ) :   0.8256
B(  0-C , 19-H ) :   0.9121 B(  1-N ,  7-C ) :   0.8463 B(  1-N ,  9-C ) :   0.1393
B(  1-N , 12-H ) :   0.7178 B(  2-C ,  3-C ) :   0.7009 B(  2-C , 20-C ) :   0.7692
B(  2-C , 21-H ) :   0.9297 B(  2-C , 22-H ) :   0.8745 B(  3-C ,  4-H ) :   0.8043
B(  3-C ,  5-H ) :   0.8780 B(  3-C ,  6-S ) :   0.8640 B(  3-C , 15-O ) :   0.1060
B(  6-S , 15-O ) :   1.6419 B(  6-S , 16-F ) :   1.0147 B(  6-S , 26-O ) :   1.7744
B(  7-C ,  8-N ) :   0.7526 B(  7-C ,  9-C ) :   0.9341 B(  7-C , 10-H ) :  -0.1020
B(  7-C , 11-H ) :  -0.1216 B(  7-C , 14-H ) :  -0.1023 B(  8-N ,  9-C ) :   0.1213
B(  8-N , 13-H ) :   0.8982 B(  8-N , 14-H ) :   1.1020 B(  9-C , 10-H ) :   1.0125
B(  9-C , 11-H ) :   1.0027 B( 12-H , 26-O ) :  -0.1362 B( 17-C , 23-C ) :   0.9199
B( 17-C , 24-H ) :   0.8844 B( 17-C , 25-H ) :   0.9208 B( 20-C , 23-C ) :   0.4183
B( 20-C , 29-H ) :   0.9854 B( 20-C , 30-H ) :   0.9293 B( 23-C , 27-H ) :   0.9469
B( 23-C , 28-H ) :   0.8745

FINAL SINGLE POINT ENERGY     -1070.907332160039

DIPOLE MOMENT
-------------
                                X             Y             Z
Electronic contribution:     -4.91976      -1.33316     -22.73353
Nuclear contribution   :      2.90585       3.30398      21.99296
                        -----------------------------------------
Total Dipole Moment    :     -2.01391       1.97082      -0.74058
                        -----------------------------------------
Magnitude (a.u.)       :      2.91349
Magnitude (Debye)      :      7.40550

Rotational constants in cm-1:     0.029065     0.014689     0.011200
Rotational constants in MHz :   871.338526   440.374927   335.770911

                             ****ORCA TERMINATED NORMALLY****
TOTAL RUN TIME: 0 days 0 hours 8 minutes 6 seconds 674 msec
