                         Program Version 5.0.0 -  RELEASE  -
|  1> !LC-PBE RIJCOSX def2-TZVPD def2/J TightSCF xyzfile
|  2>
|  3> *xyzfile 0 1 D7.xyz
|  4>
|  5> %MaxCore 64000
|  6>
|  7> %pal nprocs 4
|  8> end
|  9>
| 10> %scf
| 11>   MaxIter 150
| 12> end
| 13>
| 14>
| 15>                          ****END OF INPUT****

CARTESIAN COORDINATES (ANGSTROEM)
---------------------------------
  C      1.963365   -1.749150   -1.896887
  C      2.738490   -2.015170   -3.097113
  C      0.611877    1.657634   -4.500288
  C      1.694991    1.541794   -5.570447
  H      2.697326    1.734659   -5.183996
  H      1.506656    2.272239   -6.358076
  S      1.780287   -0.033128   -6.428739
  C      4.049736   -2.154717   -3.152044
  N      4.658206   -1.986293   -4.318655
  N      4.764231   -2.454435   -2.050491
  H      4.287363   -2.776259   -1.217496
  H      5.750825   -2.658351   -2.125988
  H      2.345176   -1.690274   -3.971447
  H      4.109004   -1.592677   -5.071760
  H      5.649095   -2.156462   -4.427237
  O      2.569287    0.213657   -7.607360
  O      0.416880   -0.462969   -6.618595
  C      2.088520   -0.300912   -1.415204
  H      2.231272   -2.451616   -1.102643
  H      0.930249   -1.977801   -2.155438
  C      0.680356    0.655418   -3.348038
  H     -0.356865    1.549231   -4.991128
  H      0.650228    2.675438   -4.096000
  C      1.968993    0.733582   -2.535654
  H      3.051356   -0.168602   -0.911868
  H      1.316501   -0.136231   -0.657252
  F      2.505129   -0.933263   -5.482570
  H      2.824195    0.624726   -3.208464
  H      2.058919    1.730331   -2.093112
  H      0.542252   -0.344731   -3.766662
  H     -0.174219    0.829692   -2.685182

 Total Charge           Charge          ....    0
 Multiplicity           Mult            ....    1
 Number of Electrons    NEL             ....  120
 Basis Dimension        Dim             ....  689

ORBITAL ENERGIES
----------------

  NO   OCC          E(Eh)            E(eV)
   0   2.0000     -88.535143     -2409.1637
   1   2.0000     -24.600487      -669.4133
   2   2.0000     -18.998716      -516.9813
   3   2.0000     -18.998112      -516.9649
   4   2.0000     -14.216786      -386.8584
   5   2.0000     -14.211611      -386.7176
   6   2.0000     -10.177013      -276.9306
   7   2.0000     -10.165411      -276.6149
   8   2.0000     -10.138868      -275.8926
   9   2.0000     -10.118623      -275.3417
  10   2.0000     -10.110016      -275.1075
  11   2.0000     -10.100850      -274.8581
  12   2.0000     -10.092631      -274.6345
  13   2.0000     -10.030604      -272.9466
  14   2.0000      -8.147006      -221.6913
  15   2.0000      -6.167810      -167.8347
  16   2.0000      -6.160324      -167.6309
  17   2.0000      -6.159516      -167.6090
  18   2.0000      -1.521097       -41.3912
  19   2.0000      -1.293793       -35.2059
  20   2.0000      -1.195504       -32.5313
  21   2.0000      -1.140089       -31.0234
  22   2.0000      -1.042306       -28.3626
  23   2.0000      -1.020873       -27.7794
  24   2.0000      -0.981640       -26.7118
  25   2.0000      -0.930130       -25.3101
  26   2.0000      -0.901388       -24.5280
  27   2.0000      -0.862622       -23.4731
  28   2.0000      -0.833895       -22.6914
  29   2.0000      -0.789801       -21.4916
  30   2.0000      -0.748854       -20.3774
  31   2.0000      -0.738567       -20.0974
  32   2.0000      -0.731742       -19.9117
  33   2.0000      -0.721208       -19.6251
  34   2.0000      -0.697263       -18.9735
  35   2.0000      -0.691008       -18.8033
  36   2.0000      -0.655505       -17.8372
  37   2.0000      -0.643212       -17.5027
  38   2.0000      -0.638435       -17.3727
  39   2.0000      -0.616435       -16.7741
  40   2.0000      -0.611037       -16.6272
  41   2.0000      -0.600683       -16.3454
  42   2.0000      -0.591789       -16.1034
  43   2.0000      -0.574647       -15.6369
  44   2.0000      -0.563190       -15.3252
  45   2.0000      -0.543566       -14.7912
  46   2.0000      -0.540486       -14.7074
  47   2.0000      -0.529169       -14.3994
  48   2.0000      -0.524557       -14.2739
  49   2.0000      -0.502823       -13.6825
  50   2.0000      -0.493378       -13.4255
  51   2.0000      -0.476031       -12.9535
  52   2.0000      -0.475300       -12.9336
  53   2.0000      -0.465471       -12.6661
  54   2.0000      -0.463184       -12.6039
  55   2.0000      -0.449550       -12.2329
  56   2.0000      -0.439623       -11.9628
  57   2.0000      -0.433957       -11.8086
  58   2.0000      -0.401838       -10.9346
  59   2.0000      -0.278752        -7.5852
  60   0.0000       0.050586         1.3765
  61   0.0000       0.056401         1.5348
  62   0.0000       0.063656         1.7322
  63   0.0000       0.066322         1.8047
  64   0.0000       0.079952         2.1756

MULLIKEN ATOMIC CHARGES
-----------------------
   0 C :   -0.889262
   1 C :   -0.888278
   2 C :   -0.834093
   3 C :   -0.804086
   4 H :    0.483247
   5 H :    0.439771
   6 S :    0.924750
   7 C :    0.278530
   8 N :   -0.448557
   9 N :   -0.464081
  10 H :    0.226158
  11 H :    0.163013
  12 H :    0.930662
  13 H :    0.296439
  14 H :    0.122601
  15 O :   -0.581277
  16 O :   -0.565933
  17 C :   -0.672242
  18 H :    0.597255
  19 H :    0.299367
  20 C :   -0.667299
  21 H :    0.400832
  22 H :    0.412635
  23 C :   -0.612386
  24 H :    0.337839
  25 H :    0.368101
  26 F :   -0.253783
  27 H :    0.350936
  28 H :    0.386089
  29 H :    0.288996
  30 H :    0.374058
Sum of atomic charges:   -0.0000000

LOEWDIN ATOMIC CHARGES
----------------------
   0 C :   -0.240345
   1 C :   -0.164800
   2 C :   -0.239781
   3 C :   -0.234728
   4 H :    0.115531
   5 H :    0.122182
   6 S :    0.597314
   7 C :   -0.533473
   8 N :    0.114846
   9 N :    0.123861
  10 H :    0.107911
  11 H :    0.105217
  12 H :    0.041677
  13 H :    0.084161
  14 H :    0.115323
  15 O :   -0.260252
  16 O :   -0.244899
  17 C :   -0.212202
  18 H :    0.110216
  19 H :    0.115695
  20 C :   -0.226338
  21 H :    0.121493
  22 H :    0.129630
  23 C :   -0.228232
  24 H :    0.117699
  25 H :    0.116564
  26 F :   -0.131664
  27 H :    0.109703
  28 H :    0.125199
  29 H :    0.109381
  30 H :    0.133110

  Mayer bond orders larger than 0.100000
B(  0-C ,  1-C ) :   0.3029 B(  0-C ,  7-C ) :   0.1336 B(  0-C , 17-C ) :   0.6813
B(  0-C , 18-H ) :   0.7252 B(  0-C , 19-H ) :   1.0745 B(  1-C ,  7-C ) :   1.5442
B(  1-C , 12-H ) :   0.4704 B(  1-C , 17-C ) :  -0.2221 B(  1-C , 18-H ) :  -0.1984
B(  1-C , 23-C ) :   0.1219 B(  1-C , 26-F ) :   0.2726 B(  2-C ,  3-C ) :   0.7449
B(  2-C , 20-C ) :   0.8711 B(  2-C , 21-H ) :   0.9179 B(  2-C , 22-H ) :   0.8781
B(  3-C ,  4-H ) :   0.7872 B(  3-C ,  5-H ) :   0.8437 B(  3-C ,  6-S ) :   0.8981
B(  6-S , 15-O ) :   1.5585 B(  6-S , 16-O ) :   1.6160 B(  6-S , 26-F ) :   1.1390
B(  7-C ,  8-N ) :   0.7568 B(  7-C ,  9-N ) :   0.8455 B(  7-C , 12-H ) :  -0.2315
B(  7-C , 14-H ) :  -0.1037 B(  8-N , 13-H ) :   0.9300 B(  8-N , 14-H ) :   1.1460
B(  9-N , 10-H ) :   0.9519 B(  9-N , 11-H ) :   1.0930 B( 12-H , 26-F ) :  -0.3119
B( 17-C , 23-C ) :   0.8892 B( 17-C , 24-H ) :   0.9323 B( 17-C , 25-H ) :   0.8906
B( 20-C , 23-C ) :   0.3480 B( 20-C , 27-H ) :  -0.1004 B( 20-C , 29-H ) :   1.0208
B( 20-C , 30-H ) :   0.8777 B( 23-C , 27-H ) :   1.0147 B( 23-C , 28-H ) :   0.8874
B( 23-C , 29-H ) :  -0.1381

FINAL SINGLE POINT ENERGY     -1070.919098371782

DIPOLE MOMENT
-------------
                                X             Y             Z
Electronic contribution:      0.77527      -3.09572     -19.34178
Nuclear contribution   :      0.26049       3.89757      20.56096
                        -----------------------------------------
Total Dipole Moment    :      1.03576       0.80185       1.21919
                        -----------------------------------------
Magnitude (a.u.)       :      1.78946
Magnitude (Debye)      :      4.54845

Rotational constants in cm-1:     0.029090     0.014735     0.011139
Rotational constants in MHz :   872.086433   441.731892   333.928051

                             ****ORCA TERMINATED NORMALLY****
TOTAL RUN TIME: 0 days 0 hours 7 minutes 31 seconds 820 msec
