                         Program Version 5.0.0 -  RELEASE  -
|  1> !LC-PBE RIJCOSX def2-TZVPD def2/J TightSCF xyzfile
|  2>
|  3> *xyzfile 0 1 D8.xyz
|  4>
|  5> %MaxCore 64000
|  6>
|  7> %pal nprocs 4
|  8> end
|  9>
| 10> %scf
| 11>   MaxIter 150
| 12> end
| 13>
| 14>
| 15>                          ****END OF INPUT****

CARTESIAN COORDINATES (ANGSTROEM)
---------------------------------
  C      1.963365   -1.749150   -1.896887
  N      2.738490   -2.015170   -3.097113
  C      0.611877    1.657634   -4.500288
  C      1.694991    1.541794   -5.570447
  H      2.697326    1.734659   -5.183996
  H      1.506656    2.272239   -6.358076
  S      1.780287   -0.033128   -6.428739
  C      4.049736   -2.154717   -3.152044
  C      4.658206   -1.986293   -4.318655
  N      4.764231   -2.454435   -2.050491
  H      4.287363   -2.776259   -1.217496
  H      5.750825   -2.658351   -2.125988
  H      2.345176   -1.690274   -3.971447
  H      4.109004   -1.592677   -5.071760
  H      5.649095   -2.156462   -4.427237
  O      2.569287    0.213657   -7.607360
  O      0.416880   -0.462969   -6.618595
  C      2.088520   -0.300912   -1.415204
  H      2.231272   -2.451616   -1.102643
  H      0.930249   -1.977801   -2.155438
  C      0.680356    0.655418   -3.348038
  H     -0.356865    1.549231   -4.991128
  H      0.650228    2.675438   -4.096000
  C      1.968993    0.733582   -2.535654
  H      3.051356   -0.168602   -0.911868
  H      1.316501   -0.136231   -0.657252
  F      2.505129   -0.933263   -5.482570
  H      2.824195    0.624726   -3.208464
  H      2.058919    1.730331   -2.093112
  H      0.542252   -0.344731   -3.766662
  H     -0.174219    0.829692   -2.685182

 Total Charge           Charge          ....    0
 Multiplicity           Mult            ....    1
 Number of Electrons    NEL             ....  120
 Basis Dimension        Dim             ....  689

ORBITAL ENERGIES
----------------

  NO   OCC          E(Eh)            E(eV)
   0   2.0000     -88.536636     -2409.2043
   1   2.0000     -24.601459      -669.4397
   2   2.0000     -19.000289      -517.0241
   3   2.0000     -18.998448      -516.9740
   4   2.0000     -14.214449      -386.7948
   5   2.0000     -14.211899      -386.7254
   6   2.0000     -10.180346      -277.0213
   7   2.0000     -10.166387      -276.6415
   8   2.0000     -10.156893      -276.3831
   9   2.0000     -10.147022      -276.1145
  10   2.0000     -10.133481      -275.7460
  11   2.0000     -10.126242      -275.5491
  12   2.0000     -10.122295      -275.4417
  13   2.0000     -10.021436      -272.6971
  14   2.0000      -8.148417      -221.7297
  15   2.0000      -6.169206      -167.8726
  16   2.0000      -6.161832      -167.6720
  17   2.0000      -6.160873      -167.6459
  18   2.0000      -1.521844       -41.4115
  19   2.0000      -1.294729       -35.2314
  20   2.0000      -1.196385       -32.5553
  21   2.0000      -1.149798       -31.2876
  22   2.0000      -1.058496       -28.8032
  23   2.0000      -1.027916       -27.9710
  24   2.0000      -0.979857       -26.6633
  25   2.0000      -0.939694       -25.5704
  26   2.0000      -0.890062       -24.2198
  27   2.0000      -0.878374       -23.9018
  28   2.0000      -0.839877       -22.8542
  29   2.0000      -0.800095       -21.7717
  30   2.0000      -0.756989       -20.5987
  31   2.0000      -0.752539       -20.4776
  32   2.0000      -0.731679       -19.9100
  33   2.0000      -0.726555       -19.7706
  34   2.0000      -0.704144       -19.1607
  35   2.0000      -0.683134       -18.5890
  36   2.0000      -0.654985       -17.8230
  37   2.0000      -0.649529       -17.6746
  38   2.0000      -0.635711       -17.2986
  39   2.0000      -0.628405       -17.0998
  40   2.0000      -0.616391       -16.7729
  41   2.0000      -0.608584       -16.5604
  42   2.0000      -0.591917       -16.1069
  43   2.0000      -0.579254       -15.7623
  44   2.0000      -0.565310       -15.3829
  45   2.0000      -0.551661       -15.0115
  46   2.0000      -0.543324       -14.7846
  47   2.0000      -0.532891       -14.5007
  48   2.0000      -0.520714       -14.1693
  49   2.0000      -0.512147       -13.9362
  50   2.0000      -0.504735       -13.7345
  51   2.0000      -0.499523       -13.5927
  52   2.0000      -0.485821       -13.2199
  53   2.0000      -0.477470       -12.9926
  54   2.0000      -0.469672       -12.7804
  55   2.0000      -0.464539       -12.6407
  56   2.0000      -0.461192       -12.5497
  57   2.0000      -0.457473       -12.4485
  58   2.0000      -0.386308       -10.5120
  59   2.0000      -0.282825        -7.6960
  60   0.0000       0.050562         1.3759
  61   0.0000       0.057879         1.5750
  62   0.0000       0.062139         1.6909
  63   0.0000       0.066205         1.8015
  64   0.0000       0.078063         2.1242

MULLIKEN ATOMIC CHARGES
-----------------------
   0 C :   -1.136806
   1 N :   -0.264038
   2 C :   -0.842608
   3 C :   -0.818839
   4 H :    0.490174
   5 H :    0.443857
   6 S :    0.943980
   7 C :    0.906245
   8 C :   -1.546160
   9 N :   -0.465421
  10 H :    0.210711
  11 H :    0.189842
  12 H :    0.444877
  13 H :    0.599535
  14 H :    0.302642
  15 O :   -0.573769
  16 O :   -0.571198
  17 C :   -0.597955
  18 H :    0.457084
  19 H :    0.387932
  20 C :   -0.718935
  21 H :    0.407005
  22 H :    0.409861
  23 C :   -0.615695
  24 H :    0.370686
  25 H :    0.416973
  26 F :   -0.272554
  27 H :    0.386810
  28 H :    0.379221
  29 H :    0.322723
  30 H :    0.353819
Sum of atomic charges:   -0.0000000

LOEWDIN ATOMIC CHARGES
----------------------
   0 C :   -0.203678
   1 N :    0.019042
   2 C :   -0.238932
   3 C :   -0.233355
   4 H :    0.117356
   5 H :    0.123083
   6 S :    0.597549
   7 C :   -0.555912
   8 C :   -0.006543
   9 N :    0.119037
  10 H :    0.098330
  11 H :    0.115526
  12 H :    0.097552
  13 H :   -0.001938
  14 H :    0.025916
  15 O :   -0.251884
  16 O :   -0.248893
  17 C :   -0.200417
  18 H :    0.118395
  19 H :    0.124295
  20 C :   -0.229937
  21 H :    0.122267
  22 H :    0.130642
  23 C :   -0.224211
  24 H :    0.118395
  25 H :    0.120182
  26 F :   -0.131347
  27 H :    0.111743
  28 H :    0.128329
  29 H :    0.106166
  30 H :    0.133240

  Mayer bond orders larger than 0.100000
B(  0-C ,  1-N ) :   0.8822 B(  0-C ,  7-C ) :  -0.2041 B(  0-C ,  9-N ) :   0.1427
B(  0-C , 12-H ) :  -0.1471 B(  0-C , 17-C ) :   0.6117 B(  0-C , 18-H ) :   0.8199
B(  0-C , 19-H ) :   0.9393 B(  1-N ,  7-C ) :   0.8526 B(  1-N , 12-H ) :   0.7660
B(  2-C ,  3-C ) :   0.7276 B(  2-C , 20-C ) :   0.8957 B(  2-C , 21-H ) :   0.9167
B(  2-C , 22-H ) :   0.8767 B(  3-C ,  4-H ) :   0.7915 B(  3-C ,  5-H ) :   0.8408
B(  3-C ,  6-S ) :   0.8828 B(  3-C , 15-O ) :   0.1078 B(  3-C , 23-C ) :   0.1011
B(  6-S , 15-O ) :   1.5678 B(  6-S , 16-O ) :   1.6126 B(  6-S , 26-F ) :   1.1471
B(  7-C ,  8-C ) :   0.9515 B(  7-C ,  9-N ) :   0.8088 B(  7-C , 14-H ) :  -0.1791
B(  8-C , 13-H ) :   0.7010 B(  8-C , 14-H ) :   1.1439 B(  8-C , 26-F ) :   0.2383
B(  9-N , 10-H ) :   0.9939 B(  9-N , 11-H ) :   1.0346 B( 12-H , 26-F ) :  -0.1024
B( 13-H , 26-F ) :  -0.1350 B( 17-C , 23-C ) :   0.9075 B( 17-C , 24-H ) :   0.8948
B( 17-C , 25-H ) :   0.9423 B( 20-C , 23-C ) :   0.2757 B( 20-C , 29-H ) :   1.0011
B( 20-C , 30-H ) :   0.9152 B( 23-C , 27-H ) :   0.9689 B( 23-C , 28-H ) :   0.8788
B( 23-C , 29-H ) :  -0.1636

FINAL SINGLE POINT ENERGY     -1070.913257634692

DIPOLE MOMENT
-------------
                                X             Y             Z
Electronic contribution:     -0.86683      -2.89731     -18.27617
Nuclear contribution   :      0.50676       3.90127      20.40426
                        -----------------------------------------
Total Dipole Moment    :     -0.36007       1.00396       2.12810
                        -----------------------------------------
Magnitude (a.u.)       :      2.38042
Magnitude (Debye)      :      6.05054

Rotational constants in cm-1:     0.029548     0.014706     0.011197
Rotational constants in MHz :   885.834387   440.871746   335.667619

                             ****ORCA TERMINATED NORMALLY****
TOTAL RUN TIME: 0 days 0 hours 7 minutes 36 seconds 150 msec
