                         Program Version 5.0.0 -  RELEASE  -
|  1> !LC-PBE RIJCOSX def2-TZVPD def2/J TightSCF xyzfile
|  2>
|  3> *xyzfile 0 1 D9.xyz
|  4>
|  5> %MaxCore 64000
|  6>
|  7> %pal nprocs 4
|  8> end
|  9>
| 10> %scf
| 11>   MaxIter 150
| 12> end
| 13>
| 14>
| 15>                          ****END OF INPUT****

CARTESIAN COORDINATES (ANGSTROEM)
---------------------------------
  C      1.963365   -1.749150   -1.896887
  N      2.738490   -2.015170   -3.097113
  C      0.611877    1.657634   -4.500288
  C      1.694991    1.541794   -5.570447
  H      2.697326    1.734659   -5.183996
  H      1.506656    2.272239   -6.358076
  S      1.780287   -0.033128   -6.428739
  C      4.049736   -2.154717   -3.152044
  N      4.658206   -1.986293   -4.318655
  C      4.764231   -2.454435   -2.050491
  H      4.287363   -2.776259   -1.217496
  H      5.750825   -2.658351   -2.125988
  H      2.345176   -1.690274   -3.971447
  H      4.109004   -1.592677   -5.071760
  H      5.649095   -2.156462   -4.427237
  O      2.569287    0.213657   -7.607360
  O      0.416880   -0.462969   -6.618595
  C      2.088520   -0.300912   -1.415204
  H      2.231272   -2.451616   -1.102643
  H      0.930249   -1.977801   -2.155438
  C      0.680356    0.655418   -3.348038
  H     -0.356865    1.549231   -4.991128
  H      0.650228    2.675438   -4.096000
  C      1.968993    0.733582   -2.535654
  H      3.051356   -0.168602   -0.911868
  H      1.316501   -0.136231   -0.657252
  F      2.505129   -0.933263   -5.482570
  H      2.824195    0.624726   -3.208464
  H      2.058919    1.730331   -2.093112
  H      0.542252   -0.344731   -3.766662
  H     -0.174219    0.829692   -2.685182

 Total Charge           Charge          ....    0
 Multiplicity           Mult            ....    1
 Number of Electrons    NEL             ....  120
 Basis Dimension        Dim             ....  689

ORBITAL ENERGIES
----------------

  NO   OCC          E(Eh)            E(eV)
   0   2.0000     -88.550473     -2409.5809
   1   2.0000     -24.624004      -670.0532
   2   2.0000     -19.013108      -517.3730
   3   2.0000     -19.012840      -517.3657
   4   2.0000     -14.213936      -386.7809
   5   2.0000     -14.211754      -386.7215
   6   2.0000     -10.190392      -277.2947
   7   2.0000     -10.166836      -276.6537
   8   2.0000     -10.152492      -276.2634
   9   2.0000     -10.149976      -276.1949
  10   2.0000     -10.135980      -275.8140
  11   2.0000     -10.126732      -275.5624
  12   2.0000     -10.116546      -275.2852
  13   2.0000     -10.023421      -272.7512
  14   2.0000      -8.162444      -222.1114
  15   2.0000      -6.183476      -168.2609
  16   2.0000      -6.175609      -168.0469
  17   2.0000      -6.174802      -168.0249
  18   2.0000      -1.543470       -42.0000
  19   2.0000      -1.309051       -35.6211
  20   2.0000      -1.209840       -32.9214
  21   2.0000      -1.153926       -31.3999
  22   2.0000      -1.061817       -28.8935
  23   2.0000      -1.033461       -28.1219
  24   2.0000      -0.979899       -26.6644
  25   2.0000      -0.934667       -25.4336
  26   2.0000      -0.904702       -24.6182
  27   2.0000      -0.866857       -23.5884
  28   2.0000      -0.863603       -23.4998
  29   2.0000      -0.805079       -21.9073
  30   2.0000      -0.768392       -20.9090
  31   2.0000      -0.761582       -20.7237
  32   2.0000      -0.742871       -20.2145
  33   2.0000      -0.721209       -19.6251
  34   2.0000      -0.701359       -19.0849
  35   2.0000      -0.692001       -18.8303
  36   2.0000      -0.669061       -18.2061
  37   2.0000      -0.658836       -17.9278
  38   2.0000      -0.651965       -17.7409
  39   2.0000      -0.632335       -17.2067
  40   2.0000      -0.620423       -16.8826
  41   2.0000      -0.608556       -16.5596
  42   2.0000      -0.591680       -16.1004
  43   2.0000      -0.581640       -15.8272
  44   2.0000      -0.569542       -15.4980
  45   2.0000      -0.556925       -15.1547
  46   2.0000      -0.544691       -14.8218
  47   2.0000      -0.538355       -14.6494
  48   2.0000      -0.518233       -14.1018
  49   2.0000      -0.511995       -13.9321
  50   2.0000      -0.506350       -13.7785
  51   2.0000      -0.500249       -13.6125
  52   2.0000      -0.496581       -13.5127
  53   2.0000      -0.482777       -13.1370
  54   2.0000      -0.478223       -13.0131
  55   2.0000      -0.469636       -12.7795
  56   2.0000      -0.466931       -12.7058
  57   2.0000      -0.454503       -12.3677
  58   2.0000      -0.381262       -10.3747
  59   2.0000      -0.282700        -7.6926
  60   0.0000       0.044907         1.2220
  61   0.0000       0.054790         1.4909
  62   0.0000       0.056298         1.5319
  63   0.0000       0.064357         1.7512
  64   0.0000       0.080705         2.1961

MULLIKEN ATOMIC CHARGES
-----------------------
   0 C :   -1.138153
   1 N :   -0.340078
   2 C :   -0.834744
   3 C :   -0.810822
   4 H :    0.490684
   5 H :    0.441824
   6 S :    0.929234
   7 C :    0.953518
   8 N :   -0.419827
   9 C :   -1.475925
  10 H :    0.319505
  11 H :    0.368668
  12 H :    0.517615
  13 H :    0.325015
  14 H :    0.122151
  15 O :   -0.573075
  16 O :   -0.555254
  17 C :   -0.610595
  18 H :    0.467560
  19 H :    0.402276
  20 C :   -0.706572
  21 H :    0.408029
  22 H :    0.415506
  23 C :   -0.599463
  24 H :    0.374261
  25 H :    0.416852
  26 F :   -0.263562
  27 H :    0.338850
  28 H :    0.375903
  29 H :    0.308511
  30 H :    0.352108
Sum of atomic charges:   -0.0000000

LOEWDIN ATOMIC CHARGES
----------------------
   0 C :   -0.198931
   1 N :    0.016578
   2 C :   -0.238316
   3 C :   -0.232971
   4 H :    0.116786
   5 H :    0.124200
   6 S :    0.599066
   7 C :   -0.563519
   8 N :    0.118711
   9 C :   -0.008809
  10 H :    0.011074
  11 H :    0.013973
  12 H :    0.092886
  13 H :    0.076876
  14 H :    0.126165
  15 O :   -0.251850
  16 O :   -0.242171
  17 C :   -0.196204
  18 H :    0.123339
  19 H :    0.123964
  20 C :   -0.230354
  21 H :    0.122676
  22 H :    0.131669
  23 C :   -0.225552
  24 H :    0.119295
  25 H :    0.121659
  26 F :   -0.127997
  27 H :    0.109671
  28 H :    0.128422
  29 H :    0.105463
  30 H :    0.134200

  Mayer bond orders larger than 0.100000
B(  0-C ,  1-N ) :   0.8575 B(  0-C ,  7-C ) :  -0.1234 B(  0-C ,  9-C ) :   0.1680
B(  0-C , 12-H ) :  -0.1974 B(  0-C , 17-C ) :   0.6616 B(  0-C , 18-H ) :   0.8229
B(  0-C , 19-H ) :   0.9043 B(  1-N ,  7-C ) :   0.8105 B(  1-N ,  9-C ) :   0.1302
B(  1-N , 12-H ) :   0.7046 B(  2-C ,  3-C ) :   0.7248 B(  2-C , 20-C ) :   0.8969
B(  2-C , 21-H ) :   0.9195 B(  2-C , 22-H ) :   0.8754 B(  3-C ,  4-H ) :   0.7851
B(  3-C ,  5-H ) :   0.8399 B(  3-C ,  6-S ) :   0.8871 B(  6-S , 15-O ) :   1.5815
B(  6-S , 16-O ) :   1.6377 B(  6-S , 26-F ) :   1.1280 B(  7-C ,  8-N ) :   0.7000
B(  7-C ,  9-C ) :   0.9318 B(  7-C , 11-H ) :  -0.1283 B(  7-C , 14-H ) :  -0.1078
B(  8-N ,  9-C ) :   0.1140 B(  8-N , 13-H ) :   0.9108 B(  8-N , 14-H ) :   1.1067
B(  9-C , 10-H ) :   1.0040 B(  9-C , 11-H ) :   0.9985 B( 12-H , 26-F ) :  -0.1043
B( 17-C , 23-C ) :   0.9373 B( 17-C , 24-H ) :   0.8935 B( 17-C , 25-H ) :   0.9221
B( 20-C , 23-C ) :   0.2643 B( 20-C , 27-H ) :  -0.1028 B( 20-C , 29-H ) :   1.0117
B( 20-C , 30-H ) :   0.9137 B( 23-C , 27-H ) :   0.9999 B( 23-C , 28-H ) :   0.8730
B( 23-C , 29-H ) :  -0.1648

FINAL SINGLE POINT ENERGY     -1070.916027638955

DIPOLE MOMENT
-------------
                                X             Y             Z
Electronic contribution:     -1.05278      -2.33850     -20.28456
Nuclear contribution   :      0.52036       3.84122      20.69523
                        -----------------------------------------
Total Dipole Moment    :     -0.53242       1.50272       0.41067
                        -----------------------------------------
Magnitude (a.u.)       :      1.64630
Magnitude (Debye)      :      4.18456

Rotational constants in cm-1:     0.029184     0.014996     0.011314
Rotational constants in MHz :   874.907122   449.569665   339.178205

                             ****ORCA TERMINATED NORMALLY****
TOTAL RUN TIME: 0 days 0 hours 7 minutes 31 seconds 409 msec
