                         Program Version 5.0.0 -  RELEASE  -
|  1> !M062X D3Zero RIJCOSX def2-SVPD def2/J TightSCF
|  2> *xyz -1 1
|  3> C         -0.29041        0.95134       -5.15342
|  4> C         -0.05517        1.61942       -3.78858
|  5> H          0.04501        0.86230       -3.00301
|  6> H         -0.92294        2.23033       -3.51703
|  7> C          1.22302        2.46987       -3.75691
|  8> H          1.11470        3.25807       -4.53300
|  9> H          1.23773        3.01124       -2.79216
| 10> O          2.35381        1.71203       -3.93448
| 11> H         -0.38575        1.70447       -5.90748
| 12> H         -1.18723        0.36894       -5.11561
| 13> H          0.53806        0.31571       -5.38692
| 14> *
| 15>
| 16> %MaxCore 64000
| 17>
| 18> %pal nprocs 4
| 19> end
| 20>
| 21> %scf
| 22>   MaxIter 150
| 23> end
| 24>
| 25>
| 26>                          ****END OF INPUT****

CARTESIAN COORDINATES (ANGSTROEM)
---------------------------------
  C     -0.290410    0.951340   -5.153420
  C     -0.055170    1.619420   -3.788580
  H      0.045010    0.862300   -3.003010
  H     -0.922940    2.230330   -3.517030
  C      1.223020    2.469870   -3.756910
  H      1.114700    3.258070   -4.533000
  H      1.237730    3.011240   -2.792160
  O      2.353810    1.712030   -3.934480
  H     -0.385750    1.704470   -5.907480
  H     -1.187230    0.368940   -5.115610
  H      0.538060    0.315710   -5.386920

 Total Charge           Charge          ....   -1
 Multiplicity           Mult            ....    1
 Number of Electrons    NEL             ....   34
 Basis Dimension        Dim             ....  139

ORBITAL ENERGIES
----------------

  NO   OCC          E(Eh)            E(eV)
   0   2.0000     -19.301979      -525.2335
   1   2.0000     -10.368782      -282.1489
   2   2.0000     -10.365011      -282.0463
   3   2.0000     -10.357809      -281.8503
   4   2.0000      -0.781973       -21.2786
   5   2.0000      -0.669990       -18.2313
   6   2.0000      -0.548994       -14.9389
   7   2.0000      -0.441226       -12.0064
   8   2.0000      -0.341531        -9.2935
   9   2.0000      -0.334226        -9.0948
  10   2.0000      -0.285486        -7.7685
  11   2.0000      -0.251012        -6.8304
  12   2.0000      -0.222052        -6.0424
  13   2.0000      -0.214396        -5.8340
  14   2.0000      -0.175886        -4.7861
  15   2.0000      -0.036032        -0.9805
  16   2.0000      -0.033769        -0.9189
  17   0.0000       0.184428         5.0186
  18   0.0000       0.211339         5.7508
  19   0.0000       0.227865         6.2005
  20   0.0000       0.263411         7.1678
  21   0.0000       0.277752         7.5580

MULLIKEN ATOMIC CHARGES
-----------------------
   0 C :    0.599763
   1 C :   -0.451610
   2 H :   -0.097102
   3 H :   -0.122101
   4 C :    0.455428
   5 H :   -0.103099
   6 H :   -0.172797
   7 O :   -0.913494
   8 H :   -0.071575
   9 H :   -0.088329
  10 H :   -0.035084
Sum of atomic charges:   -1.0000000

LOEWDIN ATOMIC CHARGES
----------------------
   0 C :    0.093149
   1 C :   -0.114837
   2 H :    0.002928
   3 H :   -0.013836
   4 C :   -0.214661
   5 H :   -0.024951
   6 H :   -0.030761
   7 O :   -0.580312
   8 H :   -0.035642
   9 H :   -0.049809
  10 H :   -0.031268

  Mayer bond orders larger than 0.100000
B(  0-C ,  1-C ) :   1.2516 B(  0-C ,  8-H ) :   0.8254 B(  0-C ,  9-H ) :   0.8109
B(  0-C , 10-H ) :   0.8476 B(  1-C ,  2-H ) :   0.9819 B(  1-C ,  3-H ) :   1.0091
B(  1-C ,  4-C ) :   1.0408 B(  1-C ,  5-H ) :   0.1088 B(  1-C ,  6-H ) :   0.1327
B(  1-C ,  8-H ) :   0.1806 B(  1-C ,  9-H ) :   0.1841 B(  1-C , 10-H ) :   0.2014
B(  2-H ,  4-C ) :   0.1412 B(  4-C ,  5-H ) :   0.9500 B(  4-C ,  6-H ) :   0.9620
B(  4-C ,  7-O ) :   1.1304

Dispersion correction           -0.000079837
FINAL SINGLE POINT ENERGY      -193.502001313092

DIPOLE MOMENT
-------------
                                X             Y             Z
Electronic contribution:      2.88145      -0.03853       0.71048
Nuclear contribution   :     -4.97104      -0.06484      -1.04325
                        -----------------------------------------
Total Dipole Moment    :     -2.08959      -0.10337      -0.33277
                        -----------------------------------------
Magnitude (a.u.)       :      2.11844
Magnitude (Debye)      :      5.38466

Rotational constants in cm-1:     0.508668     0.174500     0.148765
Rotational constants in MHz : 15249.486055  5231.367342  4459.875680

                             ****ORCA TERMINATED NORMALLY****
TOTAL RUN TIME: 0 days 0 hours 0 minutes 11 seconds 573 msec
