                         Program Version 5.0.0 -  RELEASE  -
|  1> !M062X D3Zero RIJCOSX def2-SVPD def2/J TightSCF
|  2> *xyz 1 1
|  3> C          1.63556       -1.67040       -5.29211
|  4> C          0.33848       -1.50091       -4.50540
|  5> N          2.48451       -0.50741       -5.14039
|  6> C         -0.68487       -0.52803       -5.09989
|  7> H          1.39834       -1.82924       -6.35259
|  8> H          2.15586       -2.56540       -4.93209
|  9> C          3.45115       -0.14953       -5.95259
| 10> N          3.92267        1.08956       -5.85071
| 11> N          3.96616       -1.00618       -6.86788
| 12> H          3.52139       -1.90647       -6.99527
| 13> H          4.44482       -0.62347       -7.67035
| 14> H          2.25200        0.24080       -4.49879
| 15> H          3.46428        1.64078       -5.13639
| 16> H          4.83447        1.31375       -6.22465
| 17> H          0.59489       -1.21158       -3.48231
| 18> H         -0.12653       -2.48766       -4.43418
| 19> H         -0.92267       -0.82721       -6.09931
| 20> H         -0.27317        0.45953       -5.11162
| 21> H         -1.57350       -0.53693       -4.50394
| 22> *
| 23>
| 24> %MaxCore 64000
| 25>
| 26> %pal nprocs 4
| 27> end
| 28>
| 29> %scf
| 30>   MaxIter 150
| 31> end
| 32>
| 33>
| 34>                          ****END OF INPUT****

CARTESIAN COORDINATES (ANGSTROEM)
---------------------------------
  C      1.635560   -1.670400   -5.292110
  C      0.338480   -1.500910   -4.505400
  N      2.484510   -0.507410   -5.140390
  C     -0.684870   -0.528030   -5.099890
  H      1.398340   -1.829240   -6.352590
  H      2.155860   -2.565400   -4.932090
  C      3.451150   -0.149530   -5.952590
  N      3.922670    1.089560   -5.850710
  N      3.966160   -1.006180   -6.867880
  H      3.521390   -1.906470   -6.995270
  H      4.444820   -0.623470   -7.670350
  H      2.252000    0.240800   -4.498790
  H      3.464280    1.640780   -5.136390
  H      4.834470    1.313750   -6.224650
  H      0.594890   -1.211580   -3.482310
  H     -0.126530   -2.487660   -4.434180
  H     -0.922670   -0.827210   -6.099310
  H     -0.273170    0.459530   -5.111620
  H     -1.573500   -0.536930   -4.503940

 Total Charge           Charge          ....    1
 Multiplicity           Mult            ....    1
 Number of Electrons    NEL             ....   56
 Basis Dimension        Dim             ....  236

ORBITAL ENERGIES
----------------

  NO   OCC          E(Eh)            E(eV)
   0   2.0000     -14.988338      -407.8534
   1   2.0000     -14.984483      -407.7485
   2   2.0000     -14.982901      -407.7055
   3   2.0000     -10.888144      -296.2815
   4   2.0000     -10.757008      -292.7131
   5   2.0000     -10.696083      -291.0552
   6   2.0000     -10.665705      -290.2286
   7   2.0000      -1.321569       -35.9617
   8   2.0000      -1.200074       -32.6557
   9   2.0000      -1.185411       -32.2567
  10   2.0000      -1.033583       -28.1252
  11   2.0000      -0.945298       -25.7229
  12   2.0000      -0.904247       -24.6058
  13   2.0000      -0.859351       -23.3841
  14   2.0000      -0.843539       -22.9539
  15   2.0000      -0.807119       -21.9628
  16   2.0000      -0.758767       -20.6471
  17   2.0000      -0.753662       -20.5082
  18   2.0000      -0.731251       -19.8983
  19   2.0000      -0.712643       -19.3920
  20   2.0000      -0.666064       -18.1245
  21   2.0000      -0.642757       -17.4903
  22   2.0000      -0.620285       -16.8788
  23   2.0000      -0.563551       -15.3350
  24   2.0000      -0.547628       -14.9017
  25   2.0000      -0.545972       -14.8566
  26   2.0000      -0.540063       -14.6959
  27   2.0000      -0.510366       -13.8878
  28   0.0000      -0.131684        -3.5833
  29   0.0000      -0.131024        -3.5653
  30   0.0000      -0.102084        -2.7778
  31   0.0000      -0.084598        -2.3020
  32   0.0000      -0.066446        -1.8081

MULLIKEN ATOMIC CHARGES
-----------------------
   0 C :    0.462400
   1 C :   -0.299838
   2 N :   -0.531112
   3 C :    0.701530
   4 H :    0.022053
   5 H :   -0.136937
   6 C :    1.369880
   7 N :   -0.075157
   8 N :   -0.111729
   9 H :    0.008124
  10 H :   -0.070809
  11 H :   -0.136448
  12 H :    0.048905
  13 H :   -0.101460
  14 H :   -0.051612
  15 H :   -0.048690
  16 H :    0.017846
  17 H :   -0.040940
  18 H :   -0.026008
Sum of atomic charges:    1.0000000

LOEWDIN ATOMIC CHARGES
----------------------
   0 C :    0.060130
   1 C :   -0.054280
   2 N :    0.034837
   3 C :    0.145820
   4 H :    0.039842
   5 H :    0.043016
   6 C :   -0.024363
   7 N :    0.257115
   8 N :    0.275669
   9 H :    0.016502
  10 H :    0.037220
  11 H :    0.052199
  12 H :    0.034497
  13 H :    0.045797
  14 H :    0.030323
  15 H :    0.037241
  16 H :   -0.007754
  17 H :   -0.022747
  18 H :   -0.001063

  Mayer bond orders larger than 0.100000
B(  0-C ,  1-C ) :   1.1963 B(  0-C ,  2-N ) :   0.9450 B(  0-C ,  4-H ) :   0.8128
B(  0-C ,  5-H ) :   0.9496 B(  0-C , 11-H ) :  -0.1273 B(  0-C , 14-H ) :   0.1459
B(  0-C , 15-H ) :   0.1967 B(  1-C ,  3-C ) :   1.2801 B(  1-C , 14-H ) :   0.8903
B(  1-C , 15-H ) :   0.8779 B(  1-C , 16-H ) :   0.1861 B(  1-C , 17-H ) :   0.2167
B(  1-C , 18-H ) :   0.2201 B(  2-N ,  4-H ) :   0.1744 B(  2-N ,  5-H ) :   0.1249
B(  2-N ,  6-C ) :   1.0474 B(  2-N ,  7-N ) :   0.2999 B(  2-N ,  8-N ) :   0.2048
B(  2-N , 11-H ) :   1.1828 B(  3-C , 16-H ) :   0.8114 B(  3-C , 17-H ) :   0.8138
B(  3-C , 18-H ) :   0.7896 B(  6-C ,  7-N ) :   0.9094 B(  6-C ,  8-N ) :   0.8749
B(  6-C ,  9-H ) :  -0.1144 B(  6-C , 10-H ) :  -0.1288 B(  6-C , 11-H ) :  -0.2487
B(  6-C , 13-H ) :  -0.1198 B(  7-N ,  8-N ) :   0.1357 B(  7-N , 12-H ) :   1.0446
B(  7-N , 13-H ) :   1.2410 B(  8-N ,  9-H ) :   1.0273 B(  8-N , 10-H ) :   1.2215
B(  9-H , 10-H ) :  -0.1597 B( 12-H , 13-H ) :  -0.1517

Dispersion correction           -0.000502693
FINAL SINGLE POINT ENERGY      -323.329630184669

DIPOLE MOMENT
-------------
                                X             Y             Z
Electronic contribution:      7.33431       1.74154      -1.59863
Nuclear contribution   :     -5.91327      -1.13589       1.03073
                        -----------------------------------------
Total Dipole Moment    :      1.42104       0.60565      -0.56791
                        -----------------------------------------
Magnitude (a.u.)       :      1.64581
Magnitude (Debye)      :      4.18331

Rotational constants in cm-1:     0.176161     0.043658     0.038822
Rotational constants in MHz :  5281.161077  1308.843263  1163.840625

                             ****ORCA TERMINATED NORMALLY****
TOTAL RUN TIME: 0 days 0 hours 0 minutes 33 seconds 43 msec
