                         Program Version 5.0.0 -  RELEASE  -
|  1> !M062X D3Zero RIJCOSX def2-SVPD def2/J TightSCF xyzfile
|  2>
|  3> *xyzfile 0 1 B.xyz
|  4>
|  5> %MaxCore 64000
|  6>
|  7> %pal nprocs 4
|  8> end
|  9>
| 10> %scf
| 11>   MaxIter 150
| 12> end
| 13>
| 14>
| 15>                          ****END OF INPUT****

CARTESIAN COORDINATES (ANGSTROEM)
---------------------------------
  C      1.635557   -1.670396   -5.292109
  C      0.338484   -1.500907   -4.505398
  N      2.484511   -0.507410   -5.140392
  C     -0.684873   -0.528026   -5.099889
  C     -0.290406    0.951335   -5.153423
  H      0.607991    1.070692   -5.764412
  C     -0.055168    1.619420   -3.788577
  H     -1.080912    1.483775   -5.689436
  H      0.045006    0.862302   -3.003015
  H     -0.922936    2.230329   -3.517028
  C      1.223022    2.469865   -3.756911
  H      1.114701    3.258074   -4.532999
  H      1.237732    3.011242   -2.792157
  O      2.353815    1.712032   -3.934477
  H      1.398337   -1.829239   -6.352591
  H      2.155864   -2.565398   -4.932091
  C      3.451149   -0.149530   -5.952589
  N      3.922667    1.089559   -5.850711
  N      3.966162   -1.006183   -6.867880
  H      3.521391   -1.906467   -6.995270
  H      4.444824   -0.623472   -7.670348
  H      2.251995    0.240804   -4.498792
  H      3.464277    1.640782   -5.136392
  H      4.834470    1.313745   -6.224653
  H     -0.937999   -0.869056   -6.110838
  H     -1.604638   -0.622496   -4.513132
  H      0.594887   -1.211578   -3.482312
  H     -0.126530   -2.487656   -4.434176

 Total Charge           Charge          ....    0
 Multiplicity           Mult            ....    1
 Number of Electrons    NEL             ....   88
 Basis Dimension        Dim             ....  359

ORBITAL ENERGIES
----------------

  NO   OCC          E(Eh)            E(eV)
   0   2.0000     -19.504383      -530.7412
   1   2.0000     -14.821425      -403.3115
   2   2.0000     -14.778201      -402.1353
   3   2.0000     -14.776404      -402.0864
   4   2.0000     -10.701974      -291.2155
   5   2.0000     -10.604111      -288.5525
   6   2.0000     -10.554510      -287.2028
   7   2.0000     -10.541302      -286.8434
   8   2.0000     -10.528937      -286.5069
   9   2.0000     -10.522544      -286.3330
  10   2.0000     -10.503716      -285.8206
  11   2.0000      -1.135134       -30.8886
  12   2.0000      -1.023104       -27.8401
  13   2.0000      -1.002084       -27.2681
  14   2.0000      -0.982985       -26.7484
  15   2.0000      -0.891244       -24.2520
  16   2.0000      -0.834593       -22.7104
  17   2.0000      -0.775488       -21.1021
  18   2.0000      -0.734312       -19.9816
  19   2.0000      -0.706960       -19.2373
  20   2.0000      -0.677145       -18.4260
  21   2.0000      -0.655754       -17.8440
  22   2.0000      -0.637933       -17.3590
  23   2.0000      -0.602715       -16.4007
  24   2.0000      -0.580520       -15.7968
  25   2.0000      -0.570463       -15.5231
  26   2.0000      -0.561866       -15.2892
  27   2.0000      -0.548418       -14.9232
  28   2.0000      -0.511770       -13.9260
  29   2.0000      -0.495468       -13.4824
  30   2.0000      -0.484111       -13.1733
  31   2.0000      -0.478864       -13.0305
  32   2.0000      -0.451018       -12.2728
  33   2.0000      -0.431329       -11.7371
  34   2.0000      -0.422696       -11.5021
  35   2.0000      -0.401060       -10.9134
  36   2.0000      -0.383520       -10.4361
  37   2.0000      -0.375344       -10.2136
  38   2.0000      -0.366047        -9.9607
  39   2.0000      -0.357167        -9.7190
  40   2.0000      -0.352417        -9.5898
  41   2.0000      -0.322315        -8.7706
  42   2.0000      -0.243581        -6.6282
  43   2.0000      -0.237893        -6.4734
  44   0.0000       0.010804         0.2940
  45   0.0000       0.039017         1.0617
  46   0.0000       0.043476         1.1830
  47   0.0000       0.055317         1.5052
  48   0.0000       0.065243         1.7754

MULLIKEN ATOMIC CHARGES
-----------------------
   0 C :    0.719421
   1 C :    0.144922
   2 N :    0.007752
   3 C :    0.234537
   4 C :    0.183758
   5 H :    0.014854
   6 C :    0.077120
   7 H :   -0.291300
   8 H :   -0.049024
   9 H :   -0.256133
  10 C :    0.867304
  11 H :   -0.128004
  12 H :   -0.153029
  13 O :   -1.138294
  14 H :    0.017489
  15 H :   -0.227236
  16 C :    1.231039
  17 N :    0.248467
  18 N :   -0.075855
  19 H :   -0.038619
  20 H :   -0.106646
  21 H :   -0.680169
  22 H :   -0.122905
  23 H :   -0.240915
  24 H :    0.073760
  25 H :   -0.147724
  26 H :    0.037340
  27 H :   -0.201908
Sum of atomic charges:    0.0000000

LOEWDIN ATOMIC CHARGES
----------------------
   0 C :    0.059264
   1 C :   -0.016796
   2 N :    0.058671
   3 C :   -0.031138
   4 C :   -0.027077
   5 H :    0.004005
   6 C :   -0.022797
   7 H :    0.015820
   8 H :    0.007592
   9 H :    0.013781
  10 C :   -0.061088
  11 H :    0.014058
  12 H :    0.008445
  13 O :   -0.452449
  14 H :    0.023716
  15 H :    0.025025
  16 C :   -0.032908
  17 N :    0.263968
  18 N :    0.236874
  19 H :   -0.006832
  20 H :    0.012244
  21 H :   -0.101396
  22 H :   -0.095912
  23 H :    0.018429
  24 H :    0.018045
  25 H :    0.023313
  26 H :    0.022601
  27 H :    0.022541

  Mayer bond orders larger than 0.100000
B(  0-C ,  1-C ) :   1.2122 B(  0-C ,  2-N ) :   0.8911 B(  0-C , 14-H ) :   0.7307
B(  0-C , 15-H ) :   0.8831 B(  0-C , 21-H ) :  -0.1992 B(  0-C , 26-H ) :   0.1244
B(  0-C , 27-H ) :   0.1828 B(  1-C ,  3-C ) :   1.2174 B(  1-C , 24-H ) :   0.1431
B(  1-C , 25-H ) :   0.1862 B(  1-C , 26-H ) :   0.7673 B(  1-C , 27-H ) :   0.8273
B(  2-N , 13-O ) :  -0.1095 B(  2-N , 14-H ) :   0.3296 B(  2-N , 15-H ) :   0.1501
B(  2-N , 16-C ) :   1.2946 B(  2-N , 17-N ) :   0.1504 B(  2-N , 18-N ) :   0.1187
B(  2-N , 21-H ) :   1.0512 B(  3-C ,  4-C ) :   1.2845 B(  3-C ,  5-H ) :   0.1314
B(  3-C , 24-H ) :   0.6755 B(  3-C , 25-H ) :   0.8517 B(  3-C , 26-H ) :   0.1609
B(  3-C , 27-H ) :   0.1201 B(  4-C ,  5-H ) :   0.8089 B(  4-C ,  6-C ) :   1.1815
B(  4-C ,  7-H ) :   0.8130 B(  4-C ,  8-H ) :   0.1233 B(  4-C ,  9-H ) :   0.1765
B(  4-C , 24-H ) :   0.2278 B(  4-C , 25-H ) :   0.1016 B(  5-H ,  6-C ) :   0.1063
B(  5-H ,  7-H ) :  -0.1216 B(  5-H , 13-O ) :   0.1246 B(  5-H , 21-H ) :   0.1132
B(  6-C ,  8-H ) :   0.8379 B(  6-C ,  9-H ) :   0.9687 B(  6-C , 10-C ) :   1.0623
B(  6-C , 12-H ) :   0.1957 B(  6-C , 13-O ) :   0.1095 B(  8-H ,  9-H ) :  -0.1346
B(  8-H , 26-H ) :   0.1120 B( 10-C , 11-H ) :   0.8322 B( 10-C , 12-H ) :   0.8297
B( 10-C , 13-O ) :   0.9624 B( 11-H , 13-O ) :   0.2452 B( 13-O , 21-H ) :   0.3174
B( 13-O , 22-H ) :   0.2667 B( 14-H , 25-H ) :  -0.1142 B( 16-C , 17-N ) :   0.8815
B( 16-C , 18-N ) :   0.8280 B( 16-C , 19-H ) :  -0.1065 B( 16-C , 20-H ) :  -0.1135
B( 16-C , 21-H ) :  -0.4655 B( 16-C , 22-H ) :  -0.1267 B( 16-C , 23-H ) :  -0.1533
B( 17-N , 18-N ) :   0.1105 B( 17-N , 22-H ) :   1.0424 B( 17-N , 23-H ) :   1.3114
B( 18-N , 19-H ) :   1.0504 B( 18-N , 20-H ) :   1.2423 B( 19-H , 20-H ) :  -0.1626
B( 22-H , 23-H ) :  -0.1996 B( 24-H , 25-H ) :  -0.1399

Dispersion correction           -0.001334595
FINAL SINGLE POINT ENERGY      -515.858128547221

DIPOLE MOMENT
-------------
                                X             Y             Z
Electronic contribution:      8.34818      -0.92380      -2.25305
Nuclear contribution   :     -7.46499      -1.05836       0.01518
                        -----------------------------------------
Total Dipole Moment    :      0.88318      -1.98216      -2.23787
                        -----------------------------------------
Magnitude (a.u.)       :      3.11722
Magnitude (Debye)      :      7.92334

Rotational constants in cm-1:     0.044680     0.028958     0.019773
Rotational constants in MHz :  1339.486245   868.136755   592.791310

                             ****ORCA TERMINATED NORMALLY****
TOTAL RUN TIME: 0 days 0 hours 1 minutes 55 seconds 8 msec
