                         Program Version 5.0.0 -  RELEASE  -
|  1> !M062X D3Zero RIJCOSX def2-SVPD def2/J TightSCF
|  2> *xyz 0 1
|  3> C         -0.29041        0.95134       -5.15342
|  4> C         -0.05517        1.61942       -3.78858
|  5> H          0.04501        0.86230       -3.00301
|  6> H         -0.92294        2.23033       -3.51703
|  7> C          1.22302        2.46987       -3.75691
|  8> H          1.11470        3.25807       -4.53300
|  9> H          1.23773        3.01124       -2.79216
| 10> F          2.35381        1.71203       -3.93448
| 11> H         -0.38575        1.70447       -5.90748
| 12> H         -1.18723        0.36894       -5.11561
| 13> H          0.53806        0.31571       -5.38692
| 14> *
| 15>
| 16> %MaxCore 64000
| 17>
| 18> %pal nprocs 4
| 19> end
| 20>
| 21> %scf
| 22>   MaxIter 150
| 23> end
| 24>
| 25>
| 26>                          ****END OF INPUT****

CARTESIAN COORDINATES (ANGSTROEM)
---------------------------------
  C     -0.290410    0.951340   -5.153420
  C     -0.055170    1.619420   -3.788580
  H      0.045010    0.862300   -3.003010
  H     -0.922940    2.230330   -3.517030
  C      1.223020    2.469870   -3.756910
  H      1.114700    3.258070   -4.533000
  H      1.237730    3.011240   -2.792160
  F      2.353810    1.712030   -3.934480
  H     -0.385750    1.704470   -5.907480
  H     -1.187230    0.368940   -5.115610
  H      0.538060    0.315710   -5.386920

 Total Charge           Charge          ....    0
 Multiplicity           Mult            ....    1
 Number of Electrons    NEL             ....   34
 Basis Dimension        Dim             ....  139

ORBITAL ENERGIES
----------------

  NO   OCC          E(Eh)            E(eV)
   0   2.0000     -25.245089      -686.9538
   1   2.0000     -10.629751      -289.2502
   2   2.0000     -10.557070      -287.2725
   3   2.0000     -10.538549      -286.7685
   4   2.0000      -1.319200       -35.8973
   5   2.0000      -0.879650       -23.9365
   6   2.0000      -0.776057       -21.1176
   7   2.0000      -0.679483       -18.4897
   8   2.0000      -0.591954       -16.1079
   9   2.0000      -0.578950       -15.7540
  10   2.0000      -0.550728       -14.9861
  11   2.0000      -0.507398       -13.8070
  12   2.0000      -0.477263       -12.9870
  13   2.0000      -0.446688       -12.1550
  14   2.0000      -0.416382       -11.3303
  15   2.0000      -0.393638       -10.7114
  16   2.0000      -0.391660       -10.6576
  17   0.0000       0.039993         1.0883
  18   0.0000       0.064192         1.7468
  19   0.0000       0.073003         1.9865
  20   0.0000       0.092491         2.5168
  21   0.0000       0.118560         3.2262

MULLIKEN ATOMIC CHARGES
-----------------------
   0 C :    0.571535
   1 C :   -0.516408
   2 H :   -0.062409
   3 H :   -0.065007
   4 C :    0.708345
   5 H :   -0.006081
   6 H :   -0.061947
   7 F :   -0.471953
   8 H :   -0.039306
   9 H :   -0.042067
  10 H :   -0.014702
Sum of atomic charges:    0.0000000

LOEWDIN ATOMIC CHARGES
----------------------
   0 C :    0.126682
   1 C :   -0.066367
   2 H :    0.023750
   3 H :    0.024477
   4 C :    0.107422
   5 H :    0.035416
   6 H :    0.030225
   7 F :   -0.227946
   8 H :   -0.018142
   9 H :   -0.019874
  10 H :   -0.015643

  Mayer bond orders larger than 0.100000
B(  0-C ,  1-C ) :   1.2860 B(  0-C ,  8-H ) :   0.8306 B(  0-C ,  9-H ) :   0.8396
B(  0-C , 10-H ) :   0.8447 B(  1-C ,  2-H ) :   0.9885 B(  1-C ,  3-H ) :   0.9925
B(  1-C ,  4-C ) :   1.1742 B(  1-C ,  6-H ) :   0.1004 B(  1-C ,  8-H ) :   0.1670
B(  1-C ,  9-H ) :   0.1715 B(  1-C , 10-H ) :   0.1785 B(  4-C ,  5-H ) :   0.9296
B(  4-C ,  6-H ) :   0.9381 B(  4-C ,  7-F ) :   0.6589

Dispersion correction           -0.000086446
FINAL SINGLE POINT ENERGY      -218.114002165805

DIPOLE MOMENT
-------------
                                X             Y             Z
Electronic contribution:      6.15974       0.39967       1.40289
Nuclear contribution   :     -6.82889      -0.09322      -1.32039
                        -----------------------------------------
Total Dipole Moment    :     -0.66915       0.30645       0.08250
                        -----------------------------------------
Magnitude (a.u.)       :      0.74059
Magnitude (Debye)      :      1.88244

Rotational constants in cm-1:     0.494282     0.164406     0.140369
Rotational constants in MHz : 14818.207649  4928.760399  4208.156468

                             ****ORCA TERMINATED NORMALLY****
TOTAL RUN TIME: 0 days 0 hours 0 minutes 9 seconds 866 msec
