                         Program Version 5.0.0 -  RELEASE  -
|  1> !M062X D3Zero RIJCOSX def2-SVPD def2/J TightSCF
|  2> *xyz 0 1
|  3> C          1.63556       -1.67040       -5.29211
|  4> C          0.33848       -1.50091       -4.50540
|  5> C          2.48451       -0.50741       -5.14039
|  6> C         -0.68487       -0.52803       -5.09989
|  7> H          1.39834       -1.82924       -6.35259
|  8> H          2.15586       -2.56540       -4.93209
|  9> C          3.45115       -0.14953       -5.95259
| 10> N          3.92267        1.08956       -5.85071
| 11> N          3.96616       -1.00618       -6.86788
| 12> H          3.52139       -1.90647       -6.99527
| 13> H          4.44482       -0.62347       -7.67035
| 14> H          2.25200        0.24080       -4.49879
| 15> H          3.46428        1.64078       -5.13639
| 16> H          4.83447        1.31375       -6.22465
| 17> H          0.59489       -1.21158       -3.48231
| 18> H         -0.12653       -2.48766       -4.43418
| 19> H         -0.92267       -0.82721       -6.09931
| 20> H         -0.27317        0.45953       -5.11162
| 21> H         -1.57350       -0.53693       -4.50394
| 22> *
| 23>
| 24> %MaxCore 64000
| 25>
| 26> %pal nprocs 4
| 27> end
| 28>
| 29> %scf
| 30>   MaxIter 150
| 31> end
| 32>
| 33>
| 34>                          ****END OF INPUT****

CARTESIAN COORDINATES (ANGSTROEM)
---------------------------------
  C      1.635560   -1.670400   -5.292110
  C      0.338480   -1.500910   -4.505400
  C      2.484510   -0.507410   -5.140390
  C     -0.684870   -0.528030   -5.099890
  H      1.398340   -1.829240   -6.352590
  H      2.155860   -2.565400   -4.932090
  C      3.451150   -0.149530   -5.952590
  N      3.922670    1.089560   -5.850710
  N      3.966160   -1.006180   -6.867880
  H      3.521390   -1.906470   -6.995270
  H      4.444820   -0.623470   -7.670350
  H      2.252000    0.240800   -4.498790
  H      3.464280    1.640780   -5.136390
  H      4.834470    1.313750   -6.224650
  H      0.594890   -1.211580   -3.482310
  H     -0.126530   -2.487660   -4.434180
  H     -0.922670   -0.827210   -6.099310
  H     -0.273170    0.459530   -5.111620
  H     -1.573500   -0.536930   -4.503940

 Total Charge           Charge          ....    0
 Multiplicity           Mult            ....    1
 Number of Electrons    NEL             ....   56
 Basis Dimension        Dim             ....  236

ORBITAL ENERGIES
----------------

  NO   OCC          E(Eh)            E(eV)
   0   2.0000     -14.763188      -401.7268
   1   2.0000     -14.757816      -401.5806
   2   2.0000     -10.591945      -288.2215
   3   2.0000     -10.530860      -286.5593
   4   2.0000     -10.527085      -286.4565
   5   2.0000     -10.521571      -286.3065
   6   2.0000     -10.474643      -285.0295
   7   2.0000      -1.058173       -28.7944
   8   2.0000      -0.962765       -26.1982
   9   2.0000      -0.879681       -23.9373
  10   2.0000      -0.811562       -22.0837
  11   2.0000      -0.742985       -20.2177
  12   2.0000      -0.669970       -18.2308
  13   2.0000      -0.647766       -17.6266
  14   2.0000      -0.607982       -16.5440
  15   2.0000      -0.586937       -15.9714
  16   2.0000      -0.535493       -14.5715
  17   2.0000      -0.513123       -13.9628
  18   2.0000      -0.506046       -13.7702
  19   2.0000      -0.482763       -13.1366
  20   2.0000      -0.455331       -12.3902
  21   2.0000      -0.442126       -12.0309
  22   2.0000      -0.428362       -11.6563
  23   2.0000      -0.388249       -10.5648
  24   2.0000      -0.378199       -10.2913
  25   2.0000      -0.372801       -10.1444
  26   2.0000      -0.329841        -8.9754
  27   2.0000      -0.215969        -5.8768
  28   0.0000       0.036915         1.0045
  29   0.0000       0.058720         1.5979
  30   0.0000       0.061328         1.6688
  31   0.0000       0.078774         2.1436
  32   0.0000       0.087994         2.3944

MULLIKEN ATOMIC CHARGES
-----------------------
   0 C :    0.197897
   1 C :   -0.124483
   2 C :   -0.093743
   3 C :    0.715531
   4 H :   -0.050642
   5 H :   -0.158081
   6 C :    0.638606
   7 N :   -0.048983
   8 N :   -0.151101
   9 H :    0.007606
  10 H :   -0.148897
  11 H :   -0.441114
  12 H :    0.095657
  13 H :   -0.211367
  14 H :   -0.022754
  15 H :   -0.098492
  16 H :   -0.011741
  17 H :   -0.048439
  18 H :   -0.045460
Sum of atomic charges:   -0.0000000

LOEWDIN ATOMIC CHARGES
----------------------
   0 C :   -0.079275
   1 C :   -0.087044
   2 C :   -0.030992
   3 C :    0.126470
   4 H :    0.019581
   5 H :    0.019714
   6 C :   -0.223075
   7 N :    0.166553
   8 N :    0.196094
   9 H :   -0.013650
  10 H :   -0.010053
  11 H :   -0.051727
  12 H :    0.003638
  13 H :   -0.004608
  14 H :    0.020835
  15 H :    0.012890
  16 H :   -0.019082
  17 H :   -0.024500
  18 H :   -0.021769

  Mayer bond orders larger than 0.100000
B(  0-C ,  1-C ) :   1.2055 B(  0-C ,  2-C ) :   0.8649 B(  0-C ,  4-H ) :   0.8325
B(  0-C ,  5-H ) :   0.7917 B(  0-C , 11-H ) :   0.2655 B(  0-C , 14-H ) :   0.1824
B(  0-C , 15-H ) :   0.2529 B(  1-C ,  2-C ) :   0.1963 B(  1-C ,  3-C ) :   1.2733
B(  1-C , 11-H ) :  -0.1006 B(  1-C , 14-H ) :   0.8559 B(  1-C , 15-H ) :   0.8005
B(  1-C , 16-H ) :   0.1926 B(  1-C , 17-H ) :   0.2274 B(  1-C , 18-H ) :   0.2203
B(  2-C ,  4-H ) :   0.1463 B(  2-C ,  5-H ) :   0.2627 B(  2-C ,  6-C ) :   1.5677
B(  2-C ,  7-N ) :   0.3344 B(  2-C ,  8-N ) :   0.2145 B(  2-C ,  9-H ) :  -0.1088
B(  2-C , 11-H ) :   0.7318 B(  3-C , 16-H ) :   0.8123 B(  3-C , 17-H ) :   0.8211
B(  3-C , 18-H ) :   0.7678 B(  4-H , 11-H ) :   0.1042 B(  6-C ,  7-N ) :   0.8953
B(  6-C ,  8-N ) :   0.9085 B(  6-C , 11-H ) :   0.1047 B(  7-N ,  8-N ) :   0.1015
B(  7-N , 12-H ) :   1.0147 B(  7-N , 13-H ) :   1.2554 B(  8-N ,  9-H ) :   1.0310
B(  8-N , 10-H ) :   1.2147 B(  9-H , 10-H ) :  -0.1390 B( 12-H , 13-H ) :  -0.1545

Dispersion correction           -0.000498753
FINAL SINGLE POINT ENERGY      -306.864336645224

DIPOLE MOMENT
-------------
                                X             Y             Z
Electronic contribution:      6.36877       1.42823      -1.65239
Nuclear contribution   :     -5.84539      -1.11717       1.11949
                        -----------------------------------------
Total Dipole Moment    :      0.52338       0.31106      -0.53290
                        -----------------------------------------
Magnitude (a.u.)       :      0.80912
Magnitude (Debye)      :      2.05661

Rotational constants in cm-1:     0.177055     0.043715     0.038831
Rotational constants in MHz :  5307.971484  1310.555422  1164.112547

                             ****ORCA TERMINATED NORMALLY****
TOTAL RUN TIME: 0 days 0 hours 0 minutes 34 seconds 167 msec
