                         Program Version 5.0.0 -  RELEASE  -
|  1> !M062X D3Zero RIJCOSX def2-SVPD def2/J TightSCF
|  2> *xyz 0 1
|  3> C          1.63556       -1.67040       -5.29211
|  4> C          0.33848       -1.50091       -4.50540
|  5> N          2.48451       -0.50741       -5.14039
|  6> C         -0.68487       -0.52803       -5.09989
|  7> H          1.39834       -1.82924       -6.35259
|  8> H          2.15586       -2.56540       -4.93209
|  9> C          3.45115       -0.14953       -5.95259
| 10> C          3.92267        1.08956       -5.85071
| 11> N          3.96616       -1.00618       -6.86788
| 12> H          3.52139       -1.90647       -6.99527
| 13> H          4.44482       -0.62347       -7.67035
| 14> H          2.25200        0.24080       -4.49879
| 15> H          3.46428        1.64078       -5.13639
| 16> H          4.83447        1.31375       -6.22465
| 17> H          0.59489       -1.21158       -3.48231
| 18> H         -0.12653       -2.48766       -4.43418
| 19> H         -0.92267       -0.82721       -6.09931
| 20> H         -0.27317        0.45953       -5.11162
| 21> H         -1.57350       -0.53693       -4.50394
| 22> *
| 23>
| 24> %MaxCore 64000
| 25>
| 26> %pal nprocs 4
| 27> end
| 28>
| 29> %scf
| 30>   MaxIter 150
| 31> end
| 32>
| 33>
| 34>                          ****END OF INPUT****

CARTESIAN COORDINATES (ANGSTROEM)
---------------------------------
  C      1.635560   -1.670400   -5.292110
  C      0.338480   -1.500910   -4.505400
  N      2.484510   -0.507410   -5.140390
  C     -0.684870   -0.528030   -5.099890
  H      1.398340   -1.829240   -6.352590
  H      2.155860   -2.565400   -4.932090
  C      3.451150   -0.149530   -5.952590
  C      3.922670    1.089560   -5.850710
  N      3.966160   -1.006180   -6.867880
  H      3.521390   -1.906470   -6.995270
  H      4.444820   -0.623470   -7.670350
  H      2.252000    0.240800   -4.498790
  H      3.464280    1.640780   -5.136390
  H      4.834470    1.313750   -6.224650
  H      0.594890   -1.211580   -3.482310
  H     -0.126530   -2.487660   -4.434180
  H     -0.922670   -0.827210   -6.099310
  H     -0.273170    0.459530   -5.111620
  H     -1.573500   -0.536930   -4.503940

 Total Charge           Charge          ....    0
 Multiplicity           Mult            ....    1
 Number of Electrons    NEL             ....   56
 Basis Dimension        Dim             ....  236

ORBITAL ENERGIES
----------------

  NO   OCC          E(Eh)            E(eV)
   0   2.0000     -14.761249      -401.6740
   1   2.0000     -14.760716      -401.6595
   2   2.0000     -10.595449      -288.3168
   3   2.0000     -10.591733      -288.2157
   4   2.0000     -10.560605      -287.3687
   5   2.0000     -10.543216      -286.8955
   6   2.0000     -10.460329      -284.6400
   7   2.0000      -1.070663       -29.1342
   8   2.0000      -0.976868       -26.5819
   9   2.0000      -0.885570       -24.0976
  10   2.0000      -0.814893       -22.1744
  11   2.0000      -0.754337       -20.5266
  12   2.0000      -0.684158       -18.6169
  13   2.0000      -0.669579       -18.2202
  14   2.0000      -0.609765       -16.5926
  15   2.0000      -0.571867       -15.5613
  16   2.0000      -0.544135       -14.8067
  17   2.0000      -0.536405       -14.5963
  18   2.0000      -0.514433       -13.9984
  19   2.0000      -0.484782       -13.1916
  20   2.0000      -0.460742       -12.5374
  21   2.0000      -0.448779       -12.2119
  22   2.0000      -0.440557       -11.9882
  23   2.0000      -0.416799       -11.3417
  24   2.0000      -0.411890       -11.2081
  25   2.0000      -0.403826       -10.9887
  26   2.0000      -0.321064        -8.7366
  27   2.0000      -0.213245        -5.8027
  28   0.0000       0.032309         0.8792
  29   0.0000       0.049918         1.3583
  30   0.0000       0.058368         1.5883
  31   0.0000       0.068866         1.8739
  32   0.0000       0.089464         2.4344

MULLIKEN ATOMIC CHARGES
-----------------------
   0 C :    0.485958
   1 C :   -0.275458
   2 N :   -0.442709
   3 C :    0.694119
   4 H :   -0.039693
   5 H :   -0.214058
   6 C :    0.638386
   7 C :    0.432258
   8 N :   -0.049610
   9 H :   -0.109210
  10 H :   -0.064535
  11 H :   -0.166376
  12 H :   -0.182797
  13 H :   -0.468268
  14 H :   -0.071578
  15 H :   -0.083866
  16 H :    0.005748
  17 H :   -0.034334
  18 H :   -0.053977
Sum of atomic charges:    0.0000000

LOEWDIN ATOMIC CHARGES
----------------------
   0 C :    0.030582
   1 C :   -0.072423
   2 N :   -0.029854
   3 C :    0.130598
   4 H :    0.022968
   5 H :    0.021112
   6 C :   -0.229937
   7 C :    0.143359
   8 N :    0.192385
   9 H :   -0.026188
  10 H :    0.005584
  11 H :    0.028057
  12 H :   -0.104792
  13 H :   -0.098714
  14 H :    0.021583
  15 H :    0.019659
  16 H :   -0.016076
  17 H :   -0.020688
  18 H :   -0.017215

  Mayer bond orders larger than 0.100000
B(  0-C ,  1-C ) :   1.1869 B(  0-C ,  2-N ) :   0.9341 B(  0-C ,  4-H ) :   0.8322
B(  0-C ,  5-H ) :   0.9559 B(  0-C , 11-H ) :  -0.1463 B(  0-C , 14-H ) :   0.1625
B(  0-C , 15-H ) :   0.2069 B(  1-C ,  3-C ) :   1.2611 B(  1-C , 14-H ) :   0.8856
B(  1-C , 15-H ) :   0.8794 B(  1-C , 16-H ) :   0.1948 B(  1-C , 17-H ) :   0.2237
B(  1-C , 18-H ) :   0.2255 B(  2-N ,  4-H ) :   0.1724 B(  2-N ,  5-H ) :   0.1522
B(  2-N ,  6-C ) :   1.0896 B(  2-N ,  7-C ) :   0.2823 B(  2-N ,  8-N ) :   0.1157
B(  2-N , 11-H ) :   1.1328 B(  3-C , 16-H ) :   0.8123 B(  3-C , 17-H ) :   0.8184
B(  3-C , 18-H ) :   0.7808 B(  6-C ,  7-C ) :   1.6717 B(  6-C ,  8-N ) :   0.8483
B(  6-C , 10-H ) :  -0.1112 B(  6-C , 11-H ) :  -0.1923 B(  6-C , 12-H ) :   0.2470
B(  6-C , 13-H ) :   0.2696 B(  7-C ,  8-N ) :   0.2322 B(  7-C , 12-H ) :   0.8000
B(  7-C , 13-H ) :   0.6785 B(  8-N ,  9-H ) :   1.0397 B(  8-N , 10-H ) :   1.1708
B(  9-H , 10-H ) :  -0.1486

Dispersion correction           -0.000495170
FINAL SINGLE POINT ENERGY      -306.853338614972

DIPOLE MOMENT
-------------
                                X             Y             Z
Electronic contribution:      4.76646      -0.13830      -1.05044
Nuclear contribution   :     -5.53036      -0.76734       0.96389
                        -----------------------------------------
Total Dipole Moment    :     -0.76390      -0.90565      -0.08655
                        -----------------------------------------
Magnitude (a.u.)       :      1.18795
Magnitude (Debye)      :      3.01953

Rotational constants in cm-1:     0.181901     0.044719     0.039941
Rotational constants in MHz :  5453.254735  1340.639344  1197.391002

                             ****ORCA TERMINATED NORMALLY****
TOTAL RUN TIME: 0 days 0 hours 0 minutes 35 seconds 680 msec
