                         Program Version 5.0.0 -  RELEASE  -
|  1> !M062X D3Zero RIJCOSX def2-SVPD def2/J TightSCF
|  2> *xyz 0 1
|  3> C          1.63556       -1.67040       -5.29211
|  4> C          0.33848       -1.50091       -4.50540
|  5> N          2.48451       -0.50741       -5.14039
|  6> C         -0.68487       -0.52803       -5.09989
|  7> H          1.39834       -1.82924       -6.35259
|  8> H          2.15586       -2.56540       -4.93209
|  9> C          3.45115       -0.14953       -5.95259
| 10> N          3.92267        1.08956       -5.85071
| 11> C          3.96616       -1.00618       -6.86788
| 12> H          3.52139       -1.90647       -6.99527
| 13> H          4.44482       -0.62347       -7.67035
| 14> H          2.25200        0.24080       -4.49879
| 15> H          3.46428        1.64078       -5.13639
| 16> H          4.83447        1.31375       -6.22465
| 17> H          0.59489       -1.21158       -3.48231
| 18> H         -0.12653       -2.48766       -4.43418
| 19> H         -0.92267       -0.82721       -6.09931
| 20> H         -0.27317        0.45953       -5.11162
| 21> H         -1.57350       -0.53693       -4.50394
| 22> *
| 23>
| 24> %MaxCore 64000
| 25>
| 26> %pal nprocs 4
| 27> end
| 28>
| 29> %scf
| 30>   MaxIter 150
| 31> end
| 32>
| 33>
| 34>                          ****END OF INPUT****

CARTESIAN COORDINATES (ANGSTROEM)
---------------------------------
  C      1.635560   -1.670400   -5.292110
  C      0.338480   -1.500910   -4.505400
  N      2.484510   -0.507410   -5.140390
  C     -0.684870   -0.528030   -5.099890
  H      1.398340   -1.829240   -6.352590
  H      2.155860   -2.565400   -4.932090
  C      3.451150   -0.149530   -5.952590
  N      3.922670    1.089560   -5.850710
  C      3.966160   -1.006180   -6.867880
  H      3.521390   -1.906470   -6.995270
  H      4.444820   -0.623470   -7.670350
  H      2.252000    0.240800   -4.498790
  H      3.464280    1.640780   -5.136390
  H      4.834470    1.313750   -6.224650
  H      0.594890   -1.211580   -3.482310
  H     -0.126530   -2.487660   -4.434180
  H     -0.922670   -0.827210   -6.099310
  H     -0.273170    0.459530   -5.111620
  H     -1.573500   -0.536930   -4.503940

 Total Charge           Charge          ....    0
 Multiplicity           Mult            ....    1
 Number of Electrons    NEL             ....   56
 Basis Dimension        Dim             ....  236

ORBITAL ENERGIES
----------------

  NO   OCC          E(Eh)            E(eV)
   0   2.0000     -14.767798      -401.8522
   1   2.0000     -14.762752      -401.7149
   2   2.0000     -10.597166      -288.3636
   3   2.0000     -10.585299      -288.0406
   4   2.0000     -10.557216      -287.2765
   5   2.0000     -10.541998      -286.8624
   6   2.0000     -10.462766      -284.7063
   7   2.0000      -1.079494       -29.3745
   8   2.0000      -0.982471       -26.7344
   9   2.0000      -0.877282       -23.8721
  10   2.0000      -0.794384       -21.6163
  11   2.0000      -0.779671       -21.2159
  12   2.0000      -0.687938       -18.7198
  13   2.0000      -0.644754       -17.5446
  14   2.0000      -0.610441       -16.6109
  15   2.0000      -0.597479       -16.2582
  16   2.0000      -0.544739       -14.8231
  17   2.0000      -0.539295       -14.6750
  18   2.0000      -0.502507       -13.6739
  19   2.0000      -0.487903       -13.2765
  20   2.0000      -0.454892       -12.3783
  21   2.0000      -0.450406       -12.2562
  22   2.0000      -0.433256       -11.7895
  23   2.0000      -0.416154       -11.3241
  24   2.0000      -0.408202       -11.1077
  25   2.0000      -0.403331       -10.9752
  26   2.0000      -0.314293        -8.5523
  27   2.0000      -0.217403        -5.9158
  28   0.0000       0.030093         0.8189
  29   0.0000       0.049461         1.3459
  30   0.0000       0.061845         1.6829
  31   0.0000       0.068103         1.8532
  32   0.0000       0.088212         2.4004

MULLIKEN ATOMIC CHARGES
-----------------------
   0 C :    0.499217
   1 C :   -0.276157
   2 N :   -0.469889
   3 C :    0.707410
   4 H :    0.009425
   5 H :   -0.187164
   6 C :    0.522283
   7 N :    0.022474
   8 C :    0.461908
   9 H :   -0.043382
  10 H :   -0.497941
  11 H :   -0.274506
  12 H :   -0.093480
  13 H :   -0.117245
  14 H :   -0.081704
  15 H :   -0.093488
  16 H :    0.010264
  17 H :   -0.047056
  18 H :   -0.050968
Sum of atomic charges:    0.0000000

LOEWDIN ATOMIC CHARGES
----------------------
   0 C :    0.042941
   1 C :   -0.073489
   2 N :   -0.030209
   3 C :    0.128340
   4 H :    0.030271
   5 H :    0.029136
   6 C :   -0.240407
   7 N :    0.177664
   8 C :    0.165660
   9 H :   -0.123528
  10 H :   -0.107600
  11 H :    0.017318
  12 H :   -0.011318
  13 H :    0.013942
  14 H :    0.018512
  15 H :    0.020478
  16 H :   -0.015042
  17 H :   -0.024636
  18 H :   -0.018034

  Mayer bond orders larger than 0.100000
B(  0-C ,  1-C ) :   1.1736 B(  0-C ,  2-N ) :   0.9882 B(  0-C ,  4-H ) :   0.8137
B(  0-C ,  5-H ) :   0.9522 B(  0-C , 11-H ) :  -0.1304 B(  0-C , 14-H ) :   0.1599
B(  0-C , 15-H ) :   0.1914 B(  1-C ,  3-C ) :   1.2627 B(  1-C , 14-H ) :   0.8800
B(  1-C , 15-H ) :   0.8929 B(  1-C , 16-H ) :   0.1959 B(  1-C , 17-H ) :   0.2260
B(  1-C , 18-H ) :   0.2277 B(  2-N ,  4-H ) :   0.1876 B(  2-N ,  5-H ) :   0.1251
B(  2-N ,  6-C ) :   1.0753 B(  2-N ,  7-N ) :   0.2101 B(  2-N ,  8-C ) :   0.2859
B(  2-N , 11-H ) :   1.2093 B(  3-C , 16-H ) :   0.8141 B(  3-C , 17-H ) :   0.8201
B(  3-C , 18-H ) :   0.7747 B(  6-C ,  7-N ) :   0.8869 B(  6-C ,  8-C ) :   1.8143
B(  6-C ,  9-H ) :   0.3146 B(  6-C , 10-H ) :   0.2213 B(  6-C , 11-H ) :  -0.2661
B(  6-C , 13-H ) :  -0.1056 B(  7-N ,  8-C ) :   0.2317 B(  7-N , 12-H ) :   1.0637
B(  7-N , 13-H ) :   1.2221 B(  8-C ,  9-H ) :   0.6157 B(  8-C , 10-H ) :   0.7520
B(  9-H , 10-H ) :   0.1040 B( 12-H , 13-H ) :  -0.1425

Dispersion correction           -0.000500777
FINAL SINGLE POINT ENERGY      -306.854331374674

DIPOLE MOMENT
-------------
                                X             Y             Z
Electronic contribution:      4.83774       1.88889       0.01861
Nuclear contribution   :     -5.52083      -1.22643       0.74108
                        -----------------------------------------
Total Dipole Moment    :     -0.68309       0.66246       0.75968
                        -----------------------------------------
Magnitude (a.u.)       :      1.21762
Magnitude (Debye)      :      3.09493

Rotational constants in cm-1:     0.181479     0.044588     0.039739
Rotational constants in MHz :  5440.604457  1336.706831  1191.355312

                             ****ORCA TERMINATED NORMALLY****
TOTAL RUN TIME: 0 days 0 hours 0 minutes 33 seconds 887 msec
