                         Program Version 5.0.0 -  RELEASE  -
|  1> !M062X D3Zero RIJCOSX def2-SVPD def2/J TightSCF xyzfile
|  2>
|  3> *xyzfile 0 1 D1.xyz
|  4>
|  5> %MaxCore 64000
|  6>
|  7> %pal nprocs 4
|  8> end
|  9>
| 10> %scf
| 11>   MaxIter 150
| 12> end
| 13>
| 14>
| 15>                          ****END OF INPUT****

CARTESIAN COORDINATES (ANGSTROEM)
---------------------------------
  C      1.635557   -1.670396   -5.292109
  C      0.338484   -1.500907   -4.505398
  C      2.484511   -0.507410   -5.140392
  C     -0.684873   -0.528026   -5.099889
  C     -0.290406    0.951335   -5.153423
  H      0.607991    1.070692   -5.764412
  C     -0.055168    1.619420   -3.788577
  H     -1.080912    1.483775   -5.689436
  H      0.045006    0.862302   -3.003015
  H     -0.922936    2.230329   -3.517028
  C      1.223022    2.469865   -3.756911
  H      1.114701    3.258074   -4.532999
  H      1.237732    3.011242   -2.792157
  F      2.353815    1.712032   -3.934477
  H      1.398337   -1.829239   -6.352591
  H      2.155864   -2.565398   -4.932091
  C      3.451149   -0.149530   -5.952589
  N      3.922667    1.089559   -5.850711
  N      3.966162   -1.006183   -6.867880
  H      3.521391   -1.906467   -6.995270
  H      4.444824   -0.623472   -7.670348
  H      2.251995    0.240804   -4.498792
  H      3.464277    1.640782   -5.136392
  H      4.834470    1.313745   -6.224653
  H     -0.937999   -0.869056   -6.110838
  H     -1.604638   -0.622496   -4.513132
  H      0.594887   -1.211578   -3.482312
  H     -0.126530   -2.487656   -4.434176

 Total Charge           Charge          ....    0
 Multiplicity           Mult            ....    1
 Number of Electrons    NEL             ....   88
 Basis Dimension        Dim             ....  359

ORBITAL ENERGIES
----------------

  NO   OCC          E(Eh)            E(eV)
   0   2.0000     -25.272131      -687.6897
   1   2.0000     -14.748592      -401.3296
   2   2.0000     -14.732255      -400.8850
   3   2.0000     -10.641625      -289.5733
   4   2.0000     -10.573188      -287.7111
   5   2.0000     -10.557039      -287.2716
   6   2.0000     -10.539994      -286.8078
   7   2.0000     -10.537154      -286.7305
   8   2.0000     -10.527671      -286.4725
   9   2.0000     -10.517140      -286.1859
  10   2.0000     -10.446479      -284.2631
  11   2.0000      -1.356028       -36.8994
  12   2.0000      -1.040153       -28.3040
  13   2.0000      -0.945941       -25.7404
  14   2.0000      -0.901691       -24.5362
  15   2.0000      -0.867124       -23.5956
  16   2.0000      -0.814842       -22.1730
  17   2.0000      -0.778150       -21.1745
  18   2.0000      -0.723660       -19.6918
  19   2.0000      -0.688112       -18.7245
  20   2.0000      -0.656633       -17.8679
  21   2.0000      -0.633339       -17.2340
  22   2.0000      -0.620490       -16.8844
  23   2.0000      -0.599137       -16.3034
  24   2.0000      -0.591236       -16.0883
  25   2.0000      -0.579074       -15.7574
  26   2.0000      -0.562560       -15.3080
  27   2.0000      -0.527944       -14.3661
  28   2.0000      -0.510812       -13.8999
  29   2.0000      -0.508042       -13.8245
  30   2.0000      -0.486527       -13.2391
  31   2.0000      -0.472828       -12.8663
  32   2.0000      -0.462101       -12.5744
  33   2.0000      -0.446862       -12.1597
  34   2.0000      -0.427192       -11.6245
  35   2.0000      -0.425233       -11.5712
  36   2.0000      -0.413384       -11.2488
  37   2.0000      -0.399454       -10.8697
  38   2.0000      -0.381919       -10.3925
  39   2.0000      -0.368035       -10.0147
  40   2.0000      -0.362411        -9.8617
  41   2.0000      -0.352260        -9.5855
  42   2.0000      -0.312664        -8.5080
  43   2.0000      -0.197395        -5.3714
  44   0.0000       0.036763         1.0004
  45   0.0000       0.048316         1.3148
  46   0.0000       0.054221         1.4754
  47   0.0000       0.064253         1.7484
  48   0.0000       0.075763         2.0616

MULLIKEN ATOMIC CHARGES
-----------------------
   0 C :    0.383588
   1 C :    0.393715
   2 C :    0.060566
   3 C :    0.227119
   4 C :    0.128197
   5 H :    0.033645
   6 C :    0.030011
   7 H :   -0.285587
   8 H :   -0.015755
   9 H :   -0.266542
  10 C :    1.069727
  11 H :   -0.055992
  12 H :   -0.057139
  13 F :   -0.793879
  14 H :    0.014120
  15 H :   -0.202850
  16 C :    0.639430
  17 N :    0.112297
  18 N :   -0.181541
  19 H :   -0.016063
  20 H :   -0.136979
  21 H :   -0.535573
  22 H :   -0.002375
  23 H :   -0.291539
  24 H :    0.097354
  25 H :   -0.153236
  26 H :    0.023785
  27 H :   -0.218507
Sum of atomic charges:    0.0000000

LOEWDIN ATOMIC CHARGES
----------------------
   0 C :   -0.059407
   1 C :   -0.038469
   2 C :   -0.016529
   3 C :   -0.024114
   4 C :   -0.021289
   5 H :    0.009571
   6 C :    0.000496
   7 H :    0.017048
   8 H :    0.017415
   9 H :    0.028334
  10 C :    0.167503
  11 H :    0.046657
  12 H :    0.036530
  13 F :   -0.238646
  14 H :    0.017999
  15 H :    0.017595
  16 C :   -0.200927
  17 N :    0.188923
  18 N :    0.192777
  19 H :   -0.017037
  20 H :   -0.013715
  21 H :   -0.113267
  22 H :   -0.063402
  23 H :   -0.006465
  24 H :    0.023729
  25 H :    0.019029
  26 H :    0.013911
  27 H :    0.015750

  Mayer bond orders larger than 0.100000
B(  0-C ,  1-C ) :   1.1520 B(  0-C ,  2-C ) :   0.6904 B(  0-C , 14-H ) :   0.7877
B(  0-C , 15-H ) :   0.6515 B(  0-C , 21-H ) :   0.4881 B(  0-C , 26-H ) :   0.1418
B(  0-C , 27-H ) :   0.2175 B(  1-C ,  2-C ) :   0.2891 B(  1-C ,  3-C ) :   1.2230
B(  1-C , 14-H ) :  -0.1029 B(  1-C , 21-H ) :  -0.1969 B(  1-C , 24-H ) :   0.1427
B(  1-C , 25-H ) :   0.1807 B(  1-C , 26-H ) :   0.6931 B(  1-C , 27-H ) :   0.7596
B(  2-C ,  5-H ) :  -0.1527 B(  2-C , 14-H ) :   0.1996 B(  2-C , 15-H ) :   0.3326
B(  2-C , 16-C ) :   1.7637 B(  2-C , 17-N ) :   0.4248 B(  2-C , 18-N ) :   0.2968
B(  2-C , 19-H ) :  -0.1404 B(  2-C , 21-H ) :   0.1837 B(  2-C , 27-H ) :   0.1105
B(  3-C ,  4-C ) :   1.2954 B(  3-C ,  5-H ) :   0.1357 B(  3-C ,  7-H ) :   0.1066
B(  3-C , 24-H ) :   0.6746 B(  3-C , 25-H ) :   0.8500 B(  3-C , 26-H ) :   0.1627
B(  3-C , 27-H ) :   0.1300 B(  4-C ,  5-H ) :   0.8132 B(  4-C ,  6-C ) :   1.1905
B(  4-C ,  7-H ) :   0.8560 B(  4-C ,  8-H ) :   0.1222 B(  4-C ,  9-H ) :   0.1546
B(  4-C , 24-H ) :   0.2177 B(  5-H ,  7-H ) :  -0.1401 B(  5-H , 21-H ) :   0.1917
B(  6-C ,  8-H ) :   0.8516 B(  6-C ,  9-H ) :   0.9759 B(  6-C , 10-C ) :   1.1627
B(  6-C , 11-H ) :   0.1170 B(  6-C , 12-H ) :   0.1789 B(  6-C , 13-F ) :   0.1394
B(  7-H , 21-H ) :  -0.1238 B(  8-H ,  9-H ) :  -0.1222 B(  8-H , 26-H ) :   0.1264
B( 10-C , 11-H ) :   0.8044 B( 10-C , 12-H ) :   0.7941 B( 10-C , 13-F ) :   0.5767
B( 11-H , 13-F ) :   0.2984 B( 13-F , 21-H ) :  -0.1051 B( 14-H , 21-H ) :   0.1435
B( 14-H , 25-H ) :  -0.1109 B( 16-C , 17-N ) :   0.6816 B( 16-C , 18-N ) :   0.8327
B( 16-C , 21-H ) :   0.2535 B( 16-C , 23-H ) :  -0.1831 B( 17-N , 22-H ) :   1.0842
B( 17-N , 23-H ) :   1.3158 B( 18-N , 19-H ) :   1.0727 B( 18-N , 20-H ) :   1.2199
B( 18-N , 21-H ) :  -0.1213 B( 19-H , 20-H ) :  -0.1467 B( 21-H , 22-H ) :  -0.1082
B( 21-H , 27-H ) :  -0.1570 B( 22-H , 23-H ) :  -0.1751 B( 24-H , 25-H ) :  -0.1401
B( 26-H , 27-H ) :  -0.1424

Dispersion correction           -0.001321316
FINAL SINGLE POINT ENERGY      -523.769950590964

DIPOLE MOMENT
-------------
                                X             Y             Z
Electronic contribution:      7.81428       3.83928       1.14105
Nuclear contribution   :     -8.11591      -2.99033      -1.35383
                        -----------------------------------------
Total Dipole Moment    :     -0.30163       0.84895      -0.21278
                        -----------------------------------------
Magnitude (a.u.)       :      0.92573
Magnitude (Debye)      :      2.35302

Rotational constants in cm-1:     0.043530     0.028984     0.019589
Rotational constants in MHz :  1305.007140   868.923804   587.262638

                             ****ORCA TERMINATED NORMALLY****
TOTAL RUN TIME: 0 days 0 hours 1 minutes 59 seconds 480 msec
