                         Program Version 5.0.0 -  RELEASE  -
|  1> !CAM-B3LYP RIJCOSX def2-SVP def2/J TightSCF
|  2> *xyz -1 1
|  3> C         -0.05517        1.61942       -3.78858
|  4> C          1.22302        2.46987       -3.75691
|  5> H          1.11470        3.25807       -4.53300
|  6> H          1.23773        3.01124       -2.79216
|  7> O          2.35381        1.71203       -3.93448
|  8> H         -0.10198        1.08015       -4.71156
|  9> H         -0.91014        2.25726       -3.70441
| 10> H         -0.04403        0.92826       -2.97183
| 11> *
| 12>
| 13> %MaxCore 64000
| 14>
| 15> %pal nprocs 4
| 16> end
| 17>
| 18> %scf
| 19>   MaxIter 150
| 20> end
| 21>
| 22>
| 23>                          ****END OF INPUT****

CARTESIAN COORDINATES (ANGSTROEM)
---------------------------------
  C     -0.055170    1.619420   -3.788580
  C      1.223020    2.469870   -3.756910
  H      1.114700    3.258070   -4.533000
  H      1.237730    3.011240   -2.792160
  O      2.353810    1.712030   -3.934480
  H     -0.101980    1.080150   -4.711560
  H     -0.910140    2.257260   -3.704410
  H     -0.044030    0.928260   -2.971830

 Total Charge           Charge          ....   -1
 Multiplicity           Mult            ....    1
 Number of Electrons    NEL             ....   26
 Basis Dimension        Dim             ....   67

ORBITAL ENERGIES
----------------

  NO   OCC          E(Eh)            E(eV)
   0   2.0000     -18.812586      -511.9165
   1   2.0000     -10.045479      -273.3514
   2   2.0000     -10.034197      -273.0444
   3   2.0000      -0.703099       -19.1323
   4   2.0000      -0.577326       -15.7098
   5   2.0000      -0.419389       -11.4122
   6   2.0000      -0.302411        -8.2290
   7   2.0000      -0.277743        -7.5578
   8   2.0000      -0.219102        -5.9621
   9   2.0000      -0.201859        -5.4929
  10   2.0000      -0.129783        -3.5316
  11   2.0000       0.018137         0.4935
  12   2.0000       0.020057         0.5458
  13   0.0000       0.294441         8.0121
  14   0.0000       0.339871         9.2484
  15   0.0000       0.353112         9.6087
  16   0.0000       0.362157         9.8548
  17   0.0000       0.406075        11.0499

MULLIKEN ATOMIC CHARGES
-----------------------
   0 C :    0.073978
   1 C :    0.264852
   2 H :   -0.181095
   3 H :   -0.179070
   4 O :   -0.711851
   5 H :   -0.070568
   6 H :   -0.125947
   7 H :   -0.070300
Sum of atomic charges:   -1.0000000

LOEWDIN ATOMIC CHARGES
----------------------
   0 C :   -0.106576
   1 C :    0.010788
   2 H :   -0.083356
   3 H :   -0.080888
   4 O :   -0.674429
   5 H :   -0.014779
   6 H :   -0.036110
   7 H :   -0.014652

  Mayer bond orders larger than 0.100000
B(  0-C ,  1-C ) :   1.0072 B(  0-C ,  5-H ) :   0.9553 B(  0-C ,  6-H ) :   0.9173
B(  0-C ,  7-H ) :   0.9577 B(  1-C ,  2-H ) :   0.8678 B(  1-C ,  3-H ) :   0.8697
B(  1-C ,  4-O ) :   1.5122

FINAL SINGLE POINT ENERGY      -154.197723999863

DIPOLE MOMENT
-------------
                                X             Y             Z
Electronic contribution:      3.03586      -0.71786      -0.28542
Nuclear contribution   :     -4.28298       0.81046       0.39340
                        -----------------------------------------
Total Dipole Moment    :     -1.24712       0.09260       0.10798
                        -----------------------------------------
Magnitude (a.u.)       :      1.25521
Magnitude (Debye)      :      3.19048

Rotational constants in cm-1:     1.266793     0.328147     0.288309
Rotational constants in MHz : 37977.512300  9837.594308  8643.275638

                             ****ORCA TERMINATED NORMALLY****
TOTAL RUN TIME: 0 days 0 hours 0 minutes 9 seconds 975 msec
