                         Program Version 5.0.0 -  RELEASE  -
|  1> !CAM-B3LYP RIJCOSX def2-SVP def2/J TightSCF
|  2> *xyz 1 1
|  3> C          1.63556       -1.67040       -5.29211
|  4> C          0.33848       -1.50091       -4.50540
|  5> N          2.48451       -0.50741       -5.14039
|  6> H          1.39834       -1.82924       -6.35259
|  7> H          2.15586       -2.56540       -4.93209
|  8> C          3.45115       -0.14953       -5.95259
|  9> N          3.92267        1.08956       -5.85071
| 10> N          3.96616       -1.00618       -6.86788
| 11> H          3.52139       -1.90647       -6.99527
| 12> H          4.44482       -0.62347       -7.67035
| 13> H          2.25200        0.24080       -4.49879
| 14> H          3.46428        1.64078       -5.13639
| 15> H          4.83447        1.31375       -6.22465
| 16> H         -0.17658       -0.62881       -4.85045
| 17> H          0.56384       -1.39374       -3.46490
| 18> H         -0.28102       -2.36136       -4.64938
| 19> *
| 20>
| 21> %MaxCore 64000
| 22>
| 23> %pal nprocs 4
| 24> end
| 25>
| 26> %scf
| 27>   MaxIter 150
| 28> end
| 29>
| 30>
| 31>                          ****END OF INPUT****

CARTESIAN COORDINATES (ANGSTROEM)
---------------------------------
  C      1.635560   -1.670400   -5.292110
  C      0.338480   -1.500910   -4.505400
  N      2.484510   -0.507410   -5.140390
  H      1.398340   -1.829240   -6.352590
  H      2.155860   -2.565400   -4.932090
  C      3.451150   -0.149530   -5.952590
  N      3.922670    1.089560   -5.850710
  N      3.966160   -1.006180   -6.867880
  H      3.521390   -1.906470   -6.995270
  H      4.444820   -0.623470   -7.670350
  H      2.252000    0.240800   -4.498790
  H      3.464280    1.640780   -5.136390
  H      4.834470    1.313750   -6.224650
  H     -0.176580   -0.628810   -4.850450
  H      0.563840   -1.393740   -3.464900
  H     -0.281020   -2.361360   -4.649380

 Total Charge           Charge          ....    1
 Multiplicity           Mult            ....    1
 Number of Electrons    NEL             ....   48
 Basis Dimension        Dim             ....  134

ORBITAL ENERGIES
----------------

  NO   OCC          E(Eh)            E(eV)
   0   2.0000     -14.628643      -398.0656
   1   2.0000     -14.626103      -397.9965
   2   2.0000     -14.623274      -397.9195
   3   2.0000     -10.593909      -288.2749
   4   2.0000     -10.466669      -284.8125
   5   2.0000     -10.397425      -282.9283
   6   2.0000      -1.294474       -35.2244
   7   2.0000      -1.178731       -32.0749
   8   2.0000      -1.163979       -31.6735
   9   2.0000      -1.009909       -27.4810
  10   2.0000      -0.901406       -24.5285
  11   2.0000      -0.885788       -24.1035
  12   2.0000      -0.847676       -23.0664
  13   2.0000      -0.815434       -22.1891
  14   2.0000      -0.758667       -20.6444
  15   2.0000      -0.752645       -20.4805
  16   2.0000      -0.732860       -19.9421
  17   2.0000      -0.710010       -19.3203
  18   2.0000      -0.671215       -18.2647
  19   2.0000      -0.612353       -16.6630
  20   2.0000      -0.595397       -16.2016
  21   2.0000      -0.585377       -15.9289
  22   2.0000      -0.539769       -14.6879
  23   2.0000      -0.514692       -14.0055
  24   0.0000      -0.110429        -3.0049
  25   0.0000      -0.096854        -2.6355
  26   0.0000      -0.062239        -1.6936
  27   0.0000      -0.044062        -1.1990
  28   0.0000      -0.021234        -0.5778

MULLIKEN ATOMIC CHARGES
-----------------------
   0 C :    0.037873
   1 C :   -0.014171
   2 N :   -0.092231
   3 H :    0.056281
   4 H :    0.070088
   5 C :   -0.000382
   6 N :   -0.010589
   7 N :   -0.047811
   8 H :    0.168570
   9 H :    0.173617
  10 H :    0.155414
  11 H :    0.164243
  12 H :    0.181150
  13 H :    0.043222
  14 H :    0.048734
  15 H :    0.065994
Sum of atomic charges:    1.0000000

LOEWDIN ATOMIC CHARGES
----------------------
   0 C :    0.035042
   1 C :   -0.037818
   2 N :    0.034388
   3 H :    0.033725
   4 H :    0.039404
   5 C :    0.151916
   6 N :    0.044801
   7 N :    0.033158
   8 H :    0.107552
   9 H :    0.110944
  10 H :    0.102466
  11 H :    0.107585
  12 H :    0.115175
  13 H :    0.033439
  14 H :    0.036242
  15 H :    0.051981

  Mayer bond orders larger than 0.100000
B(  0-C ,  1-C ) :   1.1054 B(  0-C ,  2-N ) :   0.9166 B(  0-C ,  3-H ) :   0.9510
B(  0-C ,  4-H ) :   0.9500 B(  1-C , 13-H ) :   0.9741 B(  1-C , 14-H ) :   0.9706
B(  1-C , 15-H ) :   0.9606 B(  2-N ,  5-C ) :   1.4066 B(  2-N , 10-H ) :   0.9073
B(  5-C ,  6-N ) :   1.3947 B(  5-C ,  7-N ) :   1.3852 B(  6-N , 11-H ) :   0.9224
B(  6-N , 12-H ) :   0.9246 B(  7-N ,  8-H ) :   0.9265 B(  7-N ,  9-H ) :   0.9280

FINAL SINGLE POINT ENERGY      -284.040141095956

DIPOLE MOMENT
-------------
                                X             Y             Z
Electronic contribution:      4.77427       2.53644      -1.73897
Nuclear contribution   :     -3.96322      -1.85512       1.24891
                        -----------------------------------------
Total Dipole Moment    :      0.81106       0.68132      -0.49006
                        -----------------------------------------
Magnitude (a.u.)       :      1.16712
Magnitude (Debye)      :      2.96659

Rotational constants in cm-1:     0.261404     0.067000     0.054949
Rotational constants in MHz :  7836.702504  2008.609425  1647.329138

                             ****ORCA TERMINATED NORMALLY****
TOTAL RUN TIME: 0 days 0 hours 0 minutes 24 seconds 243 msec
