                         Program Version 5.0.0 -  RELEASE  -
|  1> !CAM-B3LYP RIJCOSX def2-SVP def2/J TightSCF
|  2> *xyz 0 1
|  3> C         -0.05517        1.61942       -3.78858
|  4> C          1.22302        2.46987       -3.75691
|  5> H          1.11470        3.25807       -4.53300
|  6> H          1.23773        3.01124       -2.79216
|  7> F          2.35381        1.71203       -3.93448
|  8> H         -0.10198        1.08015       -4.71156
|  9> H         -0.91014        2.25726       -3.70441
| 10> H         -0.04403        0.92826       -2.97183
| 11> *
| 12>
| 13> %MaxCore 64000
| 14>
| 15> %pal nprocs 4
| 16> end
| 17>
| 18> %scf
| 19>   MaxIter 150
| 20> end
| 21>
| 22>
| 23>                          ****END OF INPUT****

CARTESIAN COORDINATES (ANGSTROEM)
---------------------------------
  C     -0.055170    1.619420   -3.788580
  C      1.223020    2.469870   -3.756910
  H      1.114700    3.258070   -4.533000
  H      1.237730    3.011240   -2.792160
  F      2.353810    1.712030   -3.934480
  H     -0.101980    1.080150   -4.711560
  H     -0.910140    2.257260   -3.704410
  H     -0.044030    0.928260   -2.971830

 Total Charge           Charge          ....    0
 Multiplicity           Mult            ....    1
 Number of Electrons    NEL             ....   26
 Basis Dimension        Dim             ....   67

ORBITAL ENERGIES
----------------

  NO   OCC          E(Eh)            E(eV)
   0   2.0000     -24.736135      -673.1044
   1   2.0000     -10.333020      -281.1758
   2   2.0000     -10.252889      -278.9953
   3   2.0000      -1.246317       -33.9140
   4   2.0000      -0.836337       -22.7579
   5   2.0000      -0.697827       -18.9888
   6   2.0000      -0.569738       -15.5034
   7   2.0000      -0.562579       -15.3085
   8   2.0000      -0.520209       -14.1556
   9   2.0000      -0.467333       -12.7168
  10   2.0000      -0.464792       -12.6476
  11   2.0000      -0.395524       -10.7628
  12   2.0000      -0.391219       -10.6456
  13   0.0000       0.105561         2.8725
  14   0.0000       0.151906         4.1336
  15   0.0000       0.159912         4.3514
  16   0.0000       0.179543         4.8856
  17   0.0000       0.198079         5.3900

MULLIKEN ATOMIC CHARGES
-----------------------
   0 C :   -0.033460
   1 C :    0.226155
   2 H :    0.006831
   3 H :    0.005892
   4 F :   -0.265018
   5 H :    0.024245
   6 H :    0.011972
   7 H :    0.023385
Sum of atomic charges:    0.0000000

LOEWDIN ATOMIC CHARGES
----------------------
   0 C :   -0.071873
   1 C :    0.110827
   2 H :    0.010412
   3 H :    0.009922
   4 F :   -0.138882
   5 H :    0.025758
   6 H :    0.028938
   7 H :    0.024898

  Mayer bond orders larger than 0.100000
B(  0-C ,  1-C ) :   1.0970 B(  0-C ,  5-H ) :   0.9714 B(  0-C ,  6-H ) :   0.9613
B(  0-C ,  7-H ) :   0.9725 B(  1-C ,  2-H ) :   0.9598 B(  1-C ,  3-H ) :   0.9597
B(  1-C ,  4-F ) :   1.0069

FINAL SINGLE POINT ENERGY      -178.844717504382

DIPOLE MOMENT
-------------
                                X             Y             Z
Electronic contribution:      5.06293      -0.74768      -0.43512
Nuclear contribution   :     -5.66833       1.07099       0.52006
                        -----------------------------------------
Total Dipole Moment    :     -0.60540       0.32331       0.08494
                        -----------------------------------------
Magnitude (a.u.)       :      0.69156
Magnitude (Debye)      :      1.75779

Rotational constants in cm-1:     1.245689     0.305293     0.269541
Rotational constants in MHz : 37344.801915  9152.442838  8080.640229

                             ****ORCA TERMINATED NORMALLY****
TOTAL RUN TIME: 0 days 0 hours 0 minutes 9 seconds 945 msec
