                         Program Version 5.0.0 -  RELEASE  -
|  1> !CAM-B3LYP RIJCOSX def2-SVP def2/J TightSCF
|  2> *xyz 0 1
|  3> C          1.63556       -1.67040       -5.29211
|  4> C          0.33848       -1.50091       -4.50540
|  5> C          2.48451       -0.50741       -5.14039
|  6> H          1.39834       -1.82924       -6.35259
|  7> H          2.15586       -2.56540       -4.93209
|  8> C          3.45115       -0.14953       -5.95259
|  9> N          3.92267        1.08956       -5.85071
| 10> N          3.96616       -1.00618       -6.86788
| 11> H          3.52139       -1.90647       -6.99527
| 12> H          4.44482       -0.62347       -7.67035
| 13> H          2.25200        0.24080       -4.49879
| 14> H          3.46428        1.64078       -5.13639
| 15> H          4.83447        1.31375       -6.22465
| 16> H         -0.17658       -0.62881       -4.85045
| 17> H          0.56384       -1.39374       -3.46490
| 18> H         -0.28102       -2.36136       -4.64938
| 19> *
| 20>
| 21> %MaxCore 64000
| 22>
| 23> %pal nprocs 4
| 24> end
| 25>
| 26> %scf
| 27>   MaxIter 150
| 28> end
| 29>
| 30>
| 31>                          ****END OF INPUT****

CARTESIAN COORDINATES (ANGSTROEM)
---------------------------------
  C      1.635560   -1.670400   -5.292110
  C      0.338480   -1.500910   -4.505400
  C      2.484510   -0.507410   -5.140390
  H      1.398340   -1.829240   -6.352590
  H      2.155860   -2.565400   -4.932090
  C      3.451150   -0.149530   -5.952590
  N      3.922670    1.089560   -5.850710
  N      3.966160   -1.006180   -6.867880
  H      3.521390   -1.906470   -6.995270
  H      4.444820   -0.623470   -7.670350
  H      2.252000    0.240800   -4.498790
  H      3.464280    1.640780   -5.136390
  H      4.834470    1.313750   -6.224650
  H     -0.176580   -0.628810   -4.850450
  H      0.563840   -1.393740   -3.464900
  H     -0.281020   -2.361360   -4.649380

 Total Charge           Charge          ....    0
 Multiplicity           Mult            ....    1
 Number of Electrons    NEL             ....   48
 Basis Dimension        Dim             ....  134

ORBITAL ENERGIES
----------------

  NO   OCC          E(Eh)            E(eV)
   0   2.0000     -14.394798      -391.7024
   1   2.0000     -14.390077      -391.5739
   2   2.0000     -10.290682      -280.0237
   3   2.0000     -10.228858      -278.3414
   4   2.0000     -10.223271      -278.1893
   5   2.0000     -10.169352      -276.7221
   6   2.0000      -1.022847       -27.8331
   7   2.0000      -0.932724       -25.3807
   8   2.0000      -0.844370       -22.9765
   9   2.0000      -0.763761       -20.7830
  10   2.0000      -0.675874       -18.3915
  11   2.0000      -0.643794       -17.5185
  12   2.0000      -0.596581       -16.2338
  13   2.0000      -0.575125       -15.6499
  14   2.0000      -0.526854       -14.3364
  15   2.0000      -0.504343       -13.7239
  16   2.0000      -0.490185       -13.3386
  17   2.0000      -0.456157       -12.4127
  18   2.0000      -0.438836       -11.9413
  19   2.0000      -0.400640       -10.9020
  20   2.0000      -0.389289       -10.5931
  21   2.0000      -0.388493       -10.5714
  22   2.0000      -0.319113        -8.6835
  23   2.0000      -0.209570        -5.7027
  24   0.0000       0.092388         2.5140
  25   0.0000       0.121380         3.3029
  26   0.0000       0.134948         3.6721
  27   0.0000       0.143708         3.9105
  28   0.0000       0.151232         4.1152

MULLIKEN ATOMIC CHARGES
-----------------------
   0 C :    0.050647
   1 C :    0.034996
   2 C :   -0.116384
   3 H :   -0.019373
   4 H :   -0.010375
   5 C :   -0.115238
   6 N :   -0.041091
   7 N :   -0.082900
   8 H :    0.114742
   9 H :    0.099700
  10 H :   -0.120225
  11 H :    0.115505
  12 H :    0.100938
  13 H :   -0.001958
  14 H :    0.001759
  15 H :   -0.010743
Sum of atomic charges:   -0.0000000

LOEWDIN ATOMIC CHARGES
----------------------
   0 C :   -0.039692
   1 C :   -0.044413
   2 C :   -0.224063
   3 H :    0.006341
   4 H :    0.009794
   5 C :    0.031703
   6 N :   -0.028848
   7 N :   -0.035761
   8 H :    0.077722
   9 H :    0.063025
  10 H :   -0.012448
  11 H :    0.082253
  12 H :    0.064333
  13 H :    0.016806
  14 H :    0.018499
  15 H :    0.014747

  Mayer bond orders larger than 0.100000
B(  0-C ,  1-C ) :   1.1091 B(  0-C ,  2-C ) :   1.0330 B(  0-C ,  3-H ) :   0.9421
B(  0-C ,  4-H ) :   0.9260 B(  1-C , 13-H ) :   0.9753 B(  1-C , 14-H ) :   0.9700
B(  1-C , 15-H ) :   0.9657 B(  2-C ,  5-C ) :   1.6994 B(  2-C , 10-H ) :   0.9298
B(  5-C ,  6-N ) :   1.2498 B(  5-C ,  7-N ) :   1.2473 B(  6-N , 11-H ) :   0.9328
B(  6-N , 12-H ) :   0.9462 B(  7-N ,  8-H ) :   0.9414 B(  7-N ,  9-H ) :   0.9471

FINAL SINGLE POINT ENERGY      -267.565161406868

DIPOLE MOMENT
-------------
                                X             Y             Z
Electronic contribution:      4.65729       2.22634      -1.99534
Nuclear contribution   :     -3.99655      -1.83277       1.34879
                        -----------------------------------------
Total Dipole Moment    :      0.66075       0.39357      -0.64655
                        -----------------------------------------
Magnitude (a.u.)       :      1.00474
Magnitude (Debye)      :      2.55386

Rotational constants in cm-1:     0.262971     0.067064     0.055026
Rotational constants in MHz :  7883.664566  2010.513309  1649.636654

                             ****ORCA TERMINATED NORMALLY****
TOTAL RUN TIME: 0 days 0 hours 0 minutes 24 seconds 803 msec
