                         Program Version 5.0.0 -  RELEASE  -
|  1> !CAM-B3LYP RIJCOSX def2-SVP def2/J TightSCF
|  2> *xyz 0 1
|  3> C          1.63556       -1.67040       -5.29211
|  4> C          0.33848       -1.50091       -4.50540
|  5> N          2.48451       -0.50741       -5.14039
|  6> H          1.39834       -1.82924       -6.35259
|  7> H          2.15586       -2.56540       -4.93209
|  8> C          3.45115       -0.14953       -5.95259
|  9> C          3.92267        1.08956       -5.85071
| 10> N          3.96616       -1.00618       -6.86788
| 11> H          3.52139       -1.90647       -6.99527
| 12> H          4.44482       -0.62347       -7.67035
| 13> H          2.25200        0.24080       -4.49879
| 14> H          3.46428        1.64078       -5.13639
| 15> H          4.83447        1.31375       -6.22465
| 16> H         -0.17658       -0.62881       -4.85045
| 17> H          0.56384       -1.39374       -3.46490
| 18> H         -0.28102       -2.36136       -4.64938
| 19> *
| 20>
| 21> %MaxCore 64000
| 22>
| 23> %pal nprocs 4
| 24> end
| 25>
| 26> %scf
| 27>   MaxIter 150
| 28> end
| 29>
| 30>
| 31>                          ****END OF INPUT****

CARTESIAN COORDINATES (ANGSTROEM)
---------------------------------
  C      1.635560   -1.670400   -5.292110
  C      0.338480   -1.500910   -4.505400
  N      2.484510   -0.507410   -5.140390
  H      1.398340   -1.829240   -6.352590
  H      2.155860   -2.565400   -4.932090
  C      3.451150   -0.149530   -5.952590
  C      3.922670    1.089560   -5.850710
  N      3.966160   -1.006180   -6.867880
  H      3.521390   -1.906470   -6.995270
  H      4.444820   -0.623470   -7.670350
  H      2.252000    0.240800   -4.498790
  H      3.464280    1.640780   -5.136390
  H      4.834470    1.313750   -6.224650
  H     -0.176580   -0.628810   -4.850450
  H      0.563840   -1.393740   -3.464900
  H     -0.281020   -2.361360   -4.649380

 Total Charge           Charge          ....    0
 Multiplicity           Mult            ....    1
 Number of Electrons    NEL             ....   48
 Basis Dimension        Dim             ....  134

ORBITAL ENERGIES
----------------

  NO   OCC          E(Eh)            E(eV)
   0   2.0000     -14.394789      -391.7021
   1   2.0000     -14.393608      -391.6700
   2   2.0000     -10.298169      -280.2274
   3   2.0000     -10.295471      -280.1540
   4   2.0000     -10.258818      -279.1566
   5   2.0000     -10.160036      -276.4686
   6   2.0000      -1.037611       -28.2348
   7   2.0000      -0.947991       -25.7961
   8   2.0000      -0.849970       -23.1288
   9   2.0000      -0.770159       -20.9571
  10   2.0000      -0.696223       -18.9452
  11   2.0000      -0.661451       -17.9990
  12   2.0000      -0.599272       -16.3070
  13   2.0000      -0.560539       -15.2530
  14   2.0000      -0.548891       -14.9361
  15   2.0000      -0.525927       -14.3112
  16   2.0000      -0.482916       -13.1408
  17   2.0000      -0.460603       -12.5336
  18   2.0000      -0.441349       -12.0097
  19   2.0000      -0.438640       -11.9360
  20   2.0000      -0.436385       -11.8747
  21   2.0000      -0.410481       -11.1698
  22   2.0000      -0.313514        -8.5311
  23   2.0000      -0.209346        -5.6966
  24   0.0000       0.091934         2.5017
  25   0.0000       0.112916         3.0726
  26   0.0000       0.121594         3.3087
  27   0.0000       0.140425         3.8212
  28   0.0000       0.155768         4.2387

MULLIKEN ATOMIC CHARGES
-----------------------
   0 C :    0.095112
   1 C :   -0.006805
   2 N :   -0.119833
   3 H :    0.005753
   4 H :    0.009673
   5 C :   -0.068649
   6 C :   -0.071214
   7 N :   -0.094949
   8 H :    0.097751
   9 H :    0.122460
  10 H :    0.119564
  11 H :   -0.083851
  12 H :   -0.061368
  13 H :    0.020695
  14 H :    0.019247
  15 H :    0.016415
Sum of atomic charges:   -0.0000000

LOEWDIN ATOMIC CHARGES
----------------------
   0 C :    0.030888
   1 C :   -0.051262
   2 N :   -0.030623
   3 H :    0.011660
   4 H :    0.011526
   5 C :    0.044945
   6 C :   -0.263709
   7 N :   -0.033162
   8 H :    0.062535
   9 H :    0.081150
  10 H :    0.084045
  11 H :   -0.014258
  12 H :   -0.010145
  13 H :    0.023940
  14 H :    0.023712
  15 H :    0.028758

  Mayer bond orders larger than 0.100000
B(  0-C ,  1-C ) :   1.1104 B(  0-C ,  2-N ) :   0.9953 B(  0-C ,  3-H ) :   0.9449
B(  0-C ,  4-H ) :   0.9478 B(  1-C , 13-H ) :   0.9735 B(  1-C , 14-H ) :   0.9712
B(  1-C , 15-H ) :   0.9656 B(  2-N ,  5-C ) :   1.2314 B(  2-N , 10-H ) :   0.9217
B(  5-C ,  6-C ) :   1.7504 B(  5-C ,  7-N ) :   1.2163 B(  6-C , 11-H ) :   0.9173
B(  6-C , 12-H ) :   0.9470 B(  7-N ,  8-H ) :   0.9547 B(  7-N ,  9-H ) :   0.9503

FINAL SINGLE POINT ENERGY      -267.555813164166

DIPOLE MOMENT
-------------
                                X             Y             Z
Electronic contribution:      2.96916       0.52043      -1.33324
Nuclear contribution   :     -3.69145      -1.49398       1.19810
                        -----------------------------------------
Total Dipole Moment    :     -0.72229      -0.97355      -0.13514
                        -----------------------------------------
Magnitude (a.u.)       :      1.21974
Magnitude (Debye)      :      3.10034

Rotational constants in cm-1:     0.270790     0.068966     0.056679
Rotational constants in MHz :  8118.084803  2067.559423  1699.196934

                             ****ORCA TERMINATED NORMALLY****
TOTAL RUN TIME: 0 days 0 hours 0 minutes 25 seconds 17 msec
