                         Program Version 5.0.0 -  RELEASE  -
|  1> !CAM-B3LYP RIJCOSX def2-SVP def2/J TightSCF
|  2> *xyz 0 1
|  3> C          1.63556       -1.67040       -5.29211
|  4> C          0.33848       -1.50091       -4.50540
|  5> N          2.48451       -0.50741       -5.14039
|  6> H          1.39834       -1.82924       -6.35259
|  7> H          2.15586       -2.56540       -4.93209
|  8> C          3.45115       -0.14953       -5.95259
|  9> N          3.92267        1.08956       -5.85071
| 10> C          3.96616       -1.00618       -6.86788
| 11> H          3.52139       -1.90647       -6.99527
| 12> H          4.44482       -0.62347       -7.67035
| 13> H          2.25200        0.24080       -4.49879
| 14> H          3.46428        1.64078       -5.13639
| 15> H          4.83447        1.31375       -6.22465
| 16> H         -0.17658       -0.62881       -4.85045
| 17> H          0.56384       -1.39374       -3.46490
| 18> H         -0.28102       -2.36136       -4.64938
| 19> *
| 20>
| 21> %MaxCore 64000
| 22>
| 23> %pal nprocs 4
| 24> end
| 25>
| 26> %scf
| 27>   MaxIter 150
| 28> end
| 29>
| 30>
| 31>                          ****END OF INPUT****

CARTESIAN COORDINATES (ANGSTROEM)
---------------------------------
  C      1.635560   -1.670400   -5.292110
  C      0.338480   -1.500910   -4.505400
  N      2.484510   -0.507410   -5.140390
  H      1.398340   -1.829240   -6.352590
  H      2.155860   -2.565400   -4.932090
  C      3.451150   -0.149530   -5.952590
  N      3.922670    1.089560   -5.850710
  C      3.966160   -1.006180   -6.867880
  H      3.521390   -1.906470   -6.995270
  H      4.444820   -0.623470   -7.670350
  H      2.252000    0.240800   -4.498790
  H      3.464280    1.640780   -5.136390
  H      4.834470    1.313750   -6.224650
  H     -0.176580   -0.628810   -4.850450
  H      0.563840   -1.393740   -3.464900
  H     -0.281020   -2.361360   -4.649380

 Total Charge           Charge          ....    0
 Multiplicity           Mult            ....    1
 Number of Electrons    NEL             ....   48
 Basis Dimension        Dim             ....  134

ORBITAL ENERGIES
----------------

  NO   OCC          E(Eh)            E(eV)
   0   2.0000     -14.400888      -391.8681
   1   2.0000     -14.396418      -391.7465
   2   2.0000     -10.297138      -280.1994
   3   2.0000     -10.289757      -279.9985
   4   2.0000     -10.254420      -279.0370
   5   2.0000     -10.159837      -276.4632
   6   2.0000      -1.045861       -28.4593
   7   2.0000      -0.953472       -25.9453
   8   2.0000      -0.835408       -22.7326
   9   2.0000      -0.768628       -20.9154
  10   2.0000      -0.713449       -19.4139
  11   2.0000      -0.632689       -17.2163
  12   2.0000      -0.599781       -16.3209
  13   2.0000      -0.587570       -15.9886
  14   2.0000      -0.542062       -14.7503
  15   2.0000      -0.531214       -14.4551
  16   2.0000      -0.464634       -12.6433
  17   2.0000      -0.459222       -12.4961
  18   2.0000      -0.454034       -12.3549
  19   2.0000      -0.431086       -11.7304
  20   2.0000      -0.422184       -11.4882
  21   2.0000      -0.410425       -11.1682
  22   2.0000      -0.308032        -8.3820
  23   2.0000      -0.211560        -5.7568
  24   0.0000       0.085325         2.3218
  25   0.0000       0.108222         2.9449
  26   0.0000       0.132058         3.5935
  27   0.0000       0.146205         3.9784
  28   0.0000       0.163201         4.4409

MULLIKEN ATOMIC CHARGES
-----------------------
   0 C :    0.116512
   1 C :   -0.004948
   2 N :   -0.137564
   3 H :    0.022652
   4 H :    0.015026
   5 C :   -0.057610
   6 N :   -0.065229
   7 C :   -0.115586
   8 H :   -0.062052
   9 H :   -0.064188
  10 H :    0.088911
  11 H :    0.091784
  12 H :    0.129080
  13 H :    0.012590
  14 H :    0.012098
  15 H :    0.018524
Sum of atomic charges:    0.0000000

LOEWDIN ATOMIC CHARGES
----------------------
   0 C :    0.046467
   1 C :   -0.054675
   2 N :   -0.026024
   3 H :    0.021519
   4 H :    0.017154
   5 C :    0.038388
   6 N :   -0.022716
   7 C :   -0.274999
   8 H :   -0.012296
   9 H :   -0.011986
  10 H :    0.061730
  11 H :    0.061061
  12 H :    0.085782
  13 H :    0.020334
  14 H :    0.020303
  15 H :    0.029958

  Mayer bond orders larger than 0.100000
B(  0-C ,  1-C ) :   1.1005 B(  0-C ,  2-N ) :   0.9920 B(  0-C ,  3-H ) :   0.9434
B(  0-C ,  4-H ) :   0.9506 B(  1-C , 13-H ) :   0.9724 B(  1-C , 14-H ) :   0.9704
B(  1-C , 15-H ) :   0.9660 B(  2-N ,  5-C ) :   1.2104 B(  2-N , 10-H ) :   0.9332
B(  5-C ,  6-N ) :   1.2317 B(  5-C ,  7-C ) :   1.7420 B(  6-N , 11-H ) :   0.9515
B(  6-N , 12-H ) :   0.9452 B(  7-C ,  8-H ) :   0.9374 B(  7-C ,  9-H ) :   0.9431

FINAL SINGLE POINT ENERGY      -267.555582660183

DIPOLE MOMENT
-------------
                                X             Y             Z
Electronic contribution:      3.05515       2.73153      -0.14318
Nuclear contribution   :     -3.68222      -1.93858       0.98231
                        -----------------------------------------
Total Dipole Moment    :     -0.62708       0.79295       0.83913
                        -----------------------------------------
Magnitude (a.u.)       :      1.31383
Magnitude (Debye)      :      3.33948

Rotational constants in cm-1:     0.275407     0.068040     0.056255
Rotational constants in MHz :  8256.498401  2039.796466  1686.484500

                             ****ORCA TERMINATED NORMALLY****
TOTAL RUN TIME: 0 days 0 hours 0 minutes 27 seconds 241 msec
