                         Program Version 5.0.0 -  RELEASE  -
|  1> !CAM-B3LYP RIJCOSX def2-TZVP def2/J TightSCF xyzfile
|  2>
|  3> *xyzfile 0 1 D3.xyz
|  4>
|  5> %MaxCore 64000
|  6>
|  7> %pal nprocs 18
|  8> end
|  9>
| 10> %scf
| 11>   MaxIter 150
| 12> end
| 13>
| 14>
| 15>                          ****END OF INPUT****

CARTESIAN COORDINATES (ANGSTROEM)
---------------------------------
  C      1.635557   -1.670396   -5.292109
  C      0.338484   -1.500907   -4.505398
  N      2.484511   -0.507410   -5.140392
  C     -0.684873   -0.528026   -5.099889
  C     -0.290406    0.951335   -5.153423
  H      0.607991    1.070692   -5.764412
  C     -0.055168    1.619420   -3.788577
  H     -1.080912    1.483775   -5.689436
  H      0.045006    0.862302   -3.003015
  H     -0.922936    2.230329   -3.517028
  C      1.223022    2.469865   -3.756911
  H      1.114701    3.258074   -4.532999
  H      1.237732    3.011242   -2.792157
  F      2.353815    1.712032   -3.934477
  H      1.398337   -1.829239   -6.352591
  H      2.155864   -2.565398   -4.932091
  C      3.451149   -0.149530   -5.952589
  N      3.922667    1.089559   -5.850711
  C      3.966162   -1.006183   -6.867880
  H      3.521391   -1.906467   -6.995270
  H      4.444824   -0.623472   -7.670348
  H      2.251995    0.240804   -4.498792
  H      3.464277    1.640782   -5.136392
  H      4.834470    1.313745   -6.224653
  H     -0.937999   -0.869056   -6.110838
  H     -1.604638   -0.622496   -4.513132
  H      0.594887   -1.211578   -3.482312
  H     -0.126530   -2.487656   -4.434176

 Total Charge           Charge          ....    0
 Multiplicity           Mult            ....    1
 Number of Electrons    NEL             ....   88
 Basis Dimension        Dim             ....  443

ORBITAL ENERGIES
----------------

  NO   OCC          E(Eh)            E(eV)
   0   2.0000     -24.799449      -674.8273
   1   2.0000     -14.363911      -390.8619
   2   2.0000     -14.359642      -390.7457
   3   2.0000     -10.351760      -281.6857
   4   2.0000     -10.270196      -279.4662
   5   2.0000     -10.268027      -279.4072
   6   2.0000     -10.264787      -279.3191
   7   2.0000     -10.250425      -278.9282
   8   2.0000     -10.247225      -278.8412
   9   2.0000     -10.243964      -278.7524
  10   2.0000     -10.133399      -275.7438
  11   2.0000      -1.345276       -36.6068
  12   2.0000      -1.040555       -28.3149
  13   2.0000      -0.950967       -25.8771
  14   2.0000      -0.907797       -24.7024
  15   2.0000      -0.863303       -23.4917
  16   2.0000      -0.810839       -22.0641
  17   2.0000      -0.773687       -21.0531
  18   2.0000      -0.739530       -20.1236
  19   2.0000      -0.712842       -19.3974
  20   2.0000      -0.655619       -17.8403
  21   2.0000      -0.644918       -17.5491
  22   2.0000      -0.633186       -17.2299
  23   2.0000      -0.607684       -16.5359
  24   2.0000      -0.602335       -16.3904
  25   2.0000      -0.568947       -15.4818
  26   2.0000      -0.560654       -15.2562
  27   2.0000      -0.545600       -14.8465
  28   2.0000      -0.533808       -14.5256
  29   2.0000      -0.504337       -13.7237
  30   2.0000      -0.497717       -13.5436
  31   2.0000      -0.488489       -13.2925
  32   2.0000      -0.470061       -12.7910
  33   2.0000      -0.444956       -12.1079
  34   2.0000      -0.443306       -12.0630
  35   2.0000      -0.430277       -11.7084
  36   2.0000      -0.426883       -11.6161
  37   2.0000      -0.420478       -11.4418
  38   2.0000      -0.408415       -11.1135
  39   2.0000      -0.397172       -10.8076
  40   2.0000      -0.388351       -10.5676
  41   2.0000      -0.385475       -10.4893
  42   2.0000      -0.292892        -7.9700
  43   2.0000      -0.204518        -5.5652
  44   0.0000       0.059558         1.6206
  45   0.0000       0.076192         2.0733
  46   0.0000       0.083684         2.2772
  47   0.0000       0.092111         2.5065
  48   0.0000       0.101813         2.7705

MULLIKEN ATOMIC CHARGES
-----------------------
   0 C :   -0.073816
   1 C :   -0.253293
   2 N :   -0.296590
   3 C :   -0.191594
   4 C :   -0.265756
   5 H :    0.149544
   6 C :   -0.221446
   7 H :    0.109721
   8 H :    0.123440
   9 H :    0.127051
  10 C :    0.002802
  11 H :    0.123554
  12 H :    0.122232
  13 F :   -0.253135
  14 H :    0.106655
  15 H :    0.112641
  16 C :    0.323582
  17 N :   -0.486996
  18 C :   -0.549573
  19 H :    0.075302
  20 H :    0.080111
  21 H :    0.221288
  22 H :    0.235161
  23 H :    0.233079
  24 H :    0.112990
  25 H :    0.104761
  26 H :    0.111699
  27 H :    0.116584
Sum of atomic charges:   -0.0000000

LOEWDIN ATOMIC CHARGES
----------------------
   0 C :   -0.275286
   1 C :   -0.271671
   2 N :    0.118217
   3 C :   -0.267190
   4 C :   -0.272097
   5 H :    0.143531
   6 C :   -0.270644
   7 H :    0.136228
   8 H :    0.140987
   9 H :    0.145095
  10 C :   -0.335584
  11 H :    0.130922
  12 H :    0.128812
  13 F :    0.136332
  14 H :    0.134840
  15 H :    0.130288
  16 C :   -0.469938
  17 N :   -0.025708
  18 C :   -0.375459
  19 H :    0.092401
  20 H :    0.090874
  21 H :    0.162212
  22 H :    0.148729
  23 H :    0.172328
  24 H :    0.140405
  25 H :    0.137193
  26 H :    0.132205
  27 H :    0.141978

  Mayer bond orders larger than 0.100000
B(  0-C ,  1-C ) :   0.9540 B(  0-C ,  2-N ) :   0.9167 B(  0-C , 14-H ) :   0.9682
B(  0-C , 15-H ) :   0.9723 B(  1-C ,  3-C ) :   0.9520 B(  1-C , 26-H ) :   0.9859
B(  1-C , 27-H ) :   0.9849 B(  2-N , 16-C ) :   1.1925 B(  2-N , 21-H ) :   0.9013
B(  3-C ,  4-C ) :   0.9458 B(  3-C , 24-H ) :   0.9755 B(  3-C , 25-H ) :   0.9794
B(  4-C ,  5-H ) :   0.9810 B(  4-C ,  6-C ) :   0.8925 B(  4-C ,  7-H ) :   0.9752
B(  6-C ,  8-H ) :   0.9770 B(  6-C ,  9-H ) :   0.9584 B(  6-C , 10-C ) :   0.9658
B( 10-C , 11-H ) :   0.9793 B( 10-C , 12-H ) :   0.9743 B( 10-C , 13-F ) :   0.8788
B( 16-C , 17-N ) :   1.1431 B( 16-C , 18-C ) :   1.6107 B( 17-N , 22-H ) :   0.8982
B( 17-N , 23-H ) :   0.9277 B( 18-C , 19-H ) :   1.0153 B( 18-C , 20-H ) :   1.0049

FINAL SINGLE POINT ENERGY      -524.316495023809

DIPOLE MOMENT
-------------
                                X             Y             Z
Electronic contribution:      6.25183       4.48390       2.82334
Nuclear contribution   :     -7.84660      -3.08098      -1.66782
                        -----------------------------------------
Total Dipole Moment    :     -1.59477       1.40291       1.15551
                        -----------------------------------------
Magnitude (a.u.)       :      2.41799
Magnitude (Debye)      :      6.14604

Rotational constants in cm-1:     0.043547     0.029898     0.020008
Rotational constants in MHz :  1305.520367   896.323854   599.829375

                             ****ORCA TERMINATED NORMALLY****
TOTAL RUN TIME: 0 days 0 hours 0 minutes 53 seconds 68 msec
