                         Program Version 5.0.0 -  RELEASE  -
|  1> !wB97X-D3 RIJCOSX def2-TZVP def2/J TightSCF
|  2> *xyz -1 1
|  3> C          1.36401        0.46874       -2.81376
|  4> C          0.96805        1.63064       -3.71575
|  5> C         -0.50835        1.72268       -4.12430
|  6> S         -1.32861        0.14674       -4.43578
|  7> H         -0.59151        2.29496       -5.04722
|  8> H         -1.11411        2.23561       -3.37436
|  9> O         -2.57135        0.47573       -5.06834
| 10> O         -1.51496       -0.40051       -3.06342
| 11> H          1.57869        1.52065       -4.61273
| 12> H          1.26665        2.57599       -3.25045
| 13> O         -0.37793       -0.62756       -5.20114
| 14> H          1.07115       -0.45339       -3.27071
| 15> H          0.87480        0.56905       -1.86745
| 16> H          2.42423        0.47442       -2.66954
| 17> *
| 18> %MaxCore 64000
| 19>
| 20> %pal nprocs 18
| 21> end
| 22>
| 23> %scf
| 24>   MaxIter 150
| 25> end
| 26>
| 27>
| 28>                          ****END OF INPUT****

CARTESIAN COORDINATES (ANGSTROEM)
---------------------------------
  C      1.364010    0.468740   -2.813760
  C      0.968050    1.630640   -3.715750
  C     -0.508350    1.722680   -4.124300
  S     -1.328610    0.146740   -4.435780
  H     -0.591510    2.294960   -5.047220
  H     -1.114110    2.235610   -3.374360
  O     -2.571350    0.475730   -5.068340
  O     -1.514960   -0.400510   -3.063420
  H      1.578690    1.520650   -4.612730
  H      1.266650    2.575990   -3.250450
  O     -0.377930   -0.627560   -5.201140
  H      1.071150   -0.453390   -3.270710
  H      0.874800    0.569050   -1.867450
  H      2.424230    0.474420   -2.669540

 Total Charge           Charge          ....   -1
 Multiplicity           Mult            ....    1
 Number of Electrons    NEL             ....   66
 Basis Dimension        Dim             ....  265

ORBITAL ENERGIES
----------------

  NO   OCC          E(Eh)            E(eV)
   0   2.0000     -88.931938     -2419.9610
   1   2.0000     -19.010370      -517.2985
   2   2.0000     -19.008548      -517.2489
   3   2.0000     -18.990987      -516.7710
   4   2.0000     -10.139307      -275.9046
   5   2.0000     -10.130997      -275.6784
   6   2.0000     -10.110976      -275.1336
   7   2.0000      -7.994749      -217.5482
   8   2.0000      -5.949152      -161.8847
   9   2.0000      -5.947752      -161.8466
  10   2.0000      -5.947307      -161.8344
  11   2.0000      -1.040772       -28.3208
  12   2.0000      -0.912267       -24.8241
  13   2.0000      -0.881505       -23.9870
  14   2.0000      -0.765381       -20.8271
  15   2.0000      -0.672314       -18.2946
  16   2.0000      -0.572695       -15.5838
  17   2.0000      -0.481253       -13.0956
  18   2.0000      -0.430207       -11.7065
  19   2.0000      -0.414286       -11.2733
  20   2.0000      -0.390276       -10.6200
  21   2.0000      -0.375844       -10.2272
  22   2.0000      -0.355883        -9.6841
  23   2.0000      -0.339596        -9.2409
  24   2.0000      -0.313970        -8.5436
  25   2.0000      -0.304430        -8.2840
  26   2.0000      -0.285442        -7.7673
  27   2.0000      -0.249340        -6.7849
  28   2.0000      -0.244927        -6.6648
  29   2.0000      -0.213526        -5.8103
  30   2.0000      -0.200235        -5.4487
  31   2.0000      -0.186882        -5.0853
  32   2.0000      -0.158025        -4.3001
  33   0.0000       0.243567         6.6278
  34   0.0000       0.285482         7.7684
  35   0.0000       0.290035         7.8922
  36   0.0000       0.305119         8.3027
  37   0.0000       0.323369         8.7993

MULLIKEN ATOMIC CHARGES
-----------------------
   0 C :   -0.320719
   1 C :   -0.146330
   2 C :   -0.252638
   3 S :    0.864888
   4 H :    0.077290
   5 H :    0.083198
   6 O :   -0.554351
   7 O :   -0.603223
   8 H :    0.070880
   9 H :    0.048149
  10 O :   -0.563841
  11 H :    0.154161
  12 H :    0.087407
  13 H :    0.055129
Sum of atomic charges:   -1.0000000

LOEWDIN ATOMIC CHARGES
----------------------
   0 C :   -0.325921
   1 C :   -0.323029
   2 C :   -0.403045
   3 S :    0.416192
   4 H :    0.117275
   5 H :    0.119317
   6 O :   -0.366412
   7 O :   -0.431121
   8 H :    0.128604
   9 H :    0.116495
  10 O :   -0.376823
  11 H :    0.122945
  12 H :    0.109780
  13 H :    0.095746

  Mayer bond orders larger than 0.100000
B(  0-C ,  1-C ) :   0.9906 B(  0-C , 11-H ) :   0.9694 B(  0-C , 12-H ) :   0.9795
B(  0-C , 13-H ) :   0.9687 B(  1-C ,  2-C ) :   0.9799 B(  1-C ,  8-H ) :   0.9774
B(  1-C ,  9-H ) :   0.9669 B(  2-C ,  3-S ) :   0.8876 B(  2-C ,  4-H ) :   0.9590
B(  2-C ,  5-H ) :   0.9658 B(  3-S ,  6-O ) :   1.8458 B(  3-S ,  7-O ) :   1.7098
B(  3-S , 10-O ) :   1.7498

Dispersion correction           -0.004643711
FINAL SINGLE POINT ENERGY      -742.532923353765

DIPOLE MOMENT
-------------
                                X             Y             Z
Electronic contribution:     -8.39498      -4.48950      -4.10494
Nuclear contribution   :      9.76868       5.90538       4.47074
                        -----------------------------------------
Total Dipole Moment    :      1.37371       1.41587       0.36580
                        -----------------------------------------
Magnitude (a.u.)       :      2.00638
Magnitude (Debye)      :      5.09982

Rotational constants in cm-1:     0.135183     0.058485     0.054837
Rotational constants in MHz :  4052.676901  1753.343161  1643.972690

                             ****ORCA TERMINATED NORMALLY****
TOTAL RUN TIME: 0 days 0 hours 0 minutes 19 seconds 787 msec
