                         Program Version 5.0.0 -  RELEASE  -
|  1> !wB97X-D3 RIJCOSX def2-TZVP def2/J TightSCF
|  2> *xyz 1 1
|  3> C          1.36401        0.46874       -2.81376
|  4> N          0.42884        0.32140       -1.65531
|  5> C          0.96805        1.63064       -3.71575
|  6> C         -0.50835        1.72268       -4.12430
|  7> H          0.74858       -0.40054       -1.00134
|  8> H         -0.46105        0.02333       -2.07773
|  9> H          0.31026        1.20137       -1.13495
| 10> H          1.29485       -0.46874       -3.36468
| 11> H          2.37622        0.59740       -2.43149
| 12> H          1.57869        1.52065       -4.61273
| 13> H          1.26665        2.57599       -3.25045
| 14> H         -0.65192        2.57663       -4.75283
| 15> H         -1.11549        1.81835       -3.24844
| 16> H         -0.78702        0.83723       -4.65648
| 17> *
| 18> %MaxCore 64000
| 19>
| 20> %pal nprocs 18
| 21> end
| 22>
| 23> %scf
| 24>   MaxIter 150
| 25> end
| 26>
| 27>
| 28>                          ****END OF INPUT****

CARTESIAN COORDINATES (ANGSTROEM)
---------------------------------
  C      1.364010    0.468740   -2.813760
  N      0.428840    0.321400   -1.655310
  C      0.968050    1.630640   -3.715750
  C     -0.508350    1.722680   -4.124300
  H      0.748580   -0.400540   -1.001340
  H     -0.461050    0.023330   -2.077730
  H      0.310260    1.201370   -1.134950
  H      1.294850   -0.468740   -3.364680
  H      2.376220    0.597400   -2.431490
  H      1.578690    1.520650   -4.612730
  H      1.266650    2.575990   -3.250450
  H     -0.651920    2.576630   -4.752830
  H     -1.115490    1.818350   -3.248440
  H     -0.787020    0.837230   -4.656480

 Total Charge           Charge          ....    1
 Multiplicity           Mult            ....    1
 Number of Electrons    NEL             ....   34
 Basis Dimension        Dim             ....  184

ORBITAL ENERGIES
----------------

  NO   OCC          E(Eh)            E(eV)
   0   2.0000     -14.751310      -401.4036
   1   2.0000     -10.522992      -286.3452
   2   2.0000     -10.452403      -284.4243
   3   2.0000     -10.423098      -283.6269
   4   2.0000      -1.326457       -36.0947
   5   2.0000      -1.088644       -29.6235
   6   2.0000      -0.998570       -27.1725
   7   2.0000      -0.908620       -24.7248
   8   2.0000      -0.895027       -24.3549
   9   2.0000      -0.876646       -23.8548
  10   2.0000      -0.783581       -21.3223
  11   2.0000      -0.737399       -20.0656
  12   2.0000      -0.706510       -19.2251
  13   2.0000      -0.683703       -18.6045
  14   2.0000      -0.625701       -17.0262
  15   2.0000      -0.617265       -16.7966
  16   2.0000      -0.605073       -16.4649
  17   0.0000      -0.103998        -2.8299
  18   0.0000      -0.042335        -1.1520
  19   0.0000      -0.038992        -1.0610
  20   0.0000      -0.025406        -0.6913
  21   0.0000       0.006591         0.1794

MULLIKEN ATOMIC CHARGES
-----------------------
   0 C :   -0.221851
   1 N :   -0.329923
   2 C :   -0.233173
   3 C :   -0.394293
   4 H :    0.342054
   5 H :    0.342605
   6 H :    0.338076
   7 H :    0.199968
   8 H :    0.199893
   9 H :    0.165410
  10 H :    0.157728
  11 H :    0.179714
  12 H :    0.098917
  13 H :    0.154875
Sum of atomic charges:    1.0000000

LOEWDIN ATOMIC CHARGES
----------------------
   0 C :   -0.256210
   1 N :    0.167143
   2 C :   -0.288094
   3 C :   -0.289706
   4 H :    0.221281
   5 H :    0.226115
   6 H :    0.223739
   7 H :    0.153748
   8 H :    0.153613
   9 H :    0.163231
  10 H :    0.149345
  11 H :    0.140231
  12 H :    0.109016
  13 H :    0.126548

  Mayer bond orders larger than 0.100000
B(  0-C ,  1-N ) :   0.8513 B(  0-C ,  2-C ) :   0.9809 B(  0-C ,  7-H ) :   0.9632
B(  0-C ,  8-H ) :   0.9534 B(  1-N ,  4-H ) :   0.8724 B(  1-N ,  5-H ) :   0.8745
B(  1-N ,  6-H ) :   0.8685 B(  2-C ,  3-C ) :   0.9431 B(  2-C ,  9-H ) :   0.9578
B(  2-C , 10-H ) :   0.9604 B(  3-C , 11-H ) :   0.9635 B(  3-C , 12-H ) :   0.9743
B(  3-C , 13-H ) :   0.9670

Dispersion correction           -0.002841244
FINAL SINGLE POINT ENERGY      -174.868932261418

DIPOLE MOMENT
-------------
                                X             Y             Z
Electronic contribution:      0.77064      -1.08993       1.96876
Nuclear contribution   :     -0.79558       0.15863      -0.24664
                        -----------------------------------------
Total Dipole Moment    :     -0.02494      -0.93130       1.72212
                        -----------------------------------------
Magnitude (a.u.)       :      1.95797
Magnitude (Debye)      :      4.97677

Rotational constants in cm-1:     0.425244     0.165801     0.135024
Rotational constants in MHz : 12748.492920  4970.589839  4047.903558

                             ****ORCA TERMINATED NORMALLY****
TOTAL RUN TIME: 0 days 0 hours 0 minutes 11 seconds 487 msec
