                         Program Version 5.0.0 -  RELEASE  -
|  1> !wB97X-D3 RIJCOSX def2-TZVP def2/J TightSCF xyzfile
|  2>
|  3> *xyzfile 0 1 B.xyz
|  4>
|  5> %MaxCore 64000
|  6>
|  7> %pal nprocs 18
|  8> end
|  9>
| 10> %scf
| 11>   MaxIter 150
| 12> end
| 13>
| 14>
| 15>                          ****END OF INPUT****

CARTESIAN COORDINATES (ANGSTROEM)
---------------------------------
  C      1.364014    0.468742   -2.813764
  N      0.428844    0.321402   -1.655312
  C      0.968045    1.630639   -3.715749
  C     -0.508347    1.722679   -4.124300
  S     -1.328608    0.146737   -4.435781
  H     -0.591511    2.294958   -5.047219
  H     -1.114114    2.235610   -3.374362
  H      0.748578   -0.400542   -1.001345
  H     -0.461053    0.023332   -2.077731
  H      0.310258    1.201375   -1.134948
  O     -2.571347    0.475733   -5.068341
  O     -1.514963   -0.400512   -3.063420
  H      1.294847   -0.468742   -3.364684
  H      2.376216    0.597400   -2.431495
  H      1.578688    1.520652   -4.612733
  H      1.266653    2.575988   -3.250448
  O     -0.377928   -0.627558   -5.201141

 Total Charge           Charge          ....    0
 Multiplicity           Mult            ....    1
 Number of Electrons    NEL             ....   74
 Basis Dimension        Dim             ....  308

ORBITAL ENERGIES
----------------

  NO   OCC          E(Eh)            E(eV)
   0   2.0000     -89.098877     -2424.5037
   1   2.0000     -19.182452      -521.9811
   2   2.0000     -19.166822      -521.5557
   3   2.0000     -19.164237      -521.4854
   4   2.0000     -14.557855      -396.1394
   5   2.0000     -10.367870      -282.1241
   6   2.0000     -10.318135      -280.7707
   7   2.0000     -10.296029      -280.1692
   8   2.0000      -8.161852      -222.0953
   9   2.0000      -6.116535      -166.4394
  10   2.0000      -6.115238      -166.4041
  11   2.0000      -6.113701      -166.3623
  12   2.0000      -1.208458       -32.8838
  13   2.0000      -1.148907       -31.2633
  14   2.0000      -1.068573       -29.0773
  15   2.0000      -1.066983       -29.0341
  16   2.0000      -0.942795       -25.6547
  17   2.0000      -0.852933       -23.2095
  18   2.0000      -0.763941       -20.7879
  19   2.0000      -0.729785       -19.8585
  20   2.0000      -0.716047       -19.4846
  21   2.0000      -0.650237       -17.6938
  22   2.0000      -0.626070       -17.0362
  23   2.0000      -0.589520       -16.0417
  24   2.0000      -0.571595       -15.5539
  25   2.0000      -0.560076       -15.2404
  26   2.0000      -0.528823       -14.3900
  27   2.0000      -0.519629       -14.1398
  28   2.0000      -0.498137       -13.5550
  29   2.0000      -0.487233       -13.2583
  30   2.0000      -0.470946       -12.8151
  31   2.0000      -0.419093       -11.4041
  32   2.0000      -0.410548       -11.1716
  33   2.0000      -0.378729       -10.3057
  34   2.0000      -0.368404       -10.0248
  35   2.0000      -0.357789        -9.7359
  36   2.0000      -0.327863        -8.9216
  37   0.0000       0.045329         1.2335
  38   0.0000       0.094664         2.5759
  39   0.0000       0.108974         2.9653
  40   0.0000       0.139547         3.7973
  41   0.0000       0.148444         4.0394

MULLIKEN ATOMIC CHARGES
-----------------------
   0 C :   -0.231912
   1 N :   -0.307953
   2 C :   -0.227714
   3 C :   -0.339792
   4 S :    0.894903
   5 H :    0.152154
   6 H :    0.128178
   7 H :    0.295738
   8 H :    0.317521
   9 H :    0.285296
  10 O :   -0.487555
  11 O :   -0.591748
  12 H :    0.214783
  13 H :    0.147815
  14 H :    0.145699
  15 H :    0.125725
  16 O :   -0.521137
Sum of atomic charges:   -0.0000000

LOEWDIN ATOMIC CHARGES
----------------------
   0 C :   -0.272159
   1 N :    0.142534
   2 C :   -0.291746
   3 C :   -0.390867
   4 S :    0.441476
   5 H :    0.141636
   6 H :    0.127568
   7 H :    0.200116
   8 H :    0.141185
   9 H :    0.199313
  10 O :   -0.307752
  11 O :   -0.376569
  12 H :    0.154263
  13 H :    0.133560
  14 H :    0.158902
  15 H :    0.137883
  16 O :   -0.339345

  Mayer bond orders larger than 0.100000
B(  0-C ,  1-N ) :   0.8684 B(  0-C ,  2-C ) :   0.9781 B(  0-C , 12-H ) :   0.9511
B(  0-C , 13-H ) :   0.9663 B(  1-N ,  7-H ) :   0.8956 B(  1-N ,  8-H ) :   0.7254
B(  1-N ,  9-H ) :   0.8944 B(  2-C ,  3-C ) :   0.9585 B(  2-C , 14-H ) :   0.9594
B(  2-C , 15-H ) :   0.9685 B(  3-C ,  4-S ) :   0.9006 B(  3-C ,  5-H ) :   0.9588
B(  3-C ,  6-H ) :   0.9632 B(  4-S , 10-O ) :   1.9142 B(  4-S , 11-O ) :   1.4569
B(  4-S , 16-O ) :   1.7713 B(  8-H , 11-O ) :   0.2478

Dispersion correction           -0.006686850
FINAL SINGLE POINT ENERGY      -798.416080377034

DIPOLE MOMENT
-------------
                                X             Y             Z
Electronic contribution:     -6.89548      -4.14117      -4.25970
Nuclear contribution   :      9.95459       5.57517       7.68169
                        -----------------------------------------
Total Dipole Moment    :      3.05910       1.43401       3.42199
                        -----------------------------------------
Magnitude (a.u.)       :      4.80879
Magnitude (Debye)      :     12.22298

Rotational constants in cm-1:     0.102119     0.045768     0.041299
Rotational constants in MHz :  3061.441288  1372.093000  1238.124534

                             ****ORCA TERMINATED NORMALLY****
TOTAL RUN TIME: 0 days 0 hours 0 minutes 23 seconds 421 msec
