                         Program Version 5.0.0 -  RELEASE  -
|  1> !wB97X-D3 RIJCOSX def2-TZVP def2/J TightSCF
|  2> *xyz 0 1
|  3> C          1.36401        0.46874       -2.81376
|  4> C          0.96805        1.63064       -3.71575
|  5> C         -0.50835        1.72268       -4.12430
|  6> S         -1.32861        0.14674       -4.43578
|  7> H         -0.59151        2.29496       -5.04722
|  8> H         -1.11411        2.23561       -3.37436
|  9> F         -2.57135        0.47573       -5.06834
| 10> O         -1.51496       -0.40051       -3.06342
| 11> H          1.57869        1.52065       -4.61273
| 12> H          1.26665        2.57599       -3.25045
| 13> O         -0.37793       -0.62756       -5.20114
| 14> H          1.07115       -0.45339       -3.27071
| 15> H          0.87480        0.56905       -1.86745
| 16> H          2.42423        0.47442       -2.66954
| 17> *
| 18> %MaxCore 64000
| 19>
| 20> %pal nprocs 18
| 21> end
| 22>
| 23> %scf
| 24>   MaxIter 150
| 25> end
| 26>
| 27>
| 28>                          ****END OF INPUT****

CARTESIAN COORDINATES (ANGSTROEM)
---------------------------------
  C      1.364010    0.468740   -2.813760
  C      0.968050    1.630640   -3.715750
  C     -0.508350    1.722680   -4.124300
  S     -1.328610    0.146740   -4.435780
  H     -0.591510    2.294960   -5.047220
  H     -1.114110    2.235610   -3.374360
  F     -2.571350    0.475730   -5.068340
  O     -1.514960   -0.400510   -3.063420
  H      1.578690    1.520650   -4.612730
  H      1.266650    2.575990   -3.250450
  O     -0.377930   -0.627560   -5.201140
  H      1.071150   -0.453390   -3.270710
  H      0.874800    0.569050   -1.867450
  H      2.424230    0.474420   -2.669540

 Total Charge           Charge          ....    0
 Multiplicity           Mult            ....    1
 Number of Electrons    NEL             ....   66
 Basis Dimension        Dim             ....  265

ORBITAL ENERGIES
----------------

  NO   OCC          E(Eh)            E(eV)
   0   2.0000     -89.196080     -2427.1487
   1   2.0000     -24.913279      -677.9248
   2   2.0000     -19.244775      -523.6770
   3   2.0000     -19.228149      -523.2245
   4   2.0000     -10.332393      -281.1587
   5   2.0000     -10.298902      -280.2474
   6   2.0000     -10.255565      -279.0681
   7   2.0000      -8.259530      -224.7532
   8   2.0000      -6.216666      -169.1641
   9   2.0000      -6.210636      -169.0000
  10   2.0000      -6.210172      -168.9874
  11   2.0000      -1.510114       -41.0923
  12   2.0000      -1.219850       -33.1938
  13   2.0000      -1.116973       -30.3944
  14   2.0000      -0.941259       -25.6130
  15   2.0000      -0.869086       -23.6490
  16   2.0000      -0.818697       -22.2779
  17   2.0000      -0.743247       -20.2248
  18   2.0000      -0.699498       -19.0343
  19   2.0000      -0.687168       -18.6988
  20   2.0000      -0.656790       -17.8722
  21   2.0000      -0.594999       -16.1907
  22   2.0000      -0.581606       -15.8263
  23   2.0000      -0.553030       -15.0487
  24   2.0000      -0.547285       -14.8924
  25   2.0000      -0.515872       -14.0376
  26   2.0000      -0.485682       -13.2161
  27   2.0000      -0.467595       -12.7239
  28   2.0000      -0.458553       -12.4779
  29   2.0000      -0.442811       -12.0495
  30   2.0000      -0.425532       -11.5793
  31   2.0000      -0.408690       -11.1210
  32   2.0000      -0.400310       -10.8930
  33   0.0000       0.101455         2.7607
  34   0.0000       0.113974         3.1014
  35   0.0000       0.142971         3.8904
  36   0.0000       0.145417         3.9570
  37   0.0000       0.158472         4.3122

MULLIKEN ATOMIC CHARGES
-----------------------
   0 C :   -0.348344
   1 C :   -0.198255
   2 C :   -0.263772
   3 S :    0.877960
   4 H :    0.139812
   5 H :    0.148857
   6 F :   -0.090620
   7 O :   -0.457402
   8 H :    0.117420
   9 H :    0.117022
  10 O :   -0.419676
  11 H :    0.146255
  12 H :    0.116899
  13 H :    0.113844
Sum of atomic charges:    0.0000000

LOEWDIN ATOMIC CHARGES
----------------------
   0 C :   -0.307157
   1 C :   -0.301138
   2 C :   -0.372363
   3 S :    0.535890
   4 H :    0.134884
   5 H :    0.139484
   6 F :    0.111242
   7 O :   -0.315623
   8 H :    0.142856
   9 H :    0.141527
  10 O :   -0.264509
  11 H :    0.120770
  12 H :    0.117852
  13 H :    0.116285

  Mayer bond orders larger than 0.100000
B(  0-C ,  1-C ) :   0.9888 B(  0-C , 11-H ) :   0.9730 B(  0-C , 12-H ) :   0.9750
B(  0-C , 13-H ) :   0.9702 B(  1-C ,  2-C ) :   0.9787 B(  1-C ,  8-H ) :   0.9741
B(  1-C ,  9-H ) :   0.9602 B(  2-C ,  3-S ) :   0.9234 B(  2-C ,  4-H ) :   0.9437
B(  2-C ,  5-H ) :   0.9412 B(  3-S ,  6-F ) :   1.1605 B(  3-S ,  7-O ) :   1.8570
B(  3-S , 10-O ) :   1.9009

Dispersion correction           -0.004621743
FINAL SINGLE POINT ENERGY      -767.046456187069

DIPOLE MOMENT
-------------
                                X             Y             Z
Electronic contribution:    -11.82870      -4.32705      -5.84279
Nuclear contribution   :     11.77809       5.83971       5.48704
                        -----------------------------------------
Total Dipole Moment    :     -0.05061       1.51266      -0.35575
                        -----------------------------------------
Magnitude (a.u.)       :      1.55475
Magnitude (Debye)      :      3.95187

Rotational constants in cm-1:     0.133968     0.056186     0.052650
Rotational constants in MHz :  4016.256208  1684.422248  1578.415210

                             ****ORCA TERMINATED NORMALLY****
TOTAL RUN TIME: 0 days 0 hours 0 minutes 22 seconds 77 msec
