                         Program Version 5.0.0 -  RELEASE  -
|  1> !wB97X-D3 RIJCOSX def2-TZVP def2/J TightSCF
|  2> *xyz 0 1
|  3> C          1.36401        0.46874       -2.81376
|  4> C          0.42884        0.32140       -1.65531
|  5> C          0.96805        1.63064       -3.71575
|  6> C         -0.50835        1.72268       -4.12430
|  7> H          0.74858       -0.40054       -1.00134
|  8> H         -0.46105        0.02333       -2.07773
|  9> H          0.31026        1.20137       -1.13495
| 10> H          1.29485       -0.46874       -3.36468
| 11> H          2.37622        0.59740       -2.43149
| 12> H          1.57869        1.52065       -4.61273
| 13> H          1.26665        2.57599       -3.25045
| 14> H         -0.65192        2.57663       -4.75283
| 15> H         -1.11549        1.81835       -3.24844
| 16> H         -0.78702        0.83723       -4.65648
| 17> *
| 18> %MaxCore 64000
| 19>
| 20> %pal nprocs 18
| 21> end
| 22>
| 23> %scf
| 24>   MaxIter 150
| 25> end
| 26>
| 27>
| 28>                          ****END OF INPUT****

CARTESIAN COORDINATES (ANGSTROEM)
---------------------------------
  C      1.364010    0.468740   -2.813760
  C      0.428840    0.321400   -1.655310
  C      0.968050    1.630640   -3.715750
  C     -0.508350    1.722680   -4.124300
  H      0.748580   -0.400540   -1.001340
  H     -0.461050    0.023330   -2.077730
  H      0.310260    1.201370   -1.134950
  H      1.294850   -0.468740   -3.364680
  H      2.376220    0.597400   -2.431490
  H      1.578690    1.520650   -4.612730
  H      1.266650    2.575990   -3.250450
  H     -0.651920    2.576630   -4.752830
  H     -1.115490    1.818350   -3.248440
  H     -0.787020    0.837230   -4.656480

 Total Charge           Charge          ....    0
 Multiplicity           Mult            ....    1
 Number of Electrons    NEL             ....   34
 Basis Dimension        Dim             ....  184

ORBITAL ENERGIES
----------------

  NO   OCC          E(Eh)            E(eV)
   0   2.0000     -10.262711      -279.2626
   1   2.0000     -10.259001      -279.1616
   2   2.0000     -10.252652      -278.9888
   3   2.0000     -10.231158      -278.4040
   4   2.0000      -0.918986       -25.0069
   5   2.0000      -0.842064       -22.9137
   6   2.0000      -0.759781       -20.6747
   7   2.0000      -0.670363       -18.2415
   8   2.0000      -0.572081       -15.5671
   9   2.0000      -0.563299       -15.3282
  10   2.0000      -0.523694       -14.2504
  11   2.0000      -0.484479       -13.1834
  12   2.0000      -0.479167       -13.0388
  13   2.0000      -0.460486       -12.5305
  14   2.0000      -0.418468       -11.3871
  15   2.0000      -0.411477       -11.1969
  16   2.0000      -0.406869       -11.0715
  17   0.0000       0.117820         3.2060
  18   0.0000       0.152507         4.1499
  19   0.0000       0.161243         4.3876
  20   0.0000       0.165022         4.4905
  21   0.0000       0.190257         5.1771

MULLIKEN ATOMIC CHARGES
-----------------------
   0 C :   -0.151099
   1 C :   -0.358964
   2 C :   -0.180304
   3 C :   -0.359913
   4 H :    0.114733
   5 H :    0.114841
   6 H :    0.108839
   7 H :    0.086011
   8 H :    0.091394
   9 H :    0.092164
  10 H :    0.094739
  11 H :    0.119018
  12 H :    0.119707
  13 H :    0.108834
Sum of atomic charges:    0.0000000

LOEWDIN ATOMIC CHARGES
----------------------
   0 C :   -0.299738
   1 C :   -0.300305
   2 C :   -0.295366
   3 C :   -0.304352
   4 H :    0.105802
   5 H :    0.112802
   6 H :    0.107765
   7 H :    0.134010
   8 H :    0.131293
   9 H :    0.132211
  10 H :    0.131612
  11 H :    0.115274
  12 H :    0.114447
  13 H :    0.114545

  Mayer bond orders larger than 0.100000
B(  0-C ,  1-C ) :   0.9490 B(  0-C ,  2-C ) :   0.9889 B(  0-C ,  7-H ) :   0.9798
B(  0-C ,  8-H ) :   0.9772 B(  1-C ,  4-H ) :   0.9842 B(  1-C ,  5-H ) :   0.9864
B(  1-C ,  6-H ) :   0.9822 B(  2-C ,  3-C ) :   0.9601 B(  2-C ,  9-H ) :   0.9800
B(  2-C , 10-H ) :   0.9778 B(  3-C , 11-H ) :   0.9800 B(  3-C , 12-H ) :   0.9810
B(  3-C , 13-H ) :   0.9780

Dispersion correction           -0.002747771
FINAL SINGLE POINT ENERGY      -158.454361403676

DIPOLE MOMENT
-------------
                                X             Y             Z
Electronic contribution:      0.84758       0.05427      -0.18786
Nuclear contribution   :     -0.83100      -0.05970       0.18742
                        -----------------------------------------
Total Dipole Moment    :      0.01658      -0.00543      -0.00044
                        -----------------------------------------
Magnitude (a.u.)       :      0.01745
Magnitude (Debye)      :      0.04435

Rotational constants in cm-1:     0.433656     0.172838     0.140497
Rotational constants in MHz : 13000.688694  5181.547473  4211.992439

                             ****ORCA TERMINATED NORMALLY****
TOTAL RUN TIME: 0 days 0 hours 0 minutes 9 seconds 610 msec
