                         Program Version 5.0.0 -  RELEASE  -
|  1> !wB97X-D3 RIJCOSX def2-TZVP def2/J TightSCF
|  2> *xyz 0 1
|  3> C          1.36401        0.46874       -2.81376
|  4> C          0.96805        1.63064       -3.71575
|  5> C         -0.50835        1.72268       -4.12430
|  6> S         -1.32861        0.14674       -4.43578
|  7> H         -0.59151        2.29496       -5.04722
|  8> H         -1.11411        2.23561       -3.37436
|  9> O         -2.57135        0.47573       -5.06834
| 10> F         -1.51496       -0.40051       -3.06342
| 11> H          1.57869        1.52065       -4.61273
| 12> H          1.26665        2.57599       -3.25045
| 13> O         -0.37793       -0.62756       -5.20114
| 14> H          1.07115       -0.45339       -3.27071
| 15> H          0.87480        0.56905       -1.86745
| 16> H          2.42423        0.47442       -2.66954
| 17> *
| 18> %MaxCore 64000
| 19>
| 20> %pal nprocs 18
| 21> end
| 22>
| 23> %scf
| 24>   MaxIter 150
| 25> end
| 26>
| 27>
| 28>                          ****END OF INPUT****

CARTESIAN COORDINATES (ANGSTROEM)
---------------------------------
  C      1.364010    0.468740   -2.813760
  C      0.968050    1.630640   -3.715750
  C     -0.508350    1.722680   -4.124300
  S     -1.328610    0.146740   -4.435780
  H     -0.591510    2.294960   -5.047220
  H     -1.114110    2.235610   -3.374360
  O     -2.571350    0.475730   -5.068340
  F     -1.514960   -0.400510   -3.063420
  H      1.578690    1.520650   -4.612730
  H      1.266650    2.575990   -3.250450
  O     -0.377930   -0.627560   -5.201140
  H      1.071150   -0.453390   -3.270710
  H      0.874800    0.569050   -1.867450
  H      2.424230    0.474420   -2.669540

 Total Charge           Charge          ....    0
 Multiplicity           Mult            ....    1
 Number of Electrons    NEL             ....   66
 Basis Dimension        Dim             ....  265

ORBITAL ENERGIES
----------------

  NO   OCC          E(Eh)            E(eV)
   0   2.0000     -89.192967     -2427.0640
   1   2.0000     -24.883506      -677.1146
   2   2.0000     -19.246854      -523.7335
   3   2.0000     -19.243662      -523.6467
   4   2.0000     -10.331758      -281.1414
   5   2.0000     -10.300829      -280.2998
   6   2.0000     -10.270354      -279.4705
   7   2.0000      -8.256390      -224.6678
   8   2.0000      -6.213885      -169.0884
   9   2.0000      -6.207612      -168.9177
  10   2.0000      -6.206753      -168.8943
  11   2.0000      -1.462930       -39.8083
  12   2.0000      -1.234160       -33.5832
  13   2.0000      -1.142702       -31.0945
  14   2.0000      -0.946235       -25.7484
  15   2.0000      -0.863218       -23.4894
  16   2.0000      -0.806507       -21.9462
  17   2.0000      -0.742306       -20.1992
  18   2.0000      -0.670553       -18.2467
  19   2.0000      -0.666631       -18.1400
  20   2.0000      -0.652722       -17.7615
  21   2.0000      -0.601394       -16.3648
  22   2.0000      -0.575796       -15.6682
  23   2.0000      -0.559582       -15.2270
  24   2.0000      -0.550843       -14.9892
  25   2.0000      -0.532477       -14.4894
  26   2.0000      -0.496180       -13.5017
  27   2.0000      -0.477320       -12.9885
  28   2.0000      -0.472697       -12.8627
  29   2.0000      -0.448276       -12.1982
  30   2.0000      -0.438066       -11.9204
  31   2.0000      -0.421630       -11.4731
  32   2.0000      -0.416358       -11.3297
  33   0.0000       0.098267         2.6740
  34   0.0000       0.121323         3.3014
  35   0.0000       0.135524         3.6878
  36   0.0000       0.144875         3.9423
  37   0.0000       0.160659         4.3718

MULLIKEN ATOMIC CHARGES
-----------------------
   0 C :   -0.372307
   1 C :   -0.175049
   2 C :   -0.288108
   3 S :    0.887985
   4 H :    0.166426
   5 H :    0.147682
   6 O :   -0.418188
   7 F :   -0.128328
   8 H :    0.121051
   9 H :    0.114635
  10 O :   -0.427308
  11 H :    0.136065
  12 H :    0.111898
  13 H :    0.123546
Sum of atomic charges:    0.0000000

LOEWDIN ATOMIC CHARGES
----------------------
   0 C :   -0.313290
   1 C :   -0.308352
   2 C :   -0.366744
   3 S :    0.543994
   4 H :    0.149637
   5 H :    0.137624
   6 O :   -0.256556
   7 F :    0.047578
   8 H :    0.143881
   9 H :    0.139666
  10 O :   -0.267088
  11 H :    0.115733
  12 H :    0.113577
  13 H :    0.120342

  Mayer bond orders larger than 0.100000
B(  0-C ,  1-C ) :   0.9712 B(  0-C , 11-H ) :   0.9724 B(  0-C , 12-H ) :   0.9766
B(  0-C , 13-H ) :   0.9731 B(  1-C ,  2-C ) :   0.9659 B(  1-C ,  8-H ) :   0.9710
B(  1-C ,  9-H ) :   0.9613 B(  2-C ,  3-S ) :   0.9148 B(  2-C ,  4-H ) :   0.9468
B(  2-C ,  5-H ) :   0.9481 B(  3-S ,  6-O ) :   1.9614 B(  3-S ,  7-F ) :   1.0931
B(  3-S , 10-O ) :   1.8926

Dispersion correction           -0.004614094
FINAL SINGLE POINT ENERGY      -767.070659613183

DIPOLE MOMENT
-------------
                                X             Y             Z
Electronic contribution:     -9.94479      -5.82029      -2.35423
Nuclear contribution   :     10.64200       6.78206       3.33086
                        -----------------------------------------
Total Dipole Moment    :      0.69721       0.96177       0.97663
                        -----------------------------------------
Magnitude (a.u.)       :      1.53783
Magnitude (Debye)      :      3.90884

Rotational constants in cm-1:     0.128573     0.057881     0.053975
Rotational constants in MHz :  3854.523324  1735.233387  1618.120420

                             ****ORCA TERMINATED NORMALLY****
TOTAL RUN TIME: 0 days 0 hours 0 minutes 16 seconds 683 msec
