                         Program Version 5.0.0 -  RELEASE  -
|  1> !wB97X-D3 RIJCOSX def2-TZVP def2/J TightSCF
|  2> *xyz 0 1
|  3> C          1.36401        0.46874       -2.81376
|  4> C          0.96805        1.63064       -3.71575
|  5> C         -0.50835        1.72268       -4.12430
|  6> S         -1.32861        0.14674       -4.43578
|  7> H         -0.59151        2.29496       -5.04722
|  8> H         -1.11411        2.23561       -3.37436
|  9> O         -2.57135        0.47573       -5.06834
| 10> O         -1.51496       -0.40051       -3.06342
| 11> H          1.57869        1.52065       -4.61273
| 12> H          1.26665        2.57599       -3.25045
| 13> F         -0.37793       -0.62756       -5.20114
| 14> H          1.07115       -0.45339       -3.27071
| 15> H          0.87480        0.56905       -1.86745
| 16> H          2.42423        0.47442       -2.66954
| 17> *
| 18> %MaxCore 64000
| 19>
| 20> %pal nprocs 18
| 21> end
| 22>
| 23> %scf
| 24>   MaxIter 150
| 25> end
| 26>
| 27>
| 28>                          ****END OF INPUT****

CARTESIAN COORDINATES (ANGSTROEM)
---------------------------------
  C      1.364010    0.468740   -2.813760
  C      0.968050    1.630640   -3.715750
  C     -0.508350    1.722680   -4.124300
  S     -1.328610    0.146740   -4.435780
  H     -0.591510    2.294960   -5.047220
  H     -1.114110    2.235610   -3.374360
  O     -2.571350    0.475730   -5.068340
  O     -1.514960   -0.400510   -3.063420
  H      1.578690    1.520650   -4.612730
  H      1.266650    2.575990   -3.250450
  F     -0.377930   -0.627560   -5.201140
  H      1.071150   -0.453390   -3.270710
  H      0.874800    0.569050   -1.867450
  H      2.424230    0.474420   -2.669540

 Total Charge           Charge          ....    0
 Multiplicity           Mult            ....    1
 Number of Electrons    NEL             ....   66
 Basis Dimension        Dim             ....  265

ORBITAL ENERGIES
----------------

  NO   OCC          E(Eh)            E(eV)
   0   2.0000     -89.194630     -2427.1093
   1   2.0000     -24.907552      -677.7690
   2   2.0000     -19.246956      -523.7363
   3   2.0000     -19.226795      -523.1877
   4   2.0000     -10.332041      -281.1491
   5   2.0000     -10.303783      -280.3802
   6   2.0000     -10.268931      -279.4318
   7   2.0000      -8.258098      -224.7143
   8   2.0000      -6.215576      -169.1344
   9   2.0000      -6.209107      -168.9584
  10   2.0000      -6.208525      -168.9426
  11   2.0000      -1.500271       -40.8245
  12   2.0000      -1.224055       -33.3082
  13   2.0000      -1.118678       -30.4408
  14   2.0000      -0.947564       -25.7845
  15   2.0000      -0.866397       -23.5759
  16   2.0000      -0.821469       -22.3533
  17   2.0000      -0.746202       -20.3052
  18   2.0000      -0.696126       -18.9425
  19   2.0000      -0.693013       -18.8578
  20   2.0000      -0.647549       -17.6207
  21   2.0000      -0.596327       -16.2269
  22   2.0000      -0.579904       -15.7800
  23   2.0000      -0.561719       -15.2851
  24   2.0000      -0.544600       -14.8193
  25   2.0000      -0.527285       -14.3482
  26   2.0000      -0.488820       -13.3015
  27   2.0000      -0.480337       -13.0706
  28   2.0000      -0.471426       -12.8282
  29   2.0000      -0.448873       -12.2145
  30   2.0000      -0.426714       -11.6115
  31   2.0000      -0.410350       -11.1662
  32   2.0000      -0.399074       -10.8594
  33   0.0000       0.091348         2.4857
  34   0.0000       0.124392         3.3849
  35   0.0000       0.136503         3.7144
  36   0.0000       0.146429         3.9845
  37   0.0000       0.155211         4.2235

MULLIKEN ATOMIC CHARGES
-----------------------
   0 C :   -0.326759
   1 C :   -0.221817
   2 C :   -0.266127
   3 S :    0.881647
   4 H :    0.150522
   5 H :    0.166154
   6 O :   -0.410098
   7 O :   -0.458522
   8 H :    0.113714
   9 H :    0.119158
  10 F :   -0.100820
  11 H :    0.105005
  12 H :    0.128297
  13 H :    0.119644
Sum of atomic charges:    0.0000000

LOEWDIN ATOMIC CHARGES
----------------------
   0 C :   -0.309217
   1 C :   -0.312981
   2 C :   -0.364775
   3 S :    0.537947
   4 H :    0.138800
   5 H :    0.150733
   6 O :   -0.252831
   7 O :   -0.315661
   8 H :    0.137740
   9 H :    0.141709
  10 F :    0.099135
  11 H :    0.110417
  12 H :    0.121631
  13 H :    0.117353

  Mayer bond orders larger than 0.100000
B(  0-C ,  1-C ) :   0.9817 B(  0-C , 11-H ) :   0.9794 B(  0-C , 12-H ) :   0.9730
B(  0-C , 13-H ) :   0.9697 B(  1-C ,  2-C ) :   0.9701 B(  1-C ,  8-H ) :   0.9786
B(  1-C ,  9-H ) :   0.9613 B(  2-C ,  3-S ) :   0.9164 B(  2-C ,  4-H ) :   0.9499
B(  2-C ,  5-H ) :   0.9433 B(  3-S ,  6-O ) :   1.9632 B(  3-S ,  7-O ) :   1.8470
B(  3-S , 10-F ) :   1.1289

Dispersion correction           -0.004616749
FINAL SINGLE POINT ENERGY      -767.050235587348

DIPOLE MOMENT
-------------
                                X             Y             Z
Electronic contribution:     -7.99789      -6.19250      -6.01945
Nuclear contribution   :      9.41919       7.02624       5.62986
                        -----------------------------------------
Total Dipole Moment    :      1.42130       0.83373      -0.38960
                        -----------------------------------------
Magnitude (a.u.)       :      1.69322
Magnitude (Debye)      :      4.30382

Rotational constants in cm-1:     0.128702     0.057313     0.054552
Rotational constants in MHz :  3858.395793  1718.208003  1635.420361

                             ****ORCA TERMINATED NORMALLY****
TOTAL RUN TIME: 0 days 0 hours 0 minutes 17 seconds 360 msec
