                         Program Version 5.0.0 -  RELEASE  -
|  1> !wB97X-D3 RIJCOSX def2-TZVP def2/J TightSCF xyzfile
|  2>
|  3> *xyzfile 0 1 D3.xyz
|  4>
|  5> %MaxCore 64000
|  6>
|  7> %pal nprocs 18
|  8> end
|  9>
| 10> %scf
| 11>   MaxIter 150
| 12> end
| 13>
| 14>
| 15>                          ****END OF INPUT****

CARTESIAN COORDINATES (ANGSTROEM)
---------------------------------
  C      1.364014    0.468742   -2.813764
  C      0.428844    0.321402   -1.655312
  C      0.968045    1.630639   -3.715749
  C     -0.508347    1.722679   -4.124300
  S     -1.328608    0.146737   -4.435781
  H     -0.591511    2.294958   -5.047219
  H     -1.114114    2.235610   -3.374362
  H      0.748578   -0.400542   -1.001345
  H     -0.461053    0.023332   -2.077731
  H      0.310258    1.201375   -1.134948
  O     -2.571347    0.475733   -5.068341
  O     -1.514963   -0.400512   -3.063420
  H      1.294847   -0.468742   -3.364684
  H      2.376216    0.597400   -2.431495
  H      1.578688    1.520652   -4.612733
  H      1.266653    2.575988   -3.250448
  F     -0.377928   -0.627558   -5.201141

 Total Charge           Charge          ....    0
 Multiplicity           Mult            ....    1
 Number of Electrons    NEL             ....   74
 Basis Dimension        Dim             ....  308

ORBITAL ENERGIES
----------------

  NO   OCC          E(Eh)            E(eV)
   0   2.0000     -89.202300     -2427.3180
   1   2.0000     -24.912650      -677.9077
   2   2.0000     -19.252579      -523.8893
   3   2.0000     -19.234954      -523.4097
   4   2.0000     -10.335540      -281.2443
   5   2.0000     -10.299951      -280.2759
   6   2.0000     -10.271328      -279.4970
   7   2.0000     -10.203956      -277.6638
   8   2.0000      -8.265841      -224.9250
   9   2.0000      -6.223273      -169.3439
  10   2.0000      -6.216811      -169.1680
  11   2.0000      -6.216381      -169.1563
  12   2.0000      -1.505399       -40.9640
  13   2.0000      -1.232779       -33.5456
  14   2.0000      -1.133963       -30.8567
  15   2.0000      -0.954052       -25.9611
  16   2.0000      -0.889056       -24.1924
  17   2.0000      -0.834594       -22.7105
  18   2.0000      -0.791970       -21.5506
  19   2.0000      -0.722280       -19.6542
  20   2.0000      -0.699533       -19.0353
  21   2.0000      -0.691976       -18.8296
  22   2.0000      -0.650358       -17.6971
  23   2.0000      -0.604176       -16.4405
  24   2.0000      -0.598671       -16.2907
  25   2.0000      -0.570892       -15.5348
  26   2.0000      -0.558252       -15.1908
  27   2.0000      -0.527463       -14.3530
  28   2.0000      -0.510017       -13.8783
  29   2.0000      -0.494663       -13.4605
  30   2.0000      -0.488874       -13.3029
  31   2.0000      -0.463838       -12.6217
  32   2.0000      -0.440419       -11.9844
  33   2.0000      -0.427051       -11.6207
  34   2.0000      -0.425492       -11.5782
  35   2.0000      -0.414558       -11.2807
  36   2.0000      -0.365109        -9.9351
  37   0.0000       0.091388         2.4868
  38   0.0000       0.118162         3.2153
  39   0.0000       0.131988         3.5916
  40   0.0000       0.143733         3.9112
  41   0.0000       0.147842         4.0230

MULLIKEN ATOMIC CHARGES
-----------------------
   0 C :   -0.209027
   1 C :   -0.371098
   2 C :   -0.241119
   3 C :   -0.291824
   4 S :    0.885010
   5 H :    0.164920
   6 H :    0.176404
   7 H :    0.100917
   8 H :    0.180881
   9 H :    0.086030
  10 O :   -0.403953
  11 O :   -0.433435
  12 H :    0.100637
  13 H :    0.103756
  14 H :    0.119783
  15 H :    0.127585
  16 F :   -0.095467
Sum of atomic charges:    0.0000000

LOEWDIN ATOMIC CHARGES
----------------------
   0 C :   -0.308483
   1 C :   -0.315868
   2 C :   -0.287717
   3 C :   -0.356490
   4 S :    0.551744
   5 H :    0.140960
   6 H :    0.153464
   7 H :    0.103961
   8 H :    0.084305
   9 H :    0.101021
  10 O :   -0.248521
  11 O :   -0.272239
  12 H :    0.130780
  13 H :    0.134694
  14 H :    0.139306
  15 H :    0.145817
  16 F :    0.103266

  Mayer bond orders larger than 0.100000
B(  0-C ,  1-C ) :   0.9299 B(  0-C ,  2-C ) :   0.9624 B(  0-C , 12-H ) :   0.9935
B(  0-C , 13-H ) :   0.9724 B(  1-C ,  7-H ) :   0.9805 B(  1-C ,  8-H ) :   0.9503
B(  1-C ,  9-H ) :   0.9827 B(  2-C ,  3-C ) :   0.9612 B(  2-C , 14-H ) :   0.9816
B(  2-C , 15-H ) :   0.9597 B(  3-C ,  4-S ) :   0.9256 B(  3-C ,  5-H ) :   0.9504
B(  3-C ,  6-H ) :   0.9400 B(  4-S , 10-O ) :   1.9659 B(  4-S , 11-O ) :   1.7773
B(  4-S , 16-F ) :   1.1398

Dispersion correction           -0.006497316
FINAL SINGLE POINT ENERGY      -806.326912514004

DIPOLE MOMENT
-------------
                                X             Y             Z
Electronic contribution:     -8.66256      -5.97380      -9.93730
Nuclear contribution   :      9.83476       6.70164       9.41257
                        -----------------------------------------
Total Dipole Moment    :      1.17220       0.72784      -0.52473
                        -----------------------------------------
Magnitude (a.u.)       :      1.47619
Magnitude (Debye)      :      3.75219

Rotational constants in cm-1:     0.099832     0.045916     0.042219
Rotational constants in MHz :  2992.874960  1376.530174  1265.693813

                             ****ORCA TERMINATED NORMALLY****
TOTAL RUN TIME: 0 days 0 hours 0 minutes 25 seconds 8 msec
