                         Program Version 5.0.0 -  RELEASE  -
|  1> !M062X D3Zero RIJCOSX def2-SVP def2/J TightSCF
|  2> *xyz -1 1
|  3> C          0.84888        2.66797       -4.30235
|  4> C          2.09343        1.86104       -4.65684
|  5> H          2.44481        2.04157       -5.67499
|  6> H          2.90175        2.13786       -3.98034
|  7> S          1.87964        0.07859       -4.46297
|  8> O          3.20757       -0.46611       -4.42026
|  9> O          1.07506       -0.05616       -3.26876
| 10> O          1.13166       -0.31996       -5.67903
| 11> H          0.05064        2.40112       -4.96303
| 12> H          1.06043        3.71210       -4.40203
| 13> H          0.56237        2.45684       -3.29327
| 14> *
| 15>
| 16> %MaxCore 64000
| 17>
| 18> %pal nprocs 4
| 19> end
| 20>
| 21> %scf
| 22>   MaxIter 150
| 23> end
| 24>
| 25>
| 26>                          ****END OF INPUT****

CARTESIAN COORDINATES (ANGSTROEM)
---------------------------------
  C      0.848880    2.667970   -4.302350
  C      2.093430    1.861040   -4.656840
  H      2.444810    2.041570   -5.674990
  H      2.901750    2.137860   -3.980340
  S      1.879640    0.078590   -4.462970
  O      3.207570   -0.466110   -4.420260
  O      1.075060   -0.056160   -3.268760
  O      1.131660   -0.319960   -5.679030
  H      0.050640    2.401120   -4.963030
  H      1.060430    3.712100   -4.402030
  H      0.562370    2.456840   -3.293270

 Total Charge           Charge          ....   -1
 Multiplicity           Mult            ....    1
 Number of Electrons    NEL             ....   58
 Basis Dimension        Dim             ....  113

ORBITAL ENERGIES
----------------

  NO   OCC          E(Eh)            E(eV)
   0   2.0000     -89.900620     -2446.3202
   1   2.0000     -19.386879      -527.5438
   2   2.0000     -19.384445      -527.4776
   3   2.0000     -19.368612      -527.0467
   4   2.0000     -10.398548      -282.9589
   5   2.0000     -10.393496      -282.8214
   6   2.0000      -8.230976      -223.9762
   7   2.0000      -6.155685      -167.5047
   8   2.0000      -6.155449      -167.4983
   9   2.0000      -6.155317      -167.4947
  10   2.0000      -1.026470       -27.9317
  11   2.0000      -0.883573       -24.0432
  12   2.0000      -0.854449       -23.2507
  13   2.0000      -0.710065       -19.3218
  14   2.0000      -0.574472       -15.6322
  15   2.0000      -0.443011       -12.0550
  16   2.0000      -0.378950       -10.3118
  17   2.0000      -0.376730       -10.2513
  18   2.0000      -0.334287        -9.0964
  19   2.0000      -0.320852        -8.7308
  20   2.0000      -0.312536        -8.5045
  21   2.0000      -0.282328        -7.6825
  22   2.0000      -0.266326        -7.2471
  23   2.0000      -0.201024        -5.4701
  24   2.0000      -0.199243        -5.4217
  25   2.0000      -0.165045        -4.4911
  26   2.0000      -0.151498        -4.1225
  27   2.0000      -0.139621        -3.7993
  28   2.0000      -0.110876        -3.0171
  29   0.0000       0.243497         6.6259
  30   0.0000       0.295097         8.0300
  31   0.0000       0.301372         8.2007
  32   0.0000       0.308595         8.3973
  33   0.0000       0.336422         9.1545

MULLIKEN ATOMIC CHARGES
-----------------------
   0 C :   -0.030107
   1 C :   -0.160322
   2 H :    0.025494
   3 H :    0.015359
   4 S :    0.957538
   5 O :   -0.598350
   6 O :   -0.609696
   7 O :   -0.649685
   8 H :    0.028226
   9 H :   -0.012836
  10 H :    0.034380
Sum of atomic charges:   -1.0000000

LOEWDIN ATOMIC CHARGES
----------------------
   0 C :   -0.078786
   1 C :   -0.198942
   2 H :    0.010877
   3 H :    0.005861
   4 S :    1.130802
   5 O :   -0.616177
   6 O :   -0.624858
   7 O :   -0.671215
   8 H :    0.019364
   9 H :    0.002891
  10 H :    0.020184

  Mayer bond orders larger than 0.100000
B(  0-C ,  1-C ) :   1.0580 B(  0-C ,  8-H ) :   0.9708 B(  0-C ,  9-H ) :   0.9654
B(  0-C , 10-H ) :   0.9672 B(  1-C ,  2-H ) :   0.9481 B(  1-C ,  3-H ) :   0.9449
B(  1-C ,  4-S ) :   0.8935 B(  4-S ,  5-O ) :   1.6340 B(  4-S ,  6-O ) :   1.6046
B(  4-S ,  7-O ) :   1.5719

Dispersion correction           -0.000144194
FINAL SINGLE POINT ENERGY      -702.571070737069

DIPOLE MOMENT
-------------
                                X             Y             Z
Electronic contribution:      1.62596      -7.79571       0.06832
Nuclear contribution   :     -1.55288       9.51857       0.00420
                        -----------------------------------------
Total Dipole Moment    :      0.07308       1.72286       0.07253
                        -----------------------------------------
Magnitude (a.u.)       :      1.72593
Magnitude (Debye)      :      4.38697

Rotational constants in cm-1:     0.163401     0.083833     0.082462
Rotational constants in MHz :  4898.624208  2513.264548  2472.149188

                             ****ORCA TERMINATED NORMALLY****
TOTAL RUN TIME: 0 days 0 hours 0 minutes 13 seconds 436 msec
