                         Program Version 5.0.0 -  RELEASE  -
|  1> !M062X D3Zero RIJCOSX def2-SVP def2/J TightSCF
|  2> *xyz 1 1
|  3> C         -0.46129        2.23469       -4.98962
|  4> C          0.84888        2.66797       -4.30235
|  5> C         -0.42384        2.39877       -6.47432
|  6> N         -0.95947        3.49265       -7.00740
|  7> N          0.14558        1.48689       -7.20399
|  8> H          0.56537        0.69681       -6.72386
|  9> H          0.22068        1.58177       -8.20752
| 10> H         -1.40624        4.18151       -6.40326
| 11> H         -0.93421        3.68160       -7.99947
| 12> H         -1.28888        2.82674       -4.59500
| 13> H         -0.65170        1.18634       -4.75655
| 14> H          1.66208        2.08894       -4.68750
| 15> H          0.76716        2.51042       -3.24717
| 16> H          1.02677        3.70527       -4.49537
| 17> *
| 18>
| 19> %MaxCore 64000
| 20>
| 21> %pal nprocs 4
| 22> end
| 23>
| 24> %scf
| 25>   MaxIter 150
| 26> end
| 27>
| 28>
| 29>                          ****END OF INPUT****

CARTESIAN COORDINATES (ANGSTROEM)
---------------------------------
  C     -0.461290    2.234690   -4.989620
  C      0.848880    2.667970   -4.302350
  C     -0.423840    2.398770   -6.474320
  N     -0.959470    3.492650   -7.007400
  N      0.145580    1.486890   -7.203990
  H      0.565370    0.696810   -6.723860
  H      0.220680    1.581770   -8.207520
  H     -1.406240    4.181510   -6.403260
  H     -0.934210    3.681600   -7.999470
  H     -1.288880    2.826740   -4.595000
  H     -0.651700    1.186340   -4.756550
  H      1.662080    2.088940   -4.687500
  H      0.767160    2.510420   -3.247170
  H      1.026770    3.705270   -4.495370

 Total Charge           Charge          ....    1
 Multiplicity           Mult            ....    1
 Number of Electrons    NEL             ....   40
 Basis Dimension        Dim             ....  115

ORBITAL ENERGIES
----------------

  NO   OCC          E(Eh)            E(eV)
   0   2.0000     -15.010636      -408.4602
   1   2.0000     -15.005882      -408.3308
   2   2.0000     -10.876274      -295.9585
   3   2.0000     -10.748661      -292.4859
   4   2.0000     -10.707528      -291.3666
   5   2.0000      -1.305531       -35.5253
   6   2.0000      -1.201726       -32.7006
   7   2.0000      -1.058325       -28.7985
   8   2.0000      -0.942040       -25.6342
   9   2.0000      -0.895106       -24.3571
  10   2.0000      -0.853315       -23.2199
  11   2.0000      -0.825560       -22.4646
  12   2.0000      -0.771000       -20.9800
  13   2.0000      -0.722134       -19.6503
  14   2.0000      -0.692126       -18.8337
  15   2.0000      -0.683212       -18.5912
  16   2.0000      -0.607091       -16.5198
  17   2.0000      -0.597079       -16.2473
  18   2.0000      -0.590998       -16.0819
  19   2.0000      -0.553390       -15.0585
  20   0.0000      -0.160390        -4.3644
  21   0.0000      -0.109323        -2.9748
  22   0.0000      -0.063317        -1.7230
  23   0.0000      -0.061657        -1.6778
  24   0.0000      -0.032890        -0.8950

MULLIKEN ATOMIC CHARGES
-----------------------
   0 C :   -0.080909
   1 C :   -0.027453
   2 C :   -0.034534
   3 N :   -0.054669
   4 N :   -0.006749
   5 H :    0.200863
   6 H :    0.191707
   7 H :    0.203005
   8 H :    0.187391
   9 H :    0.088188
  10 H :    0.102303
  11 H :    0.059878
  12 H :    0.103429
  13 H :    0.067552
Sum of atomic charges:    1.0000000

LOEWDIN ATOMIC CHARGES
----------------------
   0 C :   -0.040899
   1 C :   -0.023340
   2 C :    0.157455
   3 N :    0.075069
   4 N :    0.098148
   5 H :    0.127635
   6 H :    0.118840
   7 H :    0.127097
   8 H :    0.114020
   9 H :    0.057137
  10 H :    0.061306
  11 H :    0.033681
  12 H :    0.055394
  13 H :    0.038459

  Mayer bond orders larger than 0.100000
B(  0-C ,  1-C ) :   1.0611 B(  0-C ,  2-C ) :   1.0197 B(  0-C ,  9-H ) :   0.9258
B(  0-C , 10-H ) :   0.9253 B(  1-C , 11-H ) :   0.9726 B(  1-C , 12-H ) :   0.9644
B(  1-C , 13-H ) :   0.9699 B(  2-C ,  3-N ) :   1.4977 B(  2-C ,  4-N ) :   1.5358
B(  3-N ,  7-H ) :   0.9137 B(  3-N ,  8-H ) :   0.9250 B(  4-N ,  5-H ) :   0.9102
B(  4-N ,  6-H ) :   0.9207

Dispersion correction           -0.000203841
FINAL SINGLE POINT ENERGY      -228.742986109363

DIPOLE MOMENT
-------------
                                X             Y             Z
Electronic contribution:     -1.55396      -0.26467      -3.91047
Nuclear contribution   :      1.33202       0.27544       2.83701
                        -----------------------------------------
Total Dipole Moment    :     -0.22194       0.01077      -1.07347
                        -----------------------------------------
Magnitude (a.u.)       :      1.09622
Magnitude (Debye)      :      2.78638

Rotational constants in cm-1:     0.258570     0.126296     0.098869
Rotational constants in MHz :  7751.748523  3786.267300  2964.011691

                             ****ORCA TERMINATED NORMALLY****
TOTAL RUN TIME: 0 days 0 hours 0 minutes 15 seconds 355 msec
