                         Program Version 5.0.0 -  RELEASE  -
|  1> !M062X D3Zero RIJCOSX def2-TZVP def2/J TightSCF xyzfile
|  2>
|  3> *xyzfile 0 1 B.xyz
|  4>
|  5> %MaxCore 64000
|  6>
|  7> %pal nprocs 18
|  8> end
|  9>
| 10> %scf
| 11>   MaxIter 150
| 12> end
| 13>
| 14>
| 15>                          ****END OF INPUT****

CARTESIAN COORDINATES (ANGSTROEM)
---------------------------------
  C     -0.461293    2.234686   -4.989619
  C      0.848883    2.667967   -4.302351
  C      2.093434    1.861037   -4.656845
  H      2.444814    2.041567   -5.674990
  H      2.901748    2.137864   -3.980338
  S      1.879644    0.078594   -4.462965
  C     -0.423841    2.398772   -6.474317
  N     -0.959467    3.492647   -7.007401
  N      0.145585    1.486891   -7.203987
  H      0.565371    0.696807   -6.723858
  H      0.220682    1.581768   -8.207520
  H     -1.406243    4.181507   -6.403261
  H     -0.934215    3.681601   -7.999468
  O      3.207574   -0.466111   -4.420259
  O      1.075064   -0.056160   -3.268758
  O      1.131661   -0.319960   -5.679031
  H      0.668432    2.559427   -3.232850
  H      1.034074    3.729426   -4.497081
  H     -1.288884    2.826737   -4.594997
  H     -0.651696    1.186343   -4.756552

 Total Charge           Charge          ....    0
 Multiplicity           Mult            ....    1
 Number of Electrons    NEL             ....   88
 Basis Dimension        Dim             ....  376

ORBITAL ENERGIES
----------------

  NO   OCC          E(Eh)            E(eV)
   0   2.0000     -90.040298     -2450.1211
   1   2.0000     -19.563969      -532.3627
   2   2.0000     -19.549556      -531.9705
   3   2.0000     -19.547048      -531.9022
   4   2.0000     -14.857943      -404.3052
   5   2.0000     -14.826360      -403.4458
   6   2.0000     -10.715570      -291.5855
   7   2.0000     -10.587509      -288.1008
   8   2.0000     -10.566654      -287.5333
   9   2.0000     -10.541849      -286.8583
  10   2.0000      -8.364972      -227.6225
  11   2.0000      -6.287940      -171.1035
  12   2.0000      -6.286888      -171.0749
  13   2.0000      -6.285696      -171.0425
  14   2.0000      -1.200995       -32.6807
  15   2.0000      -1.170513       -31.8513
  16   2.0000      -1.073533       -29.2123
  17   2.0000      -1.059048       -28.8182
  18   2.0000      -1.055628       -28.7251
  19   2.0000      -0.933849       -25.4113
  20   2.0000      -0.850116       -23.1328
  21   2.0000      -0.779755       -21.2182
  22   2.0000      -0.733356       -19.9556
  23   2.0000      -0.707660       -19.2564
  24   2.0000      -0.685629       -18.6569
  25   2.0000      -0.639301       -17.3963
  26   2.0000      -0.601898       -16.3785
  27   2.0000      -0.587916       -15.9980
  28   2.0000      -0.558545       -15.1988
  29   2.0000      -0.543281       -14.7834
  30   2.0000      -0.518308       -14.1039
  31   2.0000      -0.510527       -13.8922
  32   2.0000      -0.491054       -13.3623
  33   2.0000      -0.486531       -13.2392
  34   2.0000      -0.456369       -12.4184
  35   2.0000      -0.438149       -11.9226
  36   2.0000      -0.423097       -11.5130
  37   2.0000      -0.409643       -11.1469
  38   2.0000      -0.382300       -10.4029
  39   2.0000      -0.376716       -10.2510
  40   2.0000      -0.343656        -9.3514
  41   2.0000      -0.333512        -9.0753
  42   2.0000      -0.316315        -8.6074
  43   2.0000      -0.294164        -8.0046
  44   0.0000      -0.022313        -0.6072
  45   0.0000      -0.008413        -0.2289
  46   0.0000       0.029875         0.8129
  47   0.0000       0.056348         1.5333
  48   0.0000       0.079525         2.1640

MULLIKEN ATOMIC CHARGES
-----------------------
   0 C :   -0.436992
   1 C :   -0.237368
   2 C :   -0.428269
   3 H :    0.162918
   4 H :    0.173958
   5 S :    0.967654
   6 C :    0.452168
   7 N :   -0.471980
   8 N :   -0.404981
   9 H :    0.358838
  10 H :    0.251174
  11 H :    0.292363
  12 H :    0.269379
  13 O :   -0.528701
  14 O :   -0.540602
  15 O :   -0.622619
  16 H :    0.186328
  17 H :    0.144730
  18 H :    0.157486
  19 H :    0.254514
Sum of atomic charges:    0.0000000

LOEWDIN ATOMIC CHARGES
----------------------
   0 C :   -0.211401
   1 C :   -0.275557
   2 C :   -0.393704
   3 H :    0.126100
   4 H :    0.142301
   5 S :    0.455171
   6 C :   -0.301455
   7 N :    0.054615
   8 N :    0.125152
   9 H :    0.158003
  10 H :    0.183554
  11 H :    0.198804
  12 H :    0.183645
  13 O :   -0.327881
  14 O :   -0.347335
  15 O :   -0.389814
  16 H :    0.158386
  17 H :    0.136620
  18 H :    0.150061
  19 H :    0.174736

  Mayer bond orders larger than 0.100000
B(  0-C ,  1-C ) :   0.8784 B(  0-C ,  6-C ) :   0.9355 B(  0-C , 18-H ) :   0.9801
B(  0-C , 19-H ) :   0.9432 B(  1-C ,  2-C ) :   0.9151 B(  1-C , 16-H ) :   0.9635
B(  1-C , 17-H ) :   0.9638 B(  2-C ,  3-H ) :   0.9537 B(  2-C ,  4-H ) :   0.9631
B(  2-C ,  5-S ) :   0.9011 B(  5-S , 13-O ) :   1.8800 B(  5-S , 14-O ) :   1.7543
B(  5-S , 15-O ) :   1.4577 B(  6-C ,  7-N ) :   1.2896 B(  6-C ,  8-N ) :   1.5315
B(  7-N , 11-H ) :   0.8979 B(  7-N , 12-H ) :   0.9085 B(  8-N ,  9-H ) :   0.7314
B(  8-N , 10-H ) :   0.9135 B(  9-H , 15-O ) :   0.1853

Dispersion correction           -0.000728393
FINAL SINGLE POINT ENERGY      -891.812820662505

DIPOLE MOMENT
-------------
                                X             Y             Z
Electronic contribution:      3.09801      -7.62092       1.08103
Nuclear contribution   :     -5.91573      12.15027      -4.18945
                        -----------------------------------------
Total Dipole Moment    :     -2.81772       4.52936      -3.10842
                        -----------------------------------------
Magnitude (a.u.)       :      6.17389
Magnitude (Debye)      :     15.69278

Rotational constants in cm-1:     0.082044     0.024757     0.022371
Rotational constants in MHz :  2459.631375   742.181961   670.660570

                             ****ORCA TERMINATED NORMALLY****
TOTAL RUN TIME: 0 days 0 hours 0 minutes 35 seconds 182 msec
