                         Program Version 5.0.0 -  RELEASE  -
|  1> !M062X D3Zero RIJCOSX def2-SVP def2/J TightSCF
|  2> *xyz 0 1
|  3> C          0.84888        2.66797       -4.30235
|  4> C          2.09343        1.86104       -4.65684
|  5> H          2.44481        2.04157       -5.67499
|  6> H          2.90175        2.13786       -3.98034
|  7> S          1.87964        0.07859       -4.46297
|  8> F          3.20757       -0.46611       -4.42026
|  9> O          1.07506       -0.05616       -3.26876
| 10> O          1.13166       -0.31996       -5.67903
| 11> H          0.05064        2.40112       -4.96303
| 12> H          1.06043        3.71210       -4.40203
| 13> H          0.56237        2.45684       -3.29327
| 14> *
| 15>
| 16> %MaxCore 64000
| 17>
| 18> %pal nprocs 4
| 19> end
| 20>
| 21> %scf
| 22>   MaxIter 150
| 23> end
| 24>
| 25>
| 26>                          ****END OF INPUT****

CARTESIAN COORDINATES (ANGSTROEM)
---------------------------------
  C      0.848880    2.667970   -4.302350
  C      2.093430    1.861040   -4.656840
  H      2.444810    2.041570   -5.674990
  H      2.901750    2.137860   -3.980340
  S      1.879640    0.078590   -4.462970
  F      3.207570   -0.466110   -4.420260
  O      1.075060   -0.056160   -3.268760
  O      1.131660   -0.319960   -5.679030
  H      0.050640    2.401120   -4.963030
  H      1.060430    3.712100   -4.402030
  H      0.562370    2.456840   -3.293270

 Total Charge           Charge          ....    0
 Multiplicity           Mult            ....    1
 Number of Electrons    NEL             ....   58
 Basis Dimension        Dim             ....  113

ORBITAL ENERGIES
----------------

  NO   OCC          E(Eh)            E(eV)
   0   2.0000     -90.175576     -2453.8022
   1   2.0000     -25.369775      -690.3467
   2   2.0000     -19.636108      -534.3257
   3   2.0000     -19.621676      -533.9329
   4   2.0000     -10.606945      -288.6296
   5   2.0000     -10.567759      -287.5633
   6   2.0000      -8.508581      -231.5303
   7   2.0000      -6.436269      -175.1398
   8   2.0000      -6.430822      -174.9916
   9   2.0000      -6.429849      -174.9651
  10   2.0000      -1.518159       -41.3112
  11   2.0000      -1.217183       -33.1212
  12   2.0000      -1.106599       -30.1121
  13   2.0000      -0.910527       -24.7767
  14   2.0000      -0.831075       -22.6147
  15   2.0000      -0.760703       -20.6998
  16   2.0000      -0.687734       -18.7142
  17   2.0000      -0.680889       -18.5279
  18   2.0000      -0.633305       -17.2331
  19   2.0000      -0.563809       -15.3420
  20   2.0000      -0.557263       -15.1639
  21   2.0000      -0.510268       -13.8851
  22   2.0000      -0.495776       -13.4907
  23   2.0000      -0.471058       -12.8181
  24   2.0000      -0.451669       -12.2905
  25   2.0000      -0.447512       -12.1774
  26   2.0000      -0.396406       -10.7868
  27   2.0000      -0.377825       -10.2811
  28   2.0000      -0.368585       -10.0297
  29   0.0000       0.081939         2.2297
  30   0.0000       0.091658         2.4941
  31   0.0000       0.118875         3.2348
  32   0.0000       0.128197         3.4884
  33   0.0000       0.137031         3.7288

MULLIKEN ATOMIC CHARGES
-----------------------
   0 C :   -0.036743
   1 C :   -0.195035
   2 H :    0.096214
   3 H :    0.077840
   4 S :    1.022366
   5 F :   -0.189554
   6 O :   -0.471090
   7 O :   -0.507157
   8 H :    0.071308
   9 H :    0.059480
  10 H :    0.072372
Sum of atomic charges:   -0.0000000

LOEWDIN ATOMIC CHARGES
----------------------
   0 C :   -0.051526
   1 C :   -0.161114
   2 H :    0.040840
   3 H :    0.031443
   4 S :    1.188128
   5 F :   -0.120391
   6 O :   -0.498885
   7 O :   -0.541835
   8 H :    0.038197
   9 H :    0.038056
  10 H :    0.037086

  Mayer bond orders larger than 0.100000
B(  0-C ,  1-C ) :   1.0656 B(  0-C ,  8-H ) :   0.9730 B(  0-C ,  9-H ) :   0.9650
B(  0-C , 10-H ) :   0.9674 B(  1-C ,  2-H ) :   0.9346 B(  1-C ,  3-H ) :   0.9320
B(  1-C ,  4-S ) :   0.9253 B(  4-S ,  5-F ) :   1.0082 B(  4-S ,  6-O ) :   1.7601
B(  4-S ,  7-O ) :   1.7269

Dispersion correction           -0.000140026
FINAL SINGLE POINT ENERGY      -727.063095365963

DIPOLE MOMENT
-------------
                                X             Y             Z
Electronic contribution:      4.20273      -9.34066       0.11433
Nuclear contribution   :     -3.08754      10.54185      -0.04092
                        -----------------------------------------
Total Dipole Moment    :      1.11519       1.20120       0.07341
                        -----------------------------------------
Magnitude (a.u.)       :      1.64070
Magnitude (Debye)      :      4.17034

Rotational constants in cm-1:     0.158925     0.081210     0.079022
Rotational constants in MHz :  4764.450166  2434.603461  2369.014434

                             ****ORCA TERMINATED NORMALLY****
TOTAL RUN TIME: 0 days 0 hours 0 minutes 14 seconds 624 msec
