                         Program Version 5.0.0 -  RELEASE  -
|  1> !M062X D3Zero RIJCOSX def2-SVP def2/J TightSCF
|  2> *xyz 0 1
|  3> C         -0.46129        2.23469       -4.98962
|  4> C          0.84888        2.66797       -4.30235
|  5> C         -0.42384        2.39877       -6.47432
|  6> C         -0.95947        3.49265       -7.00740
|  7> N          0.14558        1.48689       -7.20399
|  8> H          0.56537        0.69681       -6.72386
|  9> H          0.22068        1.58177       -8.20752
| 10> H         -1.40624        4.18151       -6.40326
| 11> H         -0.93421        3.68160       -7.99947
| 12> H         -1.28888        2.82674       -4.59500
| 13> H         -0.65170        1.18634       -4.75655
| 14> H          1.66208        2.08894       -4.68750
| 15> H          0.76716        2.51042       -3.24717
| 16> H          1.02677        3.70527       -4.49537
| 17> *
| 18>
| 19> %MaxCore 64000
| 20>
| 21> %pal nprocs 4
| 22> end
| 23>
| 24> %scf
| 25>   MaxIter 150
| 26> end
| 27>
| 28>
| 29>                          ****END OF INPUT****

CARTESIAN COORDINATES (ANGSTROEM)
---------------------------------
  C     -0.461290    2.234690   -4.989620
  C      0.848880    2.667970   -4.302350
  C     -0.423840    2.398770   -6.474320
  C     -0.959470    3.492650   -7.007400
  N      0.145580    1.486890   -7.203990
  H      0.565370    0.696810   -6.723860
  H      0.220680    1.581770   -8.207520
  H     -1.406240    4.181510   -6.403260
  H     -0.934210    3.681600   -7.999470
  H     -1.288880    2.826740   -4.595000
  H     -0.651700    1.186340   -4.756550
  H      1.662080    2.088940   -4.687500
  H      0.767160    2.510420   -3.247170
  H      1.026770    3.705270   -4.495370

 Total Charge           Charge          ....    0
 Multiplicity           Mult            ....    1
 Number of Electrons    NEL             ....   40
 Basis Dimension        Dim             ....  115

ORBITAL ENERGIES
----------------

  NO   OCC          E(Eh)            E(eV)
   0   2.0000     -14.757100      -401.5611
   1   2.0000     -10.564743      -287.4813
   2   2.0000     -10.546908      -286.9959
   3   2.0000     -10.536187      -286.7042
   4   2.0000     -10.478351      -285.1304
   5   2.0000      -1.026947       -27.9447
   6   2.0000      -0.864060       -23.5123
   7   2.0000      -0.793686       -21.5973
   8   2.0000      -0.712515       -19.3885
   9   2.0000      -0.639972       -17.4145
  10   2.0000      -0.598131       -16.2760
  11   2.0000      -0.547034       -14.8855
  12   2.0000      -0.503145       -13.6913
  13   2.0000      -0.483581       -13.1589
  14   2.0000      -0.453203       -12.3323
  15   2.0000      -0.443521       -12.0688
  16   2.0000      -0.411838       -11.2067
  17   2.0000      -0.392619       -10.6837
  18   2.0000      -0.391352       -10.6492
  19   2.0000      -0.232281        -6.3207
  20   0.0000       0.082869         2.2550
  21   0.0000       0.105426         2.8688
  22   0.0000       0.133528         3.6335
  23   0.0000       0.141956         3.8628
  24   0.0000       0.157455         4.2846

MULLIKEN ATOMIC CHARGES
-----------------------
   0 C :   -0.034871
   1 C :   -0.016072
   2 C :   -0.139796
   3 C :   -0.071413
   4 N :   -0.102111
   5 H :    0.125423
   6 H :    0.133743
   7 H :   -0.019492
   8 H :   -0.034826
   9 H :    0.040959
  10 H :    0.022341
  11 H :    0.020969
  12 H :    0.038147
  13 H :    0.036998
Sum of atomic charges:   -0.0000000

LOEWDIN ATOMIC CHARGES
----------------------
   0 C :   -0.035245
   1 C :   -0.049287
   2 C :   -0.000676
   3 C :   -0.185657
   4 N :   -0.008516
   5 H :    0.075507
   6 H :    0.083234
   7 H :    0.001714
   8 H :   -0.007257
   9 H :    0.037147
  10 H :    0.020423
  11 H :    0.017917
  12 H :    0.023954
  13 H :    0.026743

  Mayer bond orders larger than 0.100000
B(  0-C ,  1-C ) :   1.0829 B(  0-C ,  2-C ) :   1.0199 B(  0-C ,  9-H ) :   0.9404
B(  0-C , 10-H ) :   0.9370 B(  1-C , 11-H ) :   0.9722 B(  1-C , 12-H ) :   0.9718
B(  1-C , 13-H ) :   0.9716 B(  2-C ,  3-C ) :   1.8555 B(  2-C ,  4-N ) :   1.2782
B(  3-C ,  7-H ) :   0.9420 B(  3-C ,  8-H ) :   0.9543 B(  4-N ,  5-H ) :   0.9434
B(  4-N ,  6-H ) :   0.9422

Dispersion correction           -0.000200400
FINAL SINGLE POINT ENERGY      -212.287617201467

DIPOLE MOMENT
-------------
                                X             Y             Z
Electronic contribution:     -0.68858      -1.21454      -2.60135
Nuclear contribution   :      1.14741       0.51394       2.60761
                        -----------------------------------------
Total Dipole Moment    :      0.45883      -0.70060       0.00625
                        -----------------------------------------
Magnitude (a.u.)       :      0.83750
Magnitude (Debye)      :      2.12876

Rotational constants in cm-1:     0.269157     0.129188     0.102123
Rotational constants in MHz :  8069.118715  3872.945231  3061.580645

                             ****ORCA TERMINATED NORMALLY****
TOTAL RUN TIME: 0 days 0 hours 0 minutes 14 seconds 965 msec
