                         Program Version 5.0.0 -  RELEASE  -
|  1> !M062X D3Zero RIJCOSX def2-SVP def2/J TightSCF
|  2> *xyz 0 1
|  3> C          0.84888        2.66797       -4.30235
|  4> C          2.09343        1.86104       -4.65684
|  5> H          2.44481        2.04157       -5.67499
|  6> H          2.90175        2.13786       -3.98034
|  7> S          1.87964        0.07859       -4.46297
|  8> O          3.20757       -0.46611       -4.42026
|  9> F          1.07506       -0.05616       -3.26876
| 10> O          1.13166       -0.31996       -5.67903
| 11> H          0.05064        2.40112       -4.96303
| 12> H          1.06043        3.71210       -4.40203
| 13> H          0.56237        2.45684       -3.29327
| 14> *
| 15>
| 16> %MaxCore 64000
| 17>
| 18> %pal nprocs 4
| 19> end
| 20>
| 21> %scf
| 22>   MaxIter 150
| 23> end
| 24>
| 25>
| 26>                          ****END OF INPUT****

CARTESIAN COORDINATES (ANGSTROEM)
---------------------------------
  C      0.848880    2.667970   -4.302350
  C      2.093430    1.861040   -4.656840
  H      2.444810    2.041570   -5.674990
  H      2.901750    2.137860   -3.980340
  S      1.879640    0.078590   -4.462970
  O      3.207570   -0.466110   -4.420260
  F      1.075060   -0.056160   -3.268760
  O      1.131660   -0.319960   -5.679030
  H      0.050640    2.401120   -4.963030
  H      1.060430    3.712100   -4.402030
  H      0.562370    2.456840   -3.293270

 Total Charge           Charge          ....    0
 Multiplicity           Mult            ....    1
 Number of Electrons    NEL             ....   58
 Basis Dimension        Dim             ....  113

ORBITAL ENERGIES
----------------

  NO   OCC          E(Eh)            E(eV)
   0   2.0000     -90.175047     -2453.7878
   1   2.0000     -25.364703      -690.2087
   2   2.0000     -19.639371      -534.4144
   3   2.0000     -19.621962      -533.9407
   4   2.0000     -10.606731      -288.6238
   5   2.0000     -10.575063      -287.7621
   6   2.0000      -8.508000      -231.5145
   7   2.0000      -6.435785      -175.1266
   8   2.0000      -6.430222      -174.9752
   9   2.0000      -6.429245      -174.9486
  10   2.0000      -1.509084       -41.0643
  11   2.0000      -1.221563       -33.2404
  12   2.0000      -1.109981       -30.2041
  13   2.0000      -0.916364       -24.9355
  14   2.0000      -0.824023       -22.4228
  15   2.0000      -0.762724       -20.7548
  16   2.0000      -0.689902       -18.7732
  17   2.0000      -0.680347       -18.5132
  18   2.0000      -0.623702       -16.9718
  19   2.0000      -0.565954       -15.4004
  20   2.0000      -0.551967       -15.0198
  21   2.0000      -0.521152       -14.1813
  22   2.0000      -0.505663       -13.7598
  23   2.0000      -0.477240       -12.9864
  24   2.0000      -0.460148       -12.5213
  25   2.0000      -0.449004       -12.2180
  26   2.0000      -0.397121       -10.8062
  27   2.0000      -0.379133       -10.3167
  28   2.0000      -0.371653       -10.1132
  29   0.0000       0.068490         1.8637
  30   0.0000       0.105805         2.8791
  31   0.0000       0.116346         3.1659
  32   0.0000       0.131186         3.5697
  33   0.0000       0.138832         3.7778

MULLIKEN ATOMIC CHARGES
-----------------------
   0 C :   -0.060412
   1 C :   -0.192040
   2 H :    0.117962
   3 H :    0.088923
   4 S :    1.022428
   5 O :   -0.454646
   6 F :   -0.201750
   7 O :   -0.507838
   8 H :    0.070425
   9 H :    0.065228
  10 H :    0.051719
Sum of atomic charges:   -0.0000000

LOEWDIN ATOMIC CHARGES
----------------------
   0 C :   -0.068013
   1 C :   -0.156152
   2 H :    0.055740
   3 H :    0.036662
   4 S :    1.190191
   5 O :   -0.487534
   6 F :   -0.130094
   7 O :   -0.542875
   8 H :    0.035187
   9 H :    0.039994
  10 H :    0.026894

  Mayer bond orders larger than 0.100000
B(  0-C ,  1-C ) :   1.0439 B(  0-C ,  8-H ) :   0.9718 B(  0-C ,  9-H ) :   0.9644
B(  0-C , 10-H ) :   0.9735 B(  1-C ,  2-H ) :   0.9378 B(  1-C ,  3-H ) :   0.9366
B(  1-C ,  4-S ) :   0.9296 B(  4-S ,  5-O ) :   1.7865 B(  4-S ,  6-F ) :   0.9877
B(  4-S ,  7-O ) :   1.7277

Dispersion correction           -0.000151158
FINAL SINGLE POINT ENERGY      -727.067672010141

DIPOLE MOMENT
-------------
                                X             Y             Z
Electronic contribution:      0.56702      -8.61892       2.05756
Nuclear contribution   :     -0.86540      10.11467      -1.24082
                        -----------------------------------------
Total Dipole Moment    :     -0.29838       1.49575       0.81674
                        -----------------------------------------
Magnitude (a.u.)       :      1.73014
Magnitude (Debye)      :      4.39765

Rotational constants in cm-1:     0.154065     0.083345     0.080357
Rotational constants in MHz :  4618.752213  2498.631937  2409.037217

                             ****ORCA TERMINATED NORMALLY****
TOTAL RUN TIME: 0 days 0 hours 0 minutes 13 seconds 763 msec
