                         Program Version 5.0.0 -  RELEASE  -
|  1> !M062X D3Zero RIJCOSX def2-SVP def2/J TightSCF
|  2> *xyz 0 1
|  3> C         -0.46129        2.23469       -4.98962
|  4> C          0.84888        2.66797       -4.30235
|  5> C         -0.42384        2.39877       -6.47432
|  6> N         -0.95947        3.49265       -7.00740
|  7> C          0.14558        1.48689       -7.20399
|  8> H          0.56537        0.69681       -6.72386
|  9> H          0.22068        1.58177       -8.20752
| 10> H         -1.40624        4.18151       -6.40326
| 11> H         -0.93421        3.68160       -7.99947
| 12> H         -1.28888        2.82674       -4.59500
| 13> H         -0.65170        1.18634       -4.75655
| 14> H          1.66208        2.08894       -4.68750
| 15> H          0.76716        2.51042       -3.24717
| 16> H          1.02677        3.70527       -4.49537
| 17> *
| 18>
| 19> %MaxCore 64000
| 20>
| 21> %pal nprocs 4
| 22> end
| 23>
| 24> %scf
| 25>   MaxIter 150
| 26> end
| 27>
| 28>
| 29>                          ****END OF INPUT****

CARTESIAN COORDINATES (ANGSTROEM)
---------------------------------
  C     -0.461290    2.234690   -4.989620
  C      0.848880    2.667970   -4.302350
  C     -0.423840    2.398770   -6.474320
  N     -0.959470    3.492650   -7.007400
  C      0.145580    1.486890   -7.203990
  H      0.565370    0.696810   -6.723860
  H      0.220680    1.581770   -8.207520
  H     -1.406240    4.181510   -6.403260
  H     -0.934210    3.681600   -7.999470
  H     -1.288880    2.826740   -4.595000
  H     -0.651700    1.186340   -4.756550
  H      1.662080    2.088940   -4.687500
  H      0.767160    2.510420   -3.247170
  H      1.026770    3.705270   -4.495370

 Total Charge           Charge          ....    0
 Multiplicity           Mult            ....    1
 Number of Electrons    NEL             ....   40
 Basis Dimension        Dim             ....  115

ORBITAL ENERGIES
----------------

  NO   OCC          E(Eh)            E(eV)
   0   2.0000     -14.752830      -401.4449
   1   2.0000     -10.562671      -287.4249
   2   2.0000     -10.546643      -286.9887
   3   2.0000     -10.534718      -286.6642
   4   2.0000     -10.477431      -285.1054
   5   2.0000      -1.013608       -27.5817
   6   2.0000      -0.865592       -23.5540
   7   2.0000      -0.797976       -21.7140
   8   2.0000      -0.713586       -19.4177
   9   2.0000      -0.633660       -17.2428
  10   2.0000      -0.587436       -15.9850
  11   2.0000      -0.549489       -14.9523
  12   2.0000      -0.504789       -13.7360
  13   2.0000      -0.478293       -13.0150
  14   2.0000      -0.453753       -12.3472
  15   2.0000      -0.444509       -12.0957
  16   2.0000      -0.409323       -11.1382
  17   2.0000      -0.394928       -10.7465
  18   2.0000      -0.387850       -10.5539
  19   2.0000      -0.237236        -6.4555
  20   0.0000       0.085333         2.3220
  21   0.0000       0.106170         2.8890
  22   0.0000       0.134405         3.6574
  23   0.0000       0.140038         3.8106
  24   0.0000       0.160406         4.3649

MULLIKEN ATOMIC CHARGES
-----------------------
   0 C :   -0.032993
   1 C :   -0.017215
   2 C :   -0.109885
   3 N :   -0.148408
   4 C :   -0.052893
   5 H :   -0.021600
   6 H :   -0.033575
   7 H :    0.125914
   8 H :    0.129014
   9 H :    0.013925
  10 H :    0.047106
  11 H :    0.036475
  12 H :    0.036001
  13 H :    0.028134
Sum of atomic charges:   -0.0000000

LOEWDIN ATOMIC CHARGES
----------------------
   0 C :   -0.035395
   1 C :   -0.046753
   2 C :    0.005517
   3 N :   -0.029669
   4 C :   -0.171335
   5 H :    0.002973
   6 H :   -0.003599
   7 H :    0.074161
   8 H :    0.078144
   9 H :    0.019187
  10 H :    0.036954
  11 H :    0.025319
  12 H :    0.022682
  13 H :    0.021813

  Mayer bond orders larger than 0.100000
B(  0-C ,  1-C ) :   1.0888 B(  0-C ,  2-C ) :   1.0067 B(  0-C ,  9-H ) :   0.9391
B(  0-C , 10-H ) :   0.9419 B(  1-C , 11-H ) :   0.9744 B(  1-C , 12-H ) :   0.9717
B(  1-C , 13-H ) :   0.9707 B(  2-C ,  3-N ) :   1.2397 B(  2-C ,  4-C ) :   1.8916
B(  3-N ,  7-H ) :   0.9465 B(  3-N ,  8-H ) :   0.9474 B(  4-C ,  5-H ) :   0.9344
B(  4-C ,  6-H ) :   0.9525

Dispersion correction           -0.000200509
FINAL SINGLE POINT ENERGY      -212.287466288930

DIPOLE MOMENT
-------------
                                X             Y             Z
Electronic contribution:     -1.72428       0.63116      -2.41303
Nuclear contribution   :      1.40335       0.04939       2.56207
                        -----------------------------------------
Total Dipole Moment    :     -0.32092       0.68055       0.14904
                        -----------------------------------------
Magnitude (a.u.)       :      0.76704
Magnitude (Debye)      :      1.94966

Rotational constants in cm-1:     0.271383     0.128194     0.101873
Rotational constants in MHz :  8135.853259  3843.152748  3054.074278

                             ****ORCA TERMINATED NORMALLY****
TOTAL RUN TIME: 0 days 0 hours 0 minutes 16 seconds 926 msec
