                         Program Version 5.0.0 -  RELEASE  -
|  1> !M062X D3Zero RIJCOSX def2-SVP def2/J TightSCF
|  2> *xyz 0 1
|  3> C          0.84888        2.66797       -4.30235
|  4> C          2.09343        1.86104       -4.65684
|  5> H          2.44481        2.04157       -5.67499
|  6> H          2.90175        2.13786       -3.98034
|  7> S          1.87964        0.07859       -4.46297
|  8> O          3.20757       -0.46611       -4.42026
|  9> O          1.07506       -0.05616       -3.26876
| 10> F          1.13166       -0.31996       -5.67903
| 11> H          0.05064        2.40112       -4.96303
| 12> H          1.06043        3.71210       -4.40203
| 13> H          0.56237        2.45684       -3.29327
| 14> *
| 15>
| 16> %MaxCore 64000
| 17>
| 18> %pal nprocs 4
| 19> end
| 20>
| 21> %scf
| 22>   MaxIter 150
| 23> end
| 24>
| 25>
| 26>                          ****END OF INPUT****

CARTESIAN COORDINATES (ANGSTROEM)
---------------------------------
  C      0.848880    2.667970   -4.302350
  C      2.093430    1.861040   -4.656840
  H      2.444810    2.041570   -5.674990
  H      2.901750    2.137860   -3.980340
  S      1.879640    0.078590   -4.462970
  O      3.207570   -0.466110   -4.420260
  O      1.075060   -0.056160   -3.268760
  F      1.131660   -0.319960   -5.679030
  H      0.050640    2.401120   -4.963030
  H      1.060430    3.712100   -4.402030
  H      0.562370    2.456840   -3.293270

 Total Charge           Charge          ....    0
 Multiplicity           Mult            ....    1
 Number of Electrons    NEL             ....   58
 Basis Dimension        Dim             ....  113

ORBITAL ENERGIES
----------------

  NO   OCC          E(Eh)            E(eV)
   0   2.0000     -90.174681     -2453.7778
   1   2.0000     -25.344625      -689.6623
   2   2.0000     -19.639535      -534.4189
   3   2.0000     -19.637003      -534.3500
   4   2.0000     -10.605990      -288.6037
   5   2.0000     -10.569229      -287.6033
   6   2.0000      -8.507351      -231.4968
   7   2.0000      -6.434871      -175.1017
   8   2.0000      -6.429892      -174.9663
   9   2.0000      -6.428846      -174.9378
  10   2.0000      -1.476550       -40.1790
  11   2.0000      -1.231326       -33.5061
  12   2.0000      -1.131632       -30.7933
  13   2.0000      -0.911882       -24.8136
  14   2.0000      -0.810739       -22.0613
  15   2.0000      -0.754369       -20.5274
  16   2.0000      -0.667423       -18.1615
  17   2.0000      -0.657301       -17.8861
  18   2.0000      -0.627366       -17.0715
  19   2.0000      -0.566978       -15.4282
  20   2.0000      -0.553189       -15.0530
  21   2.0000      -0.529338       -14.4040
  22   2.0000      -0.499374       -13.5887
  23   2.0000      -0.471106       -12.8194
  24   2.0000      -0.466580       -12.6963
  25   2.0000      -0.446311       -12.1447
  26   2.0000      -0.406675       -11.0662
  27   2.0000      -0.389779       -10.6064
  28   2.0000      -0.386306       -10.5119
  29   0.0000       0.074190         2.0188
  30   0.0000       0.102368         2.7856
  31   0.0000       0.119397         3.2490
  32   0.0000       0.130258         3.5445
  33   0.0000       0.136864         3.7243

MULLIKEN ATOMIC CHARGES
-----------------------
   0 C :   -0.046692
   1 C :   -0.203606
   2 H :    0.089944
   3 H :    0.110194
   4 S :    1.035285
   5 O :   -0.460285
   6 O :   -0.475588
   7 F :   -0.236550
   8 H :    0.051327
   9 H :    0.058673
  10 H :    0.077298
Sum of atomic charges:   -0.0000000

LOEWDIN ATOMIC CHARGES
----------------------
   0 C :   -0.063539
   1 C :   -0.161599
   2 H :    0.036924
   3 H :    0.052043
   4 S :    1.195339
   5 O :   -0.491481
   6 O :   -0.501707
   7 F :   -0.169805
   8 H :    0.029175
   9 H :    0.037171
  10 H :    0.037477

  Mayer bond orders larger than 0.100000
B(  0-C ,  1-C ) :   1.0476 B(  0-C ,  8-H ) :   0.9758 B(  0-C ,  9-H ) :   0.9636
B(  0-C , 10-H ) :   0.9674 B(  1-C ,  2-H ) :   0.9367 B(  1-C ,  3-H ) :   0.9382
B(  1-C ,  4-S ) :   0.9222 B(  4-S ,  5-O ) :   1.7913 B(  4-S ,  6-O ) :   1.7658
B(  4-S ,  7-F ) :   0.9507

Dispersion correction           -0.000149483
FINAL SINGLE POINT ENERGY      -727.085339137650

DIPOLE MOMENT
-------------
                                X             Y             Z
Electronic contribution:      0.65790      -9.09808      -2.05476
Nuclear contribution   :     -0.92438      10.38956       1.27076
                        -----------------------------------------
Total Dipole Moment    :     -0.26648       1.29148      -0.78400
                        -----------------------------------------
Magnitude (a.u.)       :      1.53414
Magnitude (Debye)      :      3.89948

Rotational constants in cm-1:     0.154243     0.082247     0.080562
Rotational constants in MHz :  4624.087322  2465.703680  2415.175852

                             ****ORCA TERMINATED NORMALLY****
TOTAL RUN TIME: 0 days 0 hours 0 minutes 14 seconds 481 msec
