                         Program Version 5.0.0 -  RELEASE  -
|  1> !M062X D3Zero RIJCOSX def2-TZVP def2/J TightSCF xyzfile
|  2>
|  3> *xyzfile 0 1 D1.xyz
|  4>
|  5> %MaxCore 64000
|  6>
|  7> %pal nprocs 18
|  8> end
|  9>
| 10> %scf
| 11>   MaxIter 150
| 12> end
| 13>
| 14>
| 15>                          ****END OF INPUT****

CARTESIAN COORDINATES (ANGSTROEM)
---------------------------------
  C     -0.461293    2.234686   -4.989619
  C      0.848883    2.667967   -4.302351
  C      2.093434    1.861037   -4.656845
  H      2.444814    2.041567   -5.674990
  H      2.901748    2.137864   -3.980338
  S      1.879644    0.078594   -4.462965
  C     -0.423841    2.398772   -6.474317
  C     -0.959467    3.492647   -7.007401
  N      0.145585    1.486891   -7.203987
  H      0.565371    0.696807   -6.723858
  H      0.220682    1.581768   -8.207520
  H     -1.406243    4.181507   -6.403261
  H     -0.934215    3.681601   -7.999468
  F      3.207574   -0.466111   -4.420259
  O      1.075064   -0.056160   -3.268758
  O      1.131661   -0.319960   -5.679031
  H      0.668432    2.559427   -3.232850
  H      1.034074    3.729426   -4.497081
  H     -1.288884    2.826737   -4.594997
  H     -0.651696    1.186343   -4.756552

 Total Charge           Charge          ....    0
 Multiplicity           Mult            ....    1
 Number of Electrons    NEL             ....   88
 Basis Dimension        Dim             ....  376

ORBITAL ENERGIES
----------------

  NO   OCC          E(Eh)            E(eV)
   0   2.0000     -90.172454     -2453.7172
   1   2.0000     -25.389202      -690.8753
   2   2.0000     -19.657464      -534.9068
   3   2.0000     -19.653700      -534.8044
   4   2.0000     -14.720350      -400.5611
   5   2.0000     -10.602429      -288.5067
   6   2.0000     -10.564054      -287.4625
   7   2.0000     -10.549158      -287.0572
   8   2.0000     -10.536551      -286.7141
   9   2.0000     -10.459016      -284.6043
  10   2.0000      -8.497795      -231.2368
  11   2.0000      -6.422383      -174.7619
  12   2.0000      -6.417602      -174.6318
  13   2.0000      -6.417289      -174.6233
  14   2.0000      -1.554114       -42.2896
  15   2.0000      -1.250277       -34.0218
  16   2.0000      -1.153123       -31.3781
  17   2.0000      -1.029394       -28.0112
  18   2.0000      -0.935141       -25.4465
  19   2.0000      -0.870550       -23.6889
  20   2.0000      -0.836873       -22.7725
  21   2.0000      -0.787902       -21.4399
  22   2.0000      -0.737380       -20.0651
  23   2.0000      -0.712970       -19.4009
  24   2.0000      -0.694331       -18.8937
  25   2.0000      -0.665783       -18.1169
  26   2.0000      -0.638449       -17.3731
  27   2.0000      -0.603577       -16.4242
  28   2.0000      -0.578090       -15.7306
  29   2.0000      -0.568758       -15.4767
  30   2.0000      -0.549209       -14.9447
  31   2.0000      -0.531520       -14.4634
  32   2.0000      -0.516730       -14.0609
  33   2.0000      -0.487593       -13.2681
  34   2.0000      -0.467663       -12.7258
  35   2.0000      -0.460261       -12.5243
  36   2.0000      -0.449413       -12.2292
  37   2.0000      -0.427995       -11.6463
  38   2.0000      -0.423443       -11.5225
  39   2.0000      -0.413596       -11.2545
  40   2.0000      -0.405840       -11.0435
  41   2.0000      -0.389621       -10.6021
  42   2.0000      -0.383600       -10.4383
  43   2.0000      -0.230372        -6.2687
  44   0.0000       0.047634         1.2962
  45   0.0000       0.060824         1.6551
  46   0.0000       0.078705         2.1417
  47   0.0000       0.085617         2.3298
  48   0.0000       0.089891         2.4461

MULLIKEN ATOMIC CHARGES
-----------------------
   0 C :   -0.484885
   1 C :   -0.231204
   2 C :   -0.413661
   3 H :    0.210939
   4 H :    0.181688
   5 S :    0.961396
   6 C :    0.360388
   7 C :   -0.481009
   8 N :   -0.558139
   9 H :    0.307276
  10 H :    0.232752
  11 H :    0.101983
  12 H :    0.105957
  13 F :   -0.096538
  14 O :   -0.425327
  15 O :   -0.491920
  16 H :    0.170291
  17 H :    0.169701
  18 H :    0.163561
  19 H :    0.216749
Sum of atomic charges:   -0.0000000

LOEWDIN ATOMIC CHARGES
----------------------
   0 C :   -0.216884
   1 C :   -0.267140
   2 C :   -0.370049
   3 H :    0.146072
   4 H :    0.140723
   5 S :    0.573841
   6 C :   -0.381341
   7 C :   -0.290310
   8 N :    0.004534
   9 H :    0.142273
  10 H :    0.170704
  11 H :    0.103042
  12 H :    0.094126
  13 F :    0.106335
  14 O :   -0.259375
  15 O :   -0.299217
  16 H :    0.148258
  17 H :    0.152263
  18 H :    0.154847
  19 H :    0.147300

  Mayer bond orders larger than 0.100000
B(  0-C ,  1-C ) :   0.8902 B(  0-C ,  6-C ) :   0.8535 B(  0-C , 18-H ) :   0.9940
B(  0-C , 19-H ) :   0.9997 B(  1-C ,  2-C ) :   0.9223 B(  1-C , 16-H ) :   0.9747
B(  1-C , 17-H ) :   0.9543 B(  2-C ,  3-H ) :   0.9259 B(  2-C ,  4-H ) :   0.9435
B(  2-C ,  5-S ) :   0.9424 B(  5-S , 13-F ) :   1.1414 B(  5-S , 14-O ) :   1.9083
B(  5-S , 15-O ) :   1.7340 B(  6-C ,  7-C ) :   1.7020 B(  6-C ,  8-N ) :   1.1302
B(  7-C , 11-H ) :   1.0009 B(  7-C , 12-H ) :   1.0010 B(  8-N ,  9-H ) :   0.8461
B(  8-N , 10-H ) :   0.9338

Dispersion correction           -0.000713233
FINAL SINGLE POINT ENERGY      -899.705417261604

DIPOLE MOMENT
-------------
                                X             Y             Z
Electronic contribution:     10.18610     -13.90665       5.46475
Nuclear contribution   :     -8.53047      14.15581      -5.17613
                        -----------------------------------------
Total Dipole Moment    :      1.65563       0.24916       0.28862
                        -----------------------------------------
Magnitude (a.u.)       :      1.69897
Magnitude (Debye)      :      4.31844

Rotational constants in cm-1:     0.081196     0.024861     0.022477
Rotational constants in MHz :  2434.181666   745.320670   673.846846

                             ****ORCA TERMINATED NORMALLY****
TOTAL RUN TIME: 0 days 0 hours 0 minutes 39 seconds 86 msec
