                         Program Version 5.0.0 -  RELEASE  -
|  1> !M062X D3Zero RIJCOSX def2-TZVP def2/J TightSCF xyzfile
|  2>
|  3> *xyzfile 0 1 D2.xyz
|  4>
|  5> %MaxCore 64000
|  6>
|  7> %pal nprocs 18
|  8> end
|  9>
| 10> %scf
| 11>   MaxIter 150
| 12> end
| 13>
| 14>
| 15>                          ****END OF INPUT****

CARTESIAN COORDINATES (ANGSTROEM)
---------------------------------
  C     -0.461293    2.234686   -4.989619
  C      0.848883    2.667967   -4.302351
  C      2.093434    1.861037   -4.656845
  H      2.444814    2.041567   -5.674990
  H      2.901748    2.137864   -3.980338
  S      1.879644    0.078594   -4.462965
  C     -0.423841    2.398772   -6.474317
  N     -0.959467    3.492647   -7.007401
  C      0.145585    1.486891   -7.203987
  H      0.565371    0.696807   -6.723858
  H      0.220682    1.581768   -8.207520
  H     -1.406243    4.181507   -6.403261
  H     -0.934215    3.681601   -7.999468
  F      3.207574   -0.466111   -4.420259
  O      1.075064   -0.056160   -3.268758
  O      1.131661   -0.319960   -5.679031
  H      0.668432    2.559427   -3.232850
  H      1.034074    3.729426   -4.497081
  H     -1.288884    2.826737   -4.594997
  H     -0.651696    1.186343   -4.756552

 Total Charge           Charge          ....    0
 Multiplicity           Mult            ....    1
 Number of Electrons    NEL             ....   88
 Basis Dimension        Dim             ....  376

ORBITAL ENERGIES
----------------

  NO   OCC          E(Eh)            E(eV)
   0   2.0000     -90.154535     -2453.2296
   1   2.0000     -25.373935      -690.4599
   2   2.0000     -19.642225      -534.4921
   3   2.0000     -19.630491      -534.1728
   4   2.0000     -14.739414      -401.0798
   5   2.0000     -10.591266      -288.2030
   6   2.0000     -10.561372      -287.3896
   7   2.0000     -10.544819      -286.9391
   8   2.0000     -10.536363      -286.7090
   9   2.0000     -10.441631      -284.1312
  10   2.0000      -8.479933      -230.7507
  11   2.0000      -6.404623      -174.2786
  12   2.0000      -6.399685      -174.1443
  13   2.0000      -6.399384      -174.1361
  14   2.0000      -1.539052       -41.8797
  15   2.0000      -1.232556       -33.5396
  16   2.0000      -1.133203       -30.8360
  17   2.0000      -1.026918       -27.9439
  18   2.0000      -0.927695       -25.2439
  19   2.0000      -0.867196       -23.5976
  20   2.0000      -0.823639       -22.4124
  21   2.0000      -0.794152       -21.6100
  22   2.0000      -0.728278       -19.8174
  23   2.0000      -0.697789       -18.9878
  24   2.0000      -0.683858       -18.6087
  25   2.0000      -0.647231       -17.6120
  26   2.0000      -0.641351       -17.4520
  27   2.0000      -0.588441       -16.0123
  28   2.0000      -0.571869       -15.5613
  29   2.0000      -0.560726       -15.2581
  30   2.0000      -0.545923       -14.8553
  31   2.0000      -0.532088       -14.4789
  32   2.0000      -0.511315       -13.9136
  33   2.0000      -0.477784       -13.0012
  34   2.0000      -0.466227       -12.6867
  35   2.0000      -0.456471       -12.4212
  36   2.0000      -0.443833       -12.0773
  37   2.0000      -0.424853       -11.5608
  38   2.0000      -0.406303       -11.0561
  39   2.0000      -0.400849       -10.9077
  40   2.0000      -0.389095       -10.5878
  41   2.0000      -0.385009       -10.4766
  42   2.0000      -0.361811        -9.8454
  43   2.0000      -0.236725        -6.4416
  44   0.0000       0.052153         1.4192
  45   0.0000       0.066940         1.8215
  46   0.0000       0.077744         2.1155
  47   0.0000       0.080977         2.2035
  48   0.0000       0.099755         2.7145

MULLIKEN ATOMIC CHARGES
-----------------------
   0 C :   -0.478462
   1 C :   -0.233714
   2 C :   -0.408679
   3 H :    0.211903
   4 H :    0.177912
   5 S :    0.938006
   6 C :    0.402814
   7 N :   -0.573930
   8 C :   -0.513607
   9 H :    0.180269
  10 H :    0.099319
  11 H :    0.239324
  12 H :    0.244229
  13 F :   -0.102225
  14 O :   -0.437788
  15 O :   -0.453311
  16 H :    0.172677
  17 H :    0.162645
  18 H :    0.142776
  19 H :    0.229841
Sum of atomic charges:    0.0000000

LOEWDIN ATOMIC CHARGES
----------------------
   0 C :   -0.217836
   1 C :   -0.268627
   2 C :   -0.368719
   3 H :    0.147175
   4 H :    0.138454
   5 S :    0.563497
   6 C :   -0.379471
   7 N :   -0.026015
   8 C :   -0.258819
   9 H :    0.092847
  10 H :    0.096200
  11 H :    0.167505
  12 H :    0.169643
  13 F :    0.101295
  14 O :   -0.270930
  15 O :   -0.280875
  16 H :    0.148148
  17 H :    0.148106
  18 H :    0.140894
  19 H :    0.157527

  Mayer bond orders larger than 0.100000
B(  0-C ,  1-C ) :   0.8902 B(  0-C ,  6-C ) :   0.8362 B(  0-C , 18-H ) :   0.9975
B(  0-C , 19-H ) :   1.0054 B(  1-C ,  2-C ) :   0.9209 B(  1-C , 16-H ) :   0.9784
B(  1-C , 17-H ) :   0.9569 B(  2-C ,  3-H ) :   0.9310 B(  2-C ,  4-H ) :   0.9467
B(  2-C ,  5-S ) :   0.9402 B(  5-S , 13-F ) :   1.1315 B(  5-S , 14-O ) :   1.8907
B(  5-S , 15-O ) :   1.7964 B(  6-C ,  7-N ) :   1.0352 B(  6-C ,  8-C ) :   1.7082
B(  7-N , 11-H ) :   0.9291 B(  7-N , 12-H ) :   0.9296 B(  8-C ,  9-H ) :   1.0034
B(  8-C , 10-H ) :   1.0013

Dispersion correction           -0.000709921
FINAL SINGLE POINT ENERGY      -899.685707086205

DIPOLE MOMENT
-------------
                                X             Y             Z
Electronic contribution:      9.28072     -12.43201       5.40712
Nuclear contribution   :     -8.42493      13.96425      -5.19491
                        -----------------------------------------
Total Dipole Moment    :      0.85579       1.53225       0.21222
                        -----------------------------------------
Magnitude (a.u.)       :      1.76782
Magnitude (Debye)      :      4.49344

Rotational constants in cm-1:     0.082815     0.024151     0.022015
Rotational constants in MHz :  2482.732265   724.035221   660.002136

                             ****ORCA TERMINATED NORMALLY****
TOTAL RUN TIME: 0 days 0 hours 0 minutes 38 seconds 141 msec
