                         Program Version 5.0.0 -  RELEASE  -
|  1> !M062X D3Zero RIJCOSX def2-TZVP def2/J TightSCF xyzfile
|  2>
|  3> *xyzfile 0 1 D3.xyz
|  4>
|  5> %MaxCore 64000
|  6>
|  7> %pal nprocs 18
|  8> end
|  9>
| 10> %scf
| 11>   MaxIter 150
| 12> end
| 13>
| 14>
| 15>                          ****END OF INPUT****

CARTESIAN COORDINATES (ANGSTROEM)
---------------------------------
  C     -0.461293    2.234686   -4.989619
  C      0.848883    2.667967   -4.302351
  C      2.093434    1.861037   -4.656845
  H      2.444814    2.041567   -5.674990
  H      2.901748    2.137864   -3.980338
  S      1.879644    0.078594   -4.462965
  C     -0.423841    2.398772   -6.474317
  C     -0.959467    3.492647   -7.007401
  N      0.145585    1.486891   -7.203987
  H      0.565371    0.696807   -6.723858
  H      0.220682    1.581768   -8.207520
  H     -1.406243    4.181507   -6.403261
  H     -0.934215    3.681601   -7.999468
  O      3.207574   -0.466111   -4.420259
  F      1.075064   -0.056160   -3.268758
  O      1.131661   -0.319960   -5.679031
  H      0.668432    2.559427   -3.232850
  H      1.034074    3.729426   -4.497081
  H     -1.288884    2.826737   -4.594997
  H     -0.651696    1.186343   -4.756552

 Total Charge           Charge          ....    0
 Multiplicity           Mult            ....    1
 Number of Electrons    NEL             ....   88
 Basis Dimension        Dim             ....  376

ORBITAL ENERGIES
----------------

  NO   OCC          E(Eh)            E(eV)
   0   2.0000     -90.171541     -2453.6924
   1   2.0000     -25.383590      -690.7226
   2   2.0000     -19.660032      -534.9767
   3   2.0000     -19.652576      -534.7738
   4   2.0000     -14.723254      -400.6401
   5   2.0000     -10.602153      -288.4992
   6   2.0000     -10.569872      -287.6208
   7   2.0000     -10.555026      -287.2168
   8   2.0000     -10.547582      -287.0143
   9   2.0000     -10.464077      -284.7420
  10   2.0000      -8.496847      -231.2110
  11   2.0000      -6.421713      -174.7437
  12   2.0000      -6.416702      -174.6073
  13   2.0000      -6.416054      -174.5897
  14   2.0000      -1.545110       -42.0446
  15   2.0000      -1.252987       -34.0955
  16   2.0000      -1.156257       -31.4634
  17   2.0000      -1.033360       -28.1191
  18   2.0000      -0.941596       -25.6221
  19   2.0000      -0.868282       -23.6272
  20   2.0000      -0.837148       -22.7800
  21   2.0000      -0.792660       -21.5694
  22   2.0000      -0.736763       -20.0483
  23   2.0000      -0.707331       -19.2475
  24   2.0000      -0.704440       -19.1688
  25   2.0000      -0.661888       -18.0109
  26   2.0000      -0.643712       -17.5163
  27   2.0000      -0.598282       -16.2801
  28   2.0000      -0.576792       -15.6953
  29   2.0000      -0.572078       -15.5670
  30   2.0000      -0.552376       -15.0309
  31   2.0000      -0.535012       -14.5584
  32   2.0000      -0.523454       -14.2439
  33   2.0000      -0.495627       -13.4867
  34   2.0000      -0.476352       -12.9622
  35   2.0000      -0.467466       -12.7204
  36   2.0000      -0.451730       -12.2922
  37   2.0000      -0.444724       -12.1015
  38   2.0000      -0.421843       -11.4789
  39   2.0000      -0.411905       -11.2085
  40   2.0000      -0.408682       -11.1208
  41   2.0000      -0.395611       -10.7651
  42   2.0000      -0.388012       -10.5583
  43   2.0000      -0.234620        -6.3843
  44   0.0000       0.039745         1.0815
  45   0.0000       0.068546         1.8652
  46   0.0000       0.075542         2.0556
  47   0.0000       0.080064         2.1786
  48   0.0000       0.088243         2.4012

MULLIKEN ATOMIC CHARGES
-----------------------
   0 C :   -0.479998
   1 C :   -0.267954
   2 C :   -0.395702
   3 H :    0.220756
   4 H :    0.189859
   5 S :    0.971269
   6 C :    0.368413
   7 C :   -0.479303
   8 N :   -0.556831
   9 H :    0.312409
  10 H :    0.234775
  11 H :    0.102195
  12 H :    0.108717
  13 O :   -0.429035
  14 F :   -0.102304
  15 O :   -0.493335
  16 H :    0.165941
  17 H :    0.171530
  18 H :    0.167260
  19 H :    0.191338
Sum of atomic charges:    0.0000000

LOEWDIN ATOMIC CHARGES
----------------------
   0 C :   -0.222540
   1 C :   -0.280180
   2 C :   -0.360647
   3 H :    0.155481
   4 H :    0.145107
   5 S :    0.577028
   6 C :   -0.381411
   7 C :   -0.287207
   8 N :    0.006998
   9 H :    0.142879
  10 H :    0.171927
  11 H :    0.103178
  12 H :    0.095300
  13 O :   -0.253958
  14 F :    0.099930
  15 O :   -0.299075
  16 H :    0.140887
  17 H :    0.152293
  18 H :    0.155192
  19 H :    0.138815

  Mayer bond orders larger than 0.100000
B(  0-C ,  1-C ) :   0.8690 B(  0-C ,  6-C ) :   0.8424 B(  0-C , 18-H ) :   0.9936
B(  0-C , 19-H ) :   1.0140 B(  1-C ,  2-C ) :   0.9154 B(  1-C , 16-H ) :   0.9843
B(  1-C , 17-H ) :   0.9539 B(  2-C ,  3-H ) :   0.9265 B(  2-C ,  4-H ) :   0.9517
B(  2-C ,  5-S ) :   0.9342 B(  5-S , 13-O ) :   1.9602 B(  5-S , 14-F ) :   1.1198
B(  5-S , 15-O ) :   1.7228 B(  6-C ,  7-C ) :   1.7056 B(  6-C ,  8-N ) :   1.1391
B(  7-C , 11-H ) :   0.9991 B(  7-C , 12-H ) :   1.0032 B(  8-N ,  9-H ) :   0.8451
B(  8-N , 10-H ) :   0.9326

Dispersion correction           -0.000728172
FINAL SINGLE POINT ENERGY      -899.709423354404

DIPOLE MOMENT
-------------
                                X             Y             Z
Electronic contribution:      6.45996     -13.12791       7.39579
Nuclear contribution   :     -6.19944      13.70770      -6.43483
                        -----------------------------------------
Total Dipole Moment    :      0.26052       0.57979       0.96096
                        -----------------------------------------
Magnitude (a.u.)       :      1.15216
Magnitude (Debye)      :      2.92856

Rotational constants in cm-1:     0.079903     0.025241     0.022805
Rotational constants in MHz :  2395.439281   756.708181   683.680583

                             ****ORCA TERMINATED NORMALLY****
TOTAL RUN TIME: 0 days 0 hours 0 minutes 38 seconds 220 msec
