                         Program Version 5.0.0 -  RELEASE  -
|  1> !M062X D3Zero RIJCOSX def2-TZVP def2/J TightSCF xyzfile
|  2>
|  3> *xyzfile 0 1 D4.xyz
|  4>
|  5> %MaxCore 64000
|  6>
|  7> %pal nprocs 18
|  8> end
|  9>
| 10> %scf
| 11>   MaxIter 150
| 12> end
| 13>
| 14>
| 15>                          ****END OF INPUT****

CARTESIAN COORDINATES (ANGSTROEM)
---------------------------------
  C     -0.461293    2.234686   -4.989619
  C      0.848883    2.667967   -4.302351
  C      2.093434    1.861037   -4.656845
  H      2.444814    2.041567   -5.674990
  H      2.901748    2.137864   -3.980338
  S      1.879644    0.078594   -4.462965
  C     -0.423841    2.398772   -6.474317
  N     -0.959467    3.492647   -7.007401
  C      0.145585    1.486891   -7.203987
  H      0.565371    0.696807   -6.723858
  H      0.220682    1.581768   -8.207520
  H     -1.406243    4.181507   -6.403261
  H     -0.934215    3.681601   -7.999468
  O      3.207574   -0.466111   -4.420259
  F      1.075064   -0.056160   -3.268758
  O      1.131661   -0.319960   -5.679031
  H      0.668432    2.559427   -3.232850
  H      1.034074    3.729426   -4.497081
  H     -1.288884    2.826737   -4.594997
  H     -0.651696    1.186343   -4.756552

 Total Charge           Charge          ....    0
 Multiplicity           Mult            ....    1
 Number of Electrons    NEL             ....   88
 Basis Dimension        Dim             ....  376

ORBITAL ENERGIES
----------------

  NO   OCC          E(Eh)            E(eV)
   0   2.0000     -90.153436     -2453.1997
   1   2.0000     -25.369408      -690.3367
   2   2.0000     -19.643965      -534.5395
   3   2.0000     -19.629325      -534.1411
   4   2.0000     -14.743432      -401.1892
   5   2.0000     -10.591083      -288.1980
   6   2.0000     -10.567249      -287.5495
   7   2.0000     -10.549926      -287.0781
   8   2.0000     -10.547287      -287.0063
   9   2.0000     -10.445584      -284.2388
  10   2.0000      -8.478820      -230.7204
  11   2.0000      -6.403823      -174.2569
  12   2.0000      -6.398408      -174.1095
  13   2.0000      -6.398148      -174.1025
  14   2.0000      -1.531209       -41.6663
  15   2.0000      -1.234983       -33.6056
  16   2.0000      -1.135712       -30.9043
  17   2.0000      -1.031528       -28.0693
  18   2.0000      -0.934823       -25.4378
  19   2.0000      -0.866301       -23.5733
  20   2.0000      -0.823033       -22.3959
  21   2.0000      -0.798491       -21.7280
  22   2.0000      -0.728521       -19.8241
  23   2.0000      -0.694980       -18.9114
  24   2.0000      -0.692391       -18.8409
  25   2.0000      -0.647664       -17.6238
  26   2.0000      -0.639689       -17.4068
  27   2.0000      -0.592073       -16.1111
  28   2.0000      -0.570382       -15.5209
  29   2.0000      -0.557562       -15.1720
  30   2.0000      -0.549596       -14.9553
  31   2.0000      -0.539470       -14.6797
  32   2.0000      -0.514965       -14.0129
  33   2.0000      -0.483773       -13.1641
  34   2.0000      -0.469827       -12.7846
  35   2.0000      -0.465164       -12.6578
  36   2.0000      -0.449156       -12.2222
  37   2.0000      -0.439358       -11.9555
  38   2.0000      -0.406384       -11.0583
  39   2.0000      -0.400449       -10.8968
  40   2.0000      -0.396760       -10.7964
  41   2.0000      -0.389747       -10.6055
  42   2.0000      -0.360109        -9.7991
  43   2.0000      -0.240882        -6.5547
  44   0.0000       0.043891         1.1943
  45   0.0000       0.065615         1.7855
  46   0.0000       0.075736         2.0609
  47   0.0000       0.082384         2.2418
  48   0.0000       0.092884         2.5275

MULLIKEN ATOMIC CHARGES
-----------------------
   0 C :   -0.471041
   1 C :   -0.269444
   2 C :   -0.389863
   3 H :    0.222078
   4 H :    0.185505
   5 S :    0.945472
   6 C :    0.408879
   7 N :   -0.576070
   8 C :   -0.513519
   9 H :    0.187874
  10 H :    0.101855
  11 H :    0.238702
  12 H :    0.246311
  13 O :   -0.438489
  14 F :   -0.108699
  15 O :   -0.455102
  16 H :    0.167895
  17 H :    0.164513
  18 H :    0.146255
  19 H :    0.206888
Sum of atomic charges:   -0.0000000

LOEWDIN ATOMIC CHARGES
----------------------
   0 C :   -0.223605
   1 C :   -0.281598
   2 C :   -0.359492
   3 H :    0.156424
   4 H :    0.142932
   5 S :    0.565738
   6 C :   -0.380701
   7 N :   -0.026014
   8 C :   -0.251492
   9 H :    0.093306
  10 H :    0.097404
  11 H :    0.167420
  12 H :    0.170792
  13 O :   -0.262570
  14 F :    0.093204
  15 O :   -0.281207
  16 H :    0.140651
  17 H :    0.148318
  18 H :    0.141184
  19 H :    0.149306

  Mayer bond orders larger than 0.100000
B(  0-C ,  1-C ) :   0.8644 B(  0-C ,  6-C ) :   0.8284 B(  0-C , 18-H ) :   0.9971
B(  0-C , 19-H ) :   1.0172 B(  1-C ,  2-C ) :   0.9135 B(  1-C , 16-H ) :   0.9898
B(  1-C , 17-H ) :   0.9552 B(  2-C ,  3-H ) :   0.9316 B(  2-C ,  4-H ) :   0.9557
B(  2-C ,  5-S ) :   0.9319 B(  5-S , 13-O ) :   1.9503 B(  5-S , 14-F ) :   1.1052
B(  5-S , 15-O ) :   1.7838 B(  6-C ,  7-N ) :   1.0368 B(  6-C ,  8-C ) :   1.7147
B(  7-N , 11-H ) :   0.9289 B(  7-N , 12-H ) :   0.9291 B(  8-C ,  9-H ) :   1.0056
B(  8-C , 10-H ) :   1.0015

Dispersion correction           -0.000724725
FINAL SINGLE POINT ENERGY      -899.688654700298

DIPOLE MOMENT
-------------
                                X             Y             Z
Electronic contribution:      5.54819     -11.66588       7.34545
Nuclear contribution   :     -6.09390      13.51614      -6.45360
                        -----------------------------------------
Total Dipole Moment    :     -0.54571       1.85026       0.89185
                        -----------------------------------------
Magnitude (a.u.)       :      2.12524
Magnitude (Debye)      :      5.40193

Rotational constants in cm-1:     0.081469     0.024519     0.022336
Rotational constants in MHz :  2442.393231   735.066768   669.628729

                             ****ORCA TERMINATED NORMALLY****
TOTAL RUN TIME: 0 days 0 hours 0 minutes 38 seconds 112 msec
