                         Program Version 5.0.0 -  RELEASE  -
|  1> !M062X D3Zero RIJCOSX def2-TZVP def2/J TightSCF xyzfile
|  2>
|  3> *xyzfile 0 1 D5.xyz
|  4>
|  5> %MaxCore 64000
|  6>
|  7> %pal nprocs 18
|  8> end
|  9>
| 10> %scf
| 11>   MaxIter 150
| 12> end
| 13>
| 14>
| 15>                          ****END OF INPUT****

CARTESIAN COORDINATES (ANGSTROEM)
---------------------------------
  C     -0.461293    2.234686   -4.989619
  C      0.848883    2.667967   -4.302351
  C      2.093434    1.861037   -4.656845
  H      2.444814    2.041567   -5.674990
  H      2.901748    2.137864   -3.980338
  S      1.879644    0.078594   -4.462965
  C     -0.423841    2.398772   -6.474317
  C     -0.959467    3.492647   -7.007401
  N      0.145585    1.486891   -7.203987
  H      0.565371    0.696807   -6.723858
  H      0.220682    1.581768   -8.207520
  H     -1.406243    4.181507   -6.403261
  H     -0.934215    3.681601   -7.999468
  O      3.207574   -0.466111   -4.420259
  O      1.075064   -0.056160   -3.268758
  F      1.131661   -0.319960   -5.679031
  H      0.668432    2.559427   -3.232850
  H      1.034074    3.729426   -4.497081
  H     -1.288884    2.826737   -4.594997
  H     -0.651696    1.186343   -4.756552

 Total Charge           Charge          ....    0
 Multiplicity           Mult            ....    1
 Number of Electrons    NEL             ....   88
 Basis Dimension        Dim             ....  376

ORBITAL ENERGIES
----------------

  NO   OCC          E(Eh)            E(eV)
   0   2.0000     -90.162181     -2453.4377
   1   2.0000     -25.374851      -690.4848
   2   2.0000     -19.654865      -534.8361
   3   2.0000     -19.651395      -534.7417
   4   2.0000     -14.751923      -401.4202
   5   2.0000     -10.599055      -288.4150
   6   2.0000     -10.566970      -287.5419
   7   2.0000     -10.564781      -287.4823
   8   2.0000     -10.550908      -287.1048
   9   2.0000     -10.476715      -285.0859
  10   2.0000      -8.487853      -230.9662
  11   2.0000      -6.413018      -174.5071
  12   2.0000      -6.407531      -174.3578
  13   2.0000      -6.406822      -174.3385
  14   2.0000      -1.529122       -41.6095
  15   2.0000      -1.253947       -34.1216
  16   2.0000      -1.158857       -31.5341
  17   2.0000      -1.056526       -28.7495
  18   2.0000      -0.937538       -25.5117
  19   2.0000      -0.869770       -23.6676
  20   2.0000      -0.846950       -23.0467
  21   2.0000      -0.794026       -21.6065
  22   2.0000      -0.748211       -20.3599
  23   2.0000      -0.698156       -18.9978
  24   2.0000      -0.694928       -18.9100
  25   2.0000      -0.660238       -17.9660
  26   2.0000      -0.640450       -17.4275
  27   2.0000      -0.613889       -16.7048
  28   2.0000      -0.581021       -15.8104
  29   2.0000      -0.560555       -15.2535
  30   2.0000      -0.553281       -15.0555
  31   2.0000      -0.549174       -14.9438
  32   2.0000      -0.519734       -14.1427
  33   2.0000      -0.497095       -13.5266
  34   2.0000      -0.476176       -12.9574
  35   2.0000      -0.465942       -12.6789
  36   2.0000      -0.457992       -12.4626
  37   2.0000      -0.445403       -12.1200
  38   2.0000      -0.426175       -11.5968
  39   2.0000      -0.419438       -11.4135
  40   2.0000      -0.408265       -11.1095
  41   2.0000      -0.404131       -10.9970
  42   2.0000      -0.396968       -10.8020
  43   2.0000      -0.250675        -6.8212
  44   0.0000       0.044695         1.2162
  45   0.0000       0.065919         1.7938
  46   0.0000       0.071374         1.9422
  47   0.0000       0.075852         2.0640
  48   0.0000       0.085469         2.3257

MULLIKEN ATOMIC CHARGES
-----------------------
   0 C :   -0.514974
   1 C :   -0.204416
   2 C :   -0.435626
   3 H :    0.211043
   4 H :    0.199197
   5 S :    0.952929
   6 C :    0.369595
   7 C :   -0.462853
   8 N :   -0.548588
   9 H :    0.268135
  10 H :    0.245777
  11 H :    0.107659
  12 H :    0.110954
  13 O :   -0.439228
  14 O :   -0.435481
  15 F :   -0.144119
  16 H :    0.174696
  17 H :    0.166281
  18 H :    0.170129
  19 H :    0.208890
Sum of atomic charges:   -0.0000000

LOEWDIN ATOMIC CHARGES
----------------------
   0 C :   -0.220655
   1 C :   -0.273374
   2 C :   -0.366421
   3 H :    0.142834
   4 H :    0.153734
   5 S :    0.565288
   6 C :   -0.382482
   7 C :   -0.271804
   8 N :   -0.000182
   9 H :    0.146015
  10 H :    0.176726
  11 H :    0.106230
  12 H :    0.096113
  13 O :   -0.260582
  14 O :   -0.265940
  15 F :    0.056455
  16 H :    0.149355
  17 H :    0.150133
  18 H :    0.157567
  19 H :    0.140990

  Mayer bond orders larger than 0.100000
B(  0-C ,  1-C ) :   0.8769 B(  0-C ,  6-C ) :   0.8434 B(  0-C , 18-H ) :   0.9918
B(  0-C , 19-H ) :   1.0075 B(  1-C ,  2-C ) :   0.9058 B(  1-C , 16-H ) :   0.9747
B(  1-C , 17-H ) :   0.9519 B(  2-C ,  3-H ) :   0.9320 B(  2-C ,  4-H ) :   0.9461
B(  2-C ,  5-S ) :   0.9261 B(  5-S , 13-O ) :   1.9519 B(  5-S , 14-O ) :   1.8916
B(  5-S , 15-F ) :   1.0056 B(  6-C ,  7-C ) :   1.7221 B(  6-C ,  8-N ) :   1.0927
B(  7-C , 11-H ) :   0.9998 B(  7-C , 12-H ) :   1.0001 B(  8-N ,  9-H ) :   0.8987
B(  8-N , 10-H ) :   0.9272

Dispersion correction           -0.000725959
FINAL SINGLE POINT ENERGY      -899.712946248202

DIPOLE MOMENT
-------------
                                X             Y             Z
Electronic contribution:      6.40909     -13.39598       3.13410
Nuclear contribution   :     -6.26130      13.99605      -3.80018
                        -----------------------------------------
Total Dipole Moment    :      0.14779       0.60008      -0.66608
                        -----------------------------------------
Magnitude (a.u.)       :      0.90862
Magnitude (Debye)      :      2.30953

Rotational constants in cm-1:     0.079895     0.025630     0.022948
Rotational constants in MHz :  2395.188639   768.373696   687.955250

                             ****ORCA TERMINATED NORMALLY****
TOTAL RUN TIME: 0 days 0 hours 0 minutes 22 seconds 795 msec
