                         Program Version 5.0.0 -  RELEASE  -
|  1> !BLYP D3BJ RIJCOSX def2-SVPD def2/J TightSCF
|  2> *xyz -1 1
|  3> C         -0.87096        0.24804       -2.66280
|  4> C         -0.47749        0.60819       -4.10105
|  5> H          0.20677        1.45830       -4.11875
|  6> H         -1.36844        0.92942       -4.64785
|  7> C          0.18467       -0.50664       -4.91676
|  8> O         -0.15869       -1.70109       -4.65798
|  9> O          1.05594       -0.17441       -5.74037
| 10> C          0.10016       -0.67355       -1.91581
| 11> H         -1.00105        1.18104       -2.10407
| 12> H         -1.84465       -0.24659       -2.66328
| 13> H          0.22336       -1.58297       -2.46597
| 14> H         -0.29270       -0.89423       -0.94532
| 15> H          1.04759       -0.18666       -1.81480
| 16> *
| 17>
| 18> %MaxCore 64000
| 19>
| 20> %pal nprocs 4
| 21> end
| 22>
| 23> %scf
| 24>   MaxIter 150
| 25> end
| 26>
| 27>
| 28>                          ****END OF INPUT****

CARTESIAN COORDINATES (ANGSTROEM)
---------------------------------
  C     -0.870960    0.248040   -2.662800
  C     -0.477490    0.608190   -4.101050
  H      0.206770    1.458300   -4.118750
  H     -1.368440    0.929420   -4.647850
  C      0.184670   -0.506640   -4.916760
  O     -0.158690   -1.701090   -4.657980
  O      1.055940   -0.174410   -5.740370
  C      0.100160   -0.673550   -1.915810
  H     -1.001050    1.181040   -2.104070
  H     -1.844650   -0.246590   -2.663280
  H      0.223360   -1.582970   -2.465970
  H     -0.292700   -0.894230   -0.945320
  H      1.047590   -0.186660   -1.814800

 Total Charge           Charge          ....   -1
 Multiplicity           Mult            ....    1
 Number of Electrons    NEL             ....   48
 Basis Dimension        Dim             ....  182

ORBITAL ENERGIES
----------------

  NO   OCC          E(Eh)            E(eV)
   0   2.0000     -18.537327      -504.4263
   1   2.0000     -18.534209      -504.3415
   2   2.0000      -9.807126      -266.8655
   3   2.0000      -9.771952      -265.9083
   4   2.0000      -9.757129      -265.5050
   5   2.0000      -9.750482      -265.3241
   6   2.0000      -0.722868       -19.6702
   7   2.0000      -0.634505       -17.2658
   8   2.0000      -0.545889       -14.8544
   9   2.0000      -0.461060       -12.5461
  10   2.0000      -0.373688       -10.1686
  11   2.0000      -0.263465        -7.1693
  12   2.0000      -0.249377        -6.7859
  13   2.0000      -0.234422        -6.3789
  14   2.0000      -0.204150        -5.5552
  15   2.0000      -0.175153        -4.7662
  16   2.0000      -0.164082        -4.4649
  17   2.0000      -0.156376        -4.2552
  18   2.0000      -0.144803        -3.9403
  19   2.0000      -0.130210        -3.5432
  20   2.0000      -0.117010        -3.1840
  21   2.0000      -0.013860        -0.3771
  22   2.0000      -0.001437        -0.0391
  23   2.0000       0.015193         0.4134
  24   0.0000       0.130608         3.5540
  25   0.0000       0.155710         4.2371
  26   0.0000       0.172034         4.6813
  27   0.0000       0.179153         4.8750
  28   0.0000       0.198215         5.3937

MULLIKEN ATOMIC CHARGES
-----------------------
   0 C :   -0.117871
   1 C :    0.423712
   2 H :   -0.091383
   3 H :   -0.186759
   4 C :    0.131334
   5 O :   -0.653175
   6 O :   -0.549878
   7 C :    1.095188
   8 H :   -0.300972
   9 H :   -0.156095
  10 H :   -0.223149
  11 H :   -0.199276
  12 H :   -0.171677
Sum of atomic charges:   -1.0000000

LOEWDIN ATOMIC CHARGES
----------------------
   0 C :   -0.077529
   1 C :    0.011801
   2 H :   -0.007161
   3 H :    0.002518
   4 C :   -0.316395
   5 O :   -0.297584
   6 O :   -0.296956
   7 C :    0.122405
   8 H :   -0.010813
   9 H :    0.001028
  10 H :   -0.053916
  11 H :   -0.045915
  12 H :   -0.031482

  Mayer bond orders larger than 0.100000
B(  0-C ,  1-C ) :   1.2076 B(  0-C ,  2-H ) :   0.1639 B(  0-C ,  3-H ) :   0.1729
B(  0-C ,  7-C ) :   1.3268 B(  0-C ,  8-H ) :   0.8268 B(  0-C ,  9-H ) :   0.7924
B(  0-C , 10-H ) :   0.2543 B(  0-C , 11-H ) :   0.3045 B(  0-C , 12-H ) :   0.2532
B(  1-C ,  2-H ) :   0.7719 B(  1-C ,  3-H ) :   0.7376 B(  1-C ,  4-C ) :   1.0723
B(  1-C ,  8-H ) :   0.1545 B(  1-C ,  9-H ) :   0.1494 B(  2-H ,  4-C ) :   0.2724
B(  3-H ,  4-C ) :   0.1239 B(  4-C ,  5-O ) :   1.5417 B(  4-C ,  6-O ) :   1.4982
B(  7-C ,  8-H ) :   0.1274 B(  7-C ,  9-H ) :   0.1282 B(  7-C , 10-H ) :   0.7373
B(  7-C , 11-H ) :   0.5880 B(  7-C , 12-H ) :   0.6587

Dispersion correction           -0.020267736
FINAL SINGLE POINT ENERGY      -306.855309882461

DIPOLE MOMENT
-------------
                                X             Y             Z
Electronic contribution:      1.84312      -2.05666      -6.77775
Nuclear contribution   :     -2.71698       3.10699       8.64748
                        -----------------------------------------
Total Dipole Moment    :     -0.87386       1.05033       1.86972
                        -----------------------------------------
Magnitude (a.u.)       :      2.31575
Magnitude (Debye)      :      5.88616

Rotational constants in cm-1:     0.212307     0.084237     0.072775
Rotational constants in MHz :  6364.813744  2525.362351  2181.751235

                             ****ORCA TERMINATED NORMALLY****
TOTAL RUN TIME: 0 days 0 hours 0 minutes 7 seconds 104 msec
