                         Program Version 5.0.0 -  RELEASE  -
|  1> !BLYP D3BJ RIJCOSX def2-SVPD def2/J TightSCF
|  2> *xyz 1 1
|  3> C          2.48645       -2.67712       -2.56345
|  4> C          3.03764       -2.36672       -3.92351
|  5> N          2.28036       -2.45441       -4.96769
|  6> N          4.32174       -2.01793       -4.01664
|  7> H          4.87994       -1.91167       -3.17382
|  8> H          4.71015       -1.67088       -4.88356
|  9> H          1.27042       -2.41265       -4.86614
| 10> H          2.58183       -2.05528       -5.84688
| 11> C          2.49799       -1.46946       -1.61030
| 12> C          1.58284       -0.32199       -2.04262
| 13> H          2.19308       -1.83391       -0.62542
| 14> H          3.52336       -1.10398       -1.49039
| 15> H          1.47259       -3.05153       -2.69437
| 16> H          3.08320       -3.49064       -2.14147
| 17> H          1.88480        0.03130       -3.00642
| 18> H          1.65140        0.47571       -1.33278
| 19> H          0.57235       -0.67052       -2.09099
| 20> *
| 21>
| 22> %MaxCore 64000
| 23>
| 24> %pal nprocs 4
| 25> end
| 26>
| 27> %scf
| 28>   MaxIter 150
| 29> end
| 30>
| 31>
| 32>                          ****END OF INPUT****

CARTESIAN COORDINATES (ANGSTROEM)
---------------------------------
  C      2.486450   -2.677120   -2.563450
  C      3.037640   -2.366720   -3.923510
  N      2.280360   -2.454410   -4.967690
  N      4.321740   -2.017930   -4.016640
  H      4.879940   -1.911670   -3.173820
  H      4.710150   -1.670880   -4.883560
  H      1.270420   -2.412650   -4.866140
  H      2.581830   -2.055280   -5.846880
  C      2.497990   -1.469460   -1.610300
  C      1.582840   -0.321990   -2.042620
  H      2.193080   -1.833910   -0.625420
  H      3.523360   -1.103980   -1.490390
  H      1.472590   -3.051530   -2.694370
  H      3.083200   -3.490640   -2.141470
  H      1.884800    0.031300   -3.006420
  H      1.651400    0.475710   -1.332780
  H      0.572350   -0.670520   -2.090990

 Total Charge           Charge          ....    1
 Multiplicity           Mult            ....    1
 Number of Electrons    NEL             ....   48
 Basis Dimension        Dim             ....  208

ORBITAL ENERGIES
----------------

  NO   OCC          E(Eh)            E(eV)
   0   2.0000     -14.270938      -388.3320
   1   2.0000     -14.265880      -388.1943
   2   2.0000     -10.235294      -278.5165
   3   2.0000     -10.115093      -275.2457
   4   2.0000     -10.085743      -274.4470
   5   2.0000     -10.052491      -273.5422
   6   2.0000      -1.106838       -30.1186
   7   2.0000      -1.017328       -27.6829
   8   2.0000      -0.888351       -24.1733
   9   2.0000      -0.812078       -22.0978
  10   2.0000      -0.768475       -20.9113
  11   2.0000      -0.720202       -19.5977
  12   2.0000      -0.710896       -19.3445
  13   2.0000      -0.671397       -18.2696
  14   2.0000      -0.647146       -17.6097
  15   2.0000      -0.599998       -16.3268
  16   2.0000      -0.575360       -15.6564
  17   2.0000      -0.543522       -14.7900
  18   2.0000      -0.526503       -14.3269
  19   2.0000      -0.515208       -14.0195
  20   2.0000      -0.462653       -12.5894
  21   2.0000      -0.457868       -12.4592
  22   2.0000      -0.454650       -12.3717
  23   2.0000      -0.448268       -12.1980
  24   0.0000      -0.244160        -6.6439
  25   0.0000      -0.180812        -4.9201
  26   0.0000      -0.143000        -3.8912
  27   0.0000      -0.139258        -3.7894
  28   0.0000      -0.110609        -3.0098

MULLIKEN ATOMIC CHARGES
-----------------------
   0 C :    0.434632
   1 C :    0.371410
   2 N :    0.387726
   3 N :    0.325318
   4 H :   -0.033363
   5 H :   -0.216745
   6 H :   -0.042130
   7 H :   -0.170803
   8 C :   -0.067045
   9 C :    1.159602
  10 H :   -0.211352
  11 H :   -0.191639
  12 H :   -0.074439
  13 H :   -0.149978
  14 H :   -0.225742
  15 H :   -0.215385
  16 H :   -0.080066
Sum of atomic charges:    1.0000000

LOEWDIN ATOMIC CHARGES
----------------------
   0 C :    0.055209
   1 C :   -0.068572
   2 N :    0.304092
   3 N :    0.308926
   4 H :    0.043710
   5 H :    0.040249
   6 H :    0.054313
   7 H :    0.046039
   8 C :   -0.036492
   9 C :    0.159511
  10 H :    0.037109
  11 H :    0.016078
  12 H :    0.032310
  13 H :    0.048473
  14 H :   -0.027105
  15 H :   -0.003673
  16 H :   -0.010177

  Mayer bond orders larger than 0.100000
B(  0-C ,  1-C ) :   1.1401 B(  0-C ,  2-N ) :   0.1067 B(  0-C ,  3-N ) :   0.1063
B(  0-C ,  8-C ) :   1.1815 B(  0-C , 10-H ) :   0.1575 B(  0-C , 11-H ) :   0.1480
B(  0-C , 12-H ) :   0.6980 B(  0-C , 13-H ) :   0.7341 B(  1-C ,  2-N ) :   1.1589
B(  1-C ,  3-N ) :   1.2110 B(  1-C ,  5-H ) :  -0.1458 B(  1-C ,  7-H ) :  -0.1090
B(  1-C , 12-H ) :   0.2589 B(  1-C , 13-H ) :   0.1610 B(  2-N ,  3-N ) :   0.1826
B(  2-N ,  6-H ) :   1.0646 B(  2-N ,  7-H ) :   1.1674 B(  3-N ,  4-H ) :   1.1108
B(  3-N ,  5-H ) :   1.2734 B(  4-H ,  5-H ) :  -0.1939 B(  6-H ,  7-H ) :  -0.1394
B(  8-C ,  9-C ) :   1.3609 B(  8-C , 10-H ) :   0.8603 B(  8-C , 11-H ) :   0.7887
B(  8-C , 12-H ) :   0.1561 B(  8-C , 13-H ) :   0.1335 B(  8-C , 14-H ) :   0.2979
B(  8-C , 15-H ) :   0.2956 B(  8-C , 16-H ) :   0.2693 B(  9-C , 10-H ) :   0.1019
B(  9-C , 11-H ) :   0.1068 B(  9-C , 14-H ) :   0.7009 B(  9-C , 15-H ) :   0.6378
B(  9-C , 16-H ) :   0.6757

Dispersion correction           -0.027567555
FINAL SINGLE POINT ENERGY      -268.053845182273

DIPOLE MOMENT
-------------
                                X             Y             Z
Electronic contribution:      2.38179      -2.81116      -4.27993
Nuclear contribution   :     -1.82438       2.64851       2.98450
                        -----------------------------------------
Total Dipole Moment    :      0.55740      -0.16265      -1.29543
                        -----------------------------------------
Magnitude (a.u.)       :      1.41961
Magnitude (Debye)      :      3.60835

Rotational constants in cm-1:     0.176712     0.077069     0.069669
Rotational constants in MHz :  5297.698588  2310.466480  2088.633881

                             ****ORCA TERMINATED NORMALLY****
TOTAL RUN TIME: 0 days 0 hours 0 minutes 8 seconds 676 msec
