                         Program Version 5.0.0 -  RELEASE  -
|  1> !BLYP D3BJ RIJCOSX def2-SVPD def2/J TightSCF xyzfile
|  2>
|  3> *xyzfile 0 1 B.xyz
|  4>
|  5> %MaxCore 64000
|  6>
|  7> %pal nprocs 4
|  8> end
|  9>
| 10> %scf
| 11>   MaxIter 150
| 12> end
| 13>
| 14>
| 15>                          ****END OF INPUT****

CARTESIAN COORDINATES (ANGSTROEM)
---------------------------------
  C      2.486452   -2.677121   -2.563447
  C     -0.870963    0.248043   -2.662804
  C     -0.477492    0.608191   -4.101052
  H      0.206773    1.458299   -4.118748
  H     -1.368442    0.929419   -4.647855
  C      0.184673   -0.506640   -4.916760
  C      3.037640   -2.366715   -3.923509
  N      2.280360   -2.454408   -4.967692
  N      4.321736   -2.017932   -4.016641
  H      4.879940   -1.911668   -3.173823
  H      4.710148   -1.670882   -4.883561
  H      1.270423   -2.412650   -4.866143
  H      2.581829   -2.055282   -5.846878
  O     -0.158685   -1.701088   -4.657981
  O      1.055938   -0.174410   -5.740373
  C      2.497991   -1.469464   -1.610303
  C      1.582841   -0.321986   -2.042619
  H      2.193083   -1.833912   -0.625420
  H      3.523356   -1.103982   -1.490392
  C      0.100160   -0.673551   -1.915815
  H      1.822311   -0.040361   -3.072834
  H      1.813180    0.557019   -1.433266
  H     -0.063284   -1.679120   -2.301112
  H     -0.168820   -0.691680   -0.853831
  H     -1.001048    1.181040   -2.104071
  H     -1.844645   -0.246592   -2.663281
  H      1.472592   -3.051527   -2.694366
  H      3.083201   -3.490638   -2.141472

 Total Charge           Charge          ....    0
 Multiplicity           Mult            ....    1
 Number of Electrons    NEL             ....   94
 Basis Dimension        Dim             ....  374

ORBITAL ENERGIES
----------------

  NO   OCC          E(Eh)            E(eV)
   0   2.0000     -18.708846      -509.0936
   1   2.0000     -18.703161      -508.9389
   2   2.0000     -14.106083      -383.8460
   3   2.0000     -14.068772      -382.8307
   4   2.0000     -10.060578      -273.7622
   5   2.0000      -9.971012      -271.3250
   6   2.0000      -9.964527      -271.1486
   7   2.0000      -9.947509      -270.6855
   8   2.0000      -9.918605      -269.8990
   9   2.0000      -9.900828      -269.4152
  10   2.0000      -9.896436      -269.2957
  11   2.0000      -9.885230      -268.9908
  12   2.0000      -0.933075       -25.3903
  13   2.0000      -0.898051       -24.4372
  14   2.0000      -0.841532       -22.8993
  15   2.0000      -0.807962       -21.9858
  16   2.0000      -0.744326       -20.2541
  17   2.0000      -0.693538       -18.8721
  18   2.0000      -0.653634       -17.7863
  19   2.0000      -0.605754       -16.4834
  20   2.0000      -0.589131       -16.0311
  21   2.0000      -0.549677       -14.9575
  22   2.0000      -0.549531       -14.9535
  23   2.0000      -0.517637       -14.0856
  24   2.0000      -0.492623       -13.4049
  25   2.0000      -0.468681       -12.7535
  26   2.0000      -0.444898       -12.1063
  27   2.0000      -0.426037       -11.5931
  28   2.0000      -0.404269       -11.0007
  29   2.0000      -0.398335       -10.8392
  30   2.0000      -0.388567       -10.5735
  31   2.0000      -0.372743       -10.1428
  32   2.0000      -0.362925        -9.8757
  33   2.0000      -0.358922        -9.7668
  34   2.0000      -0.339172        -9.2293
  35   2.0000      -0.331641        -9.0244
  36   2.0000      -0.319269        -8.6877
  37   2.0000      -0.311927        -8.4880
  38   2.0000      -0.306587        -8.3427
  39   2.0000      -0.291213        -7.9243
  40   2.0000      -0.280873        -7.6429
  41   2.0000      -0.271793        -7.3959
  42   2.0000      -0.264326        -7.1927
  43   2.0000      -0.255356        -6.9486
  44   2.0000      -0.187988        -5.1154
  45   2.0000      -0.170958        -4.6520
  46   2.0000      -0.156012        -4.2453
  47   0.0000      -0.074505        -2.0274
  48   0.0000      -0.040229        -1.0947
  49   0.0000      -0.003581        -0.0974
  50   0.0000       0.012229         0.3328
  51   0.0000       0.018571         0.5053

MULLIKEN ATOMIC CHARGES
-----------------------
   0 C :    0.580555
   1 C :    0.836827
   2 C :    0.618449
   3 H :    0.089892
   4 H :   -0.500879
   5 C :   -0.009856
   6 C :    0.331841
   7 N :    0.655437
   8 N :    0.347140
   9 H :   -0.100887
  10 H :   -0.232594
  11 H :   -0.377406
  12 H :   -0.094895
  13 O :   -0.716737
  14 O :   -0.483609
  15 C :    0.585960
  16 C :    0.499251
  17 H :   -0.216796
  18 H :   -0.257703
  19 C :    0.288759
  20 H :   -0.285704
  21 H :   -0.351306
  22 H :   -0.111012
  23 H :   -0.347306
  24 H :   -0.305545
  25 H :   -0.093533
  26 H :   -0.100406
  27 H :   -0.247935
Sum of atomic charges:    0.0000000

LOEWDIN ATOMIC CHARGES
----------------------
   0 C :    0.062700
   1 C :   -0.009229
   2 C :    0.039413
   3 H :    0.011362
   4 H :    0.021751
   5 C :   -0.261159
   6 C :   -0.068418
   7 N :    0.322943
   8 N :    0.271231
   9 H :    0.017365
  10 H :    0.022312
  11 H :   -0.103657
  12 H :    0.024709
  13 O :   -0.226888
  14 O :   -0.234222
  15 C :   -0.005527
  16 C :   -0.001167
  17 H :    0.025058
  18 H :    0.004361
  19 C :   -0.019408
  20 H :    0.005601
  21 H :    0.023075
  22 H :   -0.015634
  23 H :    0.016491
  24 H :    0.009839
  25 H :    0.017518
  26 H :    0.019163
  27 H :    0.030417

  Mayer bond orders larger than 0.100000
B(  0-C ,  6-C ) :   1.0738 B(  0-C ,  7-N ) :   0.1279 B(  0-C ,  8-N ) :   0.1027
B(  0-C , 15-C ) :   1.1277 B(  0-C , 16-C ) :   0.1841 B(  0-C , 17-H ) :   0.2097
B(  0-C , 18-H ) :   0.1825 B(  0-C , 26-H ) :   0.6870 B(  0-C , 27-H ) :   0.5528
B(  1-C ,  2-C ) :   1.1168 B(  1-C ,  3-H ) :   0.1164 B(  1-C ,  4-H ) :   0.1554
B(  1-C , 19-C ) :   1.2451 B(  1-C , 22-H ) :   0.1373 B(  1-C , 23-H ) :   0.1255
B(  1-C , 24-H ) :   0.5920 B(  1-C , 25-H ) :   0.5191 B(  2-C ,  3-H ) :   0.6726
B(  2-C ,  4-H ) :   0.5451 B(  2-C ,  5-C ) :   1.1344 B(  2-C , 19-C ) :   0.1960
B(  2-C , 24-H ) :   0.1982 B(  2-C , 25-H ) :   0.1102 B(  3-H ,  4-H ) :  -0.1456
B(  3-H ,  5-C ) :   0.3784 B(  4-H ,  5-C ) :   0.3311 B(  4-H , 20-H ) :  -0.1089
B(  5-C , 13-O ) :   1.3525 B(  5-C , 14-O ) :   1.6342 B(  5-C , 22-H ) :   0.1029
B(  6-C ,  7-N ) :   1.2150 B(  6-C ,  8-N ) :   1.0812 B(  6-C ,  9-H ) :  -0.1126
B(  6-C , 12-H ) :  -0.1426 B(  6-C , 15-C ) :   0.1154 B(  6-C , 26-H ) :   0.2650
B(  6-C , 27-H ) :   0.1914 B(  7-N ,  8-N ) :   0.2388 B(  7-N , 11-H ) :   0.9508
B(  7-N , 12-H ) :   1.0561 B(  8-N ,  9-H ) :   1.1734 B(  8-N , 10-H ) :   1.2322
B(  9-H , 10-H ) :  -0.1933 B( 11-H , 12-H ) :  -0.1507 B( 11-H , 13-O ) :   0.3012
B( 13-O , 14-O ) :   0.1121 B( 15-C , 16-C ) :   1.1652 B( 15-C , 17-H ) :   0.7368
B( 15-C , 18-H ) :   0.5244 B( 15-C , 20-H ) :   0.2193 B( 15-C , 21-H ) :   0.1245
B( 15-C , 26-H ) :   0.1821 B( 15-C , 27-H ) :   0.1725 B( 16-C , 17-H ) :   0.1198
B( 16-C , 18-H ) :   0.2919 B( 16-C , 19-C ) :   1.1582 B( 16-C , 20-H ) :   0.6834
B( 16-C , 21-H ) :   0.6794 B( 16-C , 22-H ) :   0.1807 B( 16-C , 23-H ) :   0.3047
B( 17-H , 18-H ) :  -0.1524 B( 19-C , 20-H ) :   0.1907 B( 19-C , 21-H ) :   0.1243
B( 19-C , 22-H ) :   0.7488 B( 19-C , 23-H ) :   0.6174 B( 19-C , 24-H ) :   0.2607
B( 19-C , 25-H ) :   0.2991 B( 21-H , 27-H ) :   0.1216 B( 22-H , 26-H ) :   0.1452
B( 24-H , 25-H ) :  -0.1698

Dispersion correction           -0.062903097
FINAL SINGLE POINT ENERGY      -573.899920664828

DIPOLE MOMENT
-------------
                                X             Y             Z
Electronic contribution:      1.63097      -2.89397      -8.87238
Nuclear contribution   :      1.39386       1.90489      10.36520
                        -----------------------------------------
Total Dipole Moment    :      3.02482      -0.98908       1.49282
                        -----------------------------------------
Magnitude (a.u.)       :      3.51516
Magnitude (Debye)      :      8.93483

Rotational constants in cm-1:     0.041165     0.025922     0.019001
Rotational constants in MHz :  1234.086888   777.109255   569.639629

                             ****ORCA TERMINATED NORMALLY****
TOTAL RUN TIME: 0 days 0 hours 0 minutes 35 seconds 606 msec
