                         Program Version 5.0.0 -  RELEASE  -
|  1> !BLYP D3BJ RIJCOSX def2-SVPD def2/J TightSCF
|  2> *xyz 0 1
|  3> C         -0.87096        0.24804       -2.66280
|  4> C         -0.47749        0.60819       -4.10105
|  5> H          0.20677        1.45830       -4.11875
|  6> H         -1.36844        0.92942       -4.64785
|  7> C          0.18467       -0.50664       -4.91676
|  8> F         -0.15869       -1.70109       -4.65798
|  9> O          1.05594       -0.17441       -5.74037
| 10> C          0.10016       -0.67355       -1.91581
| 11> H         -1.00105        1.18104       -2.10407
| 12> H         -1.84465       -0.24659       -2.66328
| 13> H          0.22336       -1.58297       -2.46597
| 14> H         -0.29270       -0.89423       -0.94532
| 15> H          1.04759       -0.18666       -1.81480
| 16> *
| 17>
| 18> %MaxCore 64000
| 19>
| 20> %pal nprocs 4
| 21> end
| 22>
| 23> %scf
| 24>   MaxIter 150
| 25> end
| 26>
| 27>
| 28>                          ****END OF INPUT****

CARTESIAN COORDINATES (ANGSTROEM)
---------------------------------
  C     -0.870960    0.248040   -2.662800
  C     -0.477490    0.608190   -4.101050
  H      0.206770    1.458300   -4.118750
  H     -1.368440    0.929420   -4.647850
  C      0.184670   -0.506640   -4.916760
  F     -0.158690   -1.701090   -4.657980
  O      1.055940   -0.174410   -5.740370
  C      0.100160   -0.673550   -1.915810
  H     -1.001050    1.181040   -2.104070
  H     -1.844650   -0.246590   -2.663280
  H      0.223360   -1.582970   -2.465970
  H     -0.292700   -0.894230   -0.945320
  H      1.047590   -0.186660   -1.814800

 Total Charge           Charge          ....    0
 Multiplicity           Mult            ....    1
 Number of Electrons    NEL             ....   48
 Basis Dimension        Dim             ....  182

ORBITAL ENERGIES
----------------

  NO   OCC          E(Eh)            E(eV)
   0   2.0000     -24.371536      -663.1832
   1   2.0000     -18.800503      -511.5877
   2   2.0000     -10.095898      -274.7233
   3   2.0000      -9.952916      -270.8326
   4   2.0000      -9.939144      -270.4579
   5   2.0000      -9.918533      -269.8970
   6   2.0000      -1.188927       -32.3523
   7   2.0000      -0.938403       -25.5352
   8   2.0000      -0.729430       -19.8488
   9   2.0000      -0.650330       -17.6964
  10   2.0000      -0.587924       -15.9982
  11   2.0000      -0.549210       -14.9448
  12   2.0000      -0.484774       -13.1914
  13   2.0000      -0.474374       -12.9084
  14   2.0000      -0.430954       -11.7268
  15   2.0000      -0.422657       -11.5011
  16   2.0000      -0.399035       -10.8583
  17   2.0000      -0.370089       -10.0706
  18   2.0000      -0.355953        -9.6860
  19   2.0000      -0.333186        -9.0665
  20   2.0000      -0.318827        -8.6757
  21   2.0000      -0.313657        -8.5350
  22   2.0000      -0.297942        -8.1074
  23   2.0000      -0.244281        -6.6472
  24   0.0000      -0.066481        -1.8090
  25   0.0000      -0.009297        -0.2530
  26   0.0000       0.025374         0.6905
  27   0.0000       0.027946         0.7604
  28   0.0000       0.037782         1.0281

MULLIKEN ATOMIC CHARGES
-----------------------
   0 C :   -0.049414
   1 C :    0.363272
   2 H :   -0.064871
   3 H :   -0.133047
   4 C :    0.518597
   5 F :   -0.371647
   6 O :   -0.362274
   7 C :    1.129538
   8 H :   -0.289351
   9 H :   -0.149444
  10 H :   -0.257587
  11 H :   -0.185045
  12 H :   -0.148728
Sum of atomic charges:   -0.0000000

LOEWDIN ATOMIC CHARGES
----------------------
   0 C :   -0.055366
   1 C :    0.058797
   2 H :    0.030182
   3 H :    0.034504
   4 C :   -0.038911
   5 F :   -0.024314
   6 O :   -0.105476
   7 C :    0.144384
   8 H :    0.017950
   9 H :    0.015609
  10 H :   -0.042325
  11 H :   -0.019233
  12 H :   -0.015799

  Mayer bond orders larger than 0.100000
B(  0-C ,  1-C ) :   1.2392 B(  0-C ,  2-H ) :   0.1524 B(  0-C ,  3-H ) :   0.1620
B(  0-C ,  7-C ) :   1.3497 B(  0-C ,  8-H ) :   0.8085 B(  0-C ,  9-H ) :   0.7875
B(  0-C , 10-H ) :   0.2413 B(  0-C , 11-H ) :   0.2898 B(  0-C , 12-H ) :   0.2477
B(  1-C ,  2-H ) :   0.7900 B(  1-C ,  3-H ) :   0.7441 B(  1-C ,  4-C ) :   1.0649
B(  1-C ,  8-H ) :   0.1589 B(  1-C ,  9-H ) :   0.1424 B(  2-H ,  4-C ) :   0.2057
B(  4-C ,  5-F ) :   0.7573 B(  4-C ,  6-O ) :   1.8455 B(  5-F ,  6-O ) :   0.1359
B(  7-C ,  8-H ) :   0.1054 B(  7-C ,  9-H ) :   0.1164 B(  7-C , 10-H ) :   0.7346
B(  7-C , 11-H ) :   0.5957 B(  7-C , 12-H ) :   0.6635

Dispersion correction           -0.019296651
FINAL SINGLE POINT ENERGY      -331.392497941987

DIPOLE MOMENT
-------------
                                X             Y             Z
Electronic contribution:      1.75791      -4.32195      -8.50109
Nuclear contribution   :     -2.55684       4.59749       9.38828
                        -----------------------------------------
Total Dipole Moment    :     -0.79893       0.27554       0.88719
                        -----------------------------------------
Magnitude (a.u.)       :      1.22528
Magnitude (Debye)      :      3.11441

Rotational constants in cm-1:     0.200184     0.083263     0.071070
Rotational constants in MHz :  6001.373539  2496.169674  2130.635527

                             ****ORCA TERMINATED NORMALLY****
TOTAL RUN TIME: 0 days 0 hours 0 minutes 6 seconds 441 msec
