                         Program Version 5.0.0 -  RELEASE  -
|  1> !BLYP D3BJ RIJCOSX def2-SVPD def2/J TightSCF
|  2> *xyz 0 1
|  3> C          2.48645       -2.67712       -2.56345
|  4> C          3.03764       -2.36672       -3.92351
|  5> C          2.28036       -2.45441       -4.96769
|  6> N          4.32174       -2.01793       -4.01664
|  7> H          4.87994       -1.91167       -3.17382
|  8> H          4.71015       -1.67088       -4.88356
|  9> H          1.27042       -2.41265       -4.86614
| 10> H          2.58183       -2.05528       -5.84688
| 11> C          2.49799       -1.46946       -1.61030
| 12> C          1.58284       -0.32199       -2.04262
| 13> H          2.19308       -1.83391       -0.62542
| 14> H          3.52336       -1.10398       -1.49039
| 15> H          1.47259       -3.05153       -2.69437
| 16> H          3.08320       -3.49064       -2.14147
| 17> H          1.88480        0.03130       -3.00642
| 18> H          1.65140        0.47571       -1.33278
| 19> H          0.57235       -0.67052       -2.09099
| 20> *
| 21>
| 22> %MaxCore 64000
| 23>
| 24> %pal nprocs 4
| 25> end
| 26>
| 27> %scf
| 28>   MaxIter 150
| 29> end
| 30>
| 31>
| 32>                          ****END OF INPUT****

CARTESIAN COORDINATES (ANGSTROEM)
---------------------------------
  C      2.486450   -2.677120   -2.563450
  C      3.037640   -2.366720   -3.923510
  C      2.280360   -2.454410   -4.967690
  N      4.321740   -2.017930   -4.016640
  H      4.879940   -1.911670   -3.173820
  H      4.710150   -1.670880   -4.883560
  H      1.270420   -2.412650   -4.866140
  H      2.581830   -2.055280   -5.846880
  C      2.497990   -1.469460   -1.610300
  C      1.582840   -0.321990   -2.042620
  H      2.193080   -1.833910   -0.625420
  H      3.523360   -1.103980   -1.490390
  H      1.472590   -3.051530   -2.694370
  H      3.083200   -3.490640   -2.141470
  H      1.884800    0.031300   -3.006420
  H      1.651400    0.475710   -1.332780
  H      0.572350   -0.670520   -2.090990

 Total Charge           Charge          ....    0
 Multiplicity           Mult            ....    1
 Number of Electrons    NEL             ....   48
 Basis Dimension        Dim             ....  208

ORBITAL ENERGIES
----------------

  NO   OCC          E(Eh)            E(eV)
   0   2.0000     -14.027257      -381.7011
   1   2.0000      -9.938243      -270.4333
   2   2.0000      -9.921491      -269.9775
   3   2.0000      -9.918646      -269.9001
   4   2.0000      -9.904384      -269.5120
   5   2.0000      -9.854981      -268.1677
   6   2.0000      -0.830932       -22.6108
   7   2.0000      -0.707083       -19.2407
   8   2.0000      -0.656787       -17.8721
   9   2.0000      -0.607917       -16.5423
  10   2.0000      -0.530982       -14.4487
  11   2.0000      -0.503782       -13.7086
  12   2.0000      -0.469784       -12.7835
  13   2.0000      -0.417187       -11.3522
  14   2.0000      -0.398684       -10.8488
  15   2.0000      -0.396510       -10.7896
  16   2.0000      -0.348530        -9.4840
  17   2.0000      -0.341935        -9.3045
  18   2.0000      -0.322898        -8.7865
  19   2.0000      -0.318583        -8.6691
  20   2.0000      -0.293476        -7.9859
  21   2.0000      -0.279873        -7.6157
  22   2.0000      -0.276867        -7.5339
  23   2.0000      -0.162536        -4.4228
  24   0.0000      -0.005453        -0.1484
  25   0.0000       0.009966         0.2712
  26   0.0000       0.024684         0.6717
  27   0.0000       0.031710         0.8629
  28   0.0000       0.046562         1.2670

MULLIKEN ATOMIC CHARGES
-----------------------
   0 C :    0.493707
   1 C :   -0.236895
   2 C :    0.657253
   3 N :    0.461014
   4 H :   -0.206959
   5 H :   -0.270580
   6 H :   -0.146636
   7 H :   -0.615569
   8 C :   -0.061266
   9 C :    1.159843
  10 H :   -0.264570
  11 H :   -0.187003
  12 H :   -0.004145
  13 H :   -0.226606
  14 H :   -0.216319
  15 H :   -0.227180
  16 H :   -0.108090
Sum of atomic charges:    0.0000000

LOEWDIN ATOMIC CHARGES
----------------------
   0 C :    0.014395
   1 C :   -0.266246
   2 C :    0.175346
   3 N :    0.202118
   4 H :   -0.010747
   5 H :   -0.001289
   6 H :   -0.081250
   7 H :   -0.089568
   8 C :   -0.060726
   9 C :    0.141394
  10 H :    0.011936
  11 H :    0.002094
  12 H :    0.017592
  13 H :    0.018293
  14 H :   -0.026474
  15 H :   -0.026167
  16 H :   -0.020703

  Mayer bond orders larger than 0.100000
B(  0-C ,  1-C ) :   1.1811 B(  0-C ,  2-C ) :   0.1422 B(  0-C ,  3-N ) :   0.1176
B(  0-C ,  8-C ) :   1.1243 B(  0-C , 10-H ) :   0.2114 B(  0-C , 11-H ) :   0.1824
B(  0-C , 12-H ) :   0.7043 B(  0-C , 13-H ) :   0.7749 B(  1-C ,  2-C ) :   1.8835
B(  1-C ,  3-N ) :   1.3153 B(  1-C ,  6-H ) :   0.1822 B(  1-C ,  7-H ) :   0.3352
B(  1-C ,  8-C ) :   0.1575 B(  1-C , 12-H ) :   0.2036 B(  1-C , 13-H ) :   0.1960
B(  2-C ,  3-N ) :   0.3262 B(  2-C ,  6-H ) :   0.7715 B(  2-C ,  7-H ) :   0.4138
B(  2-C , 12-H ) :  -0.1005 B(  3-N ,  4-H ) :   1.1306 B(  3-N ,  5-H ) :   1.1765
B(  4-H ,  5-H ) :  -0.1627 B(  6-H ,  7-H ) :   0.1427 B(  8-C ,  9-C ) :   1.3278
B(  8-C , 10-H ) :   0.8112 B(  8-C , 11-H ) :   0.7744 B(  8-C , 12-H ) :   0.1695
B(  8-C , 13-H ) :   0.1087 B(  8-C , 14-H ) :   0.3052 B(  8-C , 15-H ) :   0.3006
B(  8-C , 16-H ) :   0.2734 B(  9-C , 11-H ) :   0.1075 B(  9-C , 14-H ) :   0.7206
B(  9-C , 15-H ) :   0.6212 B(  9-C , 16-H ) :   0.6781 B( 14-H , 16-H ) :   0.1074

Dispersion correction           -0.028549739
FINAL SINGLE POINT ENERGY      -251.583988193256

DIPOLE MOMENT
-------------
                                X             Y             Z
Electronic contribution:      2.47298      -2.10838      -2.15040
Nuclear contribution   :     -1.92525       2.50924       2.56958
                        -----------------------------------------
Total Dipole Moment    :      0.54773       0.40086       0.41918
                        -----------------------------------------
Magnitude (a.u.)       :      0.79775
Magnitude (Debye)      :      2.02772

Rotational constants in cm-1:     0.181985     0.078726     0.071856
Rotational constants in MHz :  5455.785660  2360.157292  2154.177820

                             ****ORCA TERMINATED NORMALLY****
TOTAL RUN TIME: 0 days 0 hours 0 minutes 8 seconds 611 msec
