                         Program Version 5.0.0 -  RELEASE  -
|  1> !BLYP D3BJ RIJCOSX def2-SVPD def2/J TightSCF
|  2> *xyz 0 1
|  3> C         -0.87096        0.24804       -2.66280
|  4> C         -0.47749        0.60819       -4.10105
|  5> H          0.20677        1.45830       -4.11875
|  6> H         -1.36844        0.92942       -4.64785
|  7> C          0.18467       -0.50664       -4.91676
|  8> O         -0.15869       -1.70109       -4.65798
|  9> F          1.05594       -0.17441       -5.74037
| 10> C          0.10016       -0.67355       -1.91581
| 11> H         -1.00105        1.18104       -2.10407
| 12> H         -1.84465       -0.24659       -2.66328
| 13> H          0.22336       -1.58297       -2.46597
| 14> H         -0.29270       -0.89423       -0.94532
| 15> H          1.04759       -0.18666       -1.81480
| 16> *
| 17>
| 18> %MaxCore 64000
| 19>
| 20> %pal nprocs 4
| 21> end
| 22>
| 23> %scf
| 24>   MaxIter 150
| 25> end
| 26>
| 27>
| 28>                          ****END OF INPUT****

CARTESIAN COORDINATES (ANGSTROEM)
---------------------------------
  C     -0.870960    0.248040   -2.662800
  C     -0.477490    0.608190   -4.101050
  H      0.206770    1.458300   -4.118750
  H     -1.368440    0.929420   -4.647850
  C      0.184670   -0.506640   -4.916760
  O     -0.158690   -1.701090   -4.657980
  F      1.055940   -0.174410   -5.740370
  C      0.100160   -0.673550   -1.915810
  H     -1.001050    1.181040   -2.104070
  H     -1.844650   -0.246590   -2.663280
  H      0.223360   -1.582970   -2.465970
  H     -0.292700   -0.894230   -0.945320
  H      1.047590   -0.186660   -1.814800

 Total Charge           Charge          ....    0
 Multiplicity           Mult            ....    1
 Number of Electrons    NEL             ....   48
 Basis Dimension        Dim             ....  182

ORBITAL ENERGIES
----------------

  NO   OCC          E(Eh)            E(eV)
   0   2.0000     -24.380151      -663.4176
   1   2.0000     -18.797732      -511.5123
   2   2.0000     -10.098196      -274.7859
   3   2.0000      -9.954546      -270.8770
   4   2.0000      -9.934362      -270.3277
   5   2.0000      -9.906636      -269.5733
   6   2.0000      -1.206181       -32.8219
   7   2.0000      -0.925685       -25.1892
   8   2.0000      -0.723592       -19.6899
   9   2.0000      -0.649993       -17.6872
  10   2.0000      -0.593745       -16.1566
  11   2.0000      -0.543393       -14.7865
  12   2.0000      -0.492499       -13.4016
  13   2.0000      -0.468914       -12.7598
  14   2.0000      -0.446326       -12.1452
  15   2.0000      -0.417202       -11.3527
  16   2.0000      -0.400081       -10.8868
  17   2.0000      -0.366708        -9.9786
  18   2.0000      -0.346233        -9.4215
  19   2.0000      -0.319036        -8.6814
  20   2.0000      -0.314511        -8.5583
  21   2.0000      -0.300804        -8.1853
  22   2.0000      -0.297948        -8.1076
  23   2.0000      -0.241176        -6.5627
  24   0.0000      -0.069703        -1.8967
  25   0.0000      -0.005849        -0.1592
  26   0.0000       0.022620         0.6155
  27   0.0000       0.031738         0.8636
  28   0.0000       0.039237         1.0677

MULLIKEN ATOMIC CHARGES
-----------------------
   0 C :   -0.064701
   1 C :    0.345041
   2 H :   -0.058341
   3 H :   -0.119711
   4 C :    0.519724
   5 O :   -0.460433
   6 F :   -0.283608
   7 C :    1.135428
   8 H :   -0.274672
   9 H :   -0.140411
  10 H :   -0.252172
  11 H :   -0.182339
  12 H :   -0.163804
Sum of atomic charges:   -0.0000000

LOEWDIN ATOMIC CHARGES
----------------------
   0 C :   -0.046050
   1 C :    0.051336
   2 H :    0.019015
   3 H :    0.034724
   4 C :   -0.032354
   5 O :   -0.118334
   6 F :   -0.004915
   7 C :    0.145261
   8 H :    0.017923
   9 H :    0.020469
  10 H :   -0.046695
  11 H :   -0.020294
  12 H :   -0.020086

  Mayer bond orders larger than 0.100000
B(  0-C ,  1-C ) :   1.2582 B(  0-C ,  2-H ) :   0.1558 B(  0-C ,  3-H ) :   0.1737
B(  0-C ,  7-C ) :   1.3604 B(  0-C ,  8-H ) :   0.8025 B(  0-C ,  9-H ) :   0.7806
B(  0-C , 10-H ) :   0.2398 B(  0-C , 11-H ) :   0.2880 B(  0-C , 12-H ) :   0.2415
B(  1-C ,  2-H ) :   0.7825 B(  1-C ,  3-H ) :   0.7241 B(  1-C ,  4-C ) :   1.1107
B(  1-C ,  8-H ) :   0.1530 B(  1-C ,  9-H ) :   0.1476 B(  2-H ,  4-C ) :   0.1620
B(  3-H ,  4-C ) :   0.1076 B(  4-C ,  5-O ) :   1.8406 B(  4-C ,  6-F ) :   0.8056
B(  5-O ,  6-F ) :   0.1216 B(  7-C ,  8-H ) :   0.1166 B(  7-C ,  9-H ) :   0.1203
B(  7-C , 10-H ) :   0.7287 B(  7-C , 11-H ) :   0.5894 B(  7-C , 12-H ) :   0.6556

Dispersion correction           -0.019530527
FINAL SINGLE POINT ENERGY      -331.386463778031

DIPOLE MOMENT
-------------
                                X             Y             Z
Electronic contribution:      3.80874      -1.79175     -10.38242
Nuclear contribution   :     -3.92885       2.87300      10.61091
                        -----------------------------------------
Total Dipole Moment    :     -0.12011       1.08125       0.22850
                        -----------------------------------------
Magnitude (a.u.)       :      1.11163
Magnitude (Debye)      :      2.82555

Rotational constants in cm-1:     0.209332     0.079487     0.069375
Rotational constants in MHz :  6275.605762  2382.960864  2079.805430

                             ****ORCA TERMINATED NORMALLY****
TOTAL RUN TIME: 0 days 0 hours 0 minutes 6 seconds 890 msec
