                         Program Version 5.0.0 -  RELEASE  -
|  1> !BLYP D3BJ RIJCOSX def2-SVPD def2/J TightSCF
|  2> *xyz 0 1
|  3> C          2.48645       -2.67712       -2.56345
|  4> C          3.03764       -2.36672       -3.92351
|  5> N          2.28036       -2.45441       -4.96769
|  6> C          4.32174       -2.01793       -4.01664
|  7> H          4.87994       -1.91167       -3.17382
|  8> H          4.71015       -1.67088       -4.88356
|  9> H          1.27042       -2.41265       -4.86614
| 10> H          2.58183       -2.05528       -5.84688
| 11> C          2.49799       -1.46946       -1.61030
| 12> C          1.58284       -0.32199       -2.04262
| 13> H          2.19308       -1.83391       -0.62542
| 14> H          3.52336       -1.10398       -1.49039
| 15> H          1.47259       -3.05153       -2.69437
| 16> H          3.08320       -3.49064       -2.14147
| 17> H          1.88480        0.03130       -3.00642
| 18> H          1.65140        0.47571       -1.33278
| 19> H          0.57235       -0.67052       -2.09099
| 20> *
| 21>
| 22> %MaxCore 64000
| 23>
| 24> %pal nprocs 4
| 25> end
| 26>
| 27> %scf
| 28>   MaxIter 150
| 29> end
| 30>
| 31>
| 32>                          ****END OF INPUT****

CARTESIAN COORDINATES (ANGSTROEM)
---------------------------------
  C      2.486450   -2.677120   -2.563450
  C      3.037640   -2.366720   -3.923510
  N      2.280360   -2.454410   -4.967690
  C      4.321740   -2.017930   -4.016640
  H      4.879940   -1.911670   -3.173820
  H      4.710150   -1.670880   -4.883560
  H      1.270420   -2.412650   -4.866140
  H      2.581830   -2.055280   -5.846880
  C      2.497990   -1.469460   -1.610300
  C      1.582840   -0.321990   -2.042620
  H      2.193080   -1.833910   -0.625420
  H      3.523360   -1.103980   -1.490390
  H      1.472590   -3.051530   -2.694370
  H      3.083200   -3.490640   -2.141470
  H      1.884800    0.031300   -3.006420
  H      1.651400    0.475710   -1.332780
  H      0.572350   -0.670520   -2.090990

 Total Charge           Charge          ....    0
 Multiplicity           Mult            ....    1
 Number of Electrons    NEL             ....   48
 Basis Dimension        Dim             ....  208

ORBITAL ENERGIES
----------------

  NO   OCC          E(Eh)            E(eV)
   0   2.0000     -14.030964      -381.8019
   1   2.0000      -9.938648      -270.4444
   2   2.0000      -9.919726      -269.9295
   3   2.0000      -9.917902      -269.8798
   4   2.0000      -9.905518      -269.5429
   5   2.0000      -9.855449      -268.1804
   6   2.0000      -0.845614       -23.0103
   7   2.0000      -0.708104       -19.2685
   8   2.0000      -0.648843       -17.6559
   9   2.0000      -0.603443       -16.4205
  10   2.0000      -0.541221       -14.7274
  11   2.0000      -0.501814       -13.6550
  12   2.0000      -0.463971       -12.6253
  13   2.0000      -0.429814       -11.6958
  14   2.0000      -0.399679       -10.8758
  15   2.0000      -0.381343       -10.3769
  16   2.0000      -0.353751        -9.6260
  17   2.0000      -0.343074        -9.3355
  18   2.0000      -0.322502        -8.7757
  19   2.0000      -0.313463        -8.5298
  20   2.0000      -0.293569        -7.9884
  21   2.0000      -0.284275        -7.7355
  22   2.0000      -0.282816        -7.6958
  23   2.0000      -0.154013        -4.1909
  24   0.0000      -0.003635        -0.0989
  25   0.0000       0.006083         0.1655
  26   0.0000       0.025953         0.7062
  27   0.0000       0.032838         0.8936
  28   0.0000       0.043417         1.1814

MULLIKEN ATOMIC CHARGES
-----------------------
   0 C :    0.756678
   1 C :   -0.218567
   2 N :    0.397877
   3 C :    0.657138
   4 H :   -0.251865
   5 H :   -0.666094
   6 H :   -0.130757
   7 H :   -0.195311
   8 C :   -0.171032
   9 C :    1.131719
  10 H :   -0.232147
  11 H :   -0.200052
  12 H :   -0.207463
  13 H :   -0.124727
  14 H :   -0.199215
  15 H :   -0.247653
  16 H :   -0.098530
Sum of atomic charges:    0.0000000

LOEWDIN ATOMIC CHARGES
----------------------
   0 C :    0.015277
   1 C :   -0.269479
   2 N :    0.191108
   3 C :    0.192104
   4 H :   -0.089051
   5 H :   -0.096399
   6 H :   -0.002541
   7 H :    0.005146
   8 C :   -0.055983
   9 C :    0.138112
  10 H :    0.012059
  11 H :    0.009878
  12 H :    0.005675
  13 H :    0.023664
  14 H :   -0.028412
  15 H :   -0.025314
  16 H :   -0.025842

  Mayer bond orders larger than 0.100000
B(  0-C ,  1-C ) :   1.0381 B(  0-C ,  2-N ) :   0.1389 B(  0-C ,  3-C ) :   0.1838
B(  0-C ,  8-C ) :   1.1509 B(  0-C , 10-H ) :   0.1372 B(  0-C , 11-H ) :   0.1709
B(  0-C , 12-H ) :   0.4705 B(  0-C , 13-H ) :   0.6848 B(  1-C ,  2-N ) :   1.0930
B(  1-C ,  3-C ) :   1.5962 B(  1-C ,  4-H ) :   0.1097 B(  1-C ,  5-H ) :   0.1846
B(  1-C , 12-H ) :   0.3592 B(  1-C , 13-H ) :   0.1843 B(  2-N ,  3-C ) :   0.3448
B(  2-N ,  6-H ) :   0.9852 B(  2-N ,  7-H ) :   1.0909 B(  3-C ,  4-H ) :   0.7104
B(  3-C ,  5-H ) :   0.5894 B(  4-H ,  5-H ) :  -0.1054 B(  6-H ,  7-H ) :  -0.1256
B(  8-C ,  9-C ) :   1.3266 B(  8-C , 10-H ) :   0.8423 B(  8-C , 11-H ) :   0.8374
B(  8-C , 12-H ) :   0.2414 B(  8-C , 13-H ) :   0.1552 B(  8-C , 14-H ) :   0.3044
B(  8-C , 15-H ) :   0.3012 B(  8-C , 16-H ) :   0.2867 B(  9-C , 10-H ) :   0.1119
B(  9-C , 11-H ) :   0.1209 B(  9-C , 14-H ) :   0.7210 B(  9-C , 15-H ) :   0.6340
B(  9-C , 16-H ) :   0.6852

Dispersion correction           -0.028585235
FINAL SINGLE POINT ENERGY      -251.584820099990

DIPOLE MOMENT
-------------
                                X             Y             Z
Electronic contribution:      0.71649      -2.42744      -2.97060
Nuclear contribution   :     -1.44240       2.61248       2.79453
                        -----------------------------------------
Total Dipole Moment    :     -0.72590       0.18504      -0.17607
                        -----------------------------------------
Magnitude (a.u.)       :      0.76953
Magnitude (Debye)      :      1.95599

Rotational constants in cm-1:     0.182540     0.078634     0.071436
Rotational constants in MHz :  5472.425685  2357.397154  2141.608207

                             ****ORCA TERMINATED NORMALLY****
TOTAL RUN TIME: 0 days 0 hours 0 minutes 8 seconds 708 msec
