                         Program Version 5.0.0 -  RELEASE  -
|  1> !BLYP D3BJ RIJCOSX def2-SVPD def2/J TightSCF xyzfile
|  2>
|  3> *xyzfile 0 1 D1.xyz
|  4>
|  5> %MaxCore 64000
|  6>
|  7> %pal nprocs 4
|  8> end
|  9>
| 10> %scf
| 11>   MaxIter 150
| 12> end
| 13>
| 14>
| 15>                          ****END OF INPUT****

CARTESIAN COORDINATES (ANGSTROEM)
---------------------------------
  C      2.486452   -2.677121   -2.563447
  C     -0.870963    0.248043   -2.662804
  C     -0.477492    0.608191   -4.101052
  H      0.206773    1.458299   -4.118748
  H     -1.368442    0.929419   -4.647855
  C      0.184673   -0.506640   -4.916760
  C      3.037640   -2.366715   -3.923509
  C      2.280360   -2.454408   -4.967692
  N      4.321736   -2.017932   -4.016641
  H      4.879940   -1.911668   -3.173823
  H      4.710148   -1.670882   -4.883561
  H      1.270423   -2.412650   -4.866143
  H      2.581829   -2.055282   -5.846878
  F     -0.158685   -1.701088   -4.657981
  O      1.055938   -0.174410   -5.740373
  C      2.497991   -1.469464   -1.610303
  C      1.582841   -0.321986   -2.042619
  H      2.193083   -1.833912   -0.625420
  H      3.523356   -1.103982   -1.490392
  C      0.100160   -0.673551   -1.915815
  H      1.822311   -0.040361   -3.072834
  H      1.813180    0.557019   -1.433266
  H     -0.063284   -1.679120   -2.301112
  H     -0.168820   -0.691680   -0.853831
  H     -1.001048    1.181040   -2.104071
  H     -1.844645   -0.246592   -2.663281
  H      1.472592   -3.051527   -2.694366
  H      3.083201   -3.490638   -2.141472

 Total Charge           Charge          ....    0
 Multiplicity           Mult            ....    1
 Number of Electrons    NEL             ....   94
 Basis Dimension        Dim             ....  374

ORBITAL ENERGIES
----------------

  NO   OCC          E(Eh)            E(eV)
   0   2.0000     -24.372173      -663.2005
   1   2.0000     -18.796605      -511.4816
   2   2.0000     -14.015690      -381.3863
   3   2.0000     -10.093449      -274.6567
   4   2.0000      -9.949861      -270.7495
   5   2.0000      -9.934952      -270.3438
   6   2.0000      -9.923847      -270.0416
   7   2.0000      -9.923409      -270.0297
   8   2.0000      -9.920555      -269.9520
   9   2.0000      -9.919643      -269.9272
  10   2.0000      -9.914323      -269.7824
  11   2.0000      -9.833370      -267.5796
  12   2.0000      -1.194600       -32.5067
  13   2.0000      -0.936819       -25.4921
  14   2.0000      -0.819599       -22.3024
  15   2.0000      -0.739383       -20.1196
  16   2.0000      -0.706918       -19.2362
  17   2.0000      -0.661523       -18.0010
  18   2.0000      -0.640539       -17.4299
  19   2.0000      -0.600475       -16.3398
  20   2.0000      -0.585306       -15.9270
  21   2.0000      -0.547226       -14.8908
  22   2.0000      -0.514483       -13.9998
  23   2.0000      -0.507419       -13.8076
  24   2.0000      -0.485674       -13.2159
  25   2.0000      -0.474974       -12.9247
  26   2.0000      -0.454135       -12.3576
  27   2.0000      -0.432656       -11.7732
  28   2.0000      -0.425375       -11.5750
  29   2.0000      -0.416165       -11.3244
  30   2.0000      -0.404333       -11.0025
  31   2.0000      -0.390541       -10.6271
  32   2.0000      -0.379488       -10.3264
  33   2.0000      -0.359594        -9.7850
  34   2.0000      -0.355788        -9.6815
  35   2.0000      -0.340998        -9.2790
  36   2.0000      -0.329330        -8.9615
  37   2.0000      -0.326680        -8.8894
  38   2.0000      -0.311334        -8.4718
  39   2.0000      -0.306484        -8.3399
  40   2.0000      -0.296761        -8.0753
  41   2.0000      -0.290333        -7.9004
  42   2.0000      -0.277149        -7.5416
  43   2.0000      -0.269734        -7.3398
  44   2.0000      -0.267244        -7.2721
  45   2.0000      -0.239226        -6.5097
  46   2.0000      -0.147883        -4.0241
  47   0.0000      -0.065630        -1.7859
  48   0.0000      -0.006912        -0.1881
  49   0.0000       0.002484         0.0676
  50   0.0000       0.014768         0.4018
  51   0.0000       0.020381         0.5546

MULLIKEN ATOMIC CHARGES
-----------------------
   0 C :    0.597149
   1 C :    0.857707
   2 C :    0.565641
   3 H :    0.078481
   4 H :   -0.474406
   5 C :    0.246686
   6 C :   -0.321116
   7 C :    1.452487
   8 N :    0.486908
   9 H :   -0.179831
  10 H :   -0.265441
  11 H :   -0.667357
  12 H :   -0.564289
  13 F :   -0.571246
  14 O :   -0.369327
  15 C :    0.633002
  16 C :    0.525281
  17 H :   -0.254825
  18 H :   -0.232137
  19 C :    0.295270
  20 H :   -0.274556
  21 H :   -0.335666
  22 H :   -0.173487
  23 H :   -0.324288
  24 H :   -0.274667
  25 H :   -0.111035
  26 H :   -0.004541
  27 H :   -0.340397
Sum of atomic charges:   -0.0000000

LOEWDIN ATOMIC CHARGES
----------------------
   0 C :    0.030402
   1 C :   -0.008848
   2 C :    0.066581
   3 H :    0.031497
   4 H :    0.032993
   5 C :   -0.027548
   6 C :   -0.244404
   7 C :    0.186371
   8 N :    0.200772
   9 H :   -0.015081
  10 H :   -0.001055
  11 H :   -0.142610
  12 H :   -0.076070
  13 F :   -0.033121
  14 O :   -0.092360
  15 C :   -0.010551
  16 C :   -0.004075
  17 H :    0.016055
  18 H :    0.005525
  19 C :   -0.017622
  20 H :    0.004713
  21 H :    0.021699
  22 H :   -0.009730
  23 H :    0.023600
  24 H :    0.019516
  25 H :    0.017855
  26 H :    0.005983
  27 H :    0.019510

  Mayer bond orders larger than 0.100000
B(  0-C ,  6-C ) :   1.2025 B(  0-C ,  7-C ) :   0.1947 B(  0-C ,  8-N ) :   0.1480
B(  0-C , 15-C ) :   1.0439 B(  0-C , 16-C ) :   0.1779 B(  0-C , 17-H ) :   0.2563
B(  0-C , 18-H ) :   0.2600 B(  0-C , 20-H ) :  -0.1076 B(  0-C , 26-H ) :   0.6704
B(  0-C , 27-H ) :   0.6544 B(  1-C ,  2-C ) :   1.1212 B(  1-C ,  3-H ) :   0.1070
B(  1-C ,  4-H ) :   0.1525 B(  1-C , 19-C ) :   1.2496 B(  1-C , 22-H ) :   0.1239
B(  1-C , 23-H ) :   0.1282 B(  1-C , 24-H ) :   0.5956 B(  1-C , 25-H ) :   0.5215
B(  2-C ,  3-H ) :   0.7157 B(  2-C ,  4-H ) :   0.5346 B(  2-C ,  5-C ) :   1.1766
B(  2-C , 14-O ) :   0.1128 B(  2-C , 19-C ) :   0.1850 B(  2-C , 24-H ) :   0.1757
B(  3-H ,  4-H ) :  -0.1384 B(  3-H ,  5-C ) :   0.2906 B(  4-H ,  5-C ) :   0.3500
B(  4-H , 20-H ) :  -0.1135 B(  5-C , 13-F ) :   0.7037 B(  5-C , 14-O ) :   1.8790
B(  6-C ,  7-C ) :   1.8060 B(  6-C ,  8-N ) :   1.2327 B(  6-C , 11-H ) :   0.2649
B(  6-C , 12-H ) :   0.5826 B(  6-C , 15-C ) :   0.2546 B(  6-C , 20-H ) :   0.1286
B(  6-C , 26-H ) :   0.2442 B(  6-C , 27-H ) :   0.2615 B(  7-C ,  8-N ) :   0.4922
B(  7-C , 12-H ) :  -0.2207 B(  7-C , 26-H ) :  -0.1836 B(  8-N ,  9-H ) :   1.1324
B(  8-N , 10-H ) :   1.1490 B(  9-H , 10-H ) :  -0.1738 B( 11-H , 12-H ) :   0.3352
B( 11-H , 13-F ) :   0.2970 B( 13-F , 14-O ) :   0.1493 B( 15-C , 16-C ) :   1.1756
B( 15-C , 17-H ) :   0.7005 B( 15-C , 18-H ) :   0.5140 B( 15-C , 20-H ) :   0.2175
B( 15-C , 21-H ) :   0.1337 B( 15-C , 26-H ) :   0.2000 B( 15-C , 27-H ) :   0.1212
B( 16-C , 18-H ) :   0.3030 B( 16-C , 19-C ) :   1.1601 B( 16-C , 20-H ) :   0.6928
B( 16-C , 21-H ) :   0.6556 B( 16-C , 22-H ) :   0.1624 B( 16-C , 23-H ) :   0.2818
B( 16-C , 26-H ) :  -0.1394 B( 17-H , 18-H ) :  -0.1412 B( 19-C , 20-H ) :   0.1935
B( 19-C , 21-H ) :   0.1291 B( 19-C , 22-H ) :   0.7392 B( 19-C , 23-H ) :   0.6315
B( 19-C , 24-H ) :   0.2483 B( 19-C , 25-H ) :   0.2962 B( 20-H , 27-H ) :  -0.1177
B( 21-H , 27-H ) :   0.1284 B( 22-H , 26-H ) :   0.1599 B( 24-H , 25-H ) :  -0.1651

Dispersion correction           -0.062651078
FINAL SINGLE POINT ENERGY      -581.768527555242

DIPOLE MOMENT
-------------
                                X             Y             Z
Electronic contribution:     -3.66336      -1.65156     -10.27657
Nuclear contribution   :      3.32973       2.37270      11.37738
                        -----------------------------------------
Total Dipole Moment    :     -0.33363       0.72114       1.10081
                        -----------------------------------------
Magnitude (a.u.)       :      1.35762
Magnitude (Debye)      :      3.45081

Rotational constants in cm-1:     0.040902     0.025807     0.019036
Rotational constants in MHz :  1226.202138   773.670450   570.681201

                             ****ORCA TERMINATED NORMALLY****
TOTAL RUN TIME: 0 days 0 hours 0 minutes 35 seconds 316 msec
