                         Program Version 5.0.0 -  RELEASE  -
|  1> !BLYP D3BJ RIJCOSX def2-SVPD def2/J TightSCF xyzfile
|  2>
|  3> *xyzfile 0 1 D3.xyz
|  4>
|  5> %MaxCore 64000
|  6>
|  7> %pal nprocs 4
|  8> end
|  9>
| 10> %scf
| 11>   MaxIter 150
| 12> end
| 13>
| 14>
| 15>                          ****END OF INPUT****

CARTESIAN COORDINATES (ANGSTROEM)
---------------------------------
  C      2.486452   -2.677121   -2.563447
  C     -0.870963    0.248043   -2.662804
  C     -0.477492    0.608191   -4.101052
  H      0.206773    1.458299   -4.118748
  H     -1.368442    0.929419   -4.647855
  C      0.184673   -0.506640   -4.916760
  C      3.037640   -2.366715   -3.923509
  C      2.280360   -2.454408   -4.967692
  N      4.321736   -2.017932   -4.016641
  H      4.879940   -1.911668   -3.173823
  H      4.710148   -1.670882   -4.883561
  H      1.270423   -2.412650   -4.866143
  H      2.581829   -2.055282   -5.846878
  O     -0.158685   -1.701088   -4.657981
  F      1.055938   -0.174410   -5.740373
  C      2.497991   -1.469464   -1.610303
  C      1.582841   -0.321986   -2.042619
  H      2.193083   -1.833912   -0.625420
  H      3.523356   -1.103982   -1.490392
  C      0.100160   -0.673551   -1.915815
  H      1.822311   -0.040361   -3.072834
  H      1.813180    0.557019   -1.433266
  H     -0.063284   -1.679120   -2.301112
  H     -0.168820   -0.691680   -0.853831
  H     -1.001048    1.181040   -2.104071
  H     -1.844645   -0.246592   -2.663281
  H      1.472592   -3.051527   -2.694366
  H      3.083201   -3.490638   -2.141472

 Total Charge           Charge          ....    0
 Multiplicity           Mult            ....    1
 Number of Electrons    NEL             ....   94
 Basis Dimension        Dim             ....  374

ORBITAL ENERGIES
----------------

  NO   OCC          E(Eh)            E(eV)
   0   2.0000     -24.378678      -663.3776
   1   2.0000     -18.794966      -511.4370
   2   2.0000     -14.014614      -381.3570
   3   2.0000     -10.097457      -274.7658
   4   2.0000      -9.952009      -270.8079
   5   2.0000      -9.932112      -270.2665
   6   2.0000      -9.921633      -269.9814
   7   2.0000      -9.917893      -269.8796
   8   2.0000      -9.917687      -269.8740
   9   2.0000      -9.915067      -269.8027
  10   2.0000      -9.909455      -269.6500
  11   2.0000      -9.826280      -267.3867
  12   2.0000      -1.204956       -32.7885
  13   2.0000      -0.931508       -25.3476
  14   2.0000      -0.818342       -22.2682
  15   2.0000      -0.734291       -19.9811
  16   2.0000      -0.704341       -19.1661
  17   2.0000      -0.659804       -17.9542
  18   2.0000      -0.638123       -17.3642
  19   2.0000      -0.603048       -16.4098
  20   2.0000      -0.581486       -15.8230
  21   2.0000      -0.543474       -14.7887
  22   2.0000      -0.510610       -13.8944
  23   2.0000      -0.500501       -13.6193
  24   2.0000      -0.487712       -13.2713
  25   2.0000      -0.465264       -12.6605
  26   2.0000      -0.459446       -12.5022
  27   2.0000      -0.448702       -12.2098
  28   2.0000      -0.422727       -11.5030
  29   2.0000      -0.415674       -11.3111
  30   2.0000      -0.400188       -10.8897
  31   2.0000      -0.388641       -10.5755
  32   2.0000      -0.380820       -10.3626
  33   2.0000      -0.354184        -9.6378
  34   2.0000      -0.348757        -9.4902
  35   2.0000      -0.342759        -9.3270
  36   2.0000      -0.331504        -9.0207
  37   2.0000      -0.319747        -8.7007
  38   2.0000      -0.312687        -8.5087
  39   2.0000      -0.308385        -8.3916
  40   2.0000      -0.291454        -7.9309
  41   2.0000      -0.285474        -7.7681
  42   2.0000      -0.274986        -7.4828
  43   2.0000      -0.268734        -7.3126
  44   2.0000      -0.266498        -7.2518
  45   2.0000      -0.220193        -5.9917
  46   2.0000      -0.146788        -3.9943
  47   0.0000      -0.069993        -1.9046
  48   0.0000      -0.005084        -0.1384
  49   0.0000       0.004204         0.1144
  50   0.0000       0.013352         0.3633
  51   0.0000       0.022748         0.6190

MULLIKEN ATOMIC CHARGES
-----------------------
   0 C :    0.605219
   1 C :    0.862597
   2 C :    0.560902
   3 H :    0.088930
   4 H :   -0.473674
   5 C :    0.308980
   6 C :   -0.348150
   7 C :    1.368268
   8 N :    0.489409
   9 H :   -0.177722
  10 H :   -0.265775
  11 H :   -0.598673
  12 H :   -0.585980
  13 O :   -0.632986
  14 F :   -0.334193
  15 C :    0.611246
  16 C :    0.476871
  17 H :   -0.249859
  18 H :   -0.241075
  19 C :    0.274425
  20 H :   -0.240630
  21 H :   -0.339762
  22 H :   -0.138357
  23 H :   -0.351118
  24 H :   -0.272525
  25 H :   -0.074196
  26 H :    0.011922
  27 H :   -0.334094
Sum of atomic charges:    0.0000000

LOEWDIN ATOMIC CHARGES
----------------------
   0 C :    0.034422
   1 C :    0.001969
   2 C :    0.058841
   3 H :    0.020963
   4 H :    0.033323
   5 C :   -0.009574
   6 C :   -0.245671
   7 C :    0.185519
   8 N :    0.196040
   9 H :   -0.016314
  10 H :   -0.004941
  11 H :   -0.172538
  12 H :   -0.078006
  13 O :   -0.109313
  14 F :    0.007694
  15 C :   -0.010149
  16 C :   -0.007021
  17 H :    0.016968
  18 H :    0.004006
  19 C :   -0.014030
  20 H :    0.001114
  21 H :    0.019907
  22 H :   -0.009526
  23 H :    0.023384
  24 H :    0.019991
  25 H :    0.022919
  26 H :    0.010866
  27 H :    0.019157

  Mayer bond orders larger than 0.100000
B(  0-C ,  6-C ) :   1.2271 B(  0-C ,  7-C ) :   0.1952 B(  0-C ,  8-N ) :   0.1504
B(  0-C , 15-C ) :   1.0454 B(  0-C , 16-C ) :   0.1802 B(  0-C , 17-H ) :   0.2582
B(  0-C , 18-H ) :   0.2570 B(  0-C , 20-H ) :  -0.1173 B(  0-C , 26-H ) :   0.6812
B(  0-C , 27-H ) :   0.6330 B(  1-C ,  2-C ) :   1.1396 B(  1-C ,  3-H ) :   0.1370
B(  1-C ,  4-H ) :   0.1733 B(  1-C , 19-C ) :   1.2509 B(  1-C , 22-H ) :   0.1157
B(  1-C , 23-H ) :   0.1105 B(  1-C , 24-H ) :   0.5729 B(  1-C , 25-H ) :   0.5138
B(  2-C ,  3-H ) :   0.7316 B(  2-C ,  4-H ) :   0.4983 B(  2-C ,  5-C ) :   1.1962
B(  2-C , 14-F ) :   0.1006 B(  2-C , 19-C ) :   0.1990 B(  2-C , 24-H ) :   0.1969
B(  2-C , 25-H ) :   0.1031 B(  3-H ,  4-H ) :  -0.1475 B(  3-H ,  5-C ) :   0.2084
B(  4-H ,  5-C ) :   0.3710 B(  4-H , 20-H ) :  -0.1152 B(  5-C , 13-O ) :   1.7625
B(  5-C , 14-F ) :   0.7723 B(  5-C , 22-H ) :   0.1077 B(  6-C ,  7-C ) :   1.8313
B(  6-C ,  8-N ) :   1.2362 B(  6-C , 11-H ) :   0.2389 B(  6-C , 12-H ) :   0.5742
B(  6-C , 15-C ) :   0.2539 B(  6-C , 20-H ) :   0.1282 B(  6-C , 26-H ) :   0.2361
B(  6-C , 27-H ) :   0.2712 B(  7-C ,  8-N ) :   0.4864 B(  7-C , 11-H ) :   0.1406
B(  7-C , 12-H ) :  -0.2011 B(  7-C , 26-H ) :  -0.1788 B(  8-N ,  9-H ) :   1.1293
B(  8-N , 10-H ) :   1.1463 B(  9-H , 10-H ) :  -0.1730 B( 11-H , 12-H ) :   0.3277
B( 11-H , 13-O ) :   0.2300 B( 12-H , 20-H ) :  -0.1055 B( 13-O , 14-F ) :   0.1257
B( 15-C , 16-C ) :   1.1736 B( 15-C , 17-H ) :   0.6985 B( 15-C , 18-H ) :   0.5151
B( 15-C , 20-H ) :   0.2184 B( 15-C , 21-H ) :   0.1409 B( 15-C , 26-H ) :   0.2017
B( 15-C , 27-H ) :   0.1286 B( 16-C , 18-H ) :   0.3067 B( 16-C , 19-C ) :   1.1721
B( 16-C , 20-H ) :   0.7112 B( 16-C , 21-H ) :   0.6676 B( 16-C , 22-H ) :   0.1610
B( 16-C , 23-H ) :   0.2867 B( 16-C , 26-H ) :  -0.1333 B( 17-H , 18-H ) :  -0.1427
B( 19-C , 20-H ) :   0.1734 B( 19-C , 21-H ) :   0.1300 B( 19-C , 22-H ) :   0.7623
B( 19-C , 23-H ) :   0.6243 B( 19-C , 24-H ) :   0.2587 B( 19-C , 25-H ) :   0.3053
B( 20-H , 27-H ) :  -0.1075 B( 21-H , 27-H ) :   0.1256 B( 22-H , 26-H ) :   0.1487
B( 24-H , 25-H ) :  -0.1713

Dispersion correction           -0.062979504
FINAL SINGLE POINT ENERGY      -581.764054636605

DIPOLE MOMENT
-------------
                                X             Y             Z
Electronic contribution:     -1.73065       0.85894     -12.11720
Nuclear contribution   :      1.88979       0.56282      12.66056
                        -----------------------------------------
Total Dipole Moment    :      0.15913       1.42176       0.54336
                        -----------------------------------------
Magnitude (a.u.)       :      1.53035
Magnitude (Debye)      :      3.88984

Rotational constants in cm-1:     0.040271     0.025954     0.018866
Rotational constants in MHz :  1207.302496   778.083475   565.600538

                             ****ORCA TERMINATED NORMALLY****
TOTAL RUN TIME: 0 days 0 hours 0 minutes 39 seconds 273 msec
