                         Program Version 5.0.0 -  RELEASE  -
|  1> !DLPNO-CCSD(T) aug-cc-pVTZ aug-cc-pVTZ/C TightSCF TightPNO RIJCOSX def2/J
|  2> *xyz -1 1
|  3> C          4.93020       -7.37532       -2.64962
|  4> C          3.84189       -6.95161       -3.63283
|  5> H          3.45814       -5.95442       -3.40712
|  6> H          2.98848       -7.64361       -3.56708
|  7> S          4.31812       -6.91593       -5.36869
|  8> O          5.40615       -5.89948       -5.51297
|  9> O          3.11191       -6.44508       -6.04379
| 10> C          6.17399       -6.48552       -2.60631
| 11> H          4.46961       -7.40617       -1.65588
| 12> H          5.23013       -8.39868       -2.88591
| 13> O          4.76340       -8.23942       -5.69863
| 14> H          6.62449       -6.45478       -3.57637
| 15> H          6.87304       -6.88376       -1.90088
| 16> H          5.89434       -5.49571       -2.31140
| 17> *
| 18>
| 19> %MaxCore 64000
| 20>
| 21> %pal nprocs 2
| 22> end
| 23>
| 24> %scf
| 25>   MaxIter 150
| 26> end
| 27>
| 28>
| 29>                          ****END OF INPUT****

CARTESIAN COORDINATES (ANGSTROEM)
---------------------------------
  C      4.930200   -7.375320   -2.649620
  C      3.841890   -6.951610   -3.632830
  H      3.458140   -5.954420   -3.407120
  H      2.988480   -7.643610   -3.567080
  S      4.318120   -6.915930   -5.368690
  O      5.406150   -5.899480   -5.512970
  O      3.111910   -6.445080   -6.043790
  C      6.173990   -6.485520   -2.606310
  H      4.469610   -7.406170   -1.655880
  H      5.230130   -8.398680   -2.885910
  O      4.763400   -8.239420   -5.698630
  H      6.624490   -6.454780   -3.576370
  H      6.873040   -6.883760   -1.900880
  H      5.894340   -5.495710   -2.311400

 Total Charge           Charge          ....   -1
 Multiplicity           Mult            ....    1
 Number of Electrons    NEL             ....   66
 Basis Dimension        Dim             ....  487

ORBITAL ENERGIES
----------------

  NO   OCC          E(Eh)            E(eV)
   0   2.0000     -91.985831     -2503.0617
   1   2.0000     -20.339285      -553.4601
   2   2.0000     -20.328682      -553.1716
   3   2.0000     -20.321384      -552.9730
   4   2.0000     -11.098781      -302.0132
   5   2.0000     -11.097957      -301.9908
   6   2.0000     -11.074666      -301.3570
   7   2.0000      -8.948991      -243.5144
   8   2.0000      -6.635052      -180.5489
   9   2.0000      -6.633886      -180.5172
  10   2.0000      -6.633759      -180.5138
  11   2.0000      -1.272427       -34.6245
  12   2.0000      -1.132433       -30.8151
  13   2.0000      -1.100608       -29.9491
  14   2.0000      -0.935527       -25.4570
  15   2.0000      -0.821666       -22.3587
  16   2.0000      -0.697961       -18.9925
  17   2.0000      -0.597101       -16.2480
  18   2.0000      -0.513965       -13.9857
  19   2.0000      -0.489430       -13.3181
  20   2.0000      -0.470180       -12.7943
  21   2.0000      -0.453370       -12.3368
  22   2.0000      -0.445055       -12.1106
  23   2.0000      -0.422571       -11.4987
  24   2.0000      -0.375981       -10.2310
  25   2.0000      -0.361594        -9.8395
  26   2.0000      -0.349999        -9.5240
  27   2.0000      -0.323428        -8.8009
  28   2.0000      -0.319440        -8.6924
  29   2.0000      -0.280980        -7.6458
  30   2.0000      -0.264594        -7.2000
  31   2.0000      -0.248483        -6.7616
  32   2.0000      -0.229805        -6.2533
  33   0.0000       0.108901         2.9633
  34   0.0000       0.119008         3.2384
  35   0.0000       0.127512         3.4698
  36   0.0000       0.141195         3.8421
  37   0.0000       0.145644         3.9632

MULLIKEN ATOMIC CHARGES
-----------------------
   0 C :   -0.485196
   1 C :   -0.492170
   2 H :    0.261400
   3 H :    0.251247
   4 S :    2.170171
   5 O :   -1.041406
   6 O :   -1.049851
   7 C :   -1.000082
   8 H :    0.256414
   9 H :    0.261182
  10 O :   -1.065446
  11 H :    0.404342
  12 H :    0.268522
  13 H :    0.260871
Sum of atomic charges:   -1.0000000

LOEWDIN ATOMIC CHARGES
----------------------
   0 C :    0.205217
   1 C :    0.131370
   2 H :   -0.204423
   3 H :   -0.196536
   4 S :   -0.378085
   5 O :   -0.053026
   6 O :   -0.064140
   7 C :    0.567701
   8 H :   -0.166434
   9 H :   -0.168607
  10 O :   -0.040730
  11 H :   -0.244592
  12 H :   -0.199019
  13 H :   -0.188696

  Mayer bond orders larger than 0.100000
B(  0-C ,  1-C ) :   0.9020 B(  0-C ,  4-S ) :   0.1156 B(  0-C ,  7-C ) :   0.8138
B(  0-C ,  8-H ) :   0.9588 B(  0-C ,  9-H ) :   0.9470 B(  1-C ,  2-H ) :   0.9380
B(  1-C ,  3-H ) :   0.9427 B(  1-C ,  4-S ) :   0.7821 B(  4-S ,  5-O ) :   1.3185
B(  4-S ,  6-O ) :   1.2952 B(  4-S , 10-O ) :   1.3648 B(  7-C , 11-H ) :   0.8462
B(  7-C , 12-H ) :   0.9843 B(  7-C , 13-H ) :   0.9760

E(0)                                       ...   -739.969124351
E(0)                                       ...   -739.969124351
E(CORR)(strong-pairs)                      ...     -1.491264634
E(CORR)(weak-pairs)                        ...     -0.001561138
E(CORR)(corrected)                         ...     -1.492825771
E(TOT)                                     ...   -741.461950122
E(CCSD(T))                                 ...   -741.525622620
FINAL SINGLE POINT ENERGY      -741.525622620256

DIPOLE MOMENT
-------------
                                X             Y             Z
Electronic contribution:     -3.09556      -0.32051      -9.99124
Nuclear contribution   :      3.14317       0.05805      12.49367
                        -----------------------------------------
Total Dipole Moment    :      0.04761      -0.26246       2.50243
                        -----------------------------------------
Magnitude (a.u.)       :      2.51661
Magnitude (Debye)      :      6.39672

Rotational constants in cm-1:     0.133431     0.055055     0.052069
Rotational constants in MHz :  4000.170974  1650.506165  1561.001383

                             ****ORCA TERMINATED NORMALLY****
TOTAL RUN TIME: 0 days 1 hours 41 minutes 20 seconds 528 msec
