                         Program Version 5.0.0 -  RELEASE  -
|  1> !DLPNO-CCSD(T) aug-cc-pVTZ aug-cc-pVTZ/C TightSCF TightPNO RIJCOSX def2/J
|  2> *xyz 1 1
|  3> C          5.55821       -1.99291       -6.21505
|  4> C          4.18188       -2.58967       -6.29891
|  5> N          3.14587       -1.76843       -6.48675
|  6> N          4.01910       -3.86431       -6.22743
|  7> H          4.76849       -4.59115       -5.99077
|  8> H          3.12241       -4.33339       -6.31462
|  9> H          3.28164       -0.77779       -6.56655
| 10> H          2.21255       -2.13419       -6.56225
| 11> C          6.41926       -2.54294       -5.07763
| 12> C          5.89651       -2.16931       -3.69455
| 13> H          7.42888       -2.14367       -5.20808
| 14> H          6.50589       -3.62754       -5.17550
| 15> H          6.03683       -2.19819       -7.17685
| 16> H          5.46761       -0.90737       -6.12797
| 17> H          5.81870       -1.10488       -3.61824
| 18> H          6.57185       -2.53200       -2.94804
| 19> H          4.93221       -2.60892       -3.54698
| 20> *
| 21>
| 22> %MaxCore 64000
| 23>
| 24> %pal nprocs 2
| 25> end
| 26>
| 27> %scf
| 28>   MaxIter 150
| 29> end
| 30>
| 31>
| 32>                          ****END OF INPUT****

CARTESIAN COORDINATES (ANGSTROEM)
---------------------------------
  C      5.558210   -1.992910   -6.215050
  C      4.181880   -2.589670   -6.298910
  N      3.145870   -1.768430   -6.486750
  N      4.019100   -3.864310   -6.227430
  H      4.768490   -4.591150   -5.990770
  H      3.122410   -4.333390   -6.314620
  H      3.281640   -0.777790   -6.566550
  H      2.212550   -2.134190   -6.562250
  C      6.419260   -2.542940   -5.077630
  C      5.896510   -2.169310   -3.694550
  H      7.428880   -2.143670   -5.208080
  H      6.505890   -3.627540   -5.175500
  H      6.036830   -2.198190   -7.176850
  H      5.467610   -0.907370   -6.127970
  H      5.818700   -1.104880   -3.618240
  H      6.571850   -2.532000   -2.948040
  H      4.932210   -2.608920   -3.546980

 Total Charge           Charge          ....    1
 Multiplicity           Mult            ....    1
 Number of Electrons    NEL             ....   48
 Basis Dimension        Dim             ....  529

ORBITAL ENERGIES
----------------

  NO   OCC          E(Eh)            E(eV)
   0   2.0000     -15.810087      -430.2143
   1   2.0000     -15.797468      -429.8710
   2   2.0000     -11.567731      -314.7740
   3   2.0000     -11.419103      -310.7296
   4   2.0000     -11.384168      -309.7790
   5   2.0000     -11.346190      -308.7455
   6   2.0000      -1.519068       -41.3359
   7   2.0000      -1.397770       -38.0353
   8   2.0000      -1.246982       -33.9321
   9   2.0000      -1.138542       -30.9813
  10   2.0000      -1.052697       -28.6453
  11   2.0000      -0.986894       -26.8548
  12   2.0000      -0.952980       -25.9319
  13   2.0000      -0.922436       -25.1008
  14   2.0000      -0.862312       -23.4647
  15   2.0000      -0.815589       -22.1933
  16   2.0000      -0.790428       -21.5086
  17   2.0000      -0.743993       -20.2451
  18   2.0000      -0.730011       -19.8646
  19   2.0000      -0.715792       -19.4777
  20   2.0000      -0.644338       -17.5333
  21   2.0000      -0.640382       -17.4257
  22   2.0000      -0.637376       -17.3439
  23   2.0000      -0.624233       -16.9862
  24   0.0000      -0.095237        -2.5915
  25   0.0000      -0.075163        -2.0453
  26   0.0000      -0.072002        -1.9593
  27   0.0000      -0.062727        -1.7069
  28   0.0000      -0.047665        -1.2970

MULLIKEN ATOMIC CHARGES
-----------------------
   0 C :   -0.004603
   1 C :    0.707340
   2 N :   -0.453311
   3 N :   -0.416714
   4 H :    0.178162
   5 H :    0.146199
   6 H :    0.086994
   7 H :    0.153969
   8 C :   -0.487658
   9 C :   -0.935545
  10 H :    0.306041
  11 H :    0.232491
  12 H :    0.349734
  13 H :    0.254785
  14 H :    0.265833
  15 H :    0.313165
  16 H :    0.303118
Sum of atomic charges:    1.0000000

LOEWDIN ATOMIC CHARGES
----------------------
   0 C :    0.348317
   1 C :   -0.229398
   2 N :    0.958076
   3 N :    0.912503
   4 H :   -0.155689
   5 H :   -0.222577
   6 H :   -0.248687
   7 H :   -0.241150
   8 C :    0.292431
   9 C :    0.627371
  10 H :   -0.123705
  11 H :   -0.154328
  12 H :   -0.116849
  13 H :   -0.134745
  14 H :   -0.169717
  15 H :   -0.162504
  16 H :   -0.179351

  Mayer bond orders larger than 0.100000
B(  0-C ,  1-C ) :   0.3682 B(  0-C ,  2-N ) :  -0.1129 B(  0-C ,  3-N ) :  -0.1072
B(  0-C ,  8-C ) :   0.8527 B(  0-C , 12-H ) :   0.9259 B(  0-C , 13-H ) :   0.9199
B(  1-C ,  2-N ) :   0.9505 B(  1-C ,  3-N ) :   0.9858 B(  1-C ,  8-C ) :   0.1465
B(  2-N ,  3-N ) :  -0.1183 B(  2-N ,  6-H ) :   1.1494 B(  2-N ,  7-H ) :   1.0780
B(  3-N ,  4-H ) :   1.0743 B(  3-N ,  5-H ) :   1.0920 B(  8-C ,  9-C ) :   0.8251
B(  8-C , 10-H ) :   0.9549 B(  8-C , 11-H ) :   0.9554 B(  9-C , 14-H ) :   0.9787
B(  9-C , 15-H ) :   0.9525 B(  9-C , 16-H ) :   0.9258

E(0)                                       ...   -266.687631504
E(0)                                       ...   -266.687631504
E(CORR)(strong-pairs)                      ...     -1.157355438
E(CORR)(weak-pairs)                        ...     -0.001206252
E(CORR)(corrected)                         ...     -1.158561691
E(TOT)                                     ...   -267.846193195
E(CCSD(T))                                 ...   -267.892309212
FINAL SINGLE POINT ENERGY      -267.892309212397

DIPOLE MOMENT
-------------
                                X             Y             Z
Electronic contribution:     -3.96046      -0.93119      -3.71405
Nuclear contribution   :      2.70373       0.48594       2.85544
                        -----------------------------------------
Total Dipole Moment    :     -1.25672      -0.44525      -0.85861
                        -----------------------------------------
Magnitude (a.u.)       :      1.58582
Magnitude (Debye)      :      4.03083

Rotational constants in cm-1:     0.185545     0.074107     0.068805
Rotational constants in MHz :  5562.487769  2221.680591  2062.713441

                             ****ORCA TERMINATED NORMALLY****
TOTAL RUN TIME: 0 days 1 hours 12 minutes 19 seconds 333 msec
