                         Program Version 5.0.0 -  RELEASE  -
|  1> !DLPNO-CCSD(T) aug-cc-pVTZ aug-cc-pVTZ/C TightSCF TightPNO RIJCOSX def2/J
|  2>
|  3> *xyzfile 0 1 B.xyz
|  4>
|  5> %MaxCore 64000
|  6>
|  7> %pal nprocs 18
|  8> end
|  9>
| 10> %scf
| 11>   MaxIter 150
| 12> end
| 13>
| 14>
| 15>                          ****END OF INPUT****

CARTESIAN COORDINATES (ANGSTROEM)
---------------------------------
  C      5.558206   -1.992914   -6.215054
  C      4.930199   -7.375319   -2.649623
  C      3.841892   -6.951611   -3.632829
  H      3.458144   -5.954425   -3.407121
  H      2.988484   -7.643606   -3.567078
  S      4.318115   -6.915930   -5.368692
  C      4.181880   -2.589671   -6.298911
  N      3.145873   -1.768431   -6.486753
  N      4.019102   -3.864307   -6.227427
  H      4.768490   -4.591153   -5.990773
  H      3.122405   -4.333392   -6.314620
  H      3.281635   -0.777786   -6.566549
  H      2.212549   -2.134193   -6.562246
  O      5.406154   -5.899480   -5.512972
  O      3.111910   -6.445079   -6.043792
  C      6.419260   -2.542944   -5.077630
  C      5.872267   -5.002756   -2.427819
  C      6.173994   -6.485522   -2.606315
  H      6.734852   -6.613767   -3.534015
  H      6.821463   -6.831018   -1.793617
  H      4.469612   -7.406168   -1.655876
  H      5.230134   -8.398678   -2.885906
  C      5.896512   -2.169314   -3.694552
  H      7.428880   -2.143665   -5.208078
  H      6.505894   -3.627541   -5.175502
  C      6.807804   -2.623428   -2.551019
  H      4.894708   -2.589732   -3.557501
  H      5.778823   -1.081255   -3.635790
  C      7.111544   -4.122463   -2.520363
  H      7.751615   -2.071393   -2.614406
  H      6.345837   -2.326401   -1.604086
  H      5.362882   -4.828697   -1.471335
  H      5.174429   -4.702577   -3.211298
  H      7.778329   -4.329347   -1.677651
  H      7.673189   -4.402845   -3.417586
  O      4.763396   -8.239424   -5.698629
  H      6.036826   -2.198189   -7.176852
  H      5.467610   -0.907371   -6.127968

 Total Charge           Charge          ....    0
 Multiplicity           Mult            ....    1
 Number of Electrons    NEL             ....  136
 Basis Dimension        Dim             .... 1246

ORBITAL ENERGIES
----------------

  NO   OCC          E(Eh)            E(eV)
   0   2.0000     -92.135962     -2507.1470
   1   2.0000     -20.493599      -557.6592
   2   2.0000     -20.482489      -557.3568
   3   2.0000     -20.475175      -557.1578
   4   2.0000     -15.653095      -425.9424
   5   2.0000     -15.613158      -424.8556
   6   2.0000     -11.406240      -310.3796
   7   2.0000     -11.286712      -307.1270
   8   2.0000     -11.250834      -306.1508
   9   2.0000     -11.238594      -305.8177
  10   2.0000     -11.226385      -305.4855
  11   2.0000     -11.224533      -305.4351
  12   2.0000     -11.213216      -305.1271
  13   2.0000     -11.208142      -304.9891
  14   2.0000     -11.204637      -304.8937
  15   2.0000     -11.197533      -304.7004
  16   2.0000      -9.099537      -247.6110
  17   2.0000      -6.785198      -184.6346
  18   2.0000      -6.784971      -184.6285
  19   2.0000      -6.783979      -184.6015
  20   2.0000      -1.427939       -38.8562
  21   2.0000      -1.358777       -36.9742
  22   2.0000      -1.281229       -34.8640
  23   2.0000      -1.275758       -34.7151
  24   2.0000      -1.234693       -33.5977
  25   2.0000      -1.122779       -30.5524
  26   2.0000      -1.084451       -29.5094
  27   2.0000      -1.055066       -28.7098
  28   2.0000      -1.004594       -27.3364
  29   2.0000      -0.956145       -26.0180
  30   2.0000      -0.909781       -24.7564
  31   2.0000      -0.881021       -23.9738
  32   2.0000      -0.847070       -23.0499
  33   2.0000      -0.805325       -21.9140
  34   2.0000      -0.790795       -21.5186
  35   2.0000      -0.783338       -21.3157
  36   2.0000      -0.768719       -20.9179
  37   2.0000      -0.739302       -20.1174
  38   2.0000      -0.704877       -19.1807
  39   2.0000      -0.670660       -18.2496
  40   2.0000      -0.661674       -18.0051
  41   2.0000      -0.645030       -17.5522
  42   2.0000      -0.640886       -17.4394
  43   2.0000      -0.625360       -17.0169
  44   2.0000      -0.616894       -16.7865
  45   2.0000      -0.605883       -16.4869
  46   2.0000      -0.594917       -16.1885
  47   2.0000      -0.590811       -16.0768
  48   2.0000      -0.584226       -15.8976
  49   2.0000      -0.557032       -15.1576
  50   2.0000      -0.552198       -15.0261
  51   2.0000      -0.547005       -14.8848
  52   2.0000      -0.523297       -14.2396
  53   2.0000      -0.516833       -14.0637
  54   2.0000      -0.508569       -13.8389
  55   2.0000      -0.489042       -13.3075
  56   2.0000      -0.486507       -13.2385
  57   2.0000      -0.477814       -13.0020
  58   2.0000      -0.471948       -12.8424
  59   2.0000      -0.468274       -12.7424
  60   2.0000      -0.457923       -12.4607
  61   2.0000      -0.453184       -12.3318
  62   2.0000      -0.447018       -12.1640
  63   2.0000      -0.435759       -11.8576
  64   2.0000      -0.424944       -11.5633
  65   2.0000      -0.423060       -11.5120
  66   2.0000      -0.393206       -10.6997
  67   2.0000      -0.390754       -10.6329
  68   0.0000       0.002376         0.0646
  69   0.0000       0.019246         0.5237
  70   0.0000       0.023199         0.6313
  71   0.0000       0.029797         0.8108
  72   0.0000       0.036853         1.0028

MULLIKEN ATOMIC CHARGES
-----------------------
   0 C :    0.033047
   1 C :   -0.687711
   2 C :   -0.470877
   3 H :    0.026671
   4 H :    0.409352
   5 S :    2.586995
   6 C :    0.288149
   7 N :   -0.691563
   8 N :   -0.346237
   9 H :    0.662012
  10 H :    0.116673
  11 H :    0.048926
  12 H :    0.085200
  13 O :   -0.961417
  14 O :   -1.162213
  15 C :   -0.583038
  16 C :   -0.518656
  17 C :   -0.428450
  18 H :    0.192561
  19 H :    0.404973
  20 H :    0.159228
  21 H :    0.226146
  22 C :   -0.183455
  23 H :    0.411329
  24 H :    0.232604
  25 C :   -0.860008
  26 H :    0.063126
  27 H :    0.492398
  28 C :   -0.337808
  29 H :    0.079539
  30 H :    0.121859
  31 H :    0.241970
  32 H :    0.505701
  33 H :    0.508132
  34 H :    0.039495
  35 O :   -1.192732
  36 H :    0.285091
  37 H :    0.202990
Sum of atomic charges:    0.0000000

LOEWDIN ATOMIC CHARGES
----------------------
   0 C :    0.350028
   1 C :    0.256433
   2 C :    0.172492
   3 H :   -0.208973
   4 H :   -0.174716
   5 S :   -0.172180
   6 C :   -0.231549
   7 N :    0.927591
   8 N :    0.898886
   9 H :   -0.623207
  10 H :   -0.326252
  11 H :   -0.270635
  12 H :   -0.253987
  13 O :    0.222164
  14 O :    0.045658
  15 C :    0.303646
  16 C :    0.264357
  17 C :    0.277540
  18 H :   -0.174146
  19 H :   -0.136650
  20 H :   -0.146991
  21 H :   -0.153285
  22 C :    0.290068
  23 H :   -0.121103
  24 H :   -0.179830
  25 C :    0.305451
  26 H :   -0.151962
  27 H :   -0.136514
  28 C :    0.292737
  29 H :   -0.140712
  30 H :   -0.138784
  31 H :   -0.120107
  32 H :   -0.214332
  33 H :   -0.133110
  34 H :   -0.148192
  35 O :    0.017181
  36 H :   -0.120689
  37 H :   -0.146325

  Mayer bond orders larger than 0.100000
B(  0-C ,  7-N ) :  -0.1896 B(  0-C , 15-C ) :   0.8844 B(  0-C , 36-H ) :   0.9976
B(  0-C , 37-H ) :   1.0356 B(  1-C ,  2-C ) :   0.9195 B(  1-C ,  5-S ) :   0.1274
B(  1-C , 17-C ) :   0.9676 B(  1-C , 20-H ) :   1.0439 B(  1-C , 21-H ) :   0.9790
B(  2-C ,  3-H ) :   1.1044 B(  2-C ,  4-H ) :   0.8073 B(  2-C ,  5-S ) :   0.8120
B(  5-S , 13-O ) :   1.2406 B(  5-S , 14-O ) :   1.0587 B(  5-S , 35-O ) :   0.9244
B(  6-C ,  7-N ) :   0.7464 B(  6-C ,  8-N ) :   1.1646 B(  6-C ,  9-H ) :  -0.2208
B(  6-C , 10-H ) :  -0.1793 B(  6-C , 12-H ) :  -0.1229 B(  6-C , 15-C ) :   0.2289
B(  7-N ,  8-N ) :  -0.1628 B(  7-N , 11-H ) :   1.2045 B(  7-N , 12-H ) :   1.1806
B(  8-N ,  9-H ) :   0.2729 B(  8-N , 10-H ) :   1.1399 B(  9-H , 13-O ) :   0.1240
B( 13-O , 32-H ) :  -0.1183 B( 15-C , 22-C ) :   0.7807 B( 15-C , 23-H ) :   0.8658
B( 15-C , 24-H ) :   1.0252 B( 16-C , 17-C ) :   0.8937 B( 16-C , 25-C ) :   0.1445
B( 16-C , 28-C ) :   0.8210 B( 16-C , 31-H ) :   0.9368 B( 16-C , 32-H ) :   0.9359
B( 17-C , 18-H ) :   1.0216 B( 17-C , 19-H ) :   0.7833 B( 22-C , 24-H ) :   0.1352
B( 22-C , 25-C ) :   0.8238 B( 22-C , 26-H ) :   1.0998 B( 22-C , 27-H ) :   0.7966
B( 25-C , 26-H ) :   0.1493 B( 25-C , 27-H ) :  -0.1256 B( 25-C , 28-C ) :   0.8772
B( 25-C , 29-H ) :   1.1621 B( 25-C , 30-H ) :   1.1337 B( 28-C , 33-H ) :   0.7257
B( 28-C , 34-H ) :   1.1420 B( 29-H , 30-H ) :   0.1096

E(0)                                       ...  -1122.782468670
E(0)                                       ...  -1122.782468670
E(CORR)(strong-pairs)                      ...     -3.194902684
E(CORR)(weak-pairs)                        ...     -0.006125740
E(CORR)(corrected)                         ...     -3.201028424
E(TOT)                                     ...  -1125.983497095
E(CCSD(T))                                 ...  -1126.120402452
FINAL SINGLE POINT ENERGY     -1126.120402452468

DIPOLE MOMENT
-------------
                                X             Y             Z
Electronic contribution:     -9.16127     -11.21674     -14.04913
Nuclear contribution   :      8.53517      16.50844      14.36520
                        -----------------------------------------
Total Dipole Moment    :     -0.62610       5.29170       0.31607
                        -----------------------------------------
Magnitude (a.u.)       :      5.33798
Magnitude (Debye)      :     13.56806

Rotational constants in cm-1:     0.017951     0.012436     0.008288
Rotational constants in MHz :   538.163255   372.824050   248.467077

                             ****ORCA TERMINATED NORMALLY****
TOTAL RUN TIME: 0 days 6 hours 36 minutes 17 seconds 96 msec
