                         Program Version 5.0.0 -  RELEASE  -
|  1> !DLPNO-CCSD(T) aug-cc-pVTZ aug-cc-pVTZ/C TightSCF TightPNO RIJCOSX def2/J
|  2> *xyz 0 1
|  3> C          4.93020       -7.37532       -2.64962
|  4> C          3.84189       -6.95161       -3.63283
|  5> H          3.45814       -5.95442       -3.40712
|  6> H          2.98848       -7.64361       -3.56708
|  7> S          4.31812       -6.91593       -5.36869
|  8> F          5.40615       -5.89948       -5.51297
|  9> O          3.11191       -6.44508       -6.04379
| 10> C          6.17399       -6.48552       -2.60631
| 11> H          4.46961       -7.40617       -1.65588
| 12> H          5.23013       -8.39868       -2.88591
| 13> O          4.76340       -8.23942       -5.69863
| 14> H          6.62449       -6.45478       -3.57637
| 15> H          6.87304       -6.88376       -1.90088
| 16> H          5.89434       -5.49571       -2.31140
| 17> *
| 18>
| 19> %MaxCore 64000
| 20>
| 21> %pal nprocs 2
| 22> end
| 23>
| 24> %scf
| 25>   MaxIter 150
| 26> end
| 27>
| 28>
| 29>                          ****END OF INPUT****

CARTESIAN COORDINATES (ANGSTROEM)
---------------------------------
  C      4.930200   -7.375320   -2.649620
  C      3.841890   -6.951610   -3.632830
  H      3.458140   -5.954420   -3.407120
  H      2.988480   -7.643610   -3.567080
  S      4.318120   -6.915930   -5.368690
  F      5.406150   -5.899480   -5.512970
  O      3.111910   -6.445080   -6.043790
  C      6.173990   -6.485520   -2.606310
  H      4.469610   -7.406170   -1.655880
  H      5.230130   -8.398680   -2.885910
  O      4.763400   -8.239420   -5.698630
  H      6.624490   -6.454780   -3.576370
  H      6.873040   -6.883760   -1.900880
  H      5.894340   -5.495710   -2.311400

 Total Charge           Charge          ....    0
 Multiplicity           Mult            ....    1
 Number of Electrons    NEL             ....   66
 Basis Dimension        Dim             ....  487

ORBITAL ENERGIES
----------------

  NO   OCC          E(Eh)            E(eV)
   0   2.0000     -92.249457     -2510.2353
   1   2.0000     -26.408083      -718.6005
   2   2.0000     -20.572734      -559.8125
   3   2.0000     -20.561991      -559.5202
   4   2.0000     -11.297088      -307.4094
   5   2.0000     -11.258884      -306.3698
   6   2.0000     -11.232131      -305.6418
   7   2.0000      -9.212531      -250.6857
   8   2.0000      -6.900050      -187.7599
   9   2.0000      -6.896254      -187.6566
  10   2.0000      -6.895235      -187.6289
  11   2.0000      -1.756385       -47.7937
  12   2.0000      -1.462017       -39.7835
  13   2.0000      -1.357868       -36.9495
  14   2.0000      -1.115068       -30.3425
  15   2.0000      -1.011167       -27.5152
  16   2.0000      -0.940485       -25.5919
  17   2.0000      -0.864732       -23.5306
  18   2.0000      -0.800273       -21.7765
  19   2.0000      -0.795008       -21.6333
  20   2.0000      -0.756303       -20.5800
  21   2.0000      -0.679073       -18.4785
  22   2.0000      -0.652043       -17.7430
  23   2.0000      -0.646769       -17.5995
  24   2.0000      -0.631605       -17.1869
  25   2.0000      -0.601392       -16.3647
  26   2.0000      -0.563588       -15.3360
  27   2.0000      -0.542253       -14.7554
  28   2.0000      -0.525652       -14.3037
  29   2.0000      -0.512538       -13.9469
  30   2.0000      -0.504743       -13.7347
  31   2.0000      -0.486674       -13.2431
  32   2.0000      -0.474627       -12.9153
  33   0.0000       0.022898         0.6231
  34   0.0000       0.033796         0.9196
  35   0.0000       0.035779         0.9736
  36   0.0000       0.044820         1.2196
  37   0.0000       0.058402         1.5892

MULLIKEN ATOMIC CHARGES
-----------------------
   0 C :   -0.476897
   1 C :   -0.445841
   2 H :    0.288760
   3 H :    0.313552
   4 S :    2.166221
   5 F :   -0.524885
   6 O :   -0.908800
   7 C :   -0.991819
   8 H :    0.286981
   9 H :    0.270932
  10 O :   -0.921497
  11 H :    0.365826
  12 H :    0.305251
  13 H :    0.272216
Sum of atomic charges:    0.0000000

LOEWDIN ATOMIC CHARGES
----------------------
   0 C :    0.231507
   1 C :    0.184509
   2 H :   -0.188796
   3 H :   -0.164121
   4 S :   -0.095617
   5 F :    0.260957
   6 O :    0.019491
   7 C :    0.593500
   8 H :   -0.144291
   9 H :   -0.158248
  10 O :    0.040248
  11 H :   -0.222713
  12 H :   -0.175486
  13 H :   -0.180939

  Mayer bond orders larger than 0.100000
B(  0-C ,  1-C ) :   0.9257 B(  0-C ,  4-S ) :   0.1072 B(  0-C ,  7-C ) :   0.8320
B(  0-C ,  8-H ) :   0.9333 B(  0-C ,  9-H ) :   0.9460 B(  1-C ,  2-H ) :   0.9168
B(  1-C ,  3-H ) :   0.9033 B(  1-C ,  4-S ) :   0.8338 B(  4-S ,  5-F ) :   0.5775
B(  4-S ,  6-O ) :   1.4802 B(  4-S , 10-O ) :   1.5561 B(  7-C , 11-H ) :   0.8851
B(  7-C , 12-H ) :   0.9634 B(  7-C , 13-H ) :   0.9573

E(0)                                       ...   -764.484588474
E(0)                                       ...   -764.484588474
E(CORR)(strong-pairs)                      ...     -1.494894302
E(CORR)(weak-pairs)                        ...     -0.001538885
E(CORR)(corrected)                         ...     -1.496433188
E(TOT)                                     ...   -765.981021661
E(CCSD(T))                                 ...   -766.041886224
FINAL SINGLE POINT ENERGY      -766.041886224342

DIPOLE MOMENT
-------------
                                X             Y             Z
Electronic contribution:     -1.83429       1.45882     -11.58930
Nuclear contribution   :      2.27444      -1.01744      13.40618
                        -----------------------------------------
Total Dipole Moment    :      0.44015       0.44137       1.81688
                        -----------------------------------------
Magnitude (a.u.)       :      1.92083
Magnitude (Debye)      :      4.88237

Rotational constants in cm-1:     0.126966     0.054929     0.051005
Rotational constants in MHz :  3806.345018  1646.729702  1529.089209

                             ****ORCA TERMINATED NORMALLY****
TOTAL RUN TIME: 0 days 1 hours 29 minutes 58 seconds 367 msec
