                         Program Version 5.0.0 -  RELEASE  -
|  1> !DLPNO-CCSD(T) aug-cc-pVTZ aug-cc-pVTZ/C TightSCF TightPNO RIJCOSX def2/J
|  2> *xyz 0 1
|  3> C          5.55821       -1.99291       -6.21505
|  4> C          4.18188       -2.58967       -6.29891
|  5> C          3.14587       -1.76843       -6.48675
|  6> N          4.01910       -3.86431       -6.22743
|  7> H          4.76849       -4.59115       -5.99077
|  8> H          3.12241       -4.33339       -6.31462
|  9> H          3.28164       -0.77779       -6.56655
| 10> H          2.21255       -2.13419       -6.56225
| 11> C          6.41926       -2.54294       -5.07763
| 12> C          5.89651       -2.16931       -3.69455
| 13> H          7.42888       -2.14367       -5.20808
| 14> H          6.50589       -3.62754       -5.17550
| 15> H          6.03683       -2.19819       -7.17685
| 16> H          5.46761       -0.90737       -6.12797
| 17> H          5.81870       -1.10488       -3.61824
| 18> H          6.57185       -2.53200       -2.94804
| 19> H          4.93221       -2.60892       -3.54698
| 20> *
| 21>
| 22> %MaxCore 64000
| 23>
| 24> %pal nprocs 8
| 25> end
| 26>
| 27> %scf
| 28>   MaxIter 150
| 29> end
| 30>
| 31>
| 32>                          ****END OF INPUT****

CARTESIAN COORDINATES (ANGSTROEM)
---------------------------------
  C      5.558210   -1.992910   -6.215050
  C      4.181880   -2.589670   -6.298910
  C      3.145870   -1.768430   -6.486750
  N      4.019100   -3.864310   -6.227430
  H      4.768490   -4.591150   -5.990770
  H      3.122410   -4.333390   -6.314620
  H      3.281640   -0.777790   -6.566550
  H      2.212550   -2.134190   -6.562250
  C      6.419260   -2.542940   -5.077630
  C      5.896510   -2.169310   -3.694550
  H      7.428880   -2.143670   -5.208080
  H      6.505890   -3.627540   -5.175500
  H      6.036830   -2.198190   -7.176850
  H      5.467610   -0.907370   -6.127970
  H      5.818700   -1.104880   -3.618240
  H      6.571850   -2.532000   -2.948040
  H      4.932210   -2.608920   -3.546980

 Total Charge           Charge          ....    0
 Multiplicity           Mult            ....    1
 Number of Electrons    NEL             ....   48
 Basis Dimension        Dim             ....  529

ORBITAL ENERGIES
----------------

  NO   OCC          E(Eh)            E(eV)
   0   2.0000     -15.568829      -423.6494
   1   2.0000     -11.257089      -306.3210
   2   2.0000     -11.222713      -305.3856
   3   2.0000     -11.222100      -305.3689
   4   2.0000     -11.202438      -304.8338
   5   2.0000     -11.146865      -303.3216
   6   2.0000      -1.244858       -33.8743
   7   2.0000      -1.069334       -29.0981
   8   2.0000      -0.997272       -27.1371
   9   2.0000      -0.927652       -25.2427
  10   2.0000      -0.821008       -22.3408
  11   2.0000      -0.779725       -21.2174
  12   2.0000      -0.694192       -18.8899
  13   2.0000      -0.642114       -17.4728
  14   2.0000      -0.618690       -16.8354
  15   2.0000      -0.611971       -16.6526
  16   2.0000      -0.554977       -15.1017
  17   2.0000      -0.546864       -14.8809
  18   2.0000      -0.525792       -14.3075
  19   2.0000      -0.515931       -14.0392
  20   2.0000      -0.481810       -13.1107
  21   2.0000      -0.467699       -12.7267
  22   2.0000      -0.462275       -12.5791
  23   2.0000      -0.283787        -7.7222
  24   0.0000       0.026022         0.7081
  25   0.0000       0.034494         0.9386
  26   0.0000       0.039171         1.0659
  27   0.0000       0.039581         1.0771
  28   0.0000       0.053409         1.4533

MULLIKEN ATOMIC CHARGES
-----------------------
   0 C :   -0.007966
   1 C :    0.859386
   2 C :   -1.531216
   3 N :   -0.679487
   4 H :    0.098959
   5 H :    0.022474
   6 H :    0.185365
   7 H :    0.579684
   8 C :   -0.531035
   9 C :   -0.935108
  10 H :    0.286367
  11 H :    0.230051
  12 H :    0.318925
  13 H :    0.231127
  14 H :    0.238715
  15 H :    0.294100
  16 H :    0.339660
Sum of atomic charges:    0.0000000

LOEWDIN ATOMIC CHARGES
----------------------
   0 C :    0.286280
   1 C :   -0.324824
   2 C :    0.569696
   3 N :    0.806326
   4 H :   -0.205567
   5 H :   -0.260288
   6 H :   -0.308744
   7 H :   -0.299048
   8 C :    0.267117
   9 C :    0.605438
  10 H :   -0.144390
  11 H :   -0.164959
  12 H :   -0.136447
  13 H :   -0.150232
  14 H :   -0.177002
  15 H :   -0.182248
  16 H :   -0.181106

  Mayer bond orders larger than 0.100000
B(  0-C ,  1-C ) :   0.3622 B(  0-C ,  3-N ) :  -0.1210 B(  0-C ,  8-C ) :   0.8692
B(  0-C , 12-H ) :   0.9654 B(  0-C , 13-H ) :   0.9742 B(  1-C ,  2-C ) :   0.9802
B(  1-C ,  3-N ) :   0.7225 B(  1-C ,  4-H ) :  -0.1045 B(  1-C ,  6-H ) :  -0.1290
B(  2-C ,  3-N ) :  -0.2538 B(  2-C ,  6-H ) :   1.4292 B(  2-C ,  7-H ) :   0.5448
B(  3-N ,  4-H ) :   1.1776 B(  3-N ,  5-H ) :   1.2210 B(  8-C ,  9-C ) :   0.8149
B(  8-C , 10-H ) :   0.9843 B(  8-C , 11-H ) :   0.9673 B(  9-C , 14-H ) :   0.9959
B(  9-C , 15-H ) :   0.9621 B(  9-C , 16-H ) :   0.9108

E(0)                                       ...   -250.243317125
E(0)                                       ...   -250.243317125
E(CORR)(strong-pairs)                      ...     -1.138747903
E(CORR)(weak-pairs)                        ...     -0.001202908
E(CORR)(corrected)                         ...     -1.139950811
E(TOT)                                     ...   -251.383267936
E(CCSD(T))                                 ...   -251.429774599
FINAL SINGLE POINT ENERGY      -251.429774598898

DIPOLE MOMENT
-------------
                                X             Y             Z
Electronic contribution:     -1.86725      -1.41726      -2.49035
Nuclear contribution   :      2.30279       0.65856       2.66048
                        -----------------------------------------
Total Dipole Moment    :      0.43555      -0.75869       0.17013
                        -----------------------------------------
Magnitude (a.u.)       :      0.89121
Magnitude (Debye)      :      2.26529

Rotational constants in cm-1:     0.189707     0.076319     0.071159
Rotational constants in MHz :  5687.269526  2287.988194  2133.283230

                             ****ORCA TERMINATED NORMALLY****
TOTAL RUN TIME: 0 days 0 hours 24 minutes 49 seconds 933 msec
