                         Program Version 5.0.0 -  RELEASE  -
|  1> !DLPNO-CCSD(T) aug-cc-pVTZ aug-cc-pVTZ/C TightSCF TightPNO RIJCOSX def2/J
|  2> *xyz 0 1
|  3> C          4.93020       -7.37532       -2.64962
|  4> C          3.84189       -6.95161       -3.63283
|  5> H          3.45814       -5.95442       -3.40712
|  6> H          2.98848       -7.64361       -3.56708
|  7> S          4.31812       -6.91593       -5.36869
|  8> O          5.40615       -5.89948       -5.51297
|  9> F          3.11191       -6.44508       -6.04379
| 10> C          6.17399       -6.48552       -2.60631
| 11> H          4.46961       -7.40617       -1.65588
| 12> H          5.23013       -8.39868       -2.88591
| 13> O          4.76340       -8.23942       -5.69863
| 14> H          6.62449       -6.45478       -3.57637
| 15> H          6.87304       -6.88376       -1.90088
| 16> H          5.89434       -5.49571       -2.31140
| 17> *
| 18>
| 19> %MaxCore 64000
| 20>
| 21> %pal nprocs 2
| 22> end
| 23>
| 24> %scf
| 25>   MaxIter 150
| 26> end
| 27>
| 28>
| 29>                          ****END OF INPUT****

CARTESIAN COORDINATES (ANGSTROEM)
---------------------------------
  C      4.930200   -7.375320   -2.649620
  C      3.841890   -6.951610   -3.632830
  H      3.458140   -5.954420   -3.407120
  H      2.988480   -7.643610   -3.567080
  S      4.318120   -6.915930   -5.368690
  O      5.406150   -5.899480   -5.512970
  F      3.111910   -6.445080   -6.043790
  C      6.173990   -6.485520   -2.606310
  H      4.469610   -7.406170   -1.655880
  H      5.230130   -8.398680   -2.885910
  O      4.763400   -8.239420   -5.698630
  H      6.624490   -6.454780   -3.576370
  H      6.873040   -6.883760   -1.900880
  H      5.894340   -5.495710   -2.311400

 Total Charge           Charge          ....    0
 Multiplicity           Mult            ....    1
 Number of Electrons    NEL             ....   66
 Basis Dimension        Dim             ....  487

ORBITAL ENERGIES
----------------

  NO   OCC          E(Eh)            E(eV)
   0   2.0000     -92.251331     -2510.2863
   1   2.0000     -26.424372      -719.0437
   2   2.0000     -20.573252      -559.8266
   3   2.0000     -20.554486      -559.3160
   4   2.0000     -11.298125      -307.4376
   5   2.0000     -11.256450      -306.3036
   6   2.0000     -11.213135      -305.1249
   7   2.0000      -9.214548      -250.7406
   8   2.0000      -6.902000      -187.8130
   9   2.0000      -6.898126      -187.7075
  10   2.0000      -6.897337      -187.6861
  11   2.0000      -1.785669       -48.5905
  12   2.0000      -1.455234       -39.5989
  13   2.0000      -1.338529       -36.4232
  14   2.0000      -1.110760       -30.2253
  15   2.0000      -1.015315       -27.6281
  16   2.0000      -0.946915       -25.7669
  17   2.0000      -0.861078       -23.4311
  18   2.0000      -0.819008       -22.2863
  19   2.0000      -0.802351       -21.8331
  20   2.0000      -0.764631       -20.8067
  21   2.0000      -0.677403       -18.4331
  22   2.0000      -0.661777       -18.0079
  23   2.0000      -0.625141       -17.0109
  24   2.0000      -0.620988       -16.8979
  25   2.0000      -0.592383       -16.1196
  26   2.0000      -0.558005       -15.1841
  27   2.0000      -0.528129       -14.3711
  28   2.0000      -0.519871       -14.1464
  29   2.0000      -0.505833       -13.7644
  30   2.0000      -0.499522       -13.5927
  31   2.0000      -0.474322       -12.9070
  32   2.0000      -0.467233       -12.7141
  33   0.0000       0.022695         0.6176
  34   0.0000       0.035156         0.9566
  35   0.0000       0.038038         1.0351
  36   0.0000       0.046245         1.2584
  37   0.0000       0.057659         1.5690

MULLIKEN ATOMIC CHARGES
-----------------------
   0 C :   -0.458461
   1 C :   -0.477381
   2 H :    0.297625
   3 H :    0.294855
   4 S :    2.112012
   5 O :   -0.899290
   6 F :   -0.499017
   7 C :   -0.980708
   8 H :    0.284797
   9 H :    0.278009
  10 O :   -0.912923
  11 H :    0.397080
  12 H :    0.291338
  13 H :    0.272064
Sum of atomic charges:   -0.0000000

LOEWDIN ATOMIC CHARGES
----------------------
   0 C :    0.241133
   1 C :    0.185150
   2 H :   -0.189693
   3 H :   -0.181920
   4 S :   -0.089735
   5 O :    0.024898
   6 F :    0.273351
   7 C :    0.592438
   8 H :   -0.143130
   9 H :   -0.156680
  10 O :    0.039273
  11 H :   -0.236211
  12 H :   -0.179198
  13 H :   -0.179675

  Mayer bond orders larger than 0.100000
B(  0-C ,  1-C ) :   0.9080 B(  0-C ,  4-S ) :   0.1191 B(  0-C ,  7-C ) :   0.8270
B(  0-C ,  8-H ) :   0.9314 B(  0-C ,  9-H ) :   0.9367 B(  1-C ,  2-H ) :   0.9048
B(  1-C ,  3-H ) :   0.9026 B(  1-C ,  4-S ) :   0.8469 B(  4-S ,  5-O ) :   1.5306
B(  4-S ,  6-F ) :   0.5279 B(  4-S , 10-O ) :   1.5679 B(  7-C , 11-H ) :   0.8613
B(  7-C , 12-H ) :   0.9673 B(  7-C , 13-H ) :   0.9622

E(0)                                       ...   -764.473125553
E(0)                                       ...   -764.473125553
E(CORR)(strong-pairs)                      ...     -1.495714835
E(CORR)(weak-pairs)                        ...     -0.001584753
E(CORR)(corrected)                         ...     -1.497299587
E(TOT)                                     ...   -765.970425141
E(CCSD(T))                                 ...   -766.031550753
FINAL SINGLE POINT ENERGY      -766.031550753000

DIPOLE MOMENT
-------------
                                X             Y             Z
Electronic contribution:     -5.97580       0.48769     -12.64088
Nuclear contribution   :      4.74176      -0.43068      13.97705
                        -----------------------------------------
Total Dipole Moment    :     -1.23405       0.05701       1.33617
                        -----------------------------------------
Magnitude (a.u.)       :      1.81974
Magnitude (Debye)      :      4.62542

Rotational constants in cm-1:     0.131248     0.052952     0.050354
Rotational constants in MHz :  3934.713341  1587.473971  1509.583923

                             ****ORCA TERMINATED NORMALLY****
TOTAL RUN TIME: 0 days 1 hours 30 minutes 55 seconds 727 msec
