                         Program Version 5.0.0 -  RELEASE  -
|  1> !DLPNO-CCSD(T) aug-cc-pVTZ aug-cc-pVTZ/C TightSCF TightPNO RIJCOSX def2/J
|  2> *xyz 0 1
|  3> C          5.55821       -1.99291       -6.21505
|  4> C          4.18188       -2.58967       -6.29891
|  5> N          3.14587       -1.76843       -6.48675
|  6> C          4.01910       -3.86431       -6.22743
|  7> H          4.76849       -4.59115       -5.99077
|  8> H          3.12241       -4.33339       -6.31462
|  9> H          3.28164       -0.77779       -6.56655
| 10> H          2.21255       -2.13419       -6.56225
| 11> C          6.41926       -2.54294       -5.07763
| 12> C          5.89651       -2.16931       -3.69455
| 13> H          7.42888       -2.14367       -5.20808
| 14> H          6.50589       -3.62754       -5.17550
| 15> H          6.03683       -2.19819       -7.17685
| 16> H          5.46761       -0.90737       -6.12797
| 17> H          5.81870       -1.10488       -3.61824
| 18> H          6.57185       -2.53200       -2.94804
| 19> H          4.93221       -2.60892       -3.54698
| 20> *
| 21>
| 22> %MaxCore 64000
| 23>
| 24> %pal nprocs 8
| 25> end
| 26>
| 27> %scf
| 28>   MaxIter 150
| 29> end
| 30>
| 31>
| 32>                          ****END OF INPUT****

CARTESIAN COORDINATES (ANGSTROEM)
---------------------------------
  C      5.558210   -1.992910   -6.215050
  C      4.181880   -2.589670   -6.298910
  N      3.145870   -1.768430   -6.486750
  C      4.019100   -3.864310   -6.227430
  H      4.768490   -4.591150   -5.990770
  H      3.122410   -4.333390   -6.314620
  H      3.281640   -0.777790   -6.566550
  H      2.212550   -2.134190   -6.562250
  C      6.419260   -2.542940   -5.077630
  C      5.896510   -2.169310   -3.694550
  H      7.428880   -2.143670   -5.208080
  H      6.505890   -3.627540   -5.175500
  H      6.036830   -2.198190   -7.176850
  H      5.467610   -0.907370   -6.127970
  H      5.818700   -1.104880   -3.618240
  H      6.571850   -2.532000   -2.948040
  H      4.932210   -2.608920   -3.546980

 Total Charge           Charge          ....    0
 Multiplicity           Mult            ....    1
 Number of Electrons    NEL             ....   48
 Basis Dimension        Dim             ....  529

ORBITAL ENERGIES
----------------

  NO   OCC          E(Eh)            E(eV)
   0   2.0000     -15.556685      -423.3189
   1   2.0000     -11.252941      -306.2081
   2   2.0000     -11.223037      -305.3944
   3   2.0000     -11.216578      -305.2186
   4   2.0000     -11.198281      -304.7207
   5   2.0000     -11.154346      -303.5252
   6   2.0000      -1.231948       -33.5230
   7   2.0000      -1.071297       -29.1515
   8   2.0000      -0.996526       -27.1168
   9   2.0000      -0.931334       -25.3429
  10   2.0000      -0.826283       -22.4843
  11   2.0000      -0.750126       -20.4120
  12   2.0000      -0.699009       -19.0210
  13   2.0000      -0.666125       -18.1262
  14   2.0000      -0.615829       -16.7576
  15   2.0000      -0.604394       -16.4464
  16   2.0000      -0.555297       -15.1104
  17   2.0000      -0.546393       -14.8681
  18   2.0000      -0.512926       -13.9574
  19   2.0000      -0.500451       -13.6180
  20   2.0000      -0.475076       -12.9275
  21   2.0000      -0.468999       -12.7621
  22   2.0000      -0.461473       -12.5573
  23   2.0000      -0.296657        -8.0724
  24   0.0000       0.027884         0.7588
  25   0.0000       0.035160         0.9568
  26   0.0000       0.038008         1.0343
  27   0.0000       0.041059         1.1173
  28   0.0000       0.053276         1.4497

MULLIKEN ATOMIC CHARGES
-----------------------
   0 C :   -0.094684
   1 C :    1.055969
   2 N :   -0.694876
   3 C :   -1.412309
   4 H :    0.088117
   5 H :    0.612609
   6 H :    0.011287
   7 H :    0.025019
   8 C :   -0.490944
   9 C :   -0.997730
  10 H :    0.305454
  11 H :    0.201550
  12 H :    0.307134
  13 H :    0.216446
  14 H :    0.243199
  15 H :    0.285057
  16 H :    0.338702
Sum of atomic charges:   -0.0000000

LOEWDIN ATOMIC CHARGES
----------------------
   0 C :    0.289952
   1 C :   -0.308733
   2 N :    0.854175
   3 C :    0.520590
   4 H :   -0.228656
   5 H :   -0.283716
   6 H :   -0.295532
   7 H :   -0.277562
   8 C :    0.268947
   9 C :    0.605111
  10 H :   -0.144926
  11 H :   -0.164358
  12 H :   -0.135414
  13 H :   -0.154842
  14 H :   -0.181144
  15 H :   -0.181201
  16 H :   -0.182689

  Mayer bond orders larger than 0.100000
B(  0-C ,  1-C ) :   0.6299 B(  0-C ,  2-N ) :  -0.1510 B(  0-C ,  8-C ) :   0.8739
B(  0-C , 12-H ) :   0.9593 B(  0-C , 13-H ) :   0.9723 B(  1-C ,  2-N ) :   0.8361
B(  1-C ,  3-C ) :   0.9958 B(  1-C ,  4-H ) :  -0.2492 B(  1-C ,  8-C ) :   0.1513
B(  2-N ,  3-C ) :  -0.3628 B(  2-N ,  6-H ) :   1.2348 B(  2-N ,  7-H ) :   1.1980
B(  3-C ,  4-H ) :   1.6870 B(  3-C ,  5-H ) :   0.4173 B(  8-C ,  9-C ) :   0.8052
B(  8-C , 10-H ) :   0.9486 B(  8-C , 11-H ) :   0.9888 B(  9-C , 14-H ) :   0.9959
B(  9-C , 15-H ) :   0.9779 B(  9-C , 16-H ) :   0.8968

E(0)                                       ...   -250.254366807
E(0)                                       ...   -250.254366807
E(CORR)(strong-pairs)                      ...     -1.137508307
E(CORR)(weak-pairs)                        ...     -0.001192987
E(CORR)(corrected)                         ...     -1.138701294
E(TOT)                                     ...   -251.393068100
E(CCSD(T))                                 ...   -251.439256673
FINAL SINGLE POINT ENERGY      -251.439256673398

DIPOLE MOMENT
-------------
                                X             Y             Z
Electronic contribution:     -2.64743       0.44648      -2.75972
Nuclear contribution   :      2.50934       0.16282       2.72182
                        -----------------------------------------
Total Dipole Moment    :     -0.13809       0.60930      -0.03791
                        -----------------------------------------
Magnitude (a.u.)       :      0.62590
Magnitude (Debye)      :      1.59092

Rotational constants in cm-1:     0.192764     0.074934     0.070466
Rotational constants in MHz :  5778.908020  2246.454937  2112.518546

                             ****ORCA TERMINATED NORMALLY****
TOTAL RUN TIME: 0 days 0 hours 23 minutes 49 seconds 674 msec
