                         Program Version 5.0.0 -  RELEASE  -
|  1> !DLPNO-CCSD(T) aug-cc-pVTZ aug-cc-pVTZ/C TightSCF TightPNO RIJCOSX def2/J
|  2> *xyz 0 1
|  3> C          4.93020       -7.37532       -2.64962
|  4> C          3.84189       -6.95161       -3.63283
|  5> H          3.45814       -5.95442       -3.40712
|  6> H          2.98848       -7.64361       -3.56708
|  7> S          4.31812       -6.91593       -5.36869
|  8> O          5.40615       -5.89948       -5.51297
|  9> O          3.11191       -6.44508       -6.04379
| 10> C          6.17399       -6.48552       -2.60631
| 11> H          4.46961       -7.40617       -1.65588
| 12> H          5.23013       -8.39868       -2.88591
| 13> F          4.76340       -8.23942       -5.69863
| 14> H          6.62449       -6.45478       -3.57637
| 15> H          6.87304       -6.88376       -1.90088
| 16> H          5.89434       -5.49571       -2.31140
| 17> *
| 18>
| 19> %MaxCore 64000
| 20>
| 21> %pal nprocs 2
| 22> end
| 23>
| 24> %scf
| 25>   MaxIter 150
| 26> end
| 27>
| 28>
| 29>                          ****END OF INPUT****

CARTESIAN COORDINATES (ANGSTROEM)
---------------------------------
  C      4.930200   -7.375320   -2.649620
  C      3.841890   -6.951610   -3.632830
  H      3.458140   -5.954420   -3.407120
  H      2.988480   -7.643610   -3.567080
  S      4.318120   -6.915930   -5.368690
  O      5.406150   -5.899480   -5.512970
  O      3.111910   -6.445080   -6.043790
  C      6.173990   -6.485520   -2.606310
  H      4.469610   -7.406170   -1.655880
  H      5.230130   -8.398680   -2.885910
  F      4.763400   -8.239420   -5.698630
  H      6.624490   -6.454780   -3.576370
  H      6.873040   -6.883760   -1.900880
  H      5.894340   -5.495710   -2.311400

 Total Charge           Charge          ....    0
 Multiplicity           Mult            ....    1
 Number of Electrons    NEL             ....   66
 Basis Dimension        Dim             ....  487

ORBITAL ENERGIES
----------------

  NO   OCC          E(Eh)            E(eV)
   0   2.0000     -92.252032     -2510.3054
   1   2.0000     -26.439121      -719.4451
   2   2.0000     -20.562935      -559.5459
   3   2.0000     -20.554855      -559.3260
   4   2.0000     -11.298313      -307.4427
   5   2.0000     -11.259777      -306.3941
   6   2.0000     -11.218379      -305.2676
   7   2.0000      -9.215390      -250.7635
   8   2.0000      -6.903022      -187.8408
   9   2.0000      -6.898762      -187.7249
  10   2.0000      -6.898045      -187.7053
  11   2.0000      -1.810291       -49.2605
  12   2.0000      -1.440814       -39.2065
  13   2.0000      -1.329827       -36.1864
  14   2.0000      -1.114943       -30.3391
  15   2.0000      -1.017362       -27.6838
  16   2.0000      -0.961206       -26.1558
  17   2.0000      -0.866470       -23.5778
  18   2.0000      -0.837170       -22.7805
  19   2.0000      -0.828931       -22.5564
  20   2.0000      -0.753658       -20.5081
  21   2.0000      -0.672479       -18.2991
  22   2.0000      -0.661395       -17.9975
  23   2.0000      -0.629238       -17.1224
  24   2.0000      -0.613765       -16.7014
  25   2.0000      -0.596190       -16.2232
  26   2.0000      -0.551757       -15.0141
  27   2.0000      -0.538191       -14.6449
  28   2.0000      -0.523643       -14.2491
  29   2.0000      -0.508443       -13.8354
  30   2.0000      -0.490499       -13.3472
  31   2.0000      -0.470278       -12.7969
  32   2.0000      -0.461640       -12.5619
  33   0.0000       0.021900         0.5959
  34   0.0000       0.034275         0.9327
  35   0.0000       0.035252         0.9593
  36   0.0000       0.045332         1.2335
  37   0.0000       0.055952         1.5225

MULLIKEN ATOMIC CHARGES
-----------------------
   0 C :   -0.507187
   1 C :   -0.420962
   2 H :    0.316091
   3 H :    0.296593
   4 S :    2.101202
   5 O :   -0.884752
   6 O :   -0.906307
   7 C :   -0.966845
   8 H :    0.277431
   9 H :    0.259019
  10 F :   -0.519238
  11 H :    0.386412
  12 H :    0.292263
  13 H :    0.276280
Sum of atomic charges:    0.0000000

LOEWDIN ATOMIC CHARGES
----------------------
   0 C :    0.230293
   1 C :    0.185730
   2 H :   -0.172685
   3 H :   -0.180780
   4 S :   -0.091255
   5 O :    0.028089
   6 O :    0.019399
   7 C :    0.590083
   8 H :   -0.144494
   9 H :   -0.160796
  10 F :    0.295528
  11 H :   -0.241557
  12 H :   -0.180435
  13 H :   -0.177120

  Mayer bond orders larger than 0.100000
B(  0-C ,  1-C ) :   0.8954 B(  0-C ,  4-S ) :   0.1065 B(  0-C ,  7-C ) :   0.8373
B(  0-C ,  8-H ) :   0.9517 B(  0-C ,  9-H ) :   0.9473 B(  1-C ,  2-H ) :   0.8999
B(  1-C ,  3-H ) :   0.9107 B(  1-C ,  4-S ) :   0.8682 B(  4-S ,  5-O ) :   1.5121
B(  4-S ,  6-O ) :   1.4969 B(  4-S , 10-F ) :   0.5638 B(  7-C , 11-H ) :   0.8687
B(  7-C , 12-H ) :   0.9660 B(  7-C , 13-H ) :   0.9607

E(0)                                       ...   -764.460713933
E(0)                                       ...   -764.460713933
E(CORR)(strong-pairs)                      ...     -1.496226722
E(CORR)(weak-pairs)                        ...     -0.001557153
E(CORR)(corrected)                         ...     -1.497783876
E(TOT)                                     ...   -765.958497808
E(CCSD(T))                                 ...   -766.019760219
FINAL SINGLE POINT ENERGY      -766.019760218963

DIPOLE MOMENT
-------------
                                X             Y             Z
Electronic contribution:     -3.00200      -2.70723     -11.98941
Nuclear contribution   :      2.96568       1.49902      13.60585
                        -----------------------------------------
Total Dipole Moment    :     -0.03633      -1.20821       1.61644
                        -----------------------------------------
Magnitude (a.u.)       :      2.01841
Magnitude (Debye)      :      5.13039

Rotational constants in cm-1:     0.127173     0.053596     0.051689
Rotational constants in MHz :  3812.547794  1606.772866  1549.597841

                             ****ORCA TERMINATED NORMALLY****
TOTAL RUN TIME: 0 days 1 hours 21 minutes 55 seconds 396 msec
