                         Program Version 5.0.0 -  RELEASE  -
|  1> !DLPNO-CCSD(T) aug-cc-pVTZ aug-cc-pVTZ/C TightSCF TightPNO RIJCOSX def2/J
|  2>
|  3> *xyzfile 0 1 D2.xyz
|  4>
|  5> %MaxCore 64000
|  6>
|  7> %pal nprocs 18
|  8> end
|  9>
| 10> %scf
| 11>   MaxIter 150
| 12> end
| 13>
| 14>
| 15>                          ****END OF INPUT****

CARTESIAN COORDINATES (ANGSTROEM)
---------------------------------
  C      5.558206   -1.992914   -6.215054
  C      4.930199   -7.375319   -2.649623
  C      3.841892   -6.951611   -3.632829
  H      3.458144   -5.954425   -3.407121
  H      2.988484   -7.643606   -3.567078
  S      4.318115   -6.915930   -5.368692
  C      4.181880   -2.589671   -6.298911
  N      3.145873   -1.768431   -6.486753
  C      4.019102   -3.864307   -6.227427
  H      4.768490   -4.591153   -5.990773
  H      3.122405   -4.333392   -6.314620
  H      3.281635   -0.777786   -6.566549
  H      2.212549   -2.134193   -6.562246
  F      5.406154   -5.899480   -5.512972
  O      3.111910   -6.445079   -6.043792
  C      6.419260   -2.542944   -5.077630
  C      5.872267   -5.002756   -2.427819
  C      6.173994   -6.485522   -2.606315
  H      6.734852   -6.613767   -3.534015
  H      6.821463   -6.831018   -1.793617
  H      4.469612   -7.406168   -1.655876
  H      5.230134   -8.398678   -2.885906
  C      5.896512   -2.169314   -3.694552
  H      7.428880   -2.143665   -5.208078
  H      6.505894   -3.627541   -5.175502
  C      6.807804   -2.623428   -2.551019
  H      4.894708   -2.589732   -3.557501
  H      5.778823   -1.081255   -3.635790
  C      7.111544   -4.122463   -2.520363
  H      7.751615   -2.071393   -2.614406
  H      6.345837   -2.326401   -1.604086
  H      5.362882   -4.828697   -1.471335
  H      5.174429   -4.702577   -3.211298
  H      7.778329   -4.329347   -1.677651
  H      7.673189   -4.402845   -3.417586
  O      4.763396   -8.239424   -5.698629
  H      6.036826   -2.198189   -7.176852
  H      5.467610   -0.907371   -6.127968

 Total Charge           Charge          ....    0
 Multiplicity           Mult            ....    1
 Number of Electrons    NEL             ....  136
 Basis Dimension        Dim             .... 1246

ORBITAL ENERGIES
----------------

  NO   OCC          E(Eh)            E(eV)
   0   2.0000     -92.247368     -2510.1785
   1   2.0000     -26.407078      -718.5731
   2   2.0000     -20.570235      -559.7445
   3   2.0000     -20.556012      -559.3575
   4   2.0000     -15.548368      -423.0926
   5   2.0000     -11.291948      -307.2695
   6   2.0000     -11.253058      -306.2113
   7   2.0000     -11.241208      -305.8888
   8   2.0000     -11.236319      -305.7558
   9   2.0000     -11.227411      -305.5134
  10   2.0000     -11.222538      -305.3808
  11   2.0000     -11.220228      -305.3179
  12   2.0000     -11.219506      -305.2983
  13   2.0000     -11.218339      -305.2665
  14   2.0000     -11.214649      -305.1661
  15   2.0000     -11.129177      -302.8403
  16   2.0000      -9.210482      -250.6299
  17   2.0000      -6.898134      -187.7078
  18   2.0000      -6.894108      -187.5982
  19   2.0000      -6.893062      -187.5698
  20   2.0000      -1.765202       -48.0336
  21   2.0000      -1.460366       -39.7386
  22   2.0000      -1.355955       -36.8974
  23   2.0000      -1.223292       -33.2875
  24   2.0000      -1.124997       -30.6127
  25   2.0000      -1.095491       -29.8098
  26   2.0000      -1.059830       -28.8394
  27   2.0000      -1.024210       -27.8702
  28   2.0000      -0.980872       -26.6909
  29   2.0000      -0.964126       -26.2352
  30   2.0000      -0.928985       -25.2790
  31   2.0000      -0.896783       -24.4027
  32   2.0000      -0.850320       -23.1384
  33   2.0000      -0.827095       -22.5064
  34   2.0000      -0.824620       -22.4390
  35   2.0000      -0.794260       -21.6129
  36   2.0000      -0.772017       -21.0076
  37   2.0000      -0.752689       -20.4817
  38   2.0000      -0.737842       -20.0777
  39   2.0000      -0.692272       -18.8377
  40   2.0000      -0.675024       -18.3683
  41   2.0000      -0.669128       -18.2079
  42   2.0000      -0.661506       -18.0005
  43   2.0000      -0.648149       -17.6370
  44   2.0000      -0.635662       -17.2973
  45   2.0000      -0.624756       -17.0005
  46   2.0000      -0.618215       -16.8225
  47   2.0000      -0.594695       -16.1825
  48   2.0000      -0.580104       -15.7854
  49   2.0000      -0.571900       -15.5622
  50   2.0000      -0.571488       -15.5510
  51   2.0000      -0.555256       -15.1093
  52   2.0000      -0.538562       -14.6550
  53   2.0000      -0.525431       -14.2977
  54   2.0000      -0.517952       -14.0942
  55   2.0000      -0.513384       -13.9699
  56   2.0000      -0.503030       -13.6881
  57   2.0000      -0.499420       -13.5899
  58   2.0000      -0.495531       -13.4841
  59   2.0000      -0.484045       -13.1715
  60   2.0000      -0.482099       -13.1186
  61   2.0000      -0.473549       -12.8859
  62   2.0000      -0.468376       -12.7452
  63   2.0000      -0.459402       -12.5010
  64   2.0000      -0.450415       -12.2564
  65   2.0000      -0.448709       -12.2100
  66   2.0000      -0.443947       -12.0804
  67   2.0000      -0.285111        -7.7583
  68   0.0000       0.022080         0.6008
  69   0.0000       0.027837         0.7575
  70   0.0000       0.029308         0.7975
  71   0.0000       0.034002         0.9253
  72   0.0000       0.039576         1.0769

MULLIKEN ATOMIC CHARGES
-----------------------
   0 C :   -0.174967
   1 C :   -0.677890
   2 C :   -0.457153
   3 H :    0.081559
   4 H :    0.440344
   5 S :    2.704567
   6 C :    0.810283
   7 N :   -0.863580
   8 C :   -1.179173
   9 H :    0.543030
  10 H :    0.388728
  11 H :   -0.029914
  12 H :   -0.016439
  13 F :   -0.618345
  14 O :   -1.025719
  15 C :   -0.570130
  16 C :   -0.512475
  17 C :   -0.399169
  18 H :    0.178531
  19 H :    0.362195
  20 H :    0.191060
  21 H :    0.249510
  22 C :   -0.207836
  23 H :    0.410957
  24 H :    0.216758
  25 C :   -0.886271
  26 H :    0.069245
  27 H :    0.550233
  28 C :   -0.334359
  29 H :    0.085053
  30 H :    0.099617
  31 H :    0.238140
  32 H :    0.465977
  33 H :    0.505562
  34 H :    0.057336
  35 O :   -1.130903
  36 H :    0.301150
  37 H :    0.134487
Sum of atomic charges:    0.0000000

LOEWDIN ATOMIC CHARGES
----------------------
   0 C :    0.307890
   1 C :    0.263493
   2 C :    0.206758
   3 H :   -0.195074
   4 H :   -0.155474
   5 S :    0.030820
   6 C :   -0.282270
   7 N :    0.856730
   8 C :    0.489780
   9 H :   -0.567186
  10 H :   -0.359094
  11 H :   -0.297742
  12 H :   -0.276860
  13 F :    0.443580
  14 O :    0.110332
  15 C :    0.287032
  16 C :    0.269120
  17 C :    0.281238
  18 H :   -0.165131
  19 H :   -0.128878
  20 H :   -0.137173
  21 H :   -0.152141
  22 C :    0.289959
  23 H :   -0.129874
  24 H :   -0.181591
  25 C :    0.302512
  26 H :   -0.153527
  27 H :   -0.132762
  28 C :    0.291485
  29 H :   -0.140601
  30 H :   -0.140565
  31 H :   -0.114938
  32 H :   -0.206078
  33 H :   -0.133849
  34 H :   -0.151567
  35 O :    0.057894
  36 H :   -0.132807
  37 H :   -0.153441

  Mayer bond orders larger than 0.100000
B(  0-C ,  6-C ) :   0.5357 B(  0-C ,  7-N ) :  -0.1524 B(  0-C , 15-C ) :   0.9170
B(  0-C , 24-H ) :   0.1075 B(  0-C , 36-H ) :   1.0482 B(  0-C , 37-H ) :   1.0872
B(  1-C ,  2-C ) :   0.9587 B(  1-C ,  5-S ) :   0.1277 B(  1-C , 17-C ) :   0.9698
B(  1-C , 20-H ) :   1.0079 B(  1-C , 21-H ) :   0.9723 B(  2-C ,  3-H ) :   1.1030
B(  2-C ,  4-H ) :   0.7627 B(  2-C ,  5-S ) :   0.8324 B(  3-H ,  5-S ) :   0.1321
B(  5-S , 13-F ) :   0.7167 B(  5-S , 14-O ) :   1.3115 B(  5-S , 35-O ) :   0.8572
B(  6-C ,  7-N ) :   0.8773 B(  6-C ,  8-C ) :   1.3113 B(  6-C , 11-H ) :  -0.1591
B(  6-C , 15-C ) :   0.1920 B(  6-C , 36-H ) :  -0.1044 B(  7-N ,  8-C ) :  -0.6710
B(  7-N , 11-H ) :   1.3339 B(  7-N , 12-H ) :   1.2676 B(  8-C ,  9-H ) :   0.8569
B(  8-C , 10-H ) :   0.9840 B(  8-C , 12-H ) :  -0.1297 B(  8-C , 14-O ) :  -0.1044
B(  9-H , 10-H ) :   0.1933 B(  9-H , 13-F ) :  -0.2784 B(  9-H , 14-O ) :   0.1958
B( 13-F , 35-O ) :   0.1477 B( 15-C , 22-C ) :   0.8199 B( 15-C , 23-H ) :   0.8589
B( 15-C , 24-H ) :   1.0504 B( 16-C , 17-C ) :   0.8527 B( 16-C , 25-C ) :   0.1427
B( 16-C , 28-C ) :   0.8357 B( 16-C , 31-H ) :   0.9794 B( 16-C , 32-H ) :   0.9323
B( 17-C , 18-H ) :   1.0509 B( 17-C , 19-H ) :   0.8162 B( 22-C , 24-H ) :   0.1588
B( 22-C , 25-C ) :   0.8144 B( 22-C , 26-H ) :   1.0935 B( 22-C , 27-H ) :   0.7403
B( 25-C , 26-H ) :   0.1489 B( 25-C , 27-H ) :  -0.1426 B( 25-C , 28-C ) :   0.8811
B( 25-C , 29-H ) :   1.1717 B( 25-C , 30-H ) :   1.1582 B( 28-C , 33-H ) :   0.7318
B( 28-C , 34-H ) :   1.1303 B( 29-H , 30-H ) :   0.1127

E(0)                                       ...  -1130.667200943
E(0)                                       ...  -1130.667200943
E(CORR)(strong-pairs)                      ...     -3.179383482
E(CORR)(weak-pairs)                        ...     -0.006106973
E(CORR)(corrected)                         ...     -3.185490455
E(TOT)                                     ...  -1133.852691397
E(CCSD(T))                                 ...  -1133.986785085
FINAL SINGLE POINT ENERGY     -1133.986785084838

DIPOLE MOMENT
-------------
                                X             Y             Z
Electronic contribution:     -7.63658     -16.90019     -13.42254
Nuclear contribution   :      7.91684      17.85507      15.13212
                        -----------------------------------------
Total Dipole Moment    :      0.28026       0.95489       1.70957
                        -----------------------------------------
Magnitude (a.u.)       :      1.97813
Magnitude (Debye)      :      5.02800

Rotational constants in cm-1:     0.018015     0.012410     0.008313
Rotational constants in MHz :   540.084467   372.038374   249.228144

                             ****ORCA TERMINATED NORMALLY****
TOTAL RUN TIME: 0 days 6 hours 9 minutes 1 seconds 514 msec
