                         Program Version 5.0.0 -  RELEASE  -
|  1> !DLPNO-CCSD(T) aug-cc-pVTZ aug-cc-pVTZ/C TightSCF TightPNO RIJCOSX def2/J
|  2>
|  3> *xyzfile 0 1 D4.xyz
|  4>
|  5> %MaxCore 64000
|  6>
|  7> %pal nprocs 18
|  8> end
|  9>
| 10> %scf
| 11>   MaxIter 150
| 12> end
| 13>
| 14>
| 15>                          ****END OF INPUT****

CARTESIAN COORDINATES (ANGSTROEM)
---------------------------------
  C      5.558206   -1.992914   -6.215054
  C      4.930199   -7.375319   -2.649623
  C      3.841892   -6.951611   -3.632829
  H      3.458144   -5.954425   -3.407121
  H      2.988484   -7.643606   -3.567078
  S      4.318115   -6.915930   -5.368692
  C      4.181880   -2.589671   -6.298911
  N      3.145873   -1.768431   -6.486753
  C      4.019102   -3.864307   -6.227427
  H      4.768490   -4.591153   -5.990773
  H      3.122405   -4.333392   -6.314620
  H      3.281635   -0.777786   -6.566549
  H      2.212549   -2.134193   -6.562246
  O      5.406154   -5.899480   -5.512972
  F      3.111910   -6.445079   -6.043792
  C      6.419260   -2.542944   -5.077630
  C      5.872267   -5.002756   -2.427819
  C      6.173994   -6.485522   -2.606315
  H      6.734852   -6.613767   -3.534015
  H      6.821463   -6.831018   -1.793617
  H      4.469612   -7.406168   -1.655876
  H      5.230134   -8.398678   -2.885906
  C      5.896512   -2.169314   -3.694552
  H      7.428880   -2.143665   -5.208078
  H      6.505894   -3.627541   -5.175502
  C      6.807804   -2.623428   -2.551019
  H      4.894708   -2.589732   -3.557501
  H      5.778823   -1.081255   -3.635790
  C      7.111544   -4.122463   -2.520363
  H      7.751615   -2.071393   -2.614406
  H      6.345837   -2.326401   -1.604086
  H      5.362882   -4.828697   -1.471335
  H      5.174429   -4.702577   -3.211298
  H      7.778329   -4.329347   -1.677651
  H      7.673189   -4.402845   -3.417586
  O      4.763396   -8.239424   -5.698629
  H      6.036826   -2.198189   -7.176852
  H      5.467610   -0.907371   -6.127968

 Total Charge           Charge          ....    0
 Multiplicity           Mult            ....    1
 Number of Electrons    NEL             ....  136
 Basis Dimension        Dim             .... 1246

ORBITAL ENERGIES
----------------

  NO   OCC          E(Eh)            E(eV)
   0   2.0000     -92.254848     -2510.3820
   1   2.0000     -26.423443      -719.0184
   2   2.0000     -20.574785      -559.8684
   3   2.0000     -20.553999      -559.3027
   4   2.0000     -15.544197      -422.9791
   5   2.0000     -11.296306      -307.3881
   6   2.0000     -11.253801      -306.2315
   7   2.0000     -11.234878      -305.7166
   8   2.0000     -11.221999      -305.3661
   9   2.0000     -11.213202      -305.1267
  10   2.0000     -11.211393      -305.0775
  11   2.0000     -11.210048      -305.0409
  12   2.0000     -11.209229      -305.0186
  13   2.0000     -11.204596      -304.8926
  14   2.0000     -11.203952      -304.8750
  15   2.0000     -11.117733      -302.5289
  16   2.0000      -9.217922      -250.8324
  17   2.0000      -6.905336      -187.9037
  18   2.0000      -6.901459      -187.7983
  19   2.0000      -6.900841      -187.7814
  20   2.0000      -1.786683       -48.6181
  21   2.0000      -1.459610       -39.7180
  22   2.0000      -1.350428       -36.7470
  23   2.0000      -1.218582       -33.1593
  24   2.0000      -1.119407       -30.4606
  25   2.0000      -1.086783       -29.5729
  26   2.0000      -1.052621       -28.6433
  27   2.0000      -1.021072       -27.7848
  28   2.0000      -0.980839       -26.6900
  29   2.0000      -0.959818       -26.1180
  30   2.0000      -0.925166       -25.1750
  31   2.0000      -0.887490       -24.1498
  32   2.0000      -0.844072       -22.9684
  33   2.0000      -0.824977       -22.4488
  34   2.0000      -0.820053       -22.3148
  35   2.0000      -0.792544       -21.5662
  36   2.0000      -0.776382       -21.1264
  37   2.0000      -0.756457       -20.5843
  38   2.0000      -0.736352       -20.0371
  39   2.0000      -0.693374       -18.8677
  40   2.0000      -0.676776       -18.4160
  41   2.0000      -0.670508       -18.2455
  42   2.0000      -0.653716       -17.7885
  43   2.0000      -0.644041       -17.5252
  44   2.0000      -0.631259       -17.1774
  45   2.0000      -0.616762       -16.7829
  46   2.0000      -0.608703       -16.5636
  47   2.0000      -0.585715       -15.9381
  48   2.0000      -0.578319       -15.7369
  49   2.0000      -0.572385       -15.5754
  50   2.0000      -0.564946       -15.3730
  51   2.0000      -0.548166       -14.9164
  52   2.0000      -0.544666       -14.8211
  53   2.0000      -0.529480       -14.4079
  54   2.0000      -0.514761       -14.0074
  55   2.0000      -0.503734       -13.7073
  56   2.0000      -0.500252       -13.6125
  57   2.0000      -0.497011       -13.5244
  58   2.0000      -0.488138       -13.2829
  59   2.0000      -0.478676       -13.0254
  60   2.0000      -0.468755       -12.7555
  61   2.0000      -0.466323       -12.6893
  62   2.0000      -0.459769       -12.5110
  63   2.0000      -0.440152       -11.9771
  64   2.0000      -0.438412       -11.9298
  65   2.0000      -0.433845       -11.8055
  66   2.0000      -0.419439       -11.4135
  67   2.0000      -0.278569        -7.5802
  68   0.0000       0.020747         0.5645
  69   0.0000       0.029232         0.7954
  70   0.0000       0.030386         0.8268
  71   0.0000       0.036643         0.9971
  72   0.0000       0.040189         1.0936

MULLIKEN ATOMIC CHARGES
-----------------------
   0 C :   -0.128750
   1 C :   -0.669075
   2 C :   -0.535499
   3 H :    0.088993
   4 H :    0.435986
   5 S :    2.555572
   6 C :    0.906114
   7 N :   -0.885336
   8 C :   -1.328663
   9 H :    0.523615
  10 H :    0.389482
  11 H :   -0.034640
  12 H :   -0.029408
  13 O :   -0.872999
  14 F :   -0.568900
  15 C :   -0.560421
  16 C :   -0.520335
  17 C :   -0.425876
  18 H :    0.197487
  19 H :    0.395205
  20 H :    0.187645
  21 H :    0.252261
  22 C :   -0.206798
  23 H :    0.429038
  24 H :    0.206979
  25 C :   -0.900455
  26 H :    0.064144
  27 H :    0.549664
  28 C :   -0.335348
  29 H :    0.071753
  30 H :    0.100390
  31 H :    0.255684
  32 H :    0.495516
  33 H :    0.511491
  34 H :    0.056905
  35 O :   -1.110101
  36 H :    0.306867
  37 H :    0.131813
Sum of atomic charges:    0.0000000

LOEWDIN ATOMIC CHARGES
----------------------
   0 C :    0.309690
   1 C :    0.274337
   2 C :    0.211693
   3 H :   -0.195252
   4 H :   -0.171982
   5 S :    0.071471
   6 C :   -0.284135
   7 N :    0.851287
   8 C :    0.484842
   9 H :   -0.643071
  10 H :   -0.335300
  11 H :   -0.299360
  12 H :   -0.281096
  13 O :    0.261629
  14 F :    0.336899
  15 C :    0.291045
  16 C :    0.268363
  17 C :    0.281985
  18 H :   -0.172173
  19 H :   -0.131831
  20 H :   -0.135197
  21 H :   -0.150350
  22 C :    0.288842
  23 H :   -0.130428
  24 H :   -0.183087
  25 C :    0.301003
  26 H :   -0.153963
  27 H :   -0.134868
  28 C :    0.293198
  29 H :   -0.141556
  30 H :   -0.142165
  31 H :   -0.119209
  32 H :   -0.210108
  33 H :   -0.135467
  34 H :   -0.148584
  35 O :    0.060237
  36 H :   -0.132469
  37 H :   -0.154870

  Mayer bond orders larger than 0.100000
B(  0-C ,  6-C ) :   0.4893 B(  0-C ,  7-N ) :  -0.1579 B(  0-C , 15-C ) :   0.9181
B(  0-C , 24-H ) :   0.1038 B(  0-C , 36-H ) :   1.0503 B(  0-C , 37-H ) :   1.0916
B(  1-C ,  2-C ) :   0.9296 B(  1-C ,  5-S ) :   0.1408 B(  1-C , 17-C ) :   0.9628
B(  1-C , 20-H ) :   1.0131 B(  1-C , 21-H ) :   0.9527 B(  2-C ,  3-H ) :   1.0831
B(  2-C ,  4-H ) :   0.7708 B(  2-C ,  5-S ) :   0.8839 B(  3-H ,  5-S ) :   0.1190
B(  5-S , 13-O ) :   1.5252 B(  5-S , 14-F ) :   0.2777 B(  5-S , 35-O ) :   0.9905
B(  6-C ,  7-N ) :   0.8059 B(  6-C ,  8-C ) :   1.3133 B(  6-C ,  9-H ) :   0.1179
B(  6-C , 11-H ) :  -0.1626 B(  6-C , 15-C ) :   0.1897 B(  6-C , 36-H ) :  -0.1105
B(  7-N ,  8-C ) :  -0.6530 B(  7-N , 11-H ) :   1.3460 B(  7-N , 12-H ) :   1.2776
B(  8-C ,  9-H ) :   0.7424 B(  8-C , 10-H ) :   1.1299 B(  8-C , 12-H ) :  -0.1219
B(  9-H , 10-H ) :   0.1913 B(  9-H , 13-O ) :  -0.1656 B(  9-H , 14-F ) :   0.2936
B( 10-H , 14-F ) :  -0.1713 B( 15-C , 22-C ) :   0.8056 B( 15-C , 23-H ) :   0.8371
B( 15-C , 24-H ) :   1.0445 B( 16-C , 17-C ) :   0.8794 B( 16-C , 25-C ) :   0.1440
B( 16-C , 28-C ) :   0.8284 B( 16-C , 31-H ) :   0.9348 B( 16-C , 32-H ) :   0.9241
B( 17-C , 18-H ) :   1.0312 B( 17-C , 19-H ) :   0.7858 B( 22-C , 24-H ) :   0.1546
B( 22-C , 25-C ) :   0.8130 B( 22-C , 26-H ) :   1.0982 B( 22-C , 27-H ) :   0.7385
B( 25-C , 26-H ) :   0.1494 B( 25-C , 27-H ) :  -0.1432 B( 25-C , 28-C ) :   0.8768
B( 25-C , 29-H ) :   1.1877 B( 25-C , 30-H ) :   1.1578 B( 28-C , 33-H ) :   0.7267
B( 28-C , 34-H ) :   1.1322 B( 29-H , 30-H ) :   0.1107

E(0)                                       ...  -1130.657762713
E(0)                                       ...  -1130.657762713
E(CORR)(strong-pairs)                      ...     -3.180745476
E(CORR)(weak-pairs)                        ...     -0.005998392
E(CORR)(corrected)                         ...     -3.186743868
E(TOT)                                     ...  -1133.844506581
E(CCSD(T))                                 ...  -1133.978990131
FINAL SINGLE POINT ENERGY     -1133.978990130591

DIPOLE MOMENT
-------------
                                X             Y             Z
Electronic contribution:    -11.76888     -18.15387     -14.50569
Nuclear contribution   :     10.61624      18.49702      15.75668
                        -----------------------------------------
Total Dipole Moment    :     -1.15263       0.34315       1.25099
                        -----------------------------------------
Magnitude (a.u.)       :      1.73531
Magnitude (Debye)      :      4.41079

Rotational constants in cm-1:     0.017796     0.012372     0.008231
Rotational constants in MHz :   533.524905   370.895973   246.762347

                             ****ORCA TERMINATED NORMALLY****
TOTAL RUN TIME: 0 days 7 hours 1 minutes 34 seconds 927 msec
