                         Program Version 5.0.0 -  RELEASE  -
|  1> !wB97X-D3 RIJCOSX def2-SVPD def2/J TightSCF CPCM(Water)
|  2> *xyz -1 1
|  3> C          4.99986       -1.59613       -5.92488
|  4> C          3.76678       -2.26611       -6.51175
|  5> C          2.49670       -1.84416       -5.73570
|  6> H          1.62642       -2.21743       -6.30895
|  7> H          2.48182       -2.45607       -4.79341
|  8> O          2.45973       -0.50920       -5.50576
|  9> H          3.88619       -3.35708       -6.53360
| 10> H          3.68560       -1.92217       -7.54713
| 11> H          5.86637       -1.89999       -6.47418
| 12> H          5.10830       -1.88372       -4.89997
| 13> H          4.89230       -0.53341       -5.98765
| 14> *
| 15>
| 16> %MaxCore 64000
| 17>
| 18> %pal nprocs 18
| 19> end
| 20>
| 21> %scf
| 22>   MaxIter 150
| 23> end
| 24>
| 25>
| 26>                          ****END OF INPUT****

CARTESIAN COORDINATES (ANGSTROEM)
---------------------------------
  C      4.999860   -1.596130   -5.924880
  C      3.766780   -2.266110   -6.511750
  C      2.496700   -1.844160   -5.735700
  H      1.626420   -2.217430   -6.308950
  H      2.481820   -2.456070   -4.793410
  O      2.459730   -0.509200   -5.505760
  H      3.886190   -3.357080   -6.533600
  H      3.685600   -1.922170   -7.547130
  H      5.866370   -1.899990   -6.474180
  H      5.108300   -1.883720   -4.899970
  H      4.892300   -0.533410   -5.987650

 Total Charge           Charge          ....   -1
 Multiplicity           Mult            ....    1
 Number of Electrons    NEL             ....   34
 Basis Dimension        Dim             ....  139

ORBITAL ENERGIES
----------------

  NO   OCC          E(Eh)            E(eV)
   0   2.0000     -19.117148      -520.2040
   1   2.0000     -10.284752      -279.8623
   2   2.0000     -10.253589      -279.0143
   3   2.0000     -10.250047      -278.9179
   4   2.0000      -0.994094       -27.0507
   5   2.0000      -0.848708       -23.0945
   6   2.0000      -0.732985       -19.9455
   7   2.0000      -0.635629       -17.2963
   8   2.0000      -0.536486       -14.5985
   9   2.0000      -0.526600       -14.3295
  10   2.0000      -0.476621       -12.9695
  11   2.0000      -0.452683       -12.3181
  12   2.0000      -0.418530       -11.3888
  13   2.0000      -0.409068       -11.1313
  14   2.0000      -0.399738       -10.8774
  15   2.0000      -0.268840        -7.3155
  16   2.0000      -0.268205        -7.2982
  17   0.0000       0.103579         2.8185
  18   0.0000       0.127157         3.4601
  19   0.0000       0.135567         3.6890
  20   0.0000       0.146979         3.9995
  21   0.0000       0.172560         4.6956

MULLIKEN ATOMIC CHARGES
-----------------------
   0 C :    0.607815
   1 C :   -0.408290
   2 C :    0.423571
   3 H :   -0.182349
   4 H :   -0.101875
   5 O :   -0.935497
   6 H :   -0.109013
   7 H :   -0.071374
   8 H :   -0.084459
   9 H :   -0.077341
  10 H :   -0.061189
Sum of atomic charges:   -1.0000000

LOEWDIN ATOMIC CHARGES
----------------------
   0 C :    0.082265
   1 C :   -0.103574
   2 C :   -0.230514
   3 H :   -0.020407
   4 H :   -0.009378
   5 O :   -0.641883
   6 H :    0.010117
   7 H :    0.006359
   8 H :   -0.027533
   9 H :   -0.021592
  10 H :   -0.043862

  Mayer bond orders larger than 0.100000
B(  0-C ,  1-C ) :   1.2762 B(  0-C ,  8-H ) :   0.8309 B(  0-C ,  9-H ) :   0.8221
B(  0-C , 10-H ) :   0.8208 B(  1-C ,  2-C ) :   1.0641 B(  1-C ,  3-H ) :   0.1095
B(  1-C ,  4-H ) :   0.1075 B(  1-C ,  6-H ) :   0.9932 B(  1-C ,  7-H ) :   0.9301
B(  1-C ,  8-H ) :   0.1780 B(  1-C ,  9-H ) :   0.1725 B(  1-C , 10-H ) :   0.1929
B(  2-C ,  3-H ) :   0.9462 B(  2-C ,  4-H ) :   0.9203 B(  2-C ,  5-O ) :   1.2807

Dispersion correction           -0.001912404
FINAL SINGLE POINT ENERGY      -193.665622732831

DIPOLE MOMENT
-------------
                                X             Y             Z
Electronic contribution:     -1.57420       1.23477       0.31569
Nuclear contribution   :      3.33375      -3.25054      -1.09297
                        -----------------------------------------
Total Dipole Moment    :      1.75956      -2.01577      -0.77728
                        -----------------------------------------
Magnitude (a.u.)       :      2.78631
Magnitude (Debye)      :      7.08224

Rotational constants in cm-1:     0.478390     0.193336     0.154822
Rotational constants in MHz : 14341.777399  5796.063993  4641.443060

                             ****ORCA TERMINATED NORMALLY****
TOTAL RUN TIME: 0 days 0 hours 0 minutes 7 seconds 679 msec
