                         Program Version 5.0.0 -  RELEASE  -
|  1> !wB97X-D3 RIJCOSX def2-SVPD def2/J TightSCF CPCM(Water)
|  2> *xyz 1 1
|  3> C          4.99986       -1.59613       -5.92488
|  4> N          5.28156       -1.97413       -4.53576
|  5> C          3.76678       -2.26611       -6.51175
|  6> C          2.49670       -1.84416       -5.73570
|  7> C          4.79250       -1.36132       -3.45730
|  8> N          3.93990       -0.37492       -3.55736
|  9> N          5.25986       -1.75422       -2.23913
| 10> H          5.92282       -2.52145       -2.18672
| 11> H          4.65468       -1.64040       -1.44202
| 12> H          5.70914       -2.87560       -4.38702
| 13> H          3.33010       -0.31764       -4.36125
| 14> H          3.69849        0.11447       -2.70833
| 15> H          4.84333       -0.51793       -5.94302
| 16> H          5.90170       -1.82250       -6.49647
| 17> H          3.88619       -3.35708       -6.53360
| 18> H          3.68560       -1.92217       -7.54713
| 19> H          1.64155       -2.32499       -6.16281
| 20> H          2.37707       -0.78268       -5.79763
| 21> H          2.59306       -2.13299       -4.70994
| 22> *
| 23>
| 24> %MaxCore 64000
| 25>
| 26> %pal nprocs 18
| 27> end
| 28>
| 29> %scf
| 30>   MaxIter 150
| 31> end
| 32>
| 33>
| 34>                          ****END OF INPUT****

CARTESIAN COORDINATES (ANGSTROEM)
---------------------------------
  C      4.999860   -1.596130   -5.924880
  N      5.281560   -1.974130   -4.535760
  C      3.766780   -2.266110   -6.511750
  C      2.496700   -1.844160   -5.735700
  C      4.792500   -1.361320   -3.457300
  N      3.939900   -0.374920   -3.557360
  N      5.259860   -1.754220   -2.239130
  H      5.922820   -2.521450   -2.186720
  H      4.654680   -1.640400   -1.442020
  H      5.709140   -2.875600   -4.387020
  H      3.330100   -0.317640   -4.361250
  H      3.698490    0.114470   -2.708330
  H      4.843330   -0.517930   -5.943020
  H      5.901700   -1.822500   -6.496470
  H      3.886190   -3.357080   -6.533600
  H      3.685600   -1.922170   -7.547130
  H      1.641550   -2.324990   -6.162810
  H      2.377070   -0.782680   -5.797630
  H      2.593060   -2.132990   -4.709940

 Total Charge           Charge          ....    1
 Multiplicity           Mult            ....    1
 Number of Electrons    NEL             ....   56
 Basis Dimension        Dim             ....  236

ORBITAL ENERGIES
----------------

  NO   OCC          E(Eh)            E(eV)
   0   2.0000     -14.491347      -394.3296
   1   2.0000     -14.486766      -394.2049
   2   2.0000     -14.480348      -394.0303
   3   2.0000     -10.456737      -284.5423
   4   2.0000     -10.337680      -281.3026
   5   2.0000     -10.296003      -280.1685
   6   2.0000     -10.282346      -279.7969
   7   2.0000      -1.153918       -31.3997
   8   2.0000      -1.042767       -28.3751
   9   2.0000      -1.024395       -27.8752
  10   2.0000      -0.905851       -24.6494
  11   2.0000      -0.821921       -22.3656
  12   2.0000      -0.765729       -20.8365
  13   2.0000      -0.727090       -19.7851
  14   2.0000      -0.709132       -19.2965
  15   2.0000      -0.671091       -18.2613
  16   2.0000      -0.627091       -17.0640
  17   2.0000      -0.616331       -16.7712
  18   2.0000      -0.585972       -15.9451
  19   2.0000      -0.571391       -15.5483
  20   2.0000      -0.554586       -15.0911
  21   2.0000      -0.523872       -14.2553
  22   2.0000      -0.506953       -13.7949
  23   2.0000      -0.468549       -12.7499
  24   2.0000      -0.449117       -12.2211
  25   2.0000      -0.443839       -12.0775
  26   2.0000      -0.399912       -10.8822
  27   2.0000      -0.376589       -10.2475
  28   0.0000       0.074628         2.0307
  29   0.0000       0.089216         2.4277
  30   0.0000       0.113531         3.0893
  31   0.0000       0.116482         3.1696
  32   0.0000       0.127904         3.4804

MULLIKEN ATOMIC CHARGES
-----------------------
   0 C :    0.645523
   1 N :   -0.495160
   2 C :   -0.168968
   3 C :    0.366048
   4 C :    1.204914
   5 N :    0.117655
   6 N :   -0.182775
   7 H :    0.032159
   8 H :    0.041715
   9 H :   -0.158919
  10 H :   -0.316229
  11 H :   -0.004070
  12 H :    0.098568
  13 H :   -0.275951
  14 H :   -0.076381
  15 H :    0.059943
  16 H :   -0.287275
  17 H :    0.250786
  18 H :    0.148417
Sum of atomic charges:    1.0000000

LOEWDIN ATOMIC CHARGES
----------------------
   0 C :    0.071716
   1 N :    0.053987
   2 C :   -0.036026
   3 C :    0.128363
   4 C :   -0.031950
   5 N :    0.293848
   6 N :    0.258150
   7 H :    0.039524
   8 H :    0.034631
   9 H :    0.067683
  10 H :   -0.028870
  11 H :    0.058127
  12 H :    0.033461
  13 H :    0.037574
  14 H :    0.030367
  15 H :    0.031021
  16 H :   -0.008801
  17 H :   -0.008267
  18 H :   -0.024539

  Mayer bond orders larger than 0.100000
B(  0-C ,  1-N ) :   0.8891 B(  0-C ,  2-C ) :   1.1049 B(  0-C ,  9-H ) :  -0.1890
B(  0-C , 12-H ) :   0.7614 B(  0-C , 13-H ) :   1.0073 B(  0-C , 14-H ) :   0.1267
B(  0-C , 15-H ) :   0.1108 B(  1-N ,  4-C ) :   0.9994 B(  1-N ,  5-N ) :   0.1545
B(  1-N ,  6-N ) :   0.1937 B(  1-N ,  9-H ) :   1.3279 B(  1-N , 12-H ) :   0.1607
B(  1-N , 13-H ) :   0.1159 B(  2-C ,  3-C ) :   1.2666 B(  2-C , 12-H ) :   0.1098
B(  2-C , 14-H ) :   0.9875 B(  2-C , 15-H ) :   0.8851 B(  2-C , 16-H ) :   0.1717
B(  2-C , 17-H ) :   0.1116 B(  2-C , 18-H ) :   0.1312 B(  3-C , 10-H ) :   0.1733
B(  3-C , 16-H ) :   1.0156 B(  3-C , 17-H ) :   0.6979 B(  3-C , 18-H ) :   0.8221
B(  4-C ,  5-N ) :   1.0823 B(  4-C ,  6-N ) :   0.8655 B(  4-C ,  9-H ) :  -0.1851
B(  4-C , 10-H ) :  -0.1020 B(  4-C , 11-H ) :  -0.1003 B(  5-N ,  6-N ) :   0.1557
B(  5-N , 10-H ) :   1.1374 B(  5-N , 11-H ) :   1.2063 B(  6-N ,  7-H ) :   1.0623
B(  6-N ,  8-H ) :   1.1137 B(  7-H ,  8-H ) :  -0.1274 B( 10-H , 11-H ) :  -0.2105
B( 10-H , 17-H ) :   0.1536 B( 12-H , 13-H ) :  -0.1150 B( 16-H , 17-H ) :  -0.1009

Dispersion correction           -0.005549031
FINAL SINGLE POINT ENERGY      -323.508255092544

DIPOLE MOMENT
-------------
                                X             Y             Z
Electronic contribution:      3.92786       0.79718       5.21172
Nuclear contribution   :     -3.69451      -0.93313      -3.60402
                        -----------------------------------------
Total Dipole Moment    :      0.23335      -0.13595       1.60770
                        -----------------------------------------
Magnitude (a.u.)       :      1.63023
Magnitude (Debye)      :      4.14371

Rotational constants in cm-1:     0.152547     0.057272     0.048491
Rotational constants in MHz :  4573.230603  1716.968614  1453.721796

                             ****ORCA TERMINATED NORMALLY****
TOTAL RUN TIME: 0 days 0 hours 0 minutes 18 seconds 258 msec
