                         Program Version 5.0.0 -  RELEASE  -
|  1> !wB97X-D3 RIJCOSX def2-SVPD def2/J TightSCF CPCM(Water) xyzfile
|  2>
|  3> *xyzfile 0 1 B.xyz
|  4>
|  5> %MaxCore 64000
|  6>
|  7> %pal nprocs 18
|  8> end
|  9>
| 10> %scf
| 11>   MaxIter 150
| 12> end
| 13>
| 14>
| 15>                          ****END OF INPUT****

CARTESIAN COORDINATES (ANGSTROEM)
---------------------------------
  C      4.999862   -1.596133   -5.924876
  N      5.281560   -1.974132   -4.535764
  C      3.766779   -2.266110   -6.511752
  C      2.496702   -1.844161   -5.735704
  H      1.626416   -2.217434   -6.308950
  H      2.481824   -2.456069   -4.793414
  O      2.459729   -0.509204   -5.505757
  C      4.792500   -1.361316   -3.457295
  N      3.939898   -0.374925   -3.557359
  N      5.259860   -1.754224   -2.239133
  H      5.922824   -2.521451   -2.186720
  H      4.654678   -1.640404   -1.442016
  H      5.709139   -2.875599   -4.387021
  H      3.330101   -0.317639   -4.361247
  H      3.698494    0.114468   -2.708333
  H      4.843333   -0.517930   -5.943019
  H      5.901695   -1.822503   -6.496467
  H      3.886191   -3.357076   -6.533604
  H      3.685602   -1.922168   -7.547128

 Total Charge           Charge          ....    0
 Multiplicity           Mult            ....    1
 Number of Electrons    NEL             ....   64
 Basis Dimension        Dim             ....  251

ORBITAL ENERGIES
----------------

  NO   OCC          E(Eh)            E(eV)
   0   2.0000     -19.138891      -520.7957
   1   2.0000     -14.473430      -393.8421
   2   2.0000     -14.465904      -393.6373
   3   2.0000     -14.436724      -392.8432
   4   2.0000     -10.433353      -283.9060
   5   2.0000     -10.320089      -280.8239
   6   2.0000     -10.300750      -280.2977
   7   2.0000     -10.269561      -279.4490
   8   2.0000      -1.131482       -30.7892
   9   2.0000      -1.033346       -28.1188
  10   2.0000      -1.020946       -27.7813
  11   2.0000      -0.995392       -27.0860
  12   2.0000      -0.865956       -23.5638
  13   2.0000      -0.780162       -21.2293
  14   2.0000      -0.727106       -19.7856
  15   2.0000      -0.695370       -18.9220
  16   2.0000      -0.680759       -18.5244
  17   2.0000      -0.640421       -17.4268
  18   2.0000      -0.602173       -16.3860
  19   2.0000      -0.596904       -16.2426
  20   2.0000      -0.564160       -15.3516
  21   2.0000      -0.553013       -15.0483
  22   2.0000      -0.538123       -14.6431
  23   2.0000      -0.509341       -13.8599
  24   2.0000      -0.468270       -12.7423
  25   2.0000      -0.455489       -12.3945
  26   2.0000      -0.444412       -12.0931
  27   2.0000      -0.423533       -11.5249
  28   2.0000      -0.377873       -10.2825
  29   2.0000      -0.359951        -9.7948
  30   2.0000      -0.297077        -8.0839
  31   2.0000      -0.294339        -8.0094
  32   0.0000       0.090459         2.4615
  33   0.0000       0.096346         2.6217
  34   0.0000       0.115847         3.1524
  35   0.0000       0.122685         3.3384
  36   0.0000       0.127823         3.4782

MULLIKEN ATOMIC CHARGES
-----------------------
   0 C :    0.711620
   1 N :   -0.528809
   2 C :   -0.003632
   3 C :    0.523595
   4 H :   -0.386733
   5 H :    0.117746
   6 O :   -0.765635
   7 C :    1.103898
   8 N :    0.248597
   9 N :   -0.170626
  10 H :    0.012754
  11 H :    0.034052
  12 H :   -0.158208
  13 H :   -0.443157
  14 H :   -0.051918
  15 H :    0.158566
  16 H :   -0.322484
  17 H :   -0.098790
  18 H :    0.019164
Sum of atomic charges:    0.0000000

LOEWDIN ATOMIC CHARGES
----------------------
   0 C :    0.068272
   1 N :    0.046727
   2 C :   -0.024557
   3 C :   -0.119187
   4 H :   -0.002385
   5 H :    0.007762
   6 O :   -0.501838
   7 C :   -0.042999
   8 N :    0.284160
   9 N :    0.239648
  10 H :    0.029660
  11 H :    0.026227
  12 H :    0.058857
  13 H :   -0.200686
  14 H :    0.041942
  15 H :    0.017005
  16 H :    0.029070
  17 H :    0.021222
  18 H :    0.021101

  Mayer bond orders larger than 0.100000
B(  0-C ,  1-N ) :   0.8874 B(  0-C ,  2-C ) :   1.1467 B(  0-C , 12-H ) :  -0.1795
B(  0-C , 15-H ) :   0.7096 B(  0-C , 16-H ) :   0.9647 B(  0-C , 17-H ) :   0.1507
B(  0-C , 18-H ) :   0.1036 B(  1-N ,  7-C ) :   1.0237 B(  1-N ,  8-N ) :   0.1524
B(  1-N ,  9-N ) :   0.1864 B(  1-N , 12-H ) :   1.3174 B(  1-N , 15-H ) :   0.1780
B(  1-N , 16-H ) :   0.1281 B(  2-C ,  3-C ) :   1.1074 B(  2-C ,  4-H ) :   0.1411
B(  2-C ,  5-H ) :   0.1025 B(  2-C , 15-H ) :   0.1136 B(  2-C , 17-H ) :   0.9074
B(  2-C , 18-H ) :   0.8746 B(  3-C ,  4-H ) :   1.0153 B(  3-C ,  5-H ) :   0.8297
B(  3-C ,  6-O ) :   1.1036 B(  3-C , 17-H ) :   0.1036 B(  3-C , 18-H ) :   0.1016
B(  6-O , 13-H ) :   0.3788 B(  7-C ,  8-N ) :   1.1540 B(  7-C ,  9-N ) :   0.8595
B(  7-C , 12-H ) :  -0.1751 B(  7-C , 13-H ) :  -0.1246 B(  8-N ,  9-N ) :   0.1495
B(  8-N , 13-H ) :   1.1522 B(  8-N , 14-H ) :   1.1639 B(  9-N , 10-H ) :   1.0815
B(  9-N , 11-H ) :   1.1045 B( 10-H , 11-H ) :  -0.1286 B( 13-H , 14-H ) :  -0.2079
B( 15-H , 16-H ) :  -0.1239

Dispersion correction           -0.006193557
FINAL SINGLE POINT ENERGY      -398.173636385926

DIPOLE MOMENT
-------------
                                X             Y             Z
Electronic contribution:      2.70796       1.20853       4.34035
Nuclear contribution   :      0.51577      -3.31768      -1.36804
                        -----------------------------------------
Total Dipole Moment    :      3.22372      -2.10915       2.97231
                        -----------------------------------------
Magnitude (a.u.)       :      4.86575
Magnitude (Debye)      :     12.36776

Rotational constants in cm-1:     0.111492     0.050787     0.040163
Rotational constants in MHz :  3342.457536  1522.560798  1204.057148

                             ****ORCA TERMINATED NORMALLY****
TOTAL RUN TIME: 0 days 0 hours 0 minutes 21 seconds 305 msec
