                         Program Version 5.0.0 -  RELEASE  -
|  1> !wB97X-D3 RIJCOSX def2-SVPD def2/J TightSCF CPCM(Water)
|  2> *xyz 0 1
|  3> C          4.99986       -1.59613       -5.92488
|  4> C          3.76678       -2.26611       -6.51175
|  5> C          2.49670       -1.84416       -5.73570
|  6> H          1.62642       -2.21743       -6.30895
|  7> H          2.48182       -2.45607       -4.79341
|  8> F          2.45973       -0.50920       -5.50576
|  9> H          3.88619       -3.35708       -6.53360
| 10> H          3.68560       -1.92217       -7.54713
| 11> H          5.86637       -1.89999       -6.47418
| 12> H          5.10830       -1.88372       -4.89997
| 13> H          4.89230       -0.53341       -5.98765
| 14> *
| 15>
| 16> %MaxCore 64000
| 17>
| 18> %pal nprocs 18
| 19> end
| 20>
| 21> %scf
| 22>   MaxIter 150
| 23> end
| 24>
| 25>
| 26>                          ****END OF INPUT****

CARTESIAN COORDINATES (ANGSTROEM)
---------------------------------
  C      4.999860   -1.596130   -5.924880
  C      3.766780   -2.266110   -6.511750
  C      2.496700   -1.844160   -5.735700
  H      1.626420   -2.217430   -6.308950
  H      2.481820   -2.456070   -4.793410
  F      2.459730   -0.509200   -5.505760
  H      3.886190   -3.357080   -6.533600
  H      3.685600   -1.922170   -7.547130
  H      5.866370   -1.899990   -6.474180
  H      5.108300   -1.883720   -4.899970
  H      4.892300   -0.533410   -5.987650

 Total Charge           Charge          ....    0
 Multiplicity           Mult            ....    1
 Number of Electrons    NEL             ....   34
 Basis Dimension        Dim             ....  139

ORBITAL ENERGIES
----------------

  NO   OCC          E(Eh)            E(eV)
   0   2.0000     -24.800236      -674.8487
   1   2.0000     -10.362598      -281.9806
   2   2.0000     -10.285918      -279.8940
   3   2.0000     -10.267024      -279.3799
   4   2.0000      -1.314315       -35.7643
   5   2.0000      -0.892329       -24.2815
   6   2.0000      -0.792000       -21.5514
   7   2.0000      -0.696215       -18.9450
   8   2.0000      -0.617470       -16.8022
   9   2.0000      -0.601372       -16.3642
  10   2.0000      -0.580442       -15.7946
  11   2.0000      -0.533707       -14.5229
  12   2.0000      -0.494859       -13.4658
  13   2.0000      -0.466215       -12.6863
  14   2.0000      -0.444799       -12.1036
  15   2.0000      -0.415942       -11.3184
  16   2.0000      -0.411103       -11.1867
  17   0.0000       0.098604         2.6832
  18   0.0000       0.124723         3.3939
  19   0.0000       0.132237         3.5984
  20   0.0000       0.151623         4.1259
  21   0.0000       0.174897         4.7592

MULLIKEN ATOMIC CHARGES
-----------------------
   0 C :    0.514080
   1 C :   -0.538693
   2 C :    0.639950
   3 H :   -0.031474
   4 H :    0.045132
   5 F :   -0.465485
   6 H :   -0.045863
   7 H :   -0.013174
   8 H :   -0.058245
   9 H :   -0.042396
  10 H :   -0.003833
Sum of atomic charges:    0.0000000

LOEWDIN ATOMIC CHARGES
----------------------
   0 C :    0.105363
   1 C :   -0.063308
   2 C :    0.098802
   3 H :    0.034328
   4 H :    0.046749
   5 F :   -0.228664
   6 H :    0.033676
   7 H :    0.022087
   8 H :   -0.015674
   9 H :   -0.012630
  10 H :   -0.020729

  Mayer bond orders larger than 0.100000
B(  0-C ,  1-C ) :   1.2849 B(  0-C ,  8-H ) :   0.8574 B(  0-C ,  9-H ) :   0.8479
B(  0-C , 10-H ) :   0.8364 B(  1-C ,  2-C ) :   1.1546 B(  1-C ,  6-H ) :   1.0046
B(  1-C ,  7-H ) :   0.9583 B(  1-C ,  8-H ) :   0.1691 B(  1-C ,  9-H ) :   0.1603
B(  1-C , 10-H ) :   0.1605 B(  2-C ,  3-H ) :   0.9489 B(  2-C ,  4-H ) :   0.9108
B(  2-C ,  5-F ) :   0.7109

Dispersion correction           -0.001918220
FINAL SINGLE POINT ENERGY      -218.167166916744

DIPOLE MOMENT
-------------
                                X             Y             Z
Electronic contribution:     -4.39994       3.66069       1.38408
Nuclear contribution   :      4.50596      -4.50325      -1.58424
                        -----------------------------------------
Total Dipole Moment    :      0.10603      -0.84256      -0.20016
                        -----------------------------------------
Magnitude (a.u.)       :      0.87247
Magnitude (Debye)      :      2.21765

Rotational constants in cm-1:     0.464063     0.182606     0.146573
Rotational constants in MHz : 13912.251583  5474.398056  4394.141907

                             ****ORCA TERMINATED NORMALLY****
TOTAL RUN TIME: 0 days 0 hours 0 minutes 7 seconds 90 msec
