                         Program Version 5.0.0 -  RELEASE  -
|  1> !wB97X-D3 RIJCOSX def2-SVPD def2/J TightSCF CPCM(Water)
|  2> *xyz 0 1
|  3> C          4.99986       -1.59613       -5.92488
|  4> C          5.28156       -1.97413       -4.53576
|  5> C          3.76678       -2.26611       -6.51175
|  6> C          2.49670       -1.84416       -5.73570
|  7> C          4.79250       -1.36132       -3.45730
|  8> N          3.93990       -0.37492       -3.55736
|  9> N          5.25986       -1.75422       -2.23913
| 10> H          5.92282       -2.52145       -2.18672
| 11> H          4.65468       -1.64040       -1.44202
| 12> H          5.70914       -2.87560       -4.38702
| 13> H          3.33010       -0.31764       -4.36125
| 14> H          3.69849        0.11447       -2.70833
| 15> H          4.84333       -0.51793       -5.94302
| 16> H          5.90170       -1.82250       -6.49647
| 17> H          3.88619       -3.35708       -6.53360
| 18> H          3.68560       -1.92217       -7.54713
| 19> H          1.64155       -2.32499       -6.16281
| 20> H          2.37707       -0.78268       -5.79763
| 21> H          2.59306       -2.13299       -4.70994
| 22> *
| 23>
| 24> %MaxCore 64000
| 25>
| 26> %pal nprocs 18
| 27> end
| 28>
| 29> %scf
| 30>   MaxIter 150
| 31> end
| 32>
| 33>
| 34>                          ****END OF INPUT****

CARTESIAN COORDINATES (ANGSTROEM)
---------------------------------
  C      4.999860   -1.596130   -5.924880
  C      5.281560   -1.974130   -4.535760
  C      3.766780   -2.266110   -6.511750
  C      2.496700   -1.844160   -5.735700
  C      4.792500   -1.361320   -3.457300
  N      3.939900   -0.374920   -3.557360
  N      5.259860   -1.754220   -2.239130
  H      5.922820   -2.521450   -2.186720
  H      4.654680   -1.640400   -1.442020
  H      5.709140   -2.875600   -4.387020
  H      3.330100   -0.317640   -4.361250
  H      3.698490    0.114470   -2.708330
  H      4.843330   -0.517930   -5.943020
  H      5.901700   -1.822500   -6.496470
  H      3.886190   -3.357080   -6.533600
  H      3.685600   -1.922170   -7.547130
  H      1.641550   -2.324990   -6.162810
  H      2.377070   -0.782680   -5.797630
  H      2.593060   -2.132990   -4.709940

 Total Charge           Charge          ....    0
 Multiplicity           Mult            ....    1
 Number of Electrons    NEL             ....   56
 Basis Dimension        Dim             ....  236

ORBITAL ENERGIES
----------------

  NO   OCC          E(Eh)            E(eV)
   0   2.0000     -14.430977      -392.6869
   1   2.0000     -14.427899      -392.6031
   2   2.0000     -10.335885      -281.2537
   3   2.0000     -10.274181      -279.5747
   4   2.0000     -10.267460      -279.3918
   5   2.0000     -10.265198      -279.3302
   6   2.0000     -10.215209      -277.9700
   7   2.0000      -1.068561       -29.0770
   8   2.0000      -0.972288       -26.4573
   9   2.0000      -0.901356       -24.5271
  10   2.0000      -0.832544       -22.6547
  11   2.0000      -0.766752       -20.8644
  12   2.0000      -0.707543       -19.2532
  13   2.0000      -0.664558       -18.0835
  14   2.0000      -0.642349       -17.4792
  15   2.0000      -0.607238       -16.5238
  16   2.0000      -0.574821       -15.6417
  17   2.0000      -0.548002       -14.9119
  18   2.0000      -0.537348       -14.6220
  19   2.0000      -0.517577       -14.0840
  20   2.0000      -0.488655       -13.2970
  21   2.0000      -0.469924       -12.7873
  22   2.0000      -0.452353       -12.3092
  23   2.0000      -0.430649       -11.7186
  24   2.0000      -0.414830       -11.2881
  25   2.0000      -0.411025       -11.1846
  26   2.0000      -0.356317        -9.6959
  27   2.0000      -0.253592        -6.9006
  28   0.0000       0.097457         2.6519
  29   0.0000       0.116791         3.1780
  30   0.0000       0.121251         3.2994
  31   0.0000       0.130878         3.5614
  32   0.0000       0.141706         3.8560

MULLIKEN ATOMIC CHARGES
-----------------------
   0 C :    0.120178
   1 C :   -0.219026
   2 C :   -0.132011
   3 C :    0.435883
   4 C :    0.741662
   5 N :    0.215201
   6 N :   -0.177080
   7 H :    0.019730
   8 H :   -0.016829
   9 H :   -0.288843
  10 H :   -0.360264
  11 H :   -0.126903
  12 H :    0.055423
  13 H :   -0.161941
  14 H :   -0.124483
  15 H :   -0.024489
  16 H :   -0.278205
  17 H :    0.237630
  18 H :    0.084369
Sum of atomic charges:    0.0000000

LOEWDIN ATOMIC CHARGES
----------------------
   0 C :   -0.078535
   1 C :   -0.043095
   2 C :   -0.061515
   3 C :    0.119382
   4 C :   -0.236132
   5 N :    0.215010
   6 N :    0.176717
   7 H :    0.008221
   8 H :   -0.004581
   9 H :   -0.057020
  10 H :   -0.051201
  11 H :    0.019188
  12 H :    0.010778
  13 H :    0.010656
  14 H :    0.021563
  15 H :    0.013933
  16 H :   -0.017754
  17 H :   -0.014625
  18 H :   -0.030991

  Mayer bond orders larger than 0.100000
B(  0-C ,  1-C ) :   1.2023 B(  0-C ,  2-C ) :   1.1077 B(  0-C ,  9-H ) :   0.2270
B(  0-C , 12-H ) :   0.7810 B(  0-C , 13-H ) :   0.9115 B(  0-C , 14-H ) :   0.1569
B(  0-C , 15-H ) :   0.1264 B(  1-C ,  4-C ) :   1.6057 B(  1-C ,  5-N ) :   0.2432
B(  1-C ,  6-N ) :   0.2840 B(  1-C ,  9-H ) :   0.8855 B(  1-C , 10-H ) :  -0.1037
B(  1-C , 12-H ) :   0.2390 B(  1-C , 13-H ) :   0.1599 B(  2-C ,  3-C ) :   1.2782
B(  2-C , 12-H ) :   0.1012 B(  2-C , 14-H ) :   0.9751 B(  2-C , 15-H ) :   0.8805
B(  2-C , 16-H ) :   0.1868 B(  2-C , 17-H ) :   0.1243 B(  2-C , 18-H ) :   0.1594
B(  3-C , 10-H ) :   0.1572 B(  3-C , 15-H ) :   0.1087 B(  3-C , 16-H ) :   0.9647
B(  3-C , 17-H ) :   0.6995 B(  3-C , 18-H ) :   0.8179 B(  4-C ,  5-N ) :   1.0433
B(  4-C ,  6-N ) :   0.7936 B(  4-C ,  9-H ) :   0.1382 B(  4-C , 11-H ) :  -0.1233
B(  4-C , 12-H ) :  -0.1177 B(  5-N , 10-H ) :   1.0860 B(  5-N , 11-H ) :   1.2482
B(  6-N ,  7-H ) :   1.0758 B(  6-N ,  8-H ) :   1.0827 B(  7-H ,  8-H ) :  -0.1197
B( 10-H , 11-H ) :  -0.1937 B( 10-H , 17-H ) :   0.1578

Dispersion correction           -0.005525180
FINAL SINGLE POINT ENERGY      -306.956107071844

DIPOLE MOMENT
-------------
                                X             Y             Z
Electronic contribution:      2.55269       1.09611       4.54669
Nuclear contribution   :     -3.49027      -1.01686      -3.60427
                        -----------------------------------------
Total Dipole Moment    :     -0.93758       0.07924       0.94242
                        -----------------------------------------
Magnitude (a.u.)       :      1.33172
Magnitude (Debye)      :      3.38497

Rotational constants in cm-1:     0.155200     0.057307     0.048781
Rotational constants in MHz :  4652.781345  1718.017305  1462.410307

                             ****ORCA TERMINATED NORMALLY****
TOTAL RUN TIME: 0 days 0 hours 0 minutes 18 seconds 443 msec
