                         Program Version 5.0.0 -  RELEASE  -
|  1> !wB97X-D3 RIJCOSX def2-SVPD def2/J TightSCF CPCM(Water)
|  2> *xyz 0 1
|  3> C          4.99986       -1.59613       -5.92488
|  4> N          5.28156       -1.97413       -4.53576
|  5> C          3.76678       -2.26611       -6.51175
|  6> C          2.49670       -1.84416       -5.73570
|  7> C          4.79250       -1.36132       -3.45730
|  8> C          3.93990       -0.37492       -3.55736
|  9> N          5.25986       -1.75422       -2.23913
| 10> H          5.92282       -2.52145       -2.18672
| 11> H          4.65468       -1.64040       -1.44202
| 12> H          5.70914       -2.87560       -4.38702
| 13> H          3.33010       -0.31764       -4.36125
| 14> H          3.69849        0.11447       -2.70833
| 15> H          4.84333       -0.51793       -5.94302
| 16> H          5.90170       -1.82250       -6.49647
| 17> H          3.88619       -3.35708       -6.53360
| 18> H          3.68560       -1.92217       -7.54713
| 19> H          1.64155       -2.32499       -6.16281
| 20> H          2.37707       -0.78268       -5.79763
| 21> H          2.59306       -2.13299       -4.70994
| 22> *
| 23>
| 24> %MaxCore 64000
| 25>
| 26> %pal nprocs 18
| 27> end
| 28>
| 29> %scf
| 30>   MaxIter 150
| 31> end
| 32>
| 33>
| 34>                          ****END OF INPUT****

CARTESIAN COORDINATES (ANGSTROEM)
---------------------------------
  C      4.999860   -1.596130   -5.924880
  N      5.281560   -1.974130   -4.535760
  C      3.766780   -2.266110   -6.511750
  C      2.496700   -1.844160   -5.735700
  C      4.792500   -1.361320   -3.457300
  C      3.939900   -0.374920   -3.557360
  N      5.259860   -1.754220   -2.239130
  H      5.922820   -2.521450   -2.186720
  H      4.654680   -1.640400   -1.442020
  H      5.709140   -2.875600   -4.387020
  H      3.330100   -0.317640   -4.361250
  H      3.698490    0.114470   -2.708330
  H      4.843330   -0.517930   -5.943020
  H      5.901700   -1.822500   -6.496470
  H      3.886190   -3.357080   -6.533600
  H      3.685600   -1.922170   -7.547130
  H      1.641550   -2.324990   -6.162810
  H      2.377070   -0.782680   -5.797630
  H      2.593060   -2.132990   -4.709940

 Total Charge           Charge          ....    0
 Multiplicity           Mult            ....    1
 Number of Electrons    NEL             ....   56
 Basis Dimension        Dim             ....  236

ORBITAL ENERGIES
----------------

  NO   OCC          E(Eh)            E(eV)
   0   2.0000     -14.436020      -392.8241
   1   2.0000     -14.430346      -392.6697
   2   2.0000     -10.341019      -281.3934
   3   2.0000     -10.313645      -280.6485
   4   2.0000     -10.281456      -279.7727
   5   2.0000     -10.264390      -279.3082
   6   2.0000     -10.205036      -277.6932
   7   2.0000      -1.071831       -29.1660
   8   2.0000      -0.984414       -26.7873
   9   2.0000      -0.882610       -24.0170
  10   2.0000      -0.836189       -22.7539
  11   2.0000      -0.786491       -21.4015
  12   2.0000      -0.709156       -19.2971
  13   2.0000      -0.663423       -18.0527
  14   2.0000      -0.638951       -17.3868
  15   2.0000      -0.611311       -16.6346
  16   2.0000      -0.562975       -15.3193
  17   2.0000      -0.558185       -15.1890
  18   2.0000      -0.529788       -14.4163
  19   2.0000      -0.505686       -13.7604
  20   2.0000      -0.490009       -13.3338
  21   2.0000      -0.474687       -12.9169
  22   2.0000      -0.474186       -12.9033
  23   2.0000      -0.436534       -11.8787
  24   2.0000      -0.431470       -11.7409
  25   2.0000      -0.420506       -11.4425
  26   2.0000      -0.342304        -9.3146
  27   2.0000      -0.267742        -7.2856
  28   0.0000       0.097397         2.6503
  29   0.0000       0.115675         3.1477
  30   0.0000       0.119690         3.2569
  31   0.0000       0.123388         3.3576
  32   0.0000       0.146007         3.9730

MULLIKEN ATOMIC CHARGES
-----------------------
   0 C :    0.666109
   1 N :   -0.512469
   2 C :   -0.185106
   3 C :    0.317669
   4 C :    0.602535
   5 C :    0.694689
   6 N :   -0.074194
   7 H :   -0.039695
   8 H :    0.044459
   9 H :   -0.242833
  10 H :   -0.891045
  11 H :   -0.377891
  12 H :    0.122943
  13 H :   -0.304669
  14 H :   -0.098829
  15 H :    0.016280
  16 H :   -0.349641
  17 H :    0.410667
  18 H :    0.201022
Sum of atomic charges:   -0.0000000

LOEWDIN ATOMIC CHARGES
----------------------
   0 C :    0.050148
   1 N :   -0.009158
   2 C :   -0.046634
   3 C :    0.116185
   4 C :   -0.239029
   5 C :    0.130551
   6 N :    0.183956
   7 H :    0.003403
   8 H :    0.005234
   9 H :    0.036367
  10 H :   -0.152900
  11 H :   -0.094681
  12 H :    0.019938
  13 H :    0.023040
  14 H :    0.022343
  15 H :    0.021134
  16 H :   -0.019916
  17 H :   -0.017175
  18 H :   -0.032804

  Mayer bond orders larger than 0.100000
B(  0-C ,  1-N ) :   0.8958 B(  0-C ,  2-C ) :   1.0913 B(  0-C ,  5-C ) :   0.1006
B(  0-C ,  9-H ) :  -0.1766 B(  0-C , 12-H ) :   0.7305 B(  0-C , 13-H ) :   1.0036
B(  0-C , 14-H ) :   0.1176 B(  0-C , 15-H ) :   0.1112 B(  1-N ,  4-C ) :   0.9279
B(  1-N ,  5-C ) :   0.2953 B(  1-N ,  6-N ) :   0.1430 B(  1-N ,  9-H ) :   1.3884
B(  1-N , 12-H ) :   0.1456 B(  1-N , 13-H ) :   0.1166 B(  2-C ,  3-C ) :   1.2823
B(  2-C , 12-H ) :   0.1308 B(  2-C , 14-H ) :   0.9850 B(  2-C , 15-H ) :   0.8927
B(  2-C , 16-H ) :   0.1730 B(  2-C , 17-H ) :   0.1015 B(  2-C , 18-H ) :   0.1290
B(  3-C , 10-H ) :   0.3442 B(  3-C , 15-H ) :   0.1049 B(  3-C , 16-H ) :   1.0340
B(  3-C , 17-H ) :   0.6010 B(  3-C , 18-H ) :   0.8139 B(  4-C ,  5-C ) :   1.8386
B(  4-C ,  6-N ) :   0.9001 B(  4-C ,  9-H ) :  -0.2226 B(  4-C , 10-H ) :   0.1295
B(  4-C , 11-H ) :   0.3627 B(  5-C ,  6-N ) :   0.2986 B(  5-C , 10-H ) :   0.3780
B(  5-C , 11-H ) :   0.6194 B(  6-N ,  7-H ) :   1.0163 B(  6-N ,  8-H ) :   1.0417
B(  6-N , 11-H ) :   0.1668 B(  7-H ,  8-H ) :  -0.1268 B( 10-H , 17-H ) :   0.1416
B( 12-H , 13-H ) :  -0.1296 B( 16-H , 17-H ) :  -0.1552

Dispersion correction           -0.005494292
FINAL SINGLE POINT ENERGY      -306.943944960539

DIPOLE MOMENT
-------------
                                X             Y             Z
Electronic contribution:      4.16520      -0.84711       3.31107
Nuclear contribution   :     -3.78417      -0.66655      -3.38995
                        -----------------------------------------
Total Dipole Moment    :      0.38104      -1.51366      -0.07888
                        -----------------------------------------
Magnitude (a.u.)       :      1.56287
Magnitude (Debye)      :      3.97250

Rotational constants in cm-1:     0.157710     0.057795     0.049101
Rotational constants in MHz :  4728.033540  1732.635996  1472.015132

                             ****ORCA TERMINATED NORMALLY****
TOTAL RUN TIME: 0 days 0 hours 0 minutes 20 seconds 148 msec
