                         Program Version 5.0.0 -  RELEASE  -
|  1> !wB97X-D3 RIJCOSX def2-SVPD def2/J TightSCF CPCM(Water)
|  2> *xyz 0 1
|  3> C          4.99986       -1.59613       -5.92488
|  4> N          5.28156       -1.97413       -4.53576
|  5> C          3.76678       -2.26611       -6.51175
|  6> C          2.49670       -1.84416       -5.73570
|  7> C          4.79250       -1.36132       -3.45730
|  8> N          3.93990       -0.37492       -3.55736
|  9> C          5.25986       -1.75422       -2.23913
| 10> H          5.92282       -2.52145       -2.18672
| 11> H          4.65468       -1.64040       -1.44202
| 12> H          5.70914       -2.87560       -4.38702
| 13> H          3.33010       -0.31764       -4.36125
| 14> H          3.69849        0.11447       -2.70833
| 15> H          4.84333       -0.51793       -5.94302
| 16> H          5.90170       -1.82250       -6.49647
| 17> H          3.88619       -3.35708       -6.53360
| 18> H          3.68560       -1.92217       -7.54713
| 19> H          1.64155       -2.32499       -6.16281
| 20> H          2.37707       -0.78268       -5.79763
| 21> H          2.59306       -2.13299       -4.70994
| 22> *
| 23>
| 24> %MaxCore 64000
| 25>
| 26> %pal nprocs 18
| 27> end
| 28>
| 29> %scf
| 30>   MaxIter 150
| 31> end
| 32>
| 33>
| 34>                          ****END OF INPUT****

CARTESIAN COORDINATES (ANGSTROEM)
---------------------------------
  C      4.999860   -1.596130   -5.924880
  N      5.281560   -1.974130   -4.535760
  C      3.766780   -2.266110   -6.511750
  C      2.496700   -1.844160   -5.735700
  C      4.792500   -1.361320   -3.457300
  N      3.939900   -0.374920   -3.557360
  C      5.259860   -1.754220   -2.239130
  H      5.922820   -2.521450   -2.186720
  H      4.654680   -1.640400   -1.442020
  H      5.709140   -2.875600   -4.387020
  H      3.330100   -0.317640   -4.361250
  H      3.698490    0.114470   -2.708330
  H      4.843330   -0.517930   -5.943020
  H      5.901700   -1.822500   -6.496470
  H      3.886190   -3.357080   -6.533600
  H      3.685600   -1.922170   -7.547130
  H      1.641550   -2.324990   -6.162810
  H      2.377070   -0.782680   -5.797630
  H      2.593060   -2.132990   -4.709940

 Total Charge           Charge          ....    0
 Multiplicity           Mult            ....    1
 Number of Electrons    NEL             ....   56
 Basis Dimension        Dim             ....  236

ORBITAL ENERGIES
----------------

  NO   OCC          E(Eh)            E(eV)
   0   2.0000     -14.438338      -392.8872
   1   2.0000     -14.435675      -392.8147
   2   2.0000     -10.350037      -281.6388
   3   2.0000     -10.316577      -280.7283
   4   2.0000     -10.284604      -279.8583
   5   2.0000     -10.273793      -279.5641
   6   2.0000     -10.207230      -277.7528
   7   2.0000      -1.084020       -29.4977
   8   2.0000      -0.995008       -27.0755
   9   2.0000      -0.896621       -24.3983
  10   2.0000      -0.825593       -22.4655
  11   2.0000      -0.780358       -21.2346
  12   2.0000      -0.708710       -19.2850
  13   2.0000      -0.695691       -18.9307
  14   2.0000      -0.648634       -17.6502
  15   2.0000      -0.601597       -16.3703
  16   2.0000      -0.574971       -15.6457
  17   2.0000      -0.555597       -15.1186
  18   2.0000      -0.544466       -14.8157
  19   2.0000      -0.498967       -13.5776
  20   2.0000      -0.492448       -13.4002
  21   2.0000      -0.488025       -13.2798
  22   2.0000      -0.467209       -12.7134
  23   2.0000      -0.445411       -12.1202
  24   2.0000      -0.433870       -11.8062
  25   2.0000      -0.430549       -11.7158
  26   2.0000      -0.347708        -9.4616
  27   2.0000      -0.259684        -7.0664
  28   0.0000       0.094990         2.5848
  29   0.0000       0.113271         3.0823
  30   0.0000       0.120366         3.2753
  31   0.0000       0.127395         3.4666
  32   0.0000       0.138923         3.7803

MULLIKEN ATOMIC CHARGES
-----------------------
   0 C :    0.656484
   1 N :   -0.302887
   2 C :   -0.153556
   3 C :    0.386894
   4 C :    0.177340
   5 N :    0.293272
   6 C :    0.408686
   7 H :   -0.283352
   8 H :   -0.274071
   9 H :   -0.229947
  10 H :   -0.419246
  11 H :   -0.010031
  12 H :    0.056459
  13 H :   -0.332750
  14 H :   -0.093383
  15 H :    0.037358
  16 H :   -0.306769
  17 H :    0.240987
  18 H :    0.148512
Sum of atomic charges:    0.0000000

LOEWDIN ATOMIC CHARGES
----------------------
   0 C :    0.049002
   1 N :   -0.000968
   2 C :   -0.047830
   3 C :    0.122400
   4 C :   -0.251758
   5 N :    0.219972
   6 C :    0.098490
   7 H :   -0.121804
   8 H :   -0.128187
   9 H :    0.043349
  10 H :   -0.053164
  11 H :    0.029388
  12 H :    0.022194
  13 H :    0.024040
  14 H :    0.024978
  15 H :    0.023502
  16 H :   -0.014143
  17 H :   -0.012507
  18 H :   -0.026954

  Mayer bond orders larger than 0.100000
B(  0-C ,  1-N ) :   0.9280 B(  0-C ,  2-C ) :   1.0961 B(  0-C ,  9-H ) :  -0.1991
B(  0-C , 12-H ) :   0.7678 B(  0-C , 13-H ) :   0.9944 B(  0-C , 14-H ) :   0.1359
B(  0-C , 15-H ) :   0.1165 B(  1-N ,  4-C ) :   1.1086 B(  1-N ,  5-N ) :   0.1128
B(  1-N ,  6-C ) :   0.1893 B(  1-N ,  9-H ) :   1.2253 B(  1-N , 12-H ) :   0.1700
B(  1-N , 13-H ) :   0.1160 B(  2-C ,  3-C ) :   1.2625 B(  2-C , 12-H ) :   0.1099
B(  2-C , 14-H ) :   0.9774 B(  2-C , 15-H ) :   0.8816 B(  2-C , 16-H ) :   0.1711
B(  2-C , 17-H ) :   0.1158 B(  2-C , 18-H ) :   0.1411 B(  3-C , 10-H ) :   0.1595
B(  3-C , 16-H ) :   1.0044 B(  3-C , 17-H ) :   0.7012 B(  3-C , 18-H ) :   0.8141
B(  4-C ,  5-N ) :   1.1434 B(  4-C ,  6-C ) :   1.8770 B(  4-C ,  7-H ) :   0.1846
B(  4-C ,  8-H ) :   0.2303 B(  4-C ,  9-H ) :  -0.1354 B(  5-N ,  6-C ) :   0.1480
B(  5-N , 10-H ) :   1.0553 B(  5-N , 11-H ) :   1.1736 B(  6-C ,  7-H ) :   0.7462
B(  6-C ,  8-H ) :   0.7701 B(  7-H ,  8-H ) :   0.2164 B( 10-H , 11-H ) :  -0.1959
B( 10-H , 17-H ) :   0.1488 B( 12-H , 13-H ) :  -0.1242 B( 16-H , 17-H ) :  -0.1086

Dispersion correction           -0.005596481
FINAL SINGLE POINT ENERGY      -306.944332647035

DIPOLE MOMENT
-------------
                                X             Y             Z
Electronic contribution:      2.42301       0.92257       1.42606
Nuclear contribution   :     -3.49502      -0.96869      -3.10119
                        -----------------------------------------
Total Dipole Moment    :     -1.07201      -0.04612      -1.67513
                        -----------------------------------------
Magnitude (a.u.)       :      1.98932
Magnitude (Debye)      :      5.05644

Rotational constants in cm-1:     0.153385     0.059790     0.050215
Rotational constants in MHz :  4598.376479  1792.462869  1505.410199

                             ****ORCA TERMINATED NORMALLY****
TOTAL RUN TIME: 0 days 0 hours 0 minutes 20 seconds 145 msec
