                         Program Version 5.0.0 -  RELEASE  -
|  1> !wB97X-D3 RIJCOSX def2-SVPD def2/J TightSCF CPCM(Water)  xyzfile
|  2>
|  3> *xyzfile 0 1 D1.xyz
|  4>
|  5> %MaxCore 64000
|  6>
|  7> %pal nprocs 18
|  8> end
|  9>
| 10> %scf
| 11>   MaxIter 150
| 12> end
| 13>
| 14>
| 15>                          ****END OF INPUT****

CARTESIAN COORDINATES (ANGSTROEM)
---------------------------------
  C      4.999862   -1.596133   -5.924876
  C      5.281560   -1.974132   -4.535764
  C      3.766779   -2.266110   -6.511752
  C      2.496702   -1.844161   -5.735704
  H      1.626416   -2.217434   -6.308950
  H      2.481824   -2.456069   -4.793414
  F      2.459729   -0.509204   -5.505757
  C      4.792500   -1.361316   -3.457295
  N      3.939898   -0.374925   -3.557359
  N      5.259860   -1.754224   -2.239133
  H      5.922824   -2.521451   -2.186720
  H      4.654678   -1.640404   -1.442016
  H      5.709139   -2.875599   -4.387021
  H      3.330101   -0.317639   -4.361247
  H      3.698494    0.114468   -2.708333
  H      4.843333   -0.517930   -5.943019
  H      5.901695   -1.822503   -6.496467
  H      3.886191   -3.357076   -6.533604
  H      3.685602   -1.922168   -7.547128

 Total Charge           Charge          ....    0
 Multiplicity           Mult            ....    1
 Number of Electrons    NEL             ....   64
 Basis Dimension        Dim             ....  251

ORBITAL ENERGIES
----------------

  NO   OCC          E(Eh)            E(eV)
   0   2.0000     -24.824434      -675.5072
   1   2.0000     -14.426093      -392.5540
   2   2.0000     -14.413869      -392.2213
   3   2.0000     -10.368458      -282.1401
   4   2.0000     -10.333253      -281.1821
   5   2.0000     -10.282599      -279.8037
   6   2.0000     -10.268664      -279.4246
   7   2.0000     -10.213078      -277.9120
   8   2.0000      -1.346730       -36.6464
   9   2.0000      -1.062933       -28.9239
  10   2.0000      -0.967515       -26.3274
  11   2.0000      -0.906237       -24.6599
  12   2.0000      -0.833335       -22.6762
  13   2.0000      -0.779721       -21.2173
  14   2.0000      -0.705719       -19.2036
  15   2.0000      -0.695550       -18.9269
  16   2.0000      -0.649075       -17.6622
  17   2.0000      -0.630578       -17.1589
  18   2.0000      -0.619244       -16.8505
  19   2.0000      -0.598354       -16.2820
  20   2.0000      -0.592624       -16.1261
  21   2.0000      -0.552480       -15.0338
  22   2.0000      -0.526489       -14.3265
  23   2.0000      -0.509256       -13.8576
  24   2.0000      -0.494851       -13.4656
  25   2.0000      -0.471299       -12.8247
  26   2.0000      -0.450669       -12.2633
  27   2.0000      -0.431093       -11.7306
  28   2.0000      -0.420601       -11.4451
  29   2.0000      -0.409190       -11.1346
  30   2.0000      -0.352218        -9.5843
  31   2.0000      -0.251695        -6.8490
  32   0.0000       0.096309         2.6207
  33   0.0000       0.116601         3.1729
  34   0.0000       0.122380         3.3301
  35   0.0000       0.125527         3.4158
  36   0.0000       0.141423         3.8483

MULLIKEN ATOMIC CHARGES
-----------------------
   0 C :    0.107813
   1 C :   -0.214053
   2 C :   -0.079401
   3 C :    0.692241
   4 H :   -0.204686
   5 H :    0.206311
   6 F :   -0.445943
   7 C :    0.718724
   8 N :    0.333106
   9 N :   -0.185009
  10 H :    0.009957
  11 H :   -0.010500
  12 H :   -0.289282
  13 H :   -0.333422
  14 H :   -0.158873
  15 H :    0.146344
  16 H :   -0.204499
  17 H :   -0.100094
  18 H :    0.011265
Sum of atomic charges:    0.0000000

LOEWDIN ATOMIC CHARGES
----------------------
   0 C :   -0.068552
   1 C :   -0.044536
   2 C :   -0.011529
   3 C :    0.144733
   4 H :    0.040526
   5 H :    0.049199
   6 F :   -0.193382
   7 C :   -0.230850
   8 N :    0.226499
   9 N :    0.174896
  10 H :    0.006620
  11 H :   -0.005574
  12 H :   -0.059204
  13 H :   -0.125543
  14 H :    0.016038
  15 H :    0.009490
  16 H :    0.014040
  17 H :    0.036692
  18 H :    0.020438

  Mayer bond orders larger than 0.100000
B(  0-C ,  1-C ) :   1.2014 B(  0-C ,  2-C ) :   1.1313 B(  0-C , 12-H ) :   0.2214
B(  0-C , 15-H ) :   0.7537 B(  0-C , 16-H ) :   0.9211 B(  0-C , 17-H ) :   0.1559
B(  0-C , 18-H ) :   0.1105 B(  1-C ,  7-C ) :   1.5960 B(  1-C ,  8-N ) :   0.2242
B(  1-C ,  9-N ) :   0.2926 B(  1-C , 12-H ) :   0.8692 B(  1-C , 13-H ) :  -0.1047
B(  1-C , 15-H ) :   0.2411 B(  1-C , 16-H ) :   0.1453 B(  2-C ,  3-C ) :   1.2066
B(  2-C ,  4-H ) :   0.1484 B(  2-C ,  5-H ) :   0.1090 B(  2-C , 17-H ) :   0.9509
B(  2-C , 18-H ) :   0.8884 B(  3-C ,  4-H ) :   0.9975 B(  3-C ,  5-H ) :   0.8245
B(  3-C ,  6-F ) :   0.6044 B(  6-F , 13-H ) :   0.1230 B(  7-C ,  8-N ) :   1.0644
B(  7-C ,  9-N ) :   0.7709 B(  7-C , 12-H ) :   0.1447 B(  7-C , 14-H ) :  -0.1209
B(  7-C , 15-H ) :  -0.1087 B(  8-N , 13-H ) :   1.1467 B(  8-N , 14-H ) :   1.2089
B(  9-N , 10-H ) :   1.0971 B(  9-N , 11-H ) :   1.0658 B(  9-N , 12-H ) :   0.1051
B( 10-H , 11-H ) :  -0.1202 B( 13-H , 14-H ) :  -0.1869

Dispersion correction           -0.006125443
FINAL SINGLE POINT ENERGY      -406.088213285097

DIPOLE MOMENT
-------------
                                X             Y             Z
Electronic contribution:     -3.67657       3.77874       0.93372
Nuclear contribution   :      2.63975      -4.51113      -0.34926
                        -----------------------------------------
Total Dipole Moment    :     -1.03682      -0.73239       0.58446
                        -----------------------------------------
Magnitude (a.u.)       :      1.39749
Magnitude (Debye)      :      3.55214

Rotational constants in cm-1:     0.109429     0.049838     0.039337
Rotational constants in MHz :  3280.611039  1494.113088  1179.280063

                             ****ORCA TERMINATED NORMALLY****
TOTAL RUN TIME: 0 days 0 hours 0 minutes 20 seconds 921 msec
