                         Program Version 5.0.0 -  RELEASE  -
|  1> !wB97X-D3 RIJCOSX def2-SVPD def2/J TightSCF CPCM(Water) xyzfile
|  2>
|  3> *xyzfile 0 1 D2.xyz
|  4>
|  5> %MaxCore 64000
|  6>
|  7> %pal nprocs 18
|  8> end
|  9>
| 10> %scf
| 11>   MaxIter 150
| 12> end
| 13>
| 14>
| 15>                          ****END OF INPUT****

CARTESIAN COORDINATES (ANGSTROEM)
---------------------------------
  C      4.999862   -1.596133   -5.924876
  N      5.281560   -1.974132   -4.535764
  C      3.766779   -2.266110   -6.511752
  C      2.496702   -1.844161   -5.735704
  H      1.626416   -2.217434   -6.308950
  H      2.481824   -2.456069   -4.793414
  F      2.459729   -0.509204   -5.505757
  C      4.792500   -1.361316   -3.457295
  C      3.939898   -0.374925   -3.557359
  N      5.259860   -1.754224   -2.239133
  H      5.922824   -2.521451   -2.186720
  H      4.654678   -1.640404   -1.442016
  H      5.709139   -2.875599   -4.387021
  H      3.330101   -0.317639   -4.361247
  H      3.698494    0.114468   -2.708333
  H      4.843333   -0.517930   -5.943019
  H      5.901695   -1.822503   -6.496467
  H      3.886191   -3.357076   -6.533604
  H      3.685602   -1.922168   -7.547128

 Total Charge           Charge          ....    0
 Multiplicity           Mult            ....    1
 Number of Electrons    NEL             ....   64
 Basis Dimension        Dim             ....  251

ORBITAL ENERGIES
----------------

  NO   OCC          E(Eh)            E(eV)
   0   2.0000     -24.807246      -675.0395
   1   2.0000     -14.433989      -392.7688
   2   2.0000     -14.426974      -392.5779
   3   2.0000     -10.367268      -282.1077
   4   2.0000     -10.334887      -281.2266
   5   2.0000     -10.317383      -280.7503
   6   2.0000     -10.290063      -280.0068
   7   2.0000     -10.186761      -277.1959
   8   2.0000      -1.332246       -36.2522
   9   2.0000      -1.068990       -29.0887
  10   2.0000      -0.982664       -26.7396
  11   2.0000      -0.887912       -24.1613
  12   2.0000      -0.826056       -22.4781
  13   2.0000      -0.799390       -21.7525
  14   2.0000      -0.715814       -19.4783
  15   2.0000      -0.674831       -18.3631
  16   2.0000      -0.655072       -17.8254
  17   2.0000      -0.622957       -16.9515
  18   2.0000      -0.619298       -16.8520
  19   2.0000      -0.598844       -16.2954
  20   2.0000      -0.586686       -15.9645
  21   2.0000      -0.553371       -15.0580
  22   2.0000      -0.525915       -14.3109
  23   2.0000      -0.508242       -13.8300
  24   2.0000      -0.488967       -13.3055
  25   2.0000      -0.479981       -13.0610
  26   2.0000      -0.450141       -12.2490
  27   2.0000      -0.440227       -11.9792
  28   2.0000      -0.426327       -11.6010
  29   2.0000      -0.407358       -11.0848
  30   2.0000      -0.341492        -9.2925
  31   2.0000      -0.261948        -7.1280
  32   0.0000       0.095281         2.5927
  33   0.0000       0.115621         3.1462
  34   0.0000       0.119221         3.2442
  35   0.0000       0.122147         3.3238
  36   0.0000       0.144803         3.9403

MULLIKEN ATOMIC CHARGES
-----------------------
   0 C :    0.673673
   1 N :   -0.483164
   2 C :   -0.153222
   3 C :    0.684165
   4 H :   -0.249248
   5 H :    0.245442
   6 F :   -0.520468
   7 C :    0.589476
   8 C :    0.948317
   9 N :   -0.112572
  10 H :   -0.051601
  11 H :    0.044735
  12 H :   -0.246214
  13 H :   -0.877720
  14 H :   -0.340312
  15 H :    0.194771
  16 H :   -0.337750
  17 H :   -0.056209
  18 H :    0.047898
Sum of atomic charges:   -0.0000000

LOEWDIN ATOMIC CHARGES
----------------------
   0 C :    0.062531
   1 N :   -0.011375
   2 C :    0.003377
   3 C :    0.142966
   4 H :    0.039059
   5 H :    0.047181
   6 F :   -0.224938
   7 C :   -0.237870
   8 C :    0.150307
   9 N :    0.178238
  10 H :    0.000262
  11 H :    0.002787
  12 H :    0.034909
  13 H :   -0.202478
  14 H :   -0.096170
  15 H :    0.018798
  16 H :    0.026894
  17 H :    0.037477
  18 H :    0.028048

  Mayer bond orders larger than 0.100000
B(  0-C ,  1-N ) :   0.9067 B(  0-C ,  2-C ) :   1.1258 B(  0-C , 12-H ) :  -0.1729
B(  0-C , 13-H ) :   0.1108 B(  0-C , 15-H ) :   0.7023 B(  0-C , 16-H ) :   0.9932
B(  0-C , 17-H ) :   0.1150 B(  0-C , 18-H ) :   0.1104 B(  1-N ,  7-C ) :   0.9763
B(  1-N ,  8-C ) :   0.3088 B(  1-N ,  9-N ) :   0.1346 B(  1-N , 12-H ) :   1.3644
B(  1-N , 15-H ) :   0.1398 B(  1-N , 16-H ) :   0.1247 B(  2-C ,  3-C ) :   1.2157
B(  2-C ,  4-H ) :   0.1437 B(  2-C , 15-H ) :   0.1087 B(  2-C , 17-H ) :   0.9606
B(  2-C , 18-H ) :   0.8921 B(  3-C ,  4-H ) :   1.0283 B(  3-C ,  5-H ) :   0.8018
B(  3-C ,  6-F ) :   0.6399 B(  3-C , 13-H ) :   0.1556 B(  6-F , 13-H ) :   0.3108
B(  7-C ,  8-C ) :   1.8761 B(  7-C ,  9-N ) :   0.8403 B(  7-C , 12-H ) :  -0.2147
B(  7-C , 13-H ) :   0.1485 B(  7-C , 14-H ) :   0.3954 B(  8-C ,  9-N ) :   0.3194
B(  8-C , 14-H ) :   0.6255 B(  9-N , 10-H ) :   1.0425 B(  9-N , 11-H ) :   1.0467
B(  9-N , 14-H ) :   0.1568 B( 10-H , 11-H ) :  -0.1291 B( 13-H , 15-H ) :   0.1174
B( 15-H , 16-H ) :  -0.1413

Dispersion correction           -0.006084770
FINAL SINGLE POINT ENERGY      -406.059822578166

DIPOLE MOMENT
-------------
                                X             Y             Z
Electronic contribution:     -2.16928       1.95347      -0.28645
Nuclear contribution   :      2.43398      -4.26587      -0.19921
                        -----------------------------------------
Total Dipole Moment    :      0.26471      -2.31240      -0.48566
                        -----------------------------------------
Magnitude (a.u.)       :      2.37763
Magnitude (Debye)      :      6.04346

Rotational constants in cm-1:     0.110089     0.049944     0.039407
Rotational constants in MHz :  3300.378855  1497.273856  1181.385913

                             ****ORCA TERMINATED NORMALLY****
TOTAL RUN TIME: 0 days 0 hours 0 minutes 21 seconds 127 msec
