                         Program Version 5.0.0 -  RELEASE  -
|  1> !M062X D3Zero RIJCOSX def2-SVP def2/J TightSCF
|  2> *xyz -1 1
|  3> C          4.90646       -3.10282       -5.95484
|  4> C          3.51177       -2.80621       -6.49228
|  5> H          2.73604       -3.37345       -5.97374
|  6> H          3.44490       -3.04083       -7.55528
|  7> S          3.00462       -1.09621       -6.38926
|  8> O          4.12886       -0.32965       -6.95372
|  9> O          1.78128       -1.00078       -7.13640
| 10> O          2.85155       -0.78368       -4.95679
| 11> H          5.62703       -2.52424       -6.49422
| 12> H          5.12164       -4.14387       -6.07654
| 13> H          4.95004       -2.84862       -4.91639
| 14> *
| 15>
| 16> %MaxCore 64000
| 17>
| 18> %pal nprocs 4
| 19> end
| 20>
| 21> %scf
| 22>   MaxIter 150
| 23> end
| 24>
| 25>
| 26>                          ****END OF INPUT****

CARTESIAN COORDINATES (ANGSTROEM)
---------------------------------
  C      4.906460   -3.102820   -5.954840
  C      3.511770   -2.806210   -6.492280
  H      2.736040   -3.373450   -5.973740
  H      3.444900   -3.040830   -7.555280
  S      3.004620   -1.096210   -6.389260
  O      4.128860   -0.329650   -6.953720
  O      1.781280   -1.000780   -7.136400
  O      2.851550   -0.783680   -4.956790
  H      5.627030   -2.524240   -6.494220
  H      5.121640   -4.143870   -6.076540
  H      4.950040   -2.848620   -4.916390

 Total Charge           Charge          ....   -1
 Multiplicity           Mult            ....    1
 Number of Electrons    NEL             ....   58
 Basis Dimension        Dim             ....  113

ORBITAL ENERGIES
----------------

  NO   OCC          E(Eh)            E(eV)
   0   2.0000     -89.899417     -2446.2875
   1   2.0000     -19.385920      -527.5177
   2   2.0000     -19.373295      -527.1742
   3   2.0000     -19.371907      -527.1364
   4   2.0000     -10.403544      -283.0948
   5   2.0000     -10.400133      -283.0020
   6   2.0000      -8.229828      -223.9450
   7   2.0000      -6.154418      -167.4702
   8   2.0000      -6.154322      -167.4676
   9   2.0000      -6.154170      -167.4635
  10   2.0000      -1.020985       -27.7824
  11   2.0000      -0.873753       -23.7760
  12   2.0000      -0.851292       -23.1648
  13   2.0000      -0.716475       -19.4963
  14   2.0000      -0.583507       -15.8780
  15   2.0000      -0.444433       -12.0936
  16   2.0000      -0.383057       -10.4235
  17   2.0000      -0.375823       -10.2267
  18   2.0000      -0.335836        -9.1386
  19   2.0000      -0.319871        -8.7041
  20   2.0000      -0.312585        -8.5059
  21   2.0000      -0.285719        -7.7748
  22   2.0000      -0.269363        -7.3297
  23   2.0000      -0.196988        -5.3603
  24   2.0000      -0.195039        -5.3073
  25   2.0000      -0.158846        -4.3224
  26   2.0000      -0.146020        -3.9734
  27   2.0000      -0.145176        -3.9504
  28   2.0000      -0.107053        -2.9131
  29   0.0000       0.240435         6.5426
  30   0.0000       0.291691         7.9373
  31   0.0000       0.298154         8.1132
  32   0.0000       0.305520         8.3136
  33   0.0000       0.333951         9.0873

MULLIKEN ATOMIC CHARGES
-----------------------
   0 C :   -0.028055
   1 C :   -0.157470
   2 H :    0.025102
   3 H :    0.025018
   4 S :    0.951439
   5 O :   -0.637236
   6 O :   -0.598229
   7 O :   -0.638255
   8 H :    0.035085
   9 H :   -0.008107
  10 H :    0.030709
Sum of atomic charges:   -1.0000000

LOEWDIN ATOMIC CHARGES
----------------------
   0 C :   -0.076932
   1 C :   -0.195542
   2 H :    0.010935
   3 H :    0.011074
   4 S :    1.137925
   5 O :   -0.657297
   6 O :   -0.617372
   7 O :   -0.660719
   8 H :    0.021793
   9 H :    0.005260
  10 H :    0.020875

  Mayer bond orders larger than 0.100000
B(  0-C ,  1-C ) :   1.0524 B(  0-C ,  8-H ) :   0.9677 B(  0-C ,  9-H ) :   0.9666
B(  0-C , 10-H ) :   0.9699 B(  1-C ,  2-H ) :   0.9443 B(  1-C ,  3-H ) :   0.9440
B(  1-C ,  4-S ) :   0.8937 B(  4-S ,  5-O ) :   1.5737 B(  4-S ,  6-O ) :   1.6288
B(  4-S ,  7-O ) :   1.5801

Dispersion correction           -0.000145821
FINAL SINGLE POINT ENERGY      -702.571728957845

DIPOLE MOMENT
-------------
                                X             Y             Z
Electronic contribution:     -4.40061       6.45236      -0.66911
Nuclear contribution   :      5.05690      -8.21735       0.57889
                        -----------------------------------------
Total Dipole Moment    :      0.65629      -1.76499      -0.09022
                        -----------------------------------------
Magnitude (a.u.)       :      1.88522
Magnitude (Debye)      :      4.79184

Rotational constants in cm-1:     0.162547     0.083494     0.081672
Rotational constants in MHz :  4873.033504  2503.090885  2448.458543

                             ****ORCA TERMINATED NORMALLY****
TOTAL RUN TIME: 0 days 0 hours 0 minutes 9 seconds 497 msec
