                         Program Version 5.0.0 -  RELEASE  -
|  1> !M062X D3Zero RIJCOSX def2-SVP def2/J TightSCF
|  2> *xyz 1 1
|  3> C          4.49059        1.15590       -2.46929
|  4> N          4.30539        1.22276       -3.90832
|  5> C          4.63192        2.24637       -4.67096
|  6> N          4.54169        2.14399       -5.98714
|  7> N          5.08409        3.39358       -4.11855
|  8> H          4.92067        3.57050       -3.13587
|  9> H          5.25465        4.19739       -4.70696
| 10> H          3.82453        0.44911       -4.35093
| 11> H          4.34337        1.24932       -6.41665
| 12> H          4.67671        2.95662       -6.57411
| 13> C          5.94213        0.93950       -2.03689
| 14> H          3.86431        0.32853       -2.13661
| 15> H          4.07623        2.04999       -1.98901
| 16> H          6.32982        0.06401       -2.51451
| 17> H          5.98308        0.81426       -0.97504
| 18> H          6.52865        1.78889       -2.31873
| 19> *
| 20>
| 21> %MaxCore 64000
| 22>
| 23> %pal nprocs 4
| 24> end
| 25>
| 26> %scf
| 27>   MaxIter 150
| 28> end
| 29>
| 30>
| 31>                          ****END OF INPUT****

CARTESIAN COORDINATES (ANGSTROEM)
---------------------------------
  C      4.490590    1.155900   -2.469290
  N      4.305390    1.222760   -3.908320
  C      4.631920    2.246370   -4.670960
  N      4.541690    2.143990   -5.987140
  N      5.084090    3.393580   -4.118550
  H      4.920670    3.570500   -3.135870
  H      5.254650    4.197390   -4.706960
  H      3.824530    0.449110   -4.350930
  H      4.343370    1.249320   -6.416650
  H      4.676710    2.956620   -6.574110
  C      5.942130    0.939500   -2.036890
  H      3.864310    0.328530   -2.136610
  H      4.076230    2.049990   -1.989010
  H      6.329820    0.064010   -2.514510
  H      5.983080    0.814260   -0.975040
  H      6.528650    1.788890   -2.318730

 Total Charge           Charge          ....    1
 Multiplicity           Mult            ....    1
 Number of Electrons    NEL             ....   48
 Basis Dimension        Dim             ....  134

ORBITAL ENERGIES
----------------

  NO   OCC          E(Eh)            E(eV)
   0   2.0000     -14.984412      -407.7466
   1   2.0000     -14.983727      -407.7279
   2   2.0000     -14.981279      -407.6613
   3   2.0000     -10.890074      -296.3340
   4   2.0000     -10.757382      -292.7233
   5   2.0000     -10.684187      -290.7315
   6   2.0000      -1.317986       -35.8642
   7   2.0000      -1.199440       -32.6384
   8   2.0000      -1.181767       -32.1575
   9   2.0000      -1.016362       -27.6566
  10   2.0000      -0.924034       -25.1442
  11   2.0000      -0.878535       -23.9062
  12   2.0000      -0.862660       -23.4742
  13   2.0000      -0.815892       -22.2015
  14   2.0000      -0.762655       -20.7529
  15   2.0000      -0.757889       -20.6232
  16   2.0000      -0.730865       -19.8879
  17   2.0000      -0.696640       -18.9565
  18   2.0000      -0.670044       -18.2328
  19   2.0000      -0.621741       -16.9184
  20   2.0000      -0.592420       -16.1206
  21   2.0000      -0.571732       -15.5576
  22   2.0000      -0.537996       -14.6396
  23   2.0000      -0.508418       -13.8348
  24   0.0000      -0.114913        -3.1269
  25   0.0000      -0.102052        -2.7770
  26   0.0000      -0.067536        -1.8378
  27   0.0000      -0.059904        -1.6301
  28   0.0000      -0.038789        -1.0555

MULLIKEN ATOMIC CHARGES
-----------------------
   0 C :   -0.049906
   1 N :   -0.169634
   2 C :    0.111614
   3 N :   -0.071360
   4 N :   -0.102577
   5 H :    0.186731
   6 H :    0.183848
   7 H :    0.184838
   8 H :    0.189365
   9 H :    0.189557
  10 C :   -0.030922
  11 H :    0.091072
  12 H :    0.081316
  13 H :    0.069040
  14 H :    0.089618
  15 H :    0.047400
Sum of atomic charges:    1.0000000

LOEWDIN ATOMIC CHARGES
----------------------
   0 C :    0.033566
   1 N :    0.018102
   2 C :    0.162229
   3 N :    0.038753
   4 N :    0.024110
   5 H :    0.110282
   6 H :    0.113340
   7 H :    0.113076
   8 H :    0.116705
   9 H :    0.116328
  10 C :   -0.050822
  11 H :    0.052876
  12 H :    0.033749
  13 H :    0.039206
  14 H :    0.051289
  15 H :    0.027212

  Mayer bond orders larger than 0.100000
B(  0-C ,  1-N ) :   0.9192 B(  0-C , 10-C ) :   1.0804 B(  0-C , 11-H ) :   0.9483
B(  0-C , 12-H ) :   0.9554 B(  1-N ,  2-C ) :   1.3799 B(  1-N ,  7-H ) :   0.9065
B(  2-C ,  3-N ) :   1.4094 B(  2-C ,  4-N ) :   1.3729 B(  3-N ,  8-H ) :   0.9168
B(  3-N ,  9-H ) :   0.9182 B(  4-N ,  5-H ) :   0.9141 B(  4-N ,  6-H ) :   0.9205
B( 10-C , 13-H ) :   0.9669 B( 10-C , 14-H ) :   0.9650 B( 10-C , 15-H ) :   0.9687

Dispersion correction           -0.000313641
FINAL SINGLE POINT ENERGY      -284.047213260524

DIPOLE MOMENT
-------------
                                X             Y             Z
Electronic contribution:     -1.83956       1.61761      -4.53418
Nuclear contribution   :      1.34333      -1.11039       3.43667
                        -----------------------------------------
Total Dipole Moment    :     -0.49624       0.50721      -1.09751
                        -----------------------------------------
Magnitude (a.u.)       :      1.30693
Magnitude (Debye)      :      3.32194

Rotational constants in cm-1:     0.227161     0.075356     0.065003
Rotational constants in MHz :  6810.114531  2259.122204  1948.738523

                             ****ORCA TERMINATED NORMALLY****
TOTAL RUN TIME: 0 days 0 hours 0 minutes 12 seconds 172 msec
