                         Program Version 5.0.0 -  RELEASE  -
|  1> !M062X D3Zero RIJCOSX def2-TZVP def2/J TightSCF xyzfile
|  2>
|  3> *xyzfile 0 1 B.xyz
|  4>
|  5> %MaxCore 64000
|  6>
|  7> %pal nprocs 18
|  8> end
|  9>
| 10> %scf
| 11>   MaxIter 150
| 12> end
| 13>
| 14>
| 15>                          ****END OF INPUT****

CARTESIAN COORDINATES (ANGSTROEM)
---------------------------------
  C      4.490588    1.155899   -2.469290
  N      4.305394    1.222762   -3.908317
  C      4.906458   -3.102816   -5.954844
  C      3.511771   -2.806215   -6.492283
  H      2.736044   -3.373445   -5.973736
  H      3.444904   -3.040831   -7.555281
  S      3.004618   -1.096206   -6.389259
  C      4.631918    2.246365   -4.670958
  N      4.541686    2.143990   -5.987139
  N      5.084086    3.393584   -4.118545
  H      4.920675    3.570501   -3.135870
  H      5.254652    4.197390   -4.706956
  H      3.824530    0.449113   -4.350926
  H      4.343373    1.249318   -6.416646
  H      4.676712    2.956624   -6.574113
  O      4.128856   -0.329647   -6.953717
  O      1.781285   -1.000779   -7.136399
  C      5.942129    0.939500   -2.036893
  H      3.864305    0.328532   -2.136611
  H      4.076233    2.049994   -1.989010
  C      6.462677   -3.117775   -3.944671
  C      5.024977   -3.025679   -4.437625
  H      4.423321   -3.818693   -3.977648
  H      4.579350   -2.087131   -4.108727
  H      5.201533   -4.100207   -6.296905
  H      5.605922   -2.397822   -6.413368
  C      6.559957   -0.356290   -2.559086
  H      5.967976    0.952567   -0.942444
  H      6.547184    1.788331   -2.368849
  C      6.006283   -1.615917   -1.899301
  H      7.642360   -0.318000   -2.402059
  H      6.414855   -0.403433   -3.642587
  C      6.608718   -2.917014   -2.435655
  H      6.190324   -1.561115   -0.820948
  H      4.919250   -1.651245   -2.016586
  H      7.066975   -2.374258   -4.475514
  H      6.887808   -4.089747   -4.215332
  H      6.135197   -3.755573   -1.915159
  H      7.671142   -2.955503   -2.172291
  O      2.851546   -0.783683   -4.956789

 Total Charge           Charge          ....    0
 Multiplicity           Mult            ....    1
 Number of Electrons    NEL             ....  144
 Basis Dimension        Dim             ....  671

ORBITAL ENERGIES
----------------

  NO   OCC          E(Eh)            E(eV)
   0   2.0000     -90.044275     -2450.2293
   1   2.0000     -19.565555      -532.4058
   2   2.0000     -19.564898      -532.3879
   3   2.0000     -19.549870      -531.9790
   4   2.0000     -14.824236      -403.3880
   5   2.0000     -14.793325      -402.5468
   6   2.0000     -14.790225      -402.4625
   7   2.0000     -10.713288      -291.5234
   8   2.0000     -10.602536      -288.5097
   9   2.0000     -10.555173      -287.2209
  10   2.0000     -10.538433      -286.7653
  11   2.0000     -10.531280      -286.5707
  12   2.0000     -10.526203      -286.4326
  13   2.0000     -10.525852      -286.4230
  14   2.0000     -10.519129      -286.2401
  15   2.0000     -10.517566      -286.1975
  16   2.0000     -10.510193      -285.9969
  17   2.0000      -8.369592      -227.7482
  18   2.0000      -6.291897      -171.2112
  19   2.0000      -6.291530      -171.2012
  20   2.0000      -6.290615      -171.1763
  21   2.0000      -1.205563       -32.8050
  22   2.0000      -1.166904       -31.7531
  23   2.0000      -1.065652       -28.9979
  24   2.0000      -1.065362       -28.9900
  25   2.0000      -1.048485       -28.5307
  26   2.0000      -1.034416       -28.1479
  27   2.0000      -0.924457       -25.1558
  28   2.0000      -0.897661       -24.4266
  29   2.0000      -0.868877       -23.6433
  30   2.0000      -0.828957       -22.5571
  31   2.0000      -0.790840       -21.5198
  32   2.0000      -0.763664       -20.7803
  33   2.0000      -0.733136       -19.9496
  34   2.0000      -0.708512       -19.2796
  35   2.0000      -0.697559       -18.9816
  36   2.0000      -0.676603       -18.4113
  37   2.0000      -0.655166       -17.8280
  38   2.0000      -0.631029       -17.1712
  39   2.0000      -0.625259       -17.0142
  40   2.0000      -0.612664       -16.6714
  41   2.0000      -0.589883       -16.0515
  42   2.0000      -0.577840       -15.7238
  43   2.0000      -0.555352       -15.1119
  44   2.0000      -0.551074       -14.9955
  45   2.0000      -0.538759       -14.6604
  46   2.0000      -0.534735       -14.5509
  47   2.0000      -0.522941       -14.2300
  48   2.0000      -0.507545       -13.8110
  49   2.0000      -0.503475       -13.7003
  50   2.0000      -0.498899       -13.5757
  51   2.0000      -0.482291       -13.1238
  52   2.0000      -0.477612       -12.9965
  53   2.0000      -0.466264       -12.6877
  54   2.0000      -0.454321       -12.3627
  55   2.0000      -0.445408       -12.1202
  56   2.0000      -0.427400       -11.6301
  57   2.0000      -0.420600       -11.4451
  58   2.0000      -0.410783       -11.1780
  59   2.0000      -0.396246       -10.7824
  60   2.0000      -0.391201       -10.6451
  61   2.0000      -0.388351       -10.5676
  62   2.0000      -0.387412       -10.5420
  63   2.0000      -0.379292       -10.3211
  64   2.0000      -0.371823       -10.1178
  65   2.0000      -0.367419        -9.9980
  66   2.0000      -0.362229        -9.8568
  67   2.0000      -0.347855        -9.4656
  68   2.0000      -0.342700        -9.3253
  69   2.0000      -0.333720        -9.0810
  70   2.0000      -0.318068        -8.6551
  71   2.0000      -0.301382        -8.2010
  72   0.0000       0.010544         0.2869
  73   0.0000       0.030367         0.8263
  74   0.0000       0.044446         1.2094
  75   0.0000       0.066908         1.8207
  76   0.0000       0.074959         2.0397

MULLIKEN ATOMIC CHARGES
-----------------------
   0 C :   -0.389003
   1 N :   -0.292723
   2 C :   -0.265572
   3 C :   -0.319542
   4 H :    0.160573
   5 H :    0.167004
   6 S :    0.947771
   7 C :    0.605910
   8 N :   -0.513031
   9 N :   -0.540666
  10 H :    0.282255
  11 H :    0.263150
  12 H :    0.293699
  13 H :    0.341223
  14 H :    0.253141
  15 O :   -0.635622
  16 O :   -0.520466
  17 C :   -0.241942
  18 H :    0.220252
  19 H :    0.171487
  20 C :   -0.296582
  21 C :   -0.315396
  22 H :    0.144753
  23 H :    0.125178
  24 H :    0.137955
  25 H :    0.164630
  26 C :   -0.299486
  27 H :    0.154804
  28 H :    0.160187
  29 C :   -0.314448
  30 H :    0.153957
  31 H :    0.172729
  32 C :   -0.278602
  33 H :    0.144377
  34 H :    0.168054
  35 H :    0.157655
  36 H :    0.145801
  37 H :    0.149411
  38 H :    0.145585
  39 O :   -0.608460
Sum of atomic charges:    0.0000000

LOEWDIN ATOMIC CHARGES
----------------------
   0 C :   -0.276722
   1 N :    0.172755
   2 C :   -0.292584
   3 C :   -0.379716
   4 H :    0.137773
   5 H :    0.139424
   6 S :    0.472582
   7 C :   -0.415334
   8 N :    0.058856
   9 N :    0.011253
  10 H :    0.183467
  11 H :    0.181838
  12 H :    0.179135
  13 H :    0.163387
  14 H :    0.180605
  15 O :   -0.386697
  16 O :   -0.328343
  17 C :   -0.274360
  18 H :    0.151770
  19 H :    0.129422
  20 C :   -0.276705
  21 C :   -0.278388
  22 H :    0.138699
  23 H :    0.136408
  24 H :    0.138388
  25 H :    0.143503
  26 C :   -0.270039
  27 H :    0.144274
  28 H :    0.136361
  29 C :   -0.275637
  30 H :    0.141760
  31 H :    0.143355
  32 C :   -0.271634
  33 H :    0.137414
  34 H :    0.137562
  35 H :    0.136202
  36 H :    0.137402
  37 H :    0.139395
  38 H :    0.136895
  39 O :   -0.383724

  Mayer bond orders larger than 0.100000
B(  0-C ,  1-N ) :   0.8672 B(  0-C , 17-C ) :   0.8642 B(  0-C , 18-H ) :   0.9756
B(  0-C , 19-H ) :   0.9991 B(  1-N ,  7-C ) :   1.3954 B(  1-N , 12-H ) :   0.7889
B(  2-C ,  3-C ) :   0.9216 B(  2-C , 21-C ) :   0.9218 B(  2-C , 24-H ) :   0.9702
B(  2-C , 25-H ) :   0.9743 B(  3-C ,  4-H ) :   0.9599 B(  3-C ,  5-H ) :   0.9654
B(  3-C ,  6-S ) :   0.9008 B(  6-S , 15-O ) :   1.5390 B(  6-S , 16-O ) :   1.9013
B(  6-S , 39-O ) :   1.5402 B(  7-C ,  8-N ) :   1.3288 B(  7-C ,  9-N ) :   1.1792
B(  8-N , 13-H ) :   0.7773 B(  8-N , 14-H ) :   0.9211 B(  9-N , 10-H ) :   0.8984
B(  9-N , 11-H ) :   0.9188 B( 12-H , 39-O ) :   0.1617 B( 13-H , 15-O ) :   0.1438
B( 17-C , 26-C ) :   0.9093 B( 17-C , 27-H ) :   0.9845 B( 17-C , 28-H ) :   0.9846
B( 20-C , 21-C ) :   0.8880 B( 20-C , 32-C ) :   0.9166 B( 20-C , 35-H ) :   0.9932
B( 20-C , 36-H ) :   0.9821 B( 21-C , 22-H ) :   0.9741 B( 21-C , 23-H ) :   0.9795
B( 26-C , 29-C ) :   0.8791 B( 26-C , 30-H ) :   0.9792 B( 26-C , 31-H ) :   0.9739
B( 29-C , 32-C ) :   0.9281 B( 29-C , 33-H ) :   0.9779 B( 29-C , 34-H ) :   0.9829
B( 32-C , 37-H ) :   0.9918 B( 32-C , 38-H ) :   0.9928

Dispersion correction           -0.003090165
FINAL SINGLE POINT ENERGY     -1183.049044810648

DIPOLE MOMENT
-------------
                                X             Y             Z
Electronic contribution:    -14.49124       8.37524     -15.30906
Nuclear contribution   :     16.79156      -5.47215      17.54258
                        -----------------------------------------
Total Dipole Moment    :      2.30033       2.90309       2.23352
                        -----------------------------------------
Magnitude (a.u.)       :      4.32527
Magnitude (Debye)      :     10.99397

Rotational constants in cm-1:     0.014207     0.012373     0.007472
Rotational constants in MHz :   425.900436   370.942493   224.006604

                             ****ORCA TERMINATED NORMALLY****
TOTAL RUN TIME: 0 days 0 hours 1 minutes 54 seconds 595 msec
