                         Program Version 5.0.0 -  RELEASE  -
|  1> !M062X D3Zero RIJCOSX def2-SVP def2/J TightSCF
|  2> *xyz 0 1
|  3> C          4.90646       -3.10282       -5.95484
|  4> C          3.51177       -2.80621       -6.49228
|  5> H          2.73604       -3.37345       -5.97374
|  6> H          3.44490       -3.04083       -7.55528
|  7> S          3.00462       -1.09621       -6.38926
|  8> F          4.12886       -0.32965       -6.95372
|  9> O          1.78128       -1.00078       -7.13640
| 10> O          2.85155       -0.78368       -4.95679
| 11> H          5.62703       -2.52424       -6.49422
| 12> H          5.12164       -4.14387       -6.07654
| 13> H          4.95004       -2.84862       -4.91639
| 14> *
| 15>
| 16> %MaxCore 64000
| 17>
| 18> %pal nprocs 4
| 19> end
| 20>
| 21> %scf
| 22>   MaxIter 150
| 23> end
| 24>
| 25>
| 26>                          ****END OF INPUT****

CARTESIAN COORDINATES (ANGSTROEM)
---------------------------------
  C      4.906460   -3.102820   -5.954840
  C      3.511770   -2.806210   -6.492280
  H      2.736040   -3.373450   -5.973740
  H      3.444900   -3.040830   -7.555280
  S      3.004620   -1.096210   -6.389260
  F      4.128860   -0.329650   -6.953720
  O      1.781280   -1.000780   -7.136400
  O      2.851550   -0.783680   -4.956790
  H      5.627030   -2.524240   -6.494220
  H      5.121640   -4.143870   -6.076540
  H      4.950040   -2.848620   -4.916390

 Total Charge           Charge          ....    0
 Multiplicity           Mult            ....    1
 Number of Electrons    NEL             ....   58
 Basis Dimension        Dim             ....  113

ORBITAL ENERGIES
----------------

  NO   OCC          E(Eh)            E(eV)
   0   2.0000     -90.173479     -2453.7451
   1   2.0000     -25.349736      -689.8014
   2   2.0000     -19.638030      -534.3780
   3   2.0000     -19.625012      -534.0237
   4   2.0000     -10.612570      -288.7827
   5   2.0000     -10.577728      -287.8346
   6   2.0000      -8.506308      -231.4684
   7   2.0000      -6.433922      -175.0759
   8   2.0000      -6.428657      -174.9327
   9   2.0000      -6.427682      -174.9061
  10   2.0000      -1.484101       -40.3844
  11   2.0000      -1.222304       -33.2606
  12   2.0000      -1.114114       -30.3166
  13   2.0000      -0.922000       -25.0889
  14   2.0000      -0.815627       -22.1943
  15   2.0000      -0.762918       -20.7600
  16   2.0000      -0.674805       -18.3624
  17   2.0000      -0.662724       -18.0336
  18   2.0000      -0.623901       -16.9772
  19   2.0000      -0.569261       -15.4904
  20   2.0000      -0.553307       -15.0563
  21   2.0000      -0.525101       -14.2887
  22   2.0000      -0.505428       -13.7534
  23   2.0000      -0.478425       -13.0186
  24   2.0000      -0.465402       -12.6642
  25   2.0000      -0.447625       -12.1805
  26   2.0000      -0.399792       -10.8789
  27   2.0000      -0.386190       -10.5088
  28   2.0000      -0.374585       -10.1930
  29   0.0000       0.068182         1.8553
  30   0.0000       0.102686         2.7942
  31   0.0000       0.127163         3.4603
  32   0.0000       0.131238         3.5712
  33   0.0000       0.135850         3.6967

MULLIKEN ATOMIC CHARGES
-----------------------
   0 C :   -0.051697
   1 C :   -0.193675
   2 H :    0.119096
   3 H :    0.092924
   4 S :    1.024542
   5 F :   -0.227204
   6 O :   -0.458072
   7 O :   -0.500109
   8 H :    0.054197
   9 H :    0.066669
  10 H :    0.073329
Sum of atomic charges:   -0.0000000

LOEWDIN ATOMIC CHARGES
----------------------
   0 C :   -0.064422
   1 C :   -0.156294
   2 H :    0.057154
   3 H :    0.039282
   4 S :    1.202024
   5 F :   -0.159049
   6 O :   -0.491533
   7 O :   -0.535369
   8 H :    0.029765
   9 H :    0.040898
  10 H :    0.037545

  Mayer bond orders larger than 0.100000
B(  0-C ,  1-C ) :   1.0409 B(  0-C ,  8-H ) :   0.9738 B(  0-C ,  9-H ) :   0.9642
B(  0-C , 10-H ) :   0.9703 B(  1-C ,  2-H ) :   0.9336 B(  1-C ,  3-H ) :   0.9328
B(  1-C ,  4-S ) :   0.9267 B(  4-S ,  5-F ) :   0.9565 B(  4-S ,  6-O ) :   1.7848
B(  4-S ,  7-O ) :   1.7394

Dispersion correction           -0.000152421
FINAL SINGLE POINT ENERGY      -727.081259013196

DIPOLE MOMENT
-------------
                                X             Y             Z
Electronic contribution:     -2.97881       8.17825      -1.76314
Nuclear contribution   :      4.18919      -9.36357       1.23251
                        -----------------------------------------
Total Dipole Moment    :      1.21038      -1.18532      -0.53063
                        -----------------------------------------
Magnitude (a.u.)       :      1.77527
Magnitude (Debye)      :      4.51237

Rotational constants in cm-1:     0.153152     0.082513     0.079874
Rotational constants in MHz :  4591.373714  2473.673397  2394.575279

                             ****ORCA TERMINATED NORMALLY****
TOTAL RUN TIME: 0 days 0 hours 0 minutes 9 seconds 972 msec
