                         Program Version 5.0.0 -  RELEASE  -
|  1> !M062X D3Zero RIJCOSX def2-SVP def2/J TightSCF
|  2> *xyz 0 1
|  3> C          4.49059        1.15590       -2.46929
|  4> C          4.30539        1.22276       -3.90832
|  5> C          4.63192        2.24637       -4.67096
|  6> N          4.54169        2.14399       -5.98714
|  7> N          5.08409        3.39358       -4.11855
|  8> H          4.92067        3.57050       -3.13587
|  9> H          5.25465        4.19739       -4.70696
| 10> H          3.82453        0.44911       -4.35093
| 11> H          4.34337        1.24932       -6.41665
| 12> H          4.67671        2.95662       -6.57411
| 13> C          5.94213        0.93950       -2.03689
| 14> H          3.86431        0.32853       -2.13661
| 15> H          4.07623        2.04999       -1.98901
| 16> H          6.32982        0.06401       -2.51451
| 17> H          5.98308        0.81426       -0.97504
| 18> H          6.52865        1.78889       -2.31873
| 19> *
| 20>
| 21> %MaxCore 64000
| 22>
| 23> %pal nprocs 4
| 24> end
| 25>
| 26> %scf
| 27>   MaxIter 150
| 28> end
| 29>
| 30>
| 31>                          ****END OF INPUT****

CARTESIAN COORDINATES (ANGSTROEM)
---------------------------------
  C      4.490590    1.155900   -2.469290
  C      4.305390    1.222760   -3.908320
  C      4.631920    2.246370   -4.670960
  N      4.541690    2.143990   -5.987140
  N      5.084090    3.393580   -4.118550
  H      4.920670    3.570500   -3.135870
  H      5.254650    4.197390   -4.706960
  H      3.824530    0.449110   -4.350930
  H      4.343370    1.249320   -6.416650
  H      4.676710    2.956620   -6.574110
  C      5.942130    0.939500   -2.036890
  H      3.864310    0.328530   -2.136610
  H      4.076230    2.049990   -1.989010
  H      6.329820    0.064010   -2.514510
  H      5.983080    0.814260   -0.975040
  H      6.528650    1.788890   -2.318730

 Total Charge           Charge          ....    0
 Multiplicity           Mult            ....    1
 Number of Electrons    NEL             ....   48
 Basis Dimension        Dim             ....  134

ORBITAL ENERGIES
----------------

  NO   OCC          E(Eh)            E(eV)
   0   2.0000     -14.753338      -401.4587
   1   2.0000     -14.751022      -401.3957
   2   2.0000     -10.587551      -288.1019
   3   2.0000     -10.518009      -286.2096
   4   2.0000     -10.509495      -285.9779
   5   2.0000     -10.461609      -284.6748
   6   2.0000      -1.050905       -28.5966
   7   2.0000      -0.953176       -25.9372
   8   2.0000      -0.854436       -23.2504
   9   2.0000      -0.771094       -20.9825
  10   2.0000      -0.689630       -18.7658
  11   2.0000      -0.645957       -17.5774
  12   2.0000      -0.608165       -16.5490
  13   2.0000      -0.572889       -15.5891
  14   2.0000      -0.535882       -14.5821
  15   2.0000      -0.498463       -13.5639
  16   2.0000      -0.483346       -13.1525
  17   2.0000      -0.449480       -12.2310
  18   2.0000      -0.446956       -12.1623
  19   2.0000      -0.406040       -11.0489
  20   2.0000      -0.382495       -10.4082
  21   2.0000      -0.370867       -10.0918
  22   2.0000      -0.321519        -8.7490
  23   2.0000      -0.201096        -5.4721
  24   0.0000       0.082213         2.2371
  25   0.0000       0.112574         3.0633
  26   0.0000       0.127932         3.4812
  27   0.0000       0.141924         3.8619
  28   0.0000       0.149926         4.0797

MULLIKEN ATOMIC CHARGES
-----------------------
   0 C :   -0.041323
   1 C :   -0.204369
   2 C :    0.013973
   3 N :   -0.118227
   4 N :   -0.147787
   5 H :    0.137884
   6 H :    0.117375
   7 H :   -0.078332
   8 H :    0.137505
   9 H :    0.116186
  10 C :    0.000624
  11 H :    0.012010
  12 H :    0.001787
  13 H :    0.020584
  14 H :    0.016547
  15 H :    0.015563
Sum of atomic charges:   -0.0000000

LOEWDIN ATOMIC CHARGES
----------------------
   0 C :   -0.048925
   1 C :   -0.228132
   2 C :    0.035562
   3 N :   -0.033800
   4 N :   -0.043861
   5 H :    0.081116
   6 H :    0.068302
   7 H :   -0.007362
   8 H :    0.087430
   9 H :    0.068172
  10 C :   -0.059878
  11 H :    0.027042
  12 H :    0.006241
  13 H :    0.020481
  14 H :    0.013710
  15 H :    0.013903

  Mayer bond orders larger than 0.100000
B(  0-C ,  1-C ) :   1.0632 B(  0-C , 10-C ) :   1.0797 B(  0-C , 11-H ) :   0.9283
B(  0-C , 12-H ) :   0.9427 B(  1-C ,  2-C ) :   1.6985 B(  1-C ,  7-H ) :   0.9534
B(  2-C ,  3-N ) :   1.2407 B(  2-C ,  4-N ) :   1.2281 B(  3-N ,  8-H ) :   0.9352
B(  3-N ,  9-H ) :   0.9438 B(  4-N ,  5-H ) :   0.9304 B(  4-N ,  6-H ) :   0.9455
B( 10-C , 13-H ) :   0.9693 B( 10-C , 14-H ) :   0.9692 B( 10-C , 15-H ) :   0.9732

Dispersion correction           -0.000311773
FINAL SINGLE POINT ENERGY      -267.576434132830

DIPOLE MOMENT
-------------
                                X             Y             Z
Electronic contribution:     -1.24381       2.09601      -4.23793
Nuclear contribution   :      1.23062      -1.24683       3.43056
                        -----------------------------------------
Total Dipole Moment    :     -0.01320       0.84918      -0.80737
                        -----------------------------------------
Magnitude (a.u.)       :      1.17181
Magnitude (Debye)      :      2.97850

Rotational constants in cm-1:     0.231477     0.075416     0.065327
Rotational constants in MHz :  6939.497385  2260.912204  1958.442932

                             ****ORCA TERMINATED NORMALLY****
TOTAL RUN TIME: 0 days 0 hours 0 minutes 13 seconds 397 msec
