                         Program Version 5.0.0 -  RELEASE  -
|  1> !M062X D3Zero RIJCOSX def2-SVP def2/J TightSCF
|  2> *xyz 0 1
|  3> C          4.90646       -3.10282       -5.95484
|  4> C          3.51177       -2.80621       -6.49228
|  5> H          2.73604       -3.37345       -5.97374
|  6> H          3.44490       -3.04083       -7.55528
|  7> S          3.00462       -1.09621       -6.38926
|  8> O          4.12886       -0.32965       -6.95372
|  9> F          1.78128       -1.00078       -7.13640
| 10> O          2.85155       -0.78368       -4.95679
| 11> H          5.62703       -2.52424       -6.49422
| 12> H          5.12164       -4.14387       -6.07654
| 13> H          4.95004       -2.84862       -4.91639
| 14> *
| 15>
| 16> %MaxCore 64000
| 17>
| 18> %pal nprocs 4
| 19> end
| 20>
| 21> %scf
| 22>   MaxIter 150
| 23> end
| 24>
| 25>
| 26>                          ****END OF INPUT****

CARTESIAN COORDINATES (ANGSTROEM)
---------------------------------
  C      4.906460   -3.102820   -5.954840
  C      3.511770   -2.806210   -6.492280
  H      2.736040   -3.373450   -5.973740
  H      3.444900   -3.040830   -7.555280
  S      3.004620   -1.096210   -6.389260
  O      4.128860   -0.329650   -6.953720
  F      1.781280   -1.000780   -7.136400
  O      2.851550   -0.783680   -4.956790
  H      5.627030   -2.524240   -6.494220
  H      5.121640   -4.143870   -6.076540
  H      4.950040   -2.848620   -4.916390

 Total Charge           Charge          ....    0
 Multiplicity           Mult            ....    1
 Number of Electrons    NEL             ....   58
 Basis Dimension        Dim             ....  113

ORBITAL ENERGIES
----------------

  NO   OCC          E(Eh)            E(eV)
   0   2.0000     -90.174491     -2453.7726
   1   2.0000     -25.368743      -690.3186
   2   2.0000     -19.625191      -534.0286
   3   2.0000     -19.624537      -534.0108
   4   2.0000     -10.613276      -288.8019
   5   2.0000     -10.572608      -287.6953
   6   2.0000      -8.507555      -231.5023
   7   2.0000      -6.435237      -175.1117
   8   2.0000      -6.429687      -174.9607
   9   2.0000      -6.428815      -174.9369
  10   2.0000      -1.516893       -41.2768
  11   2.0000      -1.207324       -32.8530
  12   2.0000      -1.099196       -29.9106
  13   2.0000      -0.918578       -24.9958
  14   2.0000      -0.832298       -22.6480
  15   2.0000      -0.765207       -20.8223
  16   2.0000      -0.686764       -18.6878
  17   2.0000      -0.680035       -18.5047
  18   2.0000      -0.633746       -17.2451
  19   2.0000      -0.569887       -15.5074
  20   2.0000      -0.553000       -15.0479
  21   2.0000      -0.505801       -13.7635
  22   2.0000      -0.499115       -13.5816
  23   2.0000      -0.475895       -12.9498
  24   2.0000      -0.453730       -12.3466
  25   2.0000      -0.444963       -12.1081
  26   2.0000      -0.388130       -10.5615
  27   2.0000      -0.382654       -10.4125
  28   2.0000      -0.362753        -9.8710
  29   0.0000       0.082122         2.2346
  30   0.0000       0.088360         2.4044
  31   0.0000       0.122582         3.3356
  32   0.0000       0.129278         3.5178
  33   0.0000       0.134973         3.6728

MULLIKEN ATOMIC CHARGES
-----------------------
   0 C :   -0.033414
   1 C :   -0.189134
   2 H :    0.092002
   3 H :    0.085466
   4 S :    1.016466
   5 O :   -0.497047
   6 F :   -0.189366
   7 O :   -0.496423
   8 H :    0.075284
   9 H :    0.063071
  10 H :    0.073095
Sum of atomic charges:   -0.0000000

LOEWDIN ATOMIC CHARGES
----------------------
   0 C :   -0.048369
   1 C :   -0.159026
   2 H :    0.039002
   3 H :    0.036010
   4 S :    1.196683
   5 O :   -0.530276
   6 F :   -0.121187
   7 O :   -0.532364
   8 H :    0.039764
   9 H :    0.039984
  10 H :    0.039778

  Mayer bond orders larger than 0.100000
B(  0-C ,  1-C ) :   1.0631 B(  0-C ,  8-H ) :   0.9687 B(  0-C ,  9-H ) :   0.9649
B(  0-C , 10-H ) :   0.9715 B(  1-C ,  2-H ) :   0.9297 B(  1-C ,  3-H ) :   0.9282
B(  1-C ,  4-S ) :   0.9244 B(  4-S ,  5-O ) :   1.7299 B(  4-S ,  6-F ) :   1.0052
B(  4-S ,  7-O ) :   1.7358

Dispersion correction           -0.000140856
FINAL SINGLE POINT ENERGY      -727.064803430478

DIPOLE MOMENT
-------------
                                X             Y             Z
Electronic contribution:     -6.98606       7.04920      -2.07786
Nuclear contribution   :      6.63544      -8.66423       1.42287
                        -----------------------------------------
Total Dipole Moment    :     -0.35061      -1.61503      -0.65499
                        -----------------------------------------
Magnitude (a.u.)       :      1.77771
Magnitude (Debye)      :      4.51858

Rotational constants in cm-1:     0.158118     0.080978     0.078216
Rotational constants in MHz :  4740.271775  2427.649826  2344.849020

                             ****ORCA TERMINATED NORMALLY****
TOTAL RUN TIME: 0 days 0 hours 0 minutes 9 seconds 230 msec
