                         Program Version 5.0.0 -  RELEASE  -
|  1> !M062X D3Zero RIJCOSX def2-SVP def2/J TightSCF
|  2> *xyz 0 1
|  3> C          4.49059        1.15590       -2.46929
|  4> N          4.30539        1.22276       -3.90832
|  5> C          4.63192        2.24637       -4.67096
|  6> C          4.54169        2.14399       -5.98714
|  7> N          5.08409        3.39358       -4.11855
|  8> H          4.92067        3.57050       -3.13587
|  9> H          5.25465        4.19739       -4.70696
| 10> H          3.82453        0.44911       -4.35093
| 11> H          4.34337        1.24932       -6.41665
| 12> H          4.67671        2.95662       -6.57411
| 13> C          5.94213        0.93950       -2.03689
| 14> H          3.86431        0.32853       -2.13661
| 15> H          4.07623        2.04999       -1.98901
| 16> H          6.32982        0.06401       -2.51451
| 17> H          5.98308        0.81426       -0.97504
| 18> H          6.52865        1.78889       -2.31873
| 19> *
| 20>
| 21> %MaxCore 64000
| 22>
| 23> %pal nprocs 4
| 24> end
| 25>
| 26> %scf
| 27>   MaxIter 150
| 28> end
| 29>
| 30>
| 31>                          ****END OF INPUT****

CARTESIAN COORDINATES (ANGSTROEM)
---------------------------------
  C      4.490590    1.155900   -2.469290
  N      4.305390    1.222760   -3.908320
  C      4.631920    2.246370   -4.670960
  C      4.541690    2.143990   -5.987140
  N      5.084090    3.393580   -4.118550
  H      4.920670    3.570500   -3.135870
  H      5.254650    4.197390   -4.706960
  H      3.824530    0.449110   -4.350930
  H      4.343370    1.249320   -6.416650
  H      4.676710    2.956620   -6.574110
  C      5.942130    0.939500   -2.036890
  H      3.864310    0.328530   -2.136610
  H      4.076230    2.049990   -1.989010
  H      6.329820    0.064010   -2.514510
  H      5.983080    0.814260   -0.975040
  H      6.528650    1.788890   -2.318730

 Total Charge           Charge          ....    0
 Multiplicity           Mult            ....    1
 Number of Electrons    NEL             ....   48
 Basis Dimension        Dim             ....  134

ORBITAL ENERGIES
----------------

  NO   OCC          E(Eh)            E(eV)
   0   2.0000     -14.752996      -401.4494
   1   2.0000     -14.751790      -401.4166
   2   2.0000     -10.589561      -288.1566
   3   2.0000     -10.589191      -288.1465
   4   2.0000     -10.537269      -286.7337
   5   2.0000     -10.456099      -284.5249
   6   2.0000      -1.061170       -28.8759
   7   2.0000      -0.966936       -26.3117
   8   2.0000      -0.854928       -23.2638
   9   2.0000      -0.780363       -21.2348
  10   2.0000      -0.705410       -19.1952
  11   2.0000      -0.668195       -18.1825
  12   2.0000      -0.602444       -16.3933
  13   2.0000      -0.564388       -15.3578
  14   2.0000      -0.543181       -14.7807
  15   2.0000      -0.513173       -13.9641
  16   2.0000      -0.487573       -13.2675
  17   2.0000      -0.464222       -12.6321
  18   2.0000      -0.441557       -12.0154
  19   2.0000      -0.432962       -11.7815
  20   2.0000      -0.418986       -11.4012
  21   2.0000      -0.412612       -11.2277
  22   2.0000      -0.310206        -8.4411
  23   2.0000      -0.205686        -5.5970
  24   0.0000       0.080829         2.1995
  25   0.0000       0.107161         2.9160
  26   0.0000       0.124217         3.3801
  27   0.0000       0.141789         3.8583
  28   0.0000       0.152556         4.1513

MULLIKEN ATOMIC CHARGES
-----------------------
   0 C :   -0.011402
   1 N :   -0.196340
   2 C :    0.005884
   3 C :   -0.102811
   4 N :   -0.153653
   5 H :    0.120270
   6 H :    0.137093
   7 H :    0.139646
   8 H :   -0.045638
   9 H :   -0.046424
  10 C :   -0.016789
  11 H :    0.034254
  12 H :    0.031750
  13 H :    0.038556
  14 H :    0.032226
  15 H :    0.033376
Sum of atomic charges:   -0.0000000

LOEWDIN ATOMIC CHARGES
----------------------
   0 C :    0.024328
   1 N :   -0.040713
   2 C :    0.043145
   3 C :   -0.255311
   4 N :   -0.043285
   5 H :    0.065571
   6 H :    0.086148
   7 H :    0.088727
   8 H :   -0.006748
   9 H :   -0.007043
  10 C :   -0.067880
  11 H :    0.027591
  12 H :    0.012129
  13 H :    0.026713
  14 H :    0.024469
  15 H :    0.022159

  Mayer bond orders larger than 0.100000
B(  0-C ,  1-N ) :   1.0130 B(  0-C , 10-C ) :   1.0722 B(  0-C , 11-H ) :   0.9578
B(  0-C , 12-H ) :   0.9555 B(  1-N ,  2-C ) :   1.1858 B(  1-N ,  7-H ) :   0.9270
B(  2-C ,  3-C ) :   1.7769 B(  2-C ,  4-N ) :   1.1994 B(  3-C ,  8-H ) :   0.9339
B(  3-C ,  9-H ) :   0.9350 B(  4-N ,  5-H ) :   0.9423 B(  4-N ,  6-H ) :   0.9394
B( 10-C , 13-H ) :   0.9673 B( 10-C , 14-H ) :   0.9659 B( 10-C , 15-H ) :   0.9665

Dispersion correction           -0.000307823
FINAL SINGLE POINT ENERGY      -267.570673512487

DIPOLE MOMENT
-------------
                                X             Y             Z
Electronic contribution:     -1.43833       1.12716      -1.94090
Nuclear contribution   :      1.28075      -1.05140       2.98955
                        -----------------------------------------
Total Dipole Moment    :     -0.15758       0.07576       1.04865
                        -----------------------------------------
Magnitude (a.u.)       :      1.06313
Magnitude (Debye)      :      2.70226

Rotational constants in cm-1:     0.229858     0.078444     0.067377
Rotational constants in MHz :  6890.979812  2351.691803  2019.910665

                             ****ORCA TERMINATED NORMALLY****
TOTAL RUN TIME: 0 days 0 hours 0 minutes 13 seconds 97 msec
