                         Program Version 5.0.0 -  RELEASE  -
|  1> !M062X D3Zero RIJCOSX def2-SVP def2/J TightSCF
|  2> *xyz 0 1
|  3> C          4.90646       -3.10282       -5.95484
|  4> C          3.51177       -2.80621       -6.49228
|  5> H          2.73604       -3.37345       -5.97374
|  6> H          3.44490       -3.04083       -7.55528
|  7> S          3.00462       -1.09621       -6.38926
|  8> O          4.12886       -0.32965       -6.95372
|  9> O          1.78128       -1.00078       -7.13640
| 10> F          2.85155       -0.78368       -4.95679
| 11> H          5.62703       -2.52424       -6.49422
| 12> H          5.12164       -4.14387       -6.07654
| 13> H          4.95004       -2.84862       -4.91639
| 14> *
| 15>
| 16> %MaxCore 64000
| 17>
| 18> %pal nprocs 4
| 19> end
| 20>
| 21> %scf
| 22>   MaxIter 150
| 23> end
| 24>
| 25>
| 26>                          ****END OF INPUT****

CARTESIAN COORDINATES (ANGSTROEM)
---------------------------------
  C      4.906460   -3.102820   -5.954840
  C      3.511770   -2.806210   -6.492280
  H      2.736040   -3.373450   -5.973740
  H      3.444900   -3.040830   -7.555280
  S      3.004620   -1.096210   -6.389260
  O      4.128860   -0.329650   -6.953720
  O      1.781280   -1.000780   -7.136400
  F      2.851550   -0.783680   -4.956790
  H      5.627030   -2.524240   -6.494220
  H      5.121640   -4.143870   -6.076540
  H      4.950040   -2.848620   -4.916390

 Total Charge           Charge          ....    0
 Multiplicity           Mult            ....    1
 Number of Electrons    NEL             ....   58
 Basis Dimension        Dim             ....  113

ORBITAL ENERGIES
----------------

  NO   OCC          E(Eh)            E(eV)
   0   2.0000     -90.173855     -2453.7553
   1   2.0000     -25.349201      -689.7868
   2   2.0000     -19.638362      -534.3870
   3   2.0000     -19.626239      -534.0571
   4   2.0000     -10.612444      -288.7793
   5   2.0000     -10.574493      -287.7466
   6   2.0000      -8.506640      -231.4774
   7   2.0000      -6.434202      -175.0835
   8   2.0000      -6.428992      -174.9418
   9   2.0000      -6.428086      -174.9171
  10   2.0000      -1.483051       -40.3559
  11   2.0000      -1.222708       -33.2716
  12   2.0000      -1.116307       -30.3762
  13   2.0000      -0.919441       -25.0193
  14   2.0000      -0.814944       -22.1758
  15   2.0000      -0.761717       -20.7274
  16   2.0000      -0.671931       -18.2842
  17   2.0000      -0.661637       -18.0040
  18   2.0000      -0.626009       -17.0346
  19   2.0000      -0.567433       -15.4406
  20   2.0000      -0.555407       -15.1134
  21   2.0000      -0.526806       -14.3351
  22   2.0000      -0.501216       -13.6388
  23   2.0000      -0.474651       -12.9159
  24   2.0000      -0.465994       -12.6803
  25   2.0000      -0.445050       -12.1104
  26   2.0000      -0.400702       -10.9037
  27   2.0000      -0.386810       -10.5256
  28   2.0000      -0.376401       -10.2424
  29   0.0000       0.069753         1.8981
  30   0.0000       0.098193         2.6720
  31   0.0000       0.126593         3.4448
  32   0.0000       0.129833         3.5329
  33   0.0000       0.136061         3.7024

MULLIKEN ATOMIC CHARGES
-----------------------
   0 C :   -0.045772
   1 C :   -0.196013
   2 H :    0.090509
   3 H :    0.117864
   4 S :    1.027188
   5 O :   -0.500709
   6 O :   -0.459384
   7 F :   -0.227539
   8 H :    0.078041
   9 H :    0.063219
  10 H :    0.052596
Sum of atomic charges:    0.0000000

LOEWDIN ATOMIC CHARGES
----------------------
   0 C :   -0.062420
   1 C :   -0.157021
   2 H :    0.037800
   3 H :    0.056689
   4 S :    1.202089
   5 O :   -0.532701
   6 O :   -0.492271
   7 F :   -0.160995
   8 H :    0.039027
   9 H :    0.039455
  10 H :    0.030349

  Mayer bond orders larger than 0.100000
B(  0-C ,  1-C ) :   1.0421 B(  0-C ,  8-H ) :   0.9682 B(  0-C ,  9-H ) :   0.9635
B(  0-C , 10-H ) :   0.9748 B(  1-C ,  2-H ) :   0.9330 B(  1-C ,  3-H ) :   0.9330
B(  1-C ,  4-S ) :   0.9243 B(  4-S ,  5-O ) :   1.7350 B(  4-S ,  6-O ) :   1.7863
B(  4-S ,  7-F ) :   0.9586

Dispersion correction           -0.000151613
FINAL SINGLE POINT ENERGY      -727.082005217785

DIPOLE MOMENT
-------------
                                X             Y             Z
Electronic contribution:     -5.16900       7.41579       1.65040
Nuclear contribution   :      5.52019      -8.89046      -0.84835
                        -----------------------------------------
Total Dipole Moment    :      0.35118      -1.47466       0.80205
                        -----------------------------------------
Magnitude (a.u.)       :      1.71500
Magnitude (Debye)      :      4.35920

Rotational constants in cm-1:     0.153332     0.082132     0.079755
Rotational constants in MHz :  4596.775407  2462.251277  2391.008596

                             ****ORCA TERMINATED NORMALLY****
TOTAL RUN TIME: 0 days 0 hours 0 minutes 9 seconds 615 msec
