                         Program Version 5.0.0 -  RELEASE  -
|  1> !M062X D3Zero RIJCOSX def2-SVP def2/J TightSCF
|  2> *xyz 0 1
|  3> C          4.49059        1.15590       -2.46929
|  4> N          4.30539        1.22276       -3.90832
|  5> C          4.63192        2.24637       -4.67096
|  6> N          4.54169        2.14399       -5.98714
|  7> C          5.08409        3.39358       -4.11855
|  8> H          4.92067        3.57050       -3.13587
|  9> H          5.25465        4.19739       -4.70696
| 10> H          3.82453        0.44911       -4.35093
| 11> H          4.34337        1.24932       -6.41665
| 12> H          4.67671        2.95662       -6.57411
| 13> C          5.94213        0.93950       -2.03689
| 14> H          3.86431        0.32853       -2.13661
| 15> H          4.07623        2.04999       -1.98901
| 16> H          6.32982        0.06401       -2.51451
| 17> H          5.98308        0.81426       -0.97504
| 18> H          6.52865        1.78889       -2.31873
| 19> *
| 20>
| 21> %MaxCore 64000
| 22>
| 23> %pal nprocs 4
| 24> end
| 25>
| 26> %scf
| 27>   MaxIter 150
| 28> end
| 29>
| 30>
| 31>                          ****END OF INPUT****

CARTESIAN COORDINATES (ANGSTROEM)
---------------------------------
  C      4.490590    1.155900   -2.469290
  N      4.305390    1.222760   -3.908320
  C      4.631920    2.246370   -4.670960
  N      4.541690    2.143990   -5.987140
  C      5.084090    3.393580   -4.118550
  H      4.920670    3.570500   -3.135870
  H      5.254650    4.197390   -4.706960
  H      3.824530    0.449110   -4.350930
  H      4.343370    1.249320   -6.416650
  H      4.676710    2.956620   -6.574110
  C      5.942130    0.939500   -2.036890
  H      3.864310    0.328530   -2.136610
  H      4.076230    2.049990   -1.989010
  H      6.329820    0.064010   -2.514510
  H      5.983080    0.814260   -0.975040
  H      6.528650    1.788890   -2.318730

 Total Charge           Charge          ....    0
 Multiplicity           Mult            ....    1
 Number of Electrons    NEL             ....   48
 Basis Dimension        Dim             ....  134

ORBITAL ENERGIES
----------------

  NO   OCC          E(Eh)            E(eV)
   0   2.0000     -14.756499      -401.5448
   1   2.0000     -14.753986      -401.4764
   2   2.0000     -10.592588      -288.2390
   3   2.0000     -10.579925      -287.8944
   4   2.0000     -10.526157      -286.4313
   5   2.0000     -10.454943      -284.4935
   6   2.0000      -1.064839       -28.9757
   7   2.0000      -0.974310       -26.5123
   8   2.0000      -0.834246       -22.7010
   9   2.0000      -0.784073       -21.3357
  10   2.0000      -0.714844       -19.4519
  11   2.0000      -0.630443       -17.1552
  12   2.0000      -0.620458       -16.8835
  13   2.0000      -0.587345       -15.9825
  14   2.0000      -0.535026       -14.5588
  15   2.0000      -0.502017       -13.6606
  16   2.0000      -0.476423       -12.9641
  17   2.0000      -0.456061       -12.4100
  18   2.0000      -0.439024       -11.9465
  19   2.0000      -0.422235       -11.4896
  20   2.0000      -0.420929       -11.4541
  21   2.0000      -0.402721       -10.9586
  22   2.0000      -0.305576        -8.3152
  23   2.0000      -0.204511        -5.5650
  24   0.0000       0.082771         2.2523
  25   0.0000       0.111826         3.0429
  26   0.0000       0.124191         3.3794
  27   0.0000       0.139264         3.7896
  28   0.0000       0.157491         4.2856

MULLIKEN ATOMIC CHARGES
-----------------------
   0 C :    0.016651
   1 N :   -0.213443
   2 C :    0.000725
   3 N :   -0.134494
   4 C :   -0.118079
   5 H :   -0.034544
   6 H :   -0.052529
   7 H :    0.117268
   8 H :    0.117337
   9 H :    0.142630
  10 C :   -0.020515
  11 H :    0.025317
  12 H :    0.048375
  13 H :    0.025096
  14 H :    0.030517
  15 H :    0.049688
Sum of atomic charges:   -0.0000000

LOEWDIN ATOMIC CHARGES
----------------------
   0 C :    0.038164
   1 N :   -0.040672
   2 C :    0.042189
   3 N :   -0.030773
   4 C :   -0.274569
   5 H :   -0.007835
   6 H :   -0.009707
   7 H :    0.069730
   8 H :    0.068419
   9 H :    0.088620
  10 C :   -0.064268
  11 H :    0.022514
  12 H :    0.022684
  13 H :    0.020915
  14 H :    0.024394
  15 H :    0.030194

  Mayer bond orders larger than 0.100000
B(  0-C ,  1-N ) :   0.9998 B(  0-C , 10-C ) :   1.0887 B(  0-C , 11-H ) :   0.9600
B(  0-C , 12-H ) :   0.9482 B(  1-N ,  2-C ) :   1.1754 B(  1-N ,  7-H ) :   0.9339
B(  2-C ,  3-N ) :   1.2345 B(  2-C ,  4-C ) :   1.7356 B(  3-N ,  8-H ) :   0.9461
B(  3-N ,  9-H ) :   0.9373 B(  4-C ,  5-H ) :   0.9294 B(  4-C ,  6-H ) :   0.9404
B( 10-C , 13-H ) :   0.9669 B( 10-C , 14-H ) :   0.9677 B( 10-C , 15-H ) :   0.9655

Dispersion correction           -0.000308861
FINAL SINGLE POINT ENERGY      -267.569233627090

DIPOLE MOMENT
-------------
                                X             Y             Z
Electronic contribution:     -1.93428      -0.17900      -3.93239
Nuclear contribution   :      1.39581      -0.78630       3.38596
                        -----------------------------------------
Total Dipole Moment    :     -0.53847      -0.96530      -0.54642
                        -----------------------------------------
Magnitude (a.u.)       :      1.23302
Magnitude (Debye)      :      3.13408

Rotational constants in cm-1:     0.239249     0.075811     0.066261
Rotational constants in MHz :  7172.504830  2272.756282  1986.457543

                             ****ORCA TERMINATED NORMALLY****
TOTAL RUN TIME: 0 days 0 hours 0 minutes 12 seconds 542 msec
