                         Program Version 5.0.0 -  RELEASE  -
|  1> !M062X D3Zero RIJCOSX def2-TZVP def2/J TightSCF xyzfile
|  2>
|  3> *xyzfile 0 1 D1.xyz
|  4>
|  5> %MaxCore 64000
|  6>
|  7> %pal nprocs 18
|  8> end
|  9>
| 10> %scf
| 11>   MaxIter 150
| 12> end
| 13>
| 14>
| 15>                          ****END OF INPUT****

CARTESIAN COORDINATES (ANGSTROEM)
---------------------------------
  C      4.490588    1.155899   -2.469290
  C      4.305394    1.222762   -3.908317
  C      4.906458   -3.102816   -5.954844
  C      3.511771   -2.806215   -6.492283
  H      2.736044   -3.373445   -5.973736
  H      3.444904   -3.040831   -7.555281
  S      3.004618   -1.096206   -6.389259
  C      4.631918    2.246365   -4.670958
  N      4.541686    2.143990   -5.987139
  N      5.084086    3.393584   -4.118545
  H      4.920675    3.570501   -3.135870
  H      5.254652    4.197390   -4.706956
  H      3.824530    0.449113   -4.350926
  H      4.343373    1.249318   -6.416646
  H      4.676712    2.956624   -6.574113
  F      4.128856   -0.329647   -6.953717
  O      1.781285   -1.000779   -7.136399
  C      5.942129    0.939500   -2.036893
  H      3.864305    0.328532   -2.136611
  H      4.076233    2.049994   -1.989010
  C      6.462677   -3.117775   -3.944671
  C      5.024977   -3.025679   -4.437625
  H      4.423321   -3.818693   -3.977648
  H      4.579350   -2.087131   -4.108727
  H      5.201533   -4.100207   -6.296905
  H      5.605922   -2.397822   -6.413368
  C      6.559957   -0.356290   -2.559086
  H      5.967976    0.952567   -0.942444
  H      6.547184    1.788331   -2.368849
  C      6.006283   -1.615917   -1.899301
  H      7.642360   -0.318000   -2.402059
  H      6.414855   -0.403433   -3.642587
  C      6.608718   -2.917014   -2.435655
  H      6.190324   -1.561115   -0.820948
  H      4.919250   -1.651245   -2.016586
  H      7.066975   -2.374258   -4.475514
  H      6.887808   -4.089747   -4.215332
  H      6.135197   -3.755573   -1.915159
  H      7.671142   -2.955503   -2.172291
  O      2.851546   -0.783683   -4.956789

 Total Charge           Charge          ....    0
 Multiplicity           Mult            ....    1
 Number of Electrons    NEL             ....  144
 Basis Dimension        Dim             ....  671

ORBITAL ENERGIES
----------------

  NO   OCC          E(Eh)            E(eV)
   0   2.0000     -90.159374     -2453.3613
   1   2.0000     -25.373488      -690.4477
   2   2.0000     -19.650072      -534.7057
   3   2.0000     -19.636986      -534.3496
   4   2.0000     -14.735009      -400.9600
   5   2.0000     -14.730606      -400.8402
   6   2.0000     -10.601964      -288.4941
   7   2.0000     -10.565484      -287.5014
   8   2.0000     -10.565031      -287.4891
   9   2.0000     -10.534478      -286.6577
  10   2.0000     -10.529338      -286.5178
  11   2.0000     -10.522741      -286.3383
  12   2.0000     -10.513355      -286.0829
  13   2.0000     -10.506324      -285.8916
  14   2.0000     -10.501382      -285.7571
  15   2.0000     -10.494473      -285.5691
  16   2.0000     -10.428551      -283.7753
  17   2.0000      -8.484948      -230.8872
  18   2.0000      -6.409984      -174.4245
  19   2.0000      -6.404448      -174.2739
  20   2.0000      -6.404153      -174.2659
  21   2.0000      -1.528399       -41.5899
  22   2.0000      -1.242776       -33.8177
  23   2.0000      -1.143404       -31.1136
  24   2.0000      -1.058550       -28.8046
  25   2.0000      -0.963545       -26.2194
  26   2.0000      -0.945137       -25.7185
  27   2.0000      -0.906048       -24.6548
  28   2.0000      -0.876816       -23.8594
  29   2.0000      -0.851392       -23.1676
  30   2.0000      -0.824866       -22.4457
  31   2.0000      -0.796155       -21.6645
  32   2.0000      -0.762232       -20.7414
  33   2.0000      -0.730464       -19.8769
  34   2.0000      -0.706305       -19.2195
  35   2.0000      -0.700997       -19.0751
  36   2.0000      -0.694697       -18.9037
  37   2.0000      -0.666644       -18.1403
  38   2.0000      -0.647822       -17.6281
  39   2.0000      -0.640880       -17.4392
  40   2.0000      -0.621581       -16.9141
  41   2.0000      -0.602331       -16.3903
  42   2.0000      -0.577146       -15.7049
  43   2.0000      -0.568788       -15.4775
  44   2.0000      -0.559696       -15.2301
  45   2.0000      -0.547714       -14.9041
  46   2.0000      -0.536088       -14.5877
  47   2.0000      -0.525552       -14.3010
  48   2.0000      -0.521937       -14.2026
  49   2.0000      -0.517166       -14.0728
  50   2.0000      -0.494841       -13.4653
  51   2.0000      -0.488480       -13.2922
  52   2.0000      -0.485142       -13.2014
  53   2.0000      -0.477921       -13.0049
  54   2.0000      -0.460162       -12.5217
  55   2.0000      -0.450924       -12.2703
  56   2.0000      -0.447633       -12.1807
  57   2.0000      -0.434601       -11.8261
  58   2.0000      -0.434117       -11.8129
  59   2.0000      -0.418385       -11.3848
  60   2.0000      -0.417034       -11.3481
  61   2.0000      -0.408434       -11.1141
  62   2.0000      -0.400933       -10.9099
  63   2.0000      -0.384054       -10.4506
  64   2.0000      -0.382224       -10.4008
  65   2.0000      -0.380503       -10.3540
  66   2.0000      -0.367826       -10.0091
  67   2.0000      -0.357186        -9.7195
  68   2.0000      -0.350952        -9.5499
  69   2.0000      -0.338605        -9.2139
  70   2.0000      -0.319258        -8.6875
  71   2.0000      -0.197014        -5.3610
  72   0.0000       0.036663         0.9976
  73   0.0000       0.060187         1.6378
  74   0.0000       0.069614         1.8943
  75   0.0000       0.075164         2.0453
  76   0.0000       0.076560         2.0833

MULLIKEN ATOMIC CHARGES
-----------------------
   0 C :   -0.502934
   1 C :   -0.234331
   2 C :   -0.309934
   3 C :   -0.325436
   4 H :    0.201963
   5 H :    0.194298
   6 S :    0.927970
   7 C :    0.511168
   8 N :   -0.595442
   9 N :   -0.589483
  10 H :    0.260386
  11 H :    0.224698
  12 H :    0.048296
  13 H :    0.258707
  14 H :    0.228197
  15 F :   -0.147560
  16 O :   -0.432991
  17 C :   -0.235276
  18 H :    0.162879
  19 H :    0.142892
  20 C :   -0.297902
  21 C :   -0.329836
  22 H :    0.153870
  23 H :    0.169007
  24 H :    0.162130
  25 H :    0.174174
  26 C :   -0.247496
  27 H :    0.126541
  28 H :    0.145164
  29 C :   -0.328772
  30 H :    0.140851
  31 H :    0.145237
  32 C :   -0.276966
  33 H :    0.143651
  34 H :    0.167019
  35 H :    0.162007
  36 H :    0.145043
  37 H :    0.145419
  38 H :    0.146596
  39 O :   -0.433806
Sum of atomic charges:   -0.0000000

LOEWDIN ATOMIC CHARGES
----------------------
   0 C :   -0.290086
   1 C :   -0.288105
   2 C :   -0.289651
   3 C :   -0.361219
   4 H :    0.157330
   5 H :    0.145644
   6 S :    0.577525
   7 C :   -0.460147
   8 N :   -0.030246
   9 N :   -0.032032
  10 H :    0.174340
  11 H :    0.159090
  12 H :    0.110099
  13 H :    0.152843
  14 H :    0.161040
  15 F :    0.065452
  16 O :   -0.258855
  17 C :   -0.268957
  18 H :    0.144754
  19 H :    0.128745
  20 C :   -0.275344
  21 C :   -0.276382
  22 H :    0.141453
  23 H :    0.144824
  24 H :    0.147970
  25 H :    0.142909
  26 C :   -0.272142
  27 H :    0.131058
  28 H :    0.135009
  29 C :   -0.274512
  30 H :    0.135395
  31 H :    0.137174
  32 C :   -0.272224
  33 H :    0.137915
  34 H :    0.136378
  35 H :    0.138283
  36 H :    0.136222
  37 H :    0.137041
  38 H :    0.138148
  39 O :   -0.266740

  Mayer bond orders larger than 0.100000
B(  0-C ,  1-C ) :   0.9146 B(  0-C , 17-C ) :   0.8792 B(  0-C , 18-H ) :   1.0141
B(  0-C , 19-H ) :   1.0076 B(  1-C ,  7-C ) :   1.6470 B(  1-C , 12-H ) :   0.9948
B(  2-C ,  3-C ) :   0.9121 B(  2-C , 21-C ) :   0.8777 B(  2-C , 24-H ) :   0.9659
B(  2-C , 25-H ) :   0.9892 B(  3-C ,  4-H ) :   0.9414 B(  3-C ,  5-H ) :   0.9588
B(  3-C ,  6-S ) :   0.9174 B(  6-S , 15-F ) :   1.0289 B(  6-S , 16-O ) :   1.9687
B(  6-S , 39-O ) :   1.8296 B(  7-C ,  8-N ) :   1.0493 B(  7-C ,  9-N ) :   1.0559
B(  8-N , 13-H ) :   0.9118 B(  8-N , 14-H ) :   0.9348 B(  9-N , 10-H ) :   0.9135
B(  9-N , 11-H ) :   0.9391 B( 17-C , 26-C ) :   0.9328 B( 17-C , 27-H ) :   0.9946
B( 17-C , 28-H ) :   0.9817 B( 20-C , 21-C ) :   0.8979 B( 20-C , 32-C ) :   0.9255
B( 20-C , 35-H ) :   0.9878 B( 20-C , 36-H ) :   0.9823 B( 21-C , 22-H ) :   0.9708
B( 21-C , 23-H ) :   0.9795 B( 26-C , 29-C ) :   0.8800 B( 26-C , 30-H ) :   0.9852
B( 26-C , 31-H ) :   0.9678 B( 29-C , 32-C ) :   0.9163 B( 29-C , 33-H ) :   0.9803
B( 29-C , 34-H ) :   0.9879 B( 32-C , 37-H ) :   0.9949 B( 32-C , 38-H ) :   0.9904

Dispersion correction           -0.003047097
FINAL SINGLE POINT ENERGY     -1190.894202460735

DIPOLE MOMENT
-------------
                                X             Y             Z
Electronic contribution:    -16.28581       4.89258     -21.45791
Nuclear contribution   :     17.24138      -5.45913      20.34076
                        -----------------------------------------
Total Dipole Moment    :      0.95558      -0.56655      -1.11715
                        -----------------------------------------
Magnitude (a.u.)       :      1.57548
Magnitude (Debye)      :      4.00455

Rotational constants in cm-1:     0.014201     0.012275     0.007453
Rotational constants in MHz :   425.728191   368.008875   223.435232

                             ****ORCA TERMINATED NORMALLY****
TOTAL RUN TIME: 0 days 0 hours 1 minutes 57 seconds 554 msec
