                         Program Version 5.0.0 -  RELEASE  -
|  1> !M062X D3Zero RIJCOSX def2-TZVP def2/J TightSCF xyzfile
|  2>
|  3> *xyzfile 0 1 D3.xyz
|  4>
|  5> %MaxCore 64000
|  6>
|  7> %pal nprocs 18
|  8> end
|  9>
| 10> %scf
| 11>   MaxIter 150
| 12> end
| 13>
| 14>
| 15>                          ****END OF INPUT****

CARTESIAN COORDINATES (ANGSTROEM)
---------------------------------
  C      4.490588    1.155899   -2.469290
  N      4.305394    1.222762   -3.908317
  C      4.906458   -3.102816   -5.954844
  C      3.511771   -2.806215   -6.492283
  H      2.736044   -3.373445   -5.973736
  H      3.444904   -3.040831   -7.555281
  S      3.004618   -1.096206   -6.389259
  C      4.631918    2.246365   -4.670958
  N      4.541686    2.143990   -5.987139
  C      5.084086    3.393584   -4.118545
  H      4.920675    3.570501   -3.135870
  H      5.254652    4.197390   -4.706956
  H      3.824530    0.449113   -4.350926
  H      4.343373    1.249318   -6.416646
  H      4.676712    2.956624   -6.574113
  F      4.128856   -0.329647   -6.953717
  O      1.781285   -1.000779   -7.136399
  C      5.942129    0.939500   -2.036893
  H      3.864305    0.328532   -2.136611
  H      4.076233    2.049994   -1.989010
  C      6.462677   -3.117775   -3.944671
  C      5.024977   -3.025679   -4.437625
  H      4.423321   -3.818693   -3.977648
  H      4.579350   -2.087131   -4.108727
  H      5.201533   -4.100207   -6.296905
  H      5.605922   -2.397822   -6.413368
  C      6.559957   -0.356290   -2.559086
  H      5.967976    0.952567   -0.942444
  H      6.547184    1.788331   -2.368849
  C      6.006283   -1.615917   -1.899301
  H      7.642360   -0.318000   -2.402059
  H      6.414855   -0.403433   -3.642587
  C      6.608718   -2.917014   -2.435655
  H      6.190324   -1.561115   -0.820948
  H      4.919250   -1.651245   -2.016586
  H      7.066975   -2.374258   -4.475514
  H      6.887808   -4.089747   -4.215332
  H      6.135197   -3.755573   -1.915159
  H      7.671142   -2.955503   -2.172291
  O      2.851546   -0.783683   -4.956789

 Total Charge           Charge          ....    0
 Multiplicity           Mult            ....    1
 Number of Electrons    NEL             ....  144
 Basis Dimension        Dim             ....  671

ORBITAL ENERGIES
----------------

  NO   OCC          E(Eh)            E(eV)
   0   2.0000     -90.178735     -2453.8881
   1   2.0000     -25.388786      -690.8640
   2   2.0000     -19.666730      -535.1589
   3   2.0000     -19.663381      -535.0678
   4   2.0000     -14.731857      -400.8742
   5   2.0000     -14.720305      -400.5599
   6   2.0000     -10.616184      -288.8811
   7   2.0000     -10.577694      -287.8337
   8   2.0000     -10.568594      -287.5861
   9   2.0000     -10.551232      -287.1136
  10   2.0000     -10.547497      -287.0120
  11   2.0000     -10.539942      -286.8064
  12   2.0000     -10.532923      -286.6154
  13   2.0000     -10.525353      -286.4094
  14   2.0000     -10.519345      -286.2459
  15   2.0000     -10.513633      -286.0905
  16   2.0000     -10.431001      -283.8420
  17   2.0000      -8.504306      -231.4139
  18   2.0000      -6.429314      -174.9505
  19   2.0000      -6.423840      -174.8016
  20   2.0000      -6.423498      -174.7923
  21   2.0000      -1.543967       -42.0135
  22   2.0000      -1.262271       -34.3481
  23   2.0000      -1.165663       -31.7193
  24   2.0000      -1.065571       -28.9957
  25   2.0000      -0.977850       -26.6087
  26   2.0000      -0.959131       -26.0993
  27   2.0000      -0.916594       -24.9418
  28   2.0000      -0.881786       -23.9946
  29   2.0000      -0.856188       -23.2981
  30   2.0000      -0.824796       -22.4438
  31   2.0000      -0.793326       -21.5875
  32   2.0000      -0.781820       -21.2744
  33   2.0000      -0.746964       -20.3259
  34   2.0000      -0.722834       -19.6693
  35   2.0000      -0.712555       -19.3896
  36   2.0000      -0.710046       -19.3213
  37   2.0000      -0.678286       -18.4571
  38   2.0000      -0.667487       -18.1633
  39   2.0000      -0.642815       -17.4919
  40   2.0000      -0.619726       -16.8636
  41   2.0000      -0.604355       -16.4453
  42   2.0000      -0.596134       -16.2216
  43   2.0000      -0.580194       -15.7879
  44   2.0000      -0.570480       -15.5236
  45   2.0000      -0.560537       -15.2530
  46   2.0000      -0.550117       -14.9694
  47   2.0000      -0.540372       -14.7043
  48   2.0000      -0.526479       -14.3262
  49   2.0000      -0.515956       -14.0399
  50   2.0000      -0.507250       -13.8030
  51   2.0000      -0.501185       -13.6379
  52   2.0000      -0.494001       -13.4424
  53   2.0000      -0.478423       -13.0186
  54   2.0000      -0.462413       -12.5829
  55   2.0000      -0.456421       -12.4199
  56   2.0000      -0.453581       -12.3426
  57   2.0000      -0.447585       -12.1794
  58   2.0000      -0.437166       -11.8959
  59   2.0000      -0.433855       -11.8058
  60   2.0000      -0.428021       -11.6470
  61   2.0000      -0.418647       -11.3920
  62   2.0000      -0.415789       -11.3142
  63   2.0000      -0.408166       -11.1068
  64   2.0000      -0.402953       -10.9649
  65   2.0000      -0.396791       -10.7972
  66   2.0000      -0.390518       -10.6265
  67   2.0000      -0.372473       -10.1355
  68   2.0000      -0.371554       -10.1105
  69   2.0000      -0.361556        -9.8384
  70   2.0000      -0.295408        -8.0385
  71   2.0000      -0.200188        -5.4474
  72   0.0000       0.024745         0.6733
  73   0.0000       0.057169         1.5557
  74   0.0000       0.063642         1.7318
  75   0.0000       0.066321         1.8047
  76   0.0000       0.070610         1.9214

MULLIKEN ATOMIC CHARGES
-----------------------
   0 C :   -0.331923
   1 N :   -0.385337
   2 C :   -0.316981
   3 C :   -0.322802
   4 H :    0.206336
   5 H :    0.200568
   6 S :    0.935176
   7 C :    0.528508
   8 N :   -0.606788
   9 C :   -0.595593
  10 H :    0.117242
  11 H :    0.085781
  12 H :    0.224287
  13 H :    0.238548
  14 H :    0.256850
  15 F :   -0.140528
  16 O :   -0.420552
  17 C :   -0.217621
  18 H :    0.179396
  19 H :    0.168903
  20 C :   -0.301062
  21 C :   -0.316696
  22 H :    0.158934
  23 H :    0.142260
  24 H :    0.166718
  25 H :    0.178865
  26 C :   -0.289856
  27 H :    0.136174
  28 H :    0.179376
  29 C :   -0.319349
  30 H :    0.148820
  31 H :    0.140488
  32 C :   -0.280744
  33 H :    0.148403
  34 H :    0.160714
  35 H :    0.165932
  36 H :    0.149230
  37 H :    0.148618
  38 H :    0.151197
  39 O :   -0.471489
Sum of atomic charges:   -0.0000000

LOEWDIN ATOMIC CHARGES
----------------------
   0 C :   -0.281426
   1 N :    0.110443
   2 C :   -0.288622
   3 C :   -0.358650
   4 H :    0.158654
   5 H :    0.148391
   6 S :    0.582415
   7 C :   -0.469765
   8 N :   -0.025895
   9 C :   -0.362644
  10 H :    0.096397
  11 H :    0.090402
  12 H :    0.157216
  13 H :    0.140592
  14 H :    0.178468
  15 F :    0.067897
  16 O :   -0.248611
  17 C :   -0.270299
  18 H :    0.134112
  19 H :    0.134028
  20 C :   -0.274463
  21 C :   -0.277378
  22 H :    0.142720
  23 H :    0.139921
  24 H :    0.150033
  25 H :    0.143886
  26 C :   -0.273756
  27 H :    0.137920
  28 H :    0.146518
  29 C :   -0.276101
  30 H :    0.139278
  31 H :    0.134614
  32 C :   -0.270986
  33 H :    0.139442
  34 H :    0.134154
  35 H :    0.138993
  36 H :    0.137868
  37 H :    0.138062
  38 H :    0.139851
  39 O :   -0.283679

  Mayer bond orders larger than 0.100000
B(  0-C ,  1-N ) :   0.9080 B(  0-C , 17-C ) :   0.8809 B(  0-C , 18-H ) :   0.9949
B(  0-C , 19-H ) :   0.9916 B(  1-N ,  7-C ) :   1.1322 B(  1-N , 12-H ) :   0.8917
B(  2-C ,  3-C ) :   0.9107 B(  2-C , 21-C ) :   0.8765 B(  2-C , 24-H ) :   0.9641
B(  2-C , 25-H ) :   0.9889 B(  3-C ,  4-H ) :   0.9390 B(  3-C ,  5-H ) :   0.9569
B(  3-C ,  6-S ) :   0.9183 B(  6-S , 15-F ) :   1.0449 B(  6-S , 16-O ) :   1.9791
B(  6-S , 39-O ) :   1.7677 B(  7-C ,  8-N ) :   1.0448 B(  7-C ,  9-C ) :   1.6050
B(  8-N , 13-H ) :   0.9182 B(  8-N , 14-H ) :   0.9273 B(  9-C , 10-H ) :   1.0044
B(  9-C , 11-H ) :   1.0079 B( 17-C , 26-C ) :   0.9265 B( 17-C , 27-H ) :   0.9908
B( 17-C , 28-H ) :   0.9710 B( 20-C , 21-C ) :   0.8977 B( 20-C , 32-C ) :   0.9227
B( 20-C , 35-H ) :   0.9880 B( 20-C , 36-H ) :   0.9815 B( 21-C , 22-H ) :   0.9696
B( 21-C , 23-H ) :   0.9838 B( 26-C , 29-C ) :   0.8765 B( 26-C , 30-H ) :   0.9816
B( 26-C , 31-H ) :   0.9715 B( 29-C , 32-C ) :   0.9183 B( 29-C , 33-H ) :   0.9796
B( 29-C , 34-H ) :   0.9878 B( 32-C , 37-H ) :   0.9943 B( 32-C , 38-H ) :   0.9897

Dispersion correction           -0.003074355
FINAL SINGLE POINT ENERGY     -1190.902089172370

DIPOLE MOMENT
-------------
                                X             Y             Z
Electronic contribution:    -16.84725       2.67054     -21.33613
Nuclear contribution   :     17.35766      -5.13497      20.30937
                        -----------------------------------------
Total Dipole Moment    :      0.51041      -2.46443      -1.02677
                        -----------------------------------------
Magnitude (a.u.)       :      2.71812
Magnitude (Debye)      :      6.90891

Rotational constants in cm-1:     0.014431     0.012329     0.007535
Rotational constants in MHz :   432.628327   369.619539   225.898827

                             ****ORCA TERMINATED NORMALLY****
TOTAL RUN TIME: 0 days 0 hours 1 minutes 19 seconds 303 msec
