                         Program Version 5.0.0 -  RELEASE  -
|  1> !M062X D3Zero RIJCOSX def2-TZVP def2/J TightSCF xyzfile
|  2>
|  3> *xyzfile 0 1 D4.xyz
|  4>
|  5> %MaxCore 64000
|  6>
|  7> %pal nprocs 18
|  8> end
|  9>
| 10> %scf
| 11>   MaxIter 150
| 12> end
| 13>
| 14>
| 15>                          ****END OF INPUT****

CARTESIAN COORDINATES (ANGSTROEM)
---------------------------------
  C      4.490588    1.155899   -2.469290
  C      4.305394    1.222762   -3.908317
  C      4.906458   -3.102816   -5.954844
  C      3.511771   -2.806215   -6.492283
  H      2.736044   -3.373445   -5.973736
  H      3.444904   -3.040831   -7.555281
  S      3.004618   -1.096206   -6.389259
  C      4.631918    2.246365   -4.670958
  N      4.541686    2.143990   -5.987139
  N      5.084086    3.393584   -4.118545
  H      4.920675    3.570501   -3.135870
  H      5.254652    4.197390   -4.706956
  H      3.824530    0.449113   -4.350926
  H      4.343373    1.249318   -6.416646
  H      4.676712    2.956624   -6.574113
  O      4.128856   -0.329647   -6.953717
  F      1.781285   -1.000779   -7.136399
  C      5.942129    0.939500   -2.036893
  H      3.864305    0.328532   -2.136611
  H      4.076233    2.049994   -1.989010
  C      6.462677   -3.117775   -3.944671
  C      5.024977   -3.025679   -4.437625
  H      4.423321   -3.818693   -3.977648
  H      4.579350   -2.087131   -4.108727
  H      5.201533   -4.100207   -6.296905
  H      5.605922   -2.397822   -6.413368
  C      6.559957   -0.356290   -2.559086
  H      5.967976    0.952567   -0.942444
  H      6.547184    1.788331   -2.368849
  C      6.006283   -1.615917   -1.899301
  H      7.642360   -0.318000   -2.402059
  H      6.414855   -0.403433   -3.642587
  C      6.608718   -2.917014   -2.435655
  H      6.190324   -1.561115   -0.820948
  H      4.919250   -1.651245   -2.016586
  H      7.066975   -2.374258   -4.475514
  H      6.887808   -4.089747   -4.215332
  H      6.135197   -3.755573   -1.915159
  H      7.671142   -2.955503   -2.172291
  O      2.851546   -0.783683   -4.956789

 Total Charge           Charge          ....    0
 Multiplicity           Mult            ....    1
 Number of Electrons    NEL             ....  144
 Basis Dimension        Dim             ....  671

ORBITAL ENERGIES
----------------

  NO   OCC          E(Eh)            E(eV)
   0   2.0000     -90.167943     -2453.5945
   1   2.0000     -25.383861      -690.7300
   2   2.0000     -19.651912      -534.7557
   3   2.0000     -19.641957      -534.4848
   4   2.0000     -14.722519      -400.6201
   5   2.0000     -14.702411      -400.0729
   6   2.0000     -10.605900      -288.6012
   7   2.0000     -10.563255      -287.4408
   8   2.0000     -10.549958      -287.0789
   9   2.0000     -10.530876      -286.5597
  10   2.0000     -10.524701      -286.3917
  11   2.0000     -10.518212      -286.2151
  12   2.0000     -10.507869      -285.9336
  13   2.0000     -10.498611      -285.6817
  14   2.0000     -10.493209      -285.5347
  15   2.0000     -10.485560      -285.3266
  16   2.0000     -10.415154      -283.4107
  17   2.0000      -8.493298      -231.1144
  18   2.0000      -6.417999      -174.6426
  19   2.0000      -6.412972      -174.5058
  20   2.0000      -6.412705      -174.4986
  21   2.0000      -1.548664       -42.1413
  22   2.0000      -1.239451       -33.7272
  23   2.0000      -1.139890       -31.0180
  24   2.0000      -1.040258       -28.3069
  25   2.0000      -0.946075       -25.7440
  26   2.0000      -0.941501       -25.6195
  27   2.0000      -0.902728       -24.5645
  28   2.0000      -0.873105       -23.7584
  29   2.0000      -0.852961       -23.2102
  30   2.0000      -0.821324       -22.3494
  31   2.0000      -0.791412       -21.5354
  32   2.0000      -0.755510       -20.5585
  33   2.0000      -0.725737       -19.7483
  34   2.0000      -0.707811       -19.2605
  35   2.0000      -0.702198       -19.1078
  36   2.0000      -0.683556       -18.6005
  37   2.0000      -0.668907       -18.2019
  38   2.0000      -0.652519       -17.7559
  39   2.0000      -0.630087       -17.1455
  40   2.0000      -0.613471       -16.6934
  41   2.0000      -0.593563       -16.1517
  42   2.0000      -0.580599       -15.7989
  43   2.0000      -0.572262       -15.5720
  44   2.0000      -0.550758       -14.9869
  45   2.0000      -0.542085       -14.7509
  46   2.0000      -0.537090       -14.6150
  47   2.0000      -0.520845       -14.1729
  48   2.0000      -0.515191       -14.0190
  49   2.0000      -0.500250       -13.6125
  50   2.0000      -0.492504       -13.4017
  51   2.0000      -0.480354       -13.0711
  52   2.0000      -0.478760       -13.0277
  53   2.0000      -0.475365       -12.9353
  54   2.0000      -0.448462       -12.2033
  55   2.0000      -0.445289       -12.1169
  56   2.0000      -0.439745       -11.9661
  57   2.0000      -0.430388       -11.7115
  58   2.0000      -0.421887       -11.4801
  59   2.0000      -0.418098       -11.3770
  60   2.0000      -0.405481       -11.0337
  61   2.0000      -0.399686       -10.8760
  62   2.0000      -0.398227       -10.8363
  63   2.0000      -0.385571       -10.4919
  64   2.0000      -0.378013       -10.2863
  65   2.0000      -0.374503       -10.1908
  66   2.0000      -0.361798        -9.8450
  67   2.0000      -0.350864        -9.5475
  68   2.0000      -0.343244        -9.3401
  69   2.0000      -0.330882        -9.0038
  70   2.0000      -0.301171        -8.1953
  71   2.0000      -0.182187        -4.9576
  72   0.0000       0.049935         1.3588
  73   0.0000       0.058403         1.5892
  74   0.0000       0.071774         1.9531
  75   0.0000       0.077359         2.1051
  76   0.0000       0.081876         2.2280

MULLIKEN ATOMIC CHARGES
-----------------------
   0 C :   -0.491326
   1 C :   -0.238139
   2 C :   -0.286371
   3 C :   -0.326970
   4 H :    0.188941
   5 H :    0.186672
   6 S :    0.959305
   7 C :    0.488130
   8 N :   -0.606588
   9 N :   -0.592476
  10 H :    0.255811
  11 H :    0.222436
  12 H :    0.066687
  13 H :    0.295602
  14 H :    0.215035
  15 O :   -0.499874
  16 F :   -0.100830
  17 C :   -0.230561
  18 H :    0.155751
  19 H :    0.137431
  20 C :   -0.302666
  21 C :   -0.331957
  22 H :    0.148649
  23 H :    0.169202
  24 H :    0.160277
  25 H :    0.191046
  26 C :   -0.254742
  27 H :    0.121424
  28 H :    0.144488
  29 C :   -0.328215
  30 H :    0.137930
  31 H :    0.159208
  32 C :   -0.275197
  33 H :    0.141856
  34 H :    0.163960
  35 H :    0.167621
  36 H :    0.142310
  37 H :    0.142791
  38 H :    0.145616
  39 O :   -0.442268
Sum of atomic charges:   -0.0000000

LOEWDIN ATOMIC CHARGES
----------------------
   0 C :   -0.294127
   1 C :   -0.291499
   2 C :   -0.276549
   3 C :   -0.367569
   4 H :    0.146330
   5 H :    0.142990
   6 S :    0.585134
   7 C :   -0.459958
   8 N :   -0.028333
   9 N :   -0.035618
  10 H :    0.171762
  11 H :    0.157805
  12 H :    0.112090
  13 H :    0.151907
  14 H :    0.155348
  15 O :   -0.289327
  16 F :    0.105999
  17 C :   -0.269816
  18 H :    0.142377
  19 H :    0.126735
  20 C :   -0.274225
  21 C :   -0.274060
  22 H :    0.139497
  23 H :    0.146226
  24 H :    0.148895
  25 H :    0.152787
  26 C :   -0.272059
  27 H :    0.129342
  28 H :    0.135061
  29 C :   -0.275113
  30 H :    0.134709
  31 H :    0.140314
  32 C :   -0.272730
  33 H :    0.137173
  34 H :    0.135553
  35 H :    0.140451
  36 H :    0.135487
  37 H :    0.136014
  38 H :    0.137966
  39 O :   -0.266967

  Mayer bond orders larger than 0.100000
B(  0-C ,  1-C ) :   0.9094 B(  0-C , 17-C ) :   0.8812 B(  0-C , 18-H ) :   1.0163
B(  0-C , 19-H ) :   1.0060 B(  1-C ,  7-C ) :   1.6536 B(  1-C , 12-H ) :   1.0027
B(  2-C ,  3-C ) :   0.9224 B(  2-C , 21-C ) :   0.9118 B(  2-C , 24-H ) :   0.9645
B(  2-C , 25-H ) :   0.9724 B(  3-C ,  4-H ) :   0.9388 B(  3-C ,  5-H ) :   0.9465
B(  3-C ,  6-S ) :   0.9318 B(  6-S , 15-O ) :   1.7649 B(  6-S , 16-F ) :   1.1314
B(  6-S , 39-O ) :   1.8467 B(  7-C ,  8-N ) :   1.0815 B(  7-C ,  9-N ) :   1.0471
B(  8-N , 13-H ) :   0.8650 B(  8-N , 14-H ) :   0.9408 B(  9-N , 10-H ) :   0.9152
B(  9-N , 11-H ) :   0.9397 B( 17-C , 26-C ) :   0.9331 B( 17-C , 27-H ) :   0.9940
B( 17-C , 28-H ) :   0.9812 B( 20-C , 21-C ) :   0.9068 B( 20-C , 32-C ) :   0.9252
B( 20-C , 35-H ) :   0.9870 B( 20-C , 36-H ) :   0.9820 B( 21-C , 22-H ) :   0.9727
B( 21-C , 23-H ) :   0.9728 B( 26-C , 29-C ) :   0.8801 B( 26-C , 30-H ) :   0.9850
B( 26-C , 31-H ) :   0.9667 B( 29-C , 32-C ) :   0.9168 B( 29-C , 33-H ) :   0.9810
B( 29-C , 34-H ) :   0.9883 B( 32-C , 37-H ) :   0.9954 B( 32-C , 38-H ) :   0.9902

Dispersion correction           -0.003045972
FINAL SINGLE POINT ENERGY     -1190.890312271206

DIPOLE MOMENT
-------------
                                X             Y             Z
Electronic contribution:    -20.58613       3.54658     -22.03056
Nuclear contribution   :     19.99734      -4.67125      20.55522
                        -----------------------------------------
Total Dipole Moment    :     -0.58879      -1.12467      -1.47534
                        -----------------------------------------
Magnitude (a.u.)       :      1.94632
Magnitude (Debye)      :      4.94716

Rotational constants in cm-1:     0.014213     0.012058     0.007367
Rotational constants in MHz :   426.102180   361.491761   220.844824

                             ****ORCA TERMINATED NORMALLY****
TOTAL RUN TIME: 0 days 0 hours 1 minutes 38 seconds 347 msec
