                         Program Version 5.0.0 -  RELEASE  -
|  1> !M062X D3Zero RIJCOSX def2-TZVP def2/J TightSCF xyzfile
|  2>
|  3> *xyzfile 0 1 D5.xyz
|  4>
|  5> %MaxCore 64000
|  6>
|  7> %pal nprocs 18
|  8> end
|  9>
| 10> %scf
| 11>   MaxIter 150
| 12> end
| 13>
| 14>
| 15>                          ****END OF INPUT****

CARTESIAN COORDINATES (ANGSTROEM)
---------------------------------
  C      4.490588    1.155899   -2.469290
  N      4.305394    1.222762   -3.908317
  C      4.906458   -3.102816   -5.954844
  C      3.511771   -2.806215   -6.492283
  H      2.736044   -3.373445   -5.973736
  H      3.444904   -3.040831   -7.555281
  S      3.004618   -1.096206   -6.389259
  C      4.631918    2.246365   -4.670958
  C      4.541686    2.143990   -5.987139
  N      5.084086    3.393584   -4.118545
  H      4.920675    3.570501   -3.135870
  H      5.254652    4.197390   -4.706956
  H      3.824530    0.449113   -4.350926
  H      4.343373    1.249318   -6.416646
  H      4.676712    2.956624   -6.574113
  O      4.128856   -0.329647   -6.953717
  F      1.781285   -1.000779   -7.136399
  C      5.942129    0.939500   -2.036893
  H      3.864305    0.328532   -2.136611
  H      4.076233    2.049994   -1.989010
  C      6.462677   -3.117775   -3.944671
  C      5.024977   -3.025679   -4.437625
  H      4.423321   -3.818693   -3.977648
  H      4.579350   -2.087131   -4.108727
  H      5.201533   -4.100207   -6.296905
  H      5.605922   -2.397822   -6.413368
  C      6.559957   -0.356290   -2.559086
  H      5.967976    0.952567   -0.942444
  H      6.547184    1.788331   -2.368849
  C      6.006283   -1.615917   -1.899301
  H      7.642360   -0.318000   -2.402059
  H      6.414855   -0.403433   -3.642587
  C      6.608718   -2.917014   -2.435655
  H      6.190324   -1.561115   -0.820948
  H      4.919250   -1.651245   -2.016586
  H      7.066975   -2.374258   -4.475514
  H      6.887808   -4.089747   -4.215332
  H      6.135197   -3.755573   -1.915159
  H      7.671142   -2.955503   -2.172291
  O      2.851546   -0.783683   -4.956789

 Total Charge           Charge          ....    0
 Multiplicity           Mult            ....    1
 Number of Electrons    NEL             ....  144
 Basis Dimension        Dim             ....  671

ORBITAL ENERGIES
----------------

  NO   OCC          E(Eh)            E(eV)
   0   2.0000     -90.167686     -2453.5875
   1   2.0000     -25.382878      -690.7032
   2   2.0000     -19.650853      -534.7269
   3   2.0000     -19.640584      -534.4475
   4   2.0000     -14.719436      -400.5362
   5   2.0000     -14.705817      -400.1656
   6   2.0000     -10.606624      -288.6209
   7   2.0000     -10.566059      -287.5171
   8   2.0000     -10.550802      -287.1019
   9   2.0000     -10.550525      -287.0944
  10   2.0000     -10.537950      -286.7522
  11   2.0000     -10.531993      -286.5901
  12   2.0000     -10.527899      -286.4787
  13   2.0000     -10.521887      -286.3151
  14   2.0000     -10.515974      -286.1542
  15   2.0000     -10.515360      -286.1375
  16   2.0000     -10.405008      -283.1347
  17   2.0000      -8.492968      -231.1054
  18   2.0000      -6.417672      -174.6337
  19   2.0000      -6.412593      -174.4955
  20   2.0000      -6.412441      -174.4914
  21   2.0000      -1.547400       -42.1069
  22   2.0000      -1.238678       -33.7061
  23   2.0000      -1.138998       -30.9937
  24   2.0000      -1.048393       -28.5282
  25   2.0000      -0.958716       -26.0880
  26   2.0000      -0.946356       -25.7517
  27   2.0000      -0.909934       -24.7606
  28   2.0000      -0.880469       -23.9588
  29   2.0000      -0.851074       -23.1589
  30   2.0000      -0.823450       -22.4072
  31   2.0000      -0.793282       -21.5863
  32   2.0000      -0.761382       -20.7183
  33   2.0000      -0.733236       -19.9524
  34   2.0000      -0.710165       -19.3246
  35   2.0000      -0.706005       -19.2114
  36   2.0000      -0.685939       -18.6653
  37   2.0000      -0.675055       -18.3692
  38   2.0000      -0.661018       -17.9872
  39   2.0000      -0.641652       -17.4602
  40   2.0000      -0.627985       -17.0883
  41   2.0000      -0.591631       -16.0991
  42   2.0000      -0.581046       -15.8111
  43   2.0000      -0.565343       -15.3838
  44   2.0000      -0.550967       -14.9926
  45   2.0000      -0.547554       -14.8997
  46   2.0000      -0.534043       -14.5321
  47   2.0000      -0.532384       -14.4869
  48   2.0000      -0.521505       -14.1909
  49   2.0000      -0.508767       -13.8443
  50   2.0000      -0.499273       -13.5859
  51   2.0000      -0.492836       -13.4107
  52   2.0000      -0.486207       -13.2304
  53   2.0000      -0.467027       -12.7085
  54   2.0000      -0.456279       -12.4160
  55   2.0000      -0.452396       -12.3103
  56   2.0000      -0.442981       -12.0541
  57   2.0000      -0.436953       -11.8901
  58   2.0000      -0.425795       -11.5865
  59   2.0000      -0.420000       -11.4288
  60   2.0000      -0.416968       -11.3463
  61   2.0000      -0.412716       -11.2306
  62   2.0000      -0.401766       -10.9326
  63   2.0000      -0.395056       -10.7500
  64   2.0000      -0.390238       -10.6189
  65   2.0000      -0.383284       -10.4297
  66   2.0000      -0.368526       -10.0281
  67   2.0000      -0.368122       -10.0171
  68   2.0000      -0.360153        -9.8003
  69   2.0000      -0.357542        -9.7292
  70   2.0000      -0.289145        -7.8680
  71   2.0000      -0.183685        -4.9983
  72   0.0000       0.049172         1.3380
  73   0.0000       0.056653         1.5416
  74   0.0000       0.069012         1.8779
  75   0.0000       0.075729         2.0607
  76   0.0000       0.077968         2.1216

MULLIKEN ATOMIC CHARGES
-----------------------
   0 C :   -0.388004
   1 N :   -0.379422
   2 C :   -0.287283
   3 C :   -0.329795
   4 H :    0.186129
   5 H :    0.190074
   6 S :    0.964107
   7 C :    0.570818
   8 C :   -0.646539
   9 N :   -0.601053
  10 H :    0.238041
  11 H :    0.244467
  12 H :    0.261667
  13 H :    0.135781
  14 H :    0.092864
  15 O :   -0.447916
  16 F :   -0.098236
  17 C :   -0.195367
  18 H :    0.180471
  19 H :    0.156432
  20 C :   -0.307996
  21 C :   -0.317031
  22 H :    0.151347
  23 H :    0.142727
  24 H :    0.160748
  25 H :    0.196277
  26 C :   -0.301932
  27 H :    0.130204
  28 H :    0.157690
  29 C :   -0.316513
  30 H :    0.145656
  31 H :    0.171987
  32 C :   -0.278265
  33 H :    0.145356
  34 H :    0.158733
  35 H :    0.172431
  36 H :    0.145806
  37 H :    0.146207
  38 H :    0.149322
  39 O :   -0.499991
Sum of atomic charges:   -0.0000000

LOEWDIN ATOMIC CHARGES
----------------------
   0 C :   -0.303034
   1 N :    0.113878
   2 C :   -0.275694
   3 C :   -0.368515
   4 H :    0.144442
   5 H :    0.144687
   6 S :    0.588362
   7 C :   -0.466294
   8 C :   -0.355093
   9 N :   -0.034663
  10 H :    0.157962
  11 H :    0.172647
  12 H :    0.170830
  13 H :    0.086900
  14 H :    0.090688
  15 O :   -0.263549
  16 F :    0.108739
  17 C :   -0.276339
  18 H :    0.135306
  19 H :    0.123847
  20 C :   -0.273445
  21 C :   -0.274903
  22 H :    0.140009
  23 H :    0.141201
  24 H :    0.149349
  25 H :    0.154472
  26 C :   -0.272103
  27 H :    0.135738
  28 H :    0.139036
  29 C :   -0.276368
  30 H :    0.138867
  31 H :    0.142598
  32 C :   -0.271400
  33 H :    0.138087
  34 H :    0.134066
  35 H :    0.141328
  36 H :    0.137115
  37 H :    0.137312
  38 H :    0.139210
  39 O :   -0.295274

  Mayer bond orders larger than 0.100000
B(  0-C ,  1-N ) :   0.9250 B(  0-C , 17-C ) :   0.8558 B(  0-C , 18-H ) :   0.9953
B(  0-C , 19-H ) :   1.0049 B(  1-N ,  7-C ) :   1.1292 B(  1-N , 12-H ) :   0.8883
B(  2-C ,  3-C ) :   0.9232 B(  2-C , 21-C ) :   0.9166 B(  2-C , 24-H ) :   0.9641
B(  2-C , 25-H ) :   0.9697 B(  3-C ,  4-H ) :   0.9384 B(  3-C ,  5-H ) :   0.9466
B(  3-C ,  6-S ) :   0.9342 B(  6-S , 15-O ) :   1.8396 B(  6-S , 16-F ) :   1.1368
B(  6-S , 39-O ) :   1.7573 B(  7-C ,  8-C ) :   1.5450 B(  7-C ,  9-N ) :   1.0188
B(  8-C , 13-H ) :   1.0450 B(  8-C , 14-H ) :   1.0033 B(  9-N , 10-H ) :   0.9222
B(  9-N , 11-H ) :   0.9345 B( 17-C , 26-C ) :   0.9188 B( 17-C , 27-H ) :   0.9851
B( 17-C , 28-H ) :   0.9757 B( 20-C , 21-C ) :   0.9053 B( 20-C , 32-C ) :   0.9215
B( 20-C , 35-H ) :   0.9878 B( 20-C , 36-H ) :   0.9811 B( 21-C , 22-H ) :   0.9723
B( 21-C , 23-H ) :   0.9761 B( 26-C , 29-C ) :   0.8785 B( 26-C , 30-H ) :   0.9806
B( 26-C , 31-H ) :   0.9692 B( 29-C , 32-C ) :   0.9212 B( 29-C , 33-H ) :   0.9799
B( 29-C , 34-H ) :   0.9873 B( 32-C , 37-H ) :   0.9946 B( 32-C , 38-H ) :   0.9900

Dispersion correction           -0.003056390
FINAL SINGLE POINT ENERGY     -1190.882857903828

DIPOLE MOMENT
-------------
                                X             Y             Z
Electronic contribution:    -20.61979       2.63835     -20.20230
Nuclear contribution   :     20.03262      -4.53368      20.24480
                        -----------------------------------------
Total Dipole Moment    :     -0.58717      -1.89533       0.04250
                        -----------------------------------------
Magnitude (a.u.)       :      1.98466
Magnitude (Debye)      :      5.04460

Rotational constants in cm-1:     0.014367     0.012055     0.007393
Rotational constants in MHz :   430.711297   361.391195   221.649333

                             ****ORCA TERMINATED NORMALLY****
TOTAL RUN TIME: 0 days 0 hours 1 minutes 22 seconds 149 msec
