                         Program Version 5.0.0 -  RELEASE  -
|  1> !M062X D3Zero RIJCOSX def2-TZVP def2/J TightSCF xyzfile
|  2>
|  3> *xyzfile 0 1 D6.xyz
|  4>
|  5> %MaxCore 64000
|  6>
|  7> %pal nprocs 18
|  8> end
|  9>
| 10> %scf
| 11>   MaxIter 150
| 12> end
| 13>
| 14>
| 15>                          ****END OF INPUT****

CARTESIAN COORDINATES (ANGSTROEM)
---------------------------------
  C      4.490588    1.155899   -2.469290
  N      4.305394    1.222762   -3.908317
  C      4.906458   -3.102816   -5.954844
  C      3.511771   -2.806215   -6.492283
  H      2.736044   -3.373445   -5.973736
  H      3.444904   -3.040831   -7.555281
  S      3.004618   -1.096206   -6.389259
  C      4.631918    2.246365   -4.670958
  N      4.541686    2.143990   -5.987139
  C      5.084086    3.393584   -4.118545
  H      4.920675    3.570501   -3.135870
  H      5.254652    4.197390   -4.706956
  H      3.824530    0.449113   -4.350926
  H      4.343373    1.249318   -6.416646
  H      4.676712    2.956624   -6.574113
  O      4.128856   -0.329647   -6.953717
  F      1.781285   -1.000779   -7.136399
  C      5.942129    0.939500   -2.036893
  H      3.864305    0.328532   -2.136611
  H      4.076233    2.049994   -1.989010
  C      6.462677   -3.117775   -3.944671
  C      5.024977   -3.025679   -4.437625
  H      4.423321   -3.818693   -3.977648
  H      4.579350   -2.087131   -4.108727
  H      5.201533   -4.100207   -6.296905
  H      5.605922   -2.397822   -6.413368
  C      6.559957   -0.356290   -2.559086
  H      5.967976    0.952567   -0.942444
  H      6.547184    1.788331   -2.368849
  C      6.006283   -1.615917   -1.899301
  H      7.642360   -0.318000   -2.402059
  H      6.414855   -0.403433   -3.642587
  C      6.608718   -2.917014   -2.435655
  H      6.190324   -1.561115   -0.820948
  H      4.919250   -1.651245   -2.016586
  H      7.066975   -2.374258   -4.475514
  H      6.887808   -4.089747   -4.215332
  H      6.135197   -3.755573   -1.915159
  H      7.671142   -2.955503   -2.172291
  O      2.851546   -0.783683   -4.956789

 Total Charge           Charge          ....    0
 Multiplicity           Mult            ....    1
 Number of Electrons    NEL             ....  144
 Basis Dimension        Dim             ....  671

ORBITAL ENERGIES
----------------

  NO   OCC          E(Eh)            E(eV)
   0   2.0000     -90.187450     -2454.1253
   1   2.0000     -25.400084      -691.1714
   2   2.0000     -19.667944      -535.1920
   3   2.0000     -19.667088      -535.1687
   4   2.0000     -14.708672      -400.2433
   5   2.0000     -14.703081      -400.0912
   6   2.0000     -10.620559      -289.0001
   7   2.0000     -10.575875      -287.7842
   8   2.0000     -10.552993      -287.1615
   9   2.0000     -10.544230      -286.9231
  10   2.0000     -10.542976      -286.8890
  11   2.0000     -10.535591      -286.6880
  12   2.0000     -10.528678      -286.4999
  13   2.0000     -10.520211      -286.2695
  14   2.0000     -10.512020      -286.0466
  15   2.0000     -10.505920      -285.8806
  16   2.0000     -10.416601      -283.4501
  17   2.0000      -8.512809      -231.6453
  18   2.0000      -6.437437      -175.1716
  19   2.0000      -6.432491      -175.0370
  20   2.0000      -6.432269      -175.0309
  21   2.0000      -1.564664       -42.5767
  22   2.0000      -1.259722       -34.2788
  23   2.0000      -1.160771       -31.5862
  24   2.0000      -1.048229       -28.5237
  25   2.0000      -0.959624       -26.1127
  26   2.0000      -0.957332       -26.0503
  27   2.0000      -0.914011       -24.8715
  28   2.0000      -0.882659       -24.0184
  29   2.0000      -0.855446       -23.2779
  30   2.0000      -0.823563       -22.4103
  31   2.0000      -0.784535       -21.3483
  32   2.0000      -0.770702       -20.9719
  33   2.0000      -0.745727       -20.2923
  34   2.0000      -0.724039       -19.7021
  35   2.0000      -0.718960       -19.5639
  36   2.0000      -0.698856       -19.0169
  37   2.0000      -0.678002       -18.4494
  38   2.0000      -0.669431       -18.2161
  39   2.0000      -0.635944       -17.3049
  40   2.0000      -0.614907       -16.7325
  41   2.0000      -0.602483       -16.3944
  42   2.0000      -0.595693       -16.2096
  43   2.0000      -0.576732       -15.6937
  44   2.0000      -0.570097       -15.5131
  45   2.0000      -0.550862       -14.9897
  46   2.0000      -0.546891       -14.8817
  47   2.0000      -0.531994       -14.4763
  48   2.0000      -0.521529       -14.1915
  49   2.0000      -0.507032       -13.7971
  50   2.0000      -0.499120       -13.5817
  51   2.0000      -0.497919       -13.5491
  52   2.0000      -0.490666       -13.3517
  53   2.0000      -0.472207       -12.8494
  54   2.0000      -0.458016       -12.4632
  55   2.0000      -0.451406       -12.2834
  56   2.0000      -0.447022       -12.1641
  57   2.0000      -0.441947       -12.0260
  58   2.0000      -0.429543       -11.6884
  59   2.0000      -0.423511       -11.5243
  60   2.0000      -0.421568       -11.4714
  61   2.0000      -0.413962       -11.2645
  62   2.0000      -0.405488       -11.0339
  63   2.0000      -0.402507       -10.9528
  64   2.0000      -0.396818       -10.7980
  65   2.0000      -0.390868       -10.6361
  66   2.0000      -0.383004       -10.4221
  67   2.0000      -0.366228        -9.9656
  68   2.0000      -0.365172        -9.9368
  69   2.0000      -0.354942        -9.6585
  70   2.0000      -0.278016        -7.5652
  71   2.0000      -0.185660        -5.0521
  72   0.0000       0.037283         1.0145
  73   0.0000       0.043601         1.1864
  74   0.0000       0.065738         1.7888
  75   0.0000       0.070455         1.9172
  76   0.0000       0.073782         2.0077

MULLIKEN ATOMIC CHARGES
-----------------------
   0 C :   -0.329900
   1 N :   -0.384594
   2 C :   -0.292172
   3 C :   -0.324662
   4 H :    0.193685
   5 H :    0.193191
   6 S :    0.969989
   7 C :    0.520928
   8 N :   -0.620118
   9 C :   -0.607374
  10 H :    0.111575
  11 H :    0.081780
  12 H :    0.237563
  13 H :    0.280157
  14 H :    0.244187
  15 O :   -0.490166
  16 F :   -0.093925
  17 C :   -0.215017
  18 H :    0.172601
  19 H :    0.164873
  20 C :   -0.305710
  21 C :   -0.320905
  22 H :    0.153810
  23 H :    0.144153
  24 H :    0.165204
  25 H :    0.195529
  26 C :   -0.296360
  27 H :    0.131854
  28 H :    0.179178
  29 C :   -0.319060
  30 H :    0.146164
  31 H :    0.155076
  32 C :   -0.279082
  33 H :    0.146776
  34 H :    0.157645
  35 H :    0.171503
  36 H :    0.146636
  37 H :    0.146100
  38 H :    0.150368
  39 O :   -0.481480
Sum of atomic charges:   -0.0000000

LOEWDIN ATOMIC CHARGES
----------------------
   0 C :   -0.284352
   1 N :    0.111727
   2 C :   -0.275245
   3 C :   -0.364790
   4 H :    0.147706
   5 H :    0.145865
   6 S :    0.591199
   7 C :   -0.468906
   8 N :   -0.024508
   9 C :   -0.375657
  10 H :    0.093813
  11 H :    0.089006
  12 H :    0.160684
  13 H :    0.141346
  14 H :    0.172799
  15 O :   -0.284442
  16 F :    0.112273
  17 C :   -0.270776
  18 H :    0.131757
  19 H :    0.132666
  20 C :   -0.273342
  21 C :   -0.274950
  22 H :    0.140818
  23 H :    0.141445
  24 H :    0.151102
  25 H :    0.153777
  26 C :   -0.273539
  27 H :    0.136454
  28 H :    0.146798
  29 C :   -0.276737
  30 H :    0.138711
  31 H :    0.137974
  32 C :   -0.271459
  33 H :    0.138741
  34 H :    0.133279
  35 H :    0.141166
  36 H :    0.137174
  37 H :    0.137075
  38 H :    0.139717
  39 O :   -0.286367

  Mayer bond orders larger than 0.100000
B(  0-C ,  1-N ) :   0.9148 B(  0-C , 17-C ) :   0.8823 B(  0-C , 18-H ) :   0.9970
B(  0-C , 19-H ) :   0.9910 B(  1-N ,  7-C ) :   1.1307 B(  1-N , 12-H ) :   0.8938
B(  2-C ,  3-C ) :   0.9203 B(  2-C , 21-C ) :   0.9110 B(  2-C , 24-H ) :   0.9626
B(  2-C , 25-H ) :   0.9721 B(  3-C ,  4-H ) :   0.9365 B(  3-C ,  5-H ) :   0.9454
B(  3-C ,  6-S ) :   0.9324 B(  6-S , 15-O ) :   1.7818 B(  6-S , 16-F ) :   1.1451
B(  6-S , 39-O ) :   1.7797 B(  7-C ,  8-N ) :   1.0706 B(  7-C ,  9-C ) :   1.5894
B(  8-N , 13-H ) :   0.8751 B(  8-N , 14-H ) :   0.9343 B(  9-C , 10-H ) :   1.0037
B(  9-C , 11-H ) :   1.0088 B( 17-C , 26-C ) :   0.9269 B( 17-C , 27-H ) :   0.9909
B( 17-C , 28-H ) :   0.9700 B( 20-C , 21-C ) :   0.9063 B( 20-C , 32-C ) :   0.9224
B( 20-C , 35-H ) :   0.9871 B( 20-C , 36-H ) :   0.9812 B( 21-C , 22-H ) :   0.9716
B( 21-C , 23-H ) :   0.9772 B( 26-C , 29-C ) :   0.8761 B( 26-C , 30-H ) :   0.9816
B( 26-C , 31-H ) :   0.9696 B( 29-C , 32-C ) :   0.9189 B( 29-C , 33-H ) :   0.9803
B( 29-C , 34-H ) :   0.9882 B( 32-C , 37-H ) :   0.9948 B( 32-C , 38-H ) :   0.9895

Dispersion correction           -0.003071792
FINAL SINGLE POINT ENERGY     -1190.897317438812

DIPOLE MOMENT
-------------
                                X             Y             Z
Electronic contribution:    -21.14783       1.27995     -21.90152
Nuclear contribution   :     20.11362      -4.34709      20.52383
                        -----------------------------------------
Total Dipole Moment    :     -1.03422      -3.06714      -1.37770
                        -----------------------------------------
Magnitude (a.u.)       :      3.51781
Magnitude (Debye)      :      8.94157

Rotational constants in cm-1:     0.014449     0.012108     0.007447
Rotational constants in MHz :   433.168496   362.988632   223.260798

                             ****ORCA TERMINATED NORMALLY****
TOTAL RUN TIME: 0 days 0 hours 1 minutes 28 seconds 607 msec
