                         Program Version 5.0.0 -  RELEASE  -
|  1> !M062X D3Zero RIJCOSX def2-TZVP def2/J TightSCF xyzfile
|  2>
|  3> *xyzfile 0 1 D7.xyz
|  4>
|  5> %MaxCore 64000
|  6>
|  7> %pal nprocs 18
|  8> end
|  9>
| 10> %scf
| 11>   MaxIter 150
| 12> end
| 13>
| 14>
| 15>                          ****END OF INPUT****

CARTESIAN COORDINATES (ANGSTROEM)
---------------------------------
  C      4.490588    1.155899   -2.469290
  C      4.305394    1.222762   -3.908317
  C      4.906458   -3.102816   -5.954844
  C      3.511771   -2.806215   -6.492283
  H      2.736044   -3.373445   -5.973736
  H      3.444904   -3.040831   -7.555281
  S      3.004618   -1.096206   -6.389259
  C      4.631918    2.246365   -4.670958
  N      4.541686    2.143990   -5.987139
  N      5.084086    3.393584   -4.118545
  H      4.920675    3.570501   -3.135870
  H      5.254652    4.197390   -4.706956
  H      3.824530    0.449113   -4.350926
  H      4.343373    1.249318   -6.416646
  H      4.676712    2.956624   -6.574113
  O      4.128856   -0.329647   -6.953717
  O      1.781285   -1.000779   -7.136399
  C      5.942129    0.939500   -2.036893
  H      3.864305    0.328532   -2.136611
  H      4.076233    2.049994   -1.989010
  C      6.462677   -3.117775   -3.944671
  C      5.024977   -3.025679   -4.437625
  H      4.423321   -3.818693   -3.977648
  H      4.579350   -2.087131   -4.108727
  H      5.201533   -4.100207   -6.296905
  H      5.605922   -2.397822   -6.413368
  C      6.559957   -0.356290   -2.559086
  H      5.967976    0.952567   -0.942444
  H      6.547184    1.788331   -2.368849
  C      6.006283   -1.615917   -1.899301
  H      7.642360   -0.318000   -2.402059
  H      6.414855   -0.403433   -3.642587
  C      6.608718   -2.917014   -2.435655
  H      6.190324   -1.561115   -0.820948
  H      4.919250   -1.651245   -2.016586
  H      7.066975   -2.374258   -4.475514
  H      6.887808   -4.089747   -4.215332
  H      6.135197   -3.755573   -1.915159
  H      7.671142   -2.955503   -2.172291
  F      2.851546   -0.783683   -4.956789

 Total Charge           Charge          ....    0
 Multiplicity           Mult            ....    1
 Number of Electrons    NEL             ....  144
 Basis Dimension        Dim             ....  671

ORBITAL ENERGIES
----------------

  NO   OCC          E(Eh)            E(eV)
   0   2.0000     -90.162251     -2453.4396
   1   2.0000     -25.358643      -690.0438
   2   2.0000     -19.651206      -534.7365
   3   2.0000     -19.648307      -534.6576
   4   2.0000     -14.736143      -400.9908
   5   2.0000     -14.713332      -400.3701
   6   2.0000     -10.602465      -288.5077
   7   2.0000     -10.567819      -287.5650
   8   2.0000     -10.562334      -287.4157
   9   2.0000     -10.543588      -286.9056
  10   2.0000     -10.533258      -286.6245
  11   2.0000     -10.526785      -286.4484
  12   2.0000     -10.518581      -286.2251
  13   2.0000     -10.509582      -285.9803
  14   2.0000     -10.505194      -285.8609
  15   2.0000     -10.501674      -285.7651
  16   2.0000     -10.438810      -284.0545
  17   2.0000      -8.487526      -230.9573
  18   2.0000      -6.412317      -174.4880
  19   2.0000      -6.407359      -174.3531
  20   2.0000      -6.406830      -174.3387
  21   2.0000      -1.514616       -41.2148
  22   2.0000      -1.246145       -33.9093
  23   2.0000      -1.151034       -31.3212
  24   2.0000      -1.053851       -28.6767
  25   2.0000      -0.956350       -26.0236
  26   2.0000      -0.945387       -25.7253
  27   2.0000      -0.909442       -24.7472
  28   2.0000      -0.880073       -23.9480
  29   2.0000      -0.853975       -23.2378
  30   2.0000      -0.818558       -22.2741
  31   2.0000      -0.801087       -21.7987
  32   2.0000      -0.761693       -20.7267
  33   2.0000      -0.732186       -19.9238
  34   2.0000      -0.710211       -19.3258
  35   2.0000      -0.690808       -18.7978
  36   2.0000      -0.679980       -18.5032
  37   2.0000      -0.666667       -18.1409
  38   2.0000      -0.658356       -17.9148
  39   2.0000      -0.636762       -17.3272
  40   2.0000      -0.624426       -16.9915
  41   2.0000      -0.599957       -16.3257
  42   2.0000      -0.578268       -15.7355
  43   2.0000      -0.562766       -15.3136
  44   2.0000      -0.558519       -15.1981
  45   2.0000      -0.552808       -15.0427
  46   2.0000      -0.550757       -14.9868
  47   2.0000      -0.528600       -14.3839
  48   2.0000      -0.520743       -14.1702
  49   2.0000      -0.512030       -13.9330
  50   2.0000      -0.496770       -13.5178
  51   2.0000      -0.491831       -13.3834
  52   2.0000      -0.490633       -13.3508
  53   2.0000      -0.477435       -12.9917
  54   2.0000      -0.463053       -12.6003
  55   2.0000      -0.451024       -12.2730
  56   2.0000      -0.442688       -12.0462
  57   2.0000      -0.436644       -11.8817
  58   2.0000      -0.432676       -11.7737
  59   2.0000      -0.422053       -11.4846
  60   2.0000      -0.414222       -11.2716
  61   2.0000      -0.407729       -11.0949
  62   2.0000      -0.404786       -11.0148
  63   2.0000      -0.402065       -10.9407
  64   2.0000      -0.389308       -10.5936
  65   2.0000      -0.388090       -10.5605
  66   2.0000      -0.378549       -10.3009
  67   2.0000      -0.362401        -9.8614
  68   2.0000      -0.357264        -9.7216
  69   2.0000      -0.351677        -9.5696
  70   2.0000      -0.312751        -8.5104
  71   2.0000      -0.199794        -5.4367
  72   0.0000       0.044765         1.2181
  73   0.0000       0.063118         1.7175
  74   0.0000       0.064550         1.7565
  75   0.0000       0.074661         2.0316
  76   0.0000       0.077337         2.1044

MULLIKEN ATOMIC CHARGES
-----------------------
   0 C :   -0.485580
   1 C :   -0.265702
   2 C :   -0.269109
   3 C :   -0.346366
   4 H :    0.192167
   5 H :    0.205935
   6 S :    0.952647
   7 C :    0.508919
   8 N :   -0.597486
   9 N :   -0.587591
  10 H :    0.257803
  11 H :    0.228532
  12 H :    0.028543
  13 H :    0.302212
  14 H :    0.220516
  15 O :   -0.504413
  16 O :   -0.438955
  17 C :   -0.229542
  18 H :    0.148512
  19 H :    0.145820
  20 C :   -0.303288
  21 C :   -0.335644
  22 H :    0.158011
  23 H :    0.131621
  24 H :    0.157621
  25 H :    0.192014
  26 C :   -0.261855
  27 H :    0.126943
  28 H :    0.148379
  29 C :   -0.324338
  30 H :    0.143089
  31 H :    0.163758
  32 C :   -0.277517
  33 H :    0.145942
  34 H :    0.155830
  35 H :    0.170681
  36 H :    0.148246
  37 H :    0.145868
  38 H :    0.148951
  39 F :   -0.101174
Sum of atomic charges:    0.0000000

LOEWDIN ATOMIC CHARGES
----------------------
   0 C :   -0.294939
   1 C :   -0.307142
   2 C :   -0.285902
   3 C :   -0.361830
   4 H :    0.145648
   5 H :    0.156970
   6 S :    0.588875
   7 C :   -0.452325
   8 N :   -0.018985
   9 N :   -0.028572
  10 H :    0.173033
  11 H :    0.161282
  12 H :    0.105658
  13 H :    0.152725
  14 H :    0.159192
  15 O :   -0.290229
  16 O :   -0.258818
  17 C :   -0.268658
  18 H :    0.140618
  19 H :    0.129268
  20 C :   -0.272228
  21 C :   -0.278166
  22 H :    0.140848
  23 H :    0.135571
  24 H :    0.147529
  25 H :    0.151779
  26 C :   -0.271955
  27 H :    0.131147
  28 H :    0.136324
  29 C :   -0.275517
  30 H :    0.136580
  31 H :    0.140029
  32 C :   -0.272188
  33 H :    0.138463
  34 H :    0.132593
  35 H :    0.141436
  36 H :    0.138059
  37 H :    0.136855
  38 H :    0.139169
  39 F :    0.077804

  Mayer bond orders larger than 0.100000
B(  0-C ,  1-C ) :   0.9203 B(  0-C , 17-C ) :   0.8818 B(  0-C , 18-H ) :   1.0112
B(  0-C , 19-H ) :   1.0086 B(  1-C ,  7-C ) :   1.6259 B(  1-C , 12-H ) :   1.0098
B(  2-C ,  3-C ) :   0.9052 B(  2-C , 21-C ) :   0.9081 B(  2-C , 24-H ) :   0.9624
B(  2-C , 25-H ) :   0.9717 B(  3-C ,  4-H ) :   0.9484 B(  3-C ,  5-H ) :   0.9504
B(  3-C ,  6-S ) :   0.9190 B(  6-S , 15-O ) :   1.7445 B(  6-S , 16-O ) :   1.9706
B(  6-S , 39-F ) :   1.0883 B(  7-C ,  8-N ) :   1.1014 B(  7-C ,  9-N ) :   1.0633
B(  8-N , 13-H ) :   0.8591 B(  8-N , 14-H ) :   0.9376 B(  9-N , 10-H ) :   0.9136
B(  9-N , 11-H ) :   0.9370 B( 17-C , 26-C ) :   0.9304 B( 17-C , 27-H ) :   0.9941
B( 17-C , 28-H ) :   0.9814 B( 20-C , 21-C ) :   0.9087 B( 20-C , 32-C ) :   0.9206
B( 20-C , 35-H ) :   0.9873 B( 20-C , 36-H ) :   0.9819 B( 21-C , 22-H ) :   0.9699
B( 21-C , 23-H ) :   0.9795 B( 26-C , 29-C ) :   0.8767 B( 26-C , 30-H ) :   0.9846
B( 26-C , 31-H ) :   0.9677 B( 29-C , 32-C ) :   0.9163 B( 29-C , 33-H ) :   0.9801
B( 29-C , 34-H ) :   0.9907 B( 32-C , 37-H ) :   0.9958 B( 32-C , 38-H ) :   0.9897

Dispersion correction           -0.003060310
FINAL SINGLE POINT ENERGY     -1190.908933802820

DIPOLE MOMENT
-------------
                                X             Y             Z
Electronic contribution:    -18.40393       4.07731     -18.01685
Nuclear contribution   :     18.74089      -4.92611      17.99644
                        -----------------------------------------
Total Dipole Moment    :      0.33696      -0.84880      -0.02041
                        -----------------------------------------
Magnitude (a.u.)       :      0.91347
Magnitude (Debye)      :      2.32185

Rotational constants in cm-1:     0.014210     0.012324     0.007480
Rotational constants in MHz :   425.991442   369.455467   224.259162

                             ****ORCA TERMINATED NORMALLY****
TOTAL RUN TIME: 0 days 0 hours 1 minutes 23 seconds 814 msec
