                         Program Version 5.0.0 -  RELEASE  -
|  1> !M062X D3Zero RIJCOSX def2-TZVP def2/J TightSCF xyzfile
|  2>
|  3> *xyzfile 0 1 D8.xyz
|  4>
|  5> %MaxCore 64000
|  6>
|  7> %pal nprocs 18
|  8> end
|  9>
| 10> %scf
| 11>   MaxIter 150
| 12> end
| 13>
| 14>
| 15>                          ****END OF INPUT****

CARTESIAN COORDINATES (ANGSTROEM)
---------------------------------
  C      4.490588    1.155899   -2.469290
  N      4.305394    1.222762   -3.908317
  C      4.906458   -3.102816   -5.954844
  C      3.511771   -2.806215   -6.492283
  H      2.736044   -3.373445   -5.973736
  H      3.444904   -3.040831   -7.555281
  S      3.004618   -1.096206   -6.389259
  C      4.631918    2.246365   -4.670958
  C      4.541686    2.143990   -5.987139
  N      5.084086    3.393584   -4.118545
  H      4.920675    3.570501   -3.135870
  H      5.254652    4.197390   -4.706956
  H      3.824530    0.449113   -4.350926
  H      4.343373    1.249318   -6.416646
  H      4.676712    2.956624   -6.574113
  O      4.128856   -0.329647   -6.953717
  O      1.781285   -1.000779   -7.136399
  C      5.942129    0.939500   -2.036893
  H      3.864305    0.328532   -2.136611
  H      4.076233    2.049994   -1.989010
  C      6.462677   -3.117775   -3.944671
  C      5.024977   -3.025679   -4.437625
  H      4.423321   -3.818693   -3.977648
  H      4.579350   -2.087131   -4.108727
  H      5.201533   -4.100207   -6.296905
  H      5.605922   -2.397822   -6.413368
  C      6.559957   -0.356290   -2.559086
  H      5.967976    0.952567   -0.942444
  H      6.547184    1.788331   -2.368849
  C      6.006283   -1.615917   -1.899301
  H      7.642360   -0.318000   -2.402059
  H      6.414855   -0.403433   -3.642587
  C      6.608718   -2.917014   -2.435655
  H      6.190324   -1.561115   -0.820948
  H      4.919250   -1.651245   -2.016586
  H      7.066975   -2.374258   -4.475514
  H      6.887808   -4.089747   -4.215332
  H      6.135197   -3.755573   -1.915159
  H      7.671142   -2.955503   -2.172291
  F      2.851546   -0.783683   -4.956789

 Total Charge           Charge          ....    0
 Multiplicity           Mult            ....    1
 Number of Electrons    NEL             ....  144
 Basis Dimension        Dim             ....  671

ORBITAL ENERGIES
----------------

  NO   OCC          E(Eh)            E(eV)
   0   2.0000     -90.157522     -2453.3109
   1   2.0000     -25.370978      -690.3794
   2   2.0000     -19.647998      -534.6492
   3   2.0000     -19.635763      -534.3163
   4   2.0000     -14.731806      -400.8728
   5   2.0000     -14.730682      -400.8422
   6   2.0000     -10.601941      -288.4935
   7   2.0000     -10.568277      -287.5774
   8   2.0000     -10.564620      -287.4779
   9   2.0000     -10.563560      -287.4491
  10   2.0000     -10.551008      -287.1075
  11   2.0000     -10.540796      -286.8296
  12   2.0000     -10.536806      -286.7211
  13   2.0000     -10.533108      -286.6205
  14   2.0000     -10.528240      -286.4880
  15   2.0000     -10.527420      -286.4657
  16   2.0000     -10.416376      -283.4440
  17   2.0000      -8.483111      -230.8372
  18   2.0000      -6.408130      -174.3741
  19   2.0000      -6.402723      -174.2270
  20   2.0000      -6.402221      -174.2133
  21   2.0000      -1.525871       -41.5211
  22   2.0000      -1.240704       -33.7613
  23   2.0000      -1.142363       -31.0853
  24   2.0000      -1.066446       -29.0195
  25   2.0000      -0.974588       -26.5199
  26   2.0000      -0.948680       -25.8149
  27   2.0000      -0.916989       -24.9525
  28   2.0000      -0.887241       -24.1431
  29   2.0000      -0.851408       -23.1680
  30   2.0000      -0.828167       -22.5356
  31   2.0000      -0.803179       -21.8556
  32   2.0000      -0.767850       -20.8943
  33   2.0000      -0.741545       -20.1785
  34   2.0000      -0.720212       -19.5980
  35   2.0000      -0.705251       -19.1909
  36   2.0000      -0.689866       -18.7722
  37   2.0000      -0.677652       -18.4398
  38   2.0000      -0.656480       -17.8637
  39   2.0000      -0.646565       -17.5939
  40   2.0000      -0.638147       -17.3649
  41   2.0000      -0.593250       -16.1432
  42   2.0000      -0.579993       -15.7824
  43   2.0000      -0.563160       -15.3244
  44   2.0000      -0.557369       -15.1668
  45   2.0000      -0.555953       -15.1283
  46   2.0000      -0.545398       -14.8410
  47   2.0000      -0.541062       -14.7231
  48   2.0000      -0.533130       -14.5072
  49   2.0000      -0.514528       -14.0010
  50   2.0000      -0.511172       -13.9097
  51   2.0000      -0.500609       -13.6223
  52   2.0000      -0.484804       -13.1922
  53   2.0000      -0.477772       -13.0008
  54   2.0000      -0.462950       -12.5975
  55   2.0000      -0.457478       -12.4486
  56   2.0000      -0.453474       -12.3397
  57   2.0000      -0.443940       -12.0802
  58   2.0000      -0.435907       -11.8616
  59   2.0000      -0.429953       -11.6996
  60   2.0000      -0.426803       -11.6139
  61   2.0000      -0.414053       -11.2670
  62   2.0000      -0.409230       -11.1357
  63   2.0000      -0.403537       -10.9808
  64   2.0000      -0.399768       -10.8782
  65   2.0000      -0.394861       -10.7447
  66   2.0000      -0.379983       -10.3399
  67   2.0000      -0.378978       -10.3125
  68   2.0000      -0.371526       -10.1097
  69   2.0000      -0.363432        -9.8895
  70   2.0000      -0.306049        -8.3280
  71   2.0000      -0.196781        -5.3547
  72   0.0000       0.039372         1.0714
  73   0.0000       0.058325         1.5871
  74   0.0000       0.060052         1.6341
  75   0.0000       0.069885         1.9017
  76   0.0000       0.073391         1.9971

MULLIKEN ATOMIC CHARGES
-----------------------
   0 C :   -0.390804
   1 N :   -0.378635
   2 C :   -0.268925
   3 C :   -0.347298
   4 H :    0.188617
   5 H :    0.207904
   6 S :    0.931318
   7 C :    0.570074
   8 C :   -0.633308
   9 N :   -0.598399
  10 H :    0.238854
  11 H :    0.249271
  12 H :    0.221095
  13 H :    0.150238
  14 H :    0.097770
  15 O :   -0.452167
  16 O :   -0.434028
  17 C :   -0.191449
  18 H :    0.175886
  19 H :    0.165536
  20 C :   -0.308418
  21 C :   -0.318874
  22 H :    0.161306
  23 H :    0.100143
  24 H :    0.157793
  25 H :    0.196513
  26 C :   -0.311233
  27 H :    0.135608
  28 H :    0.162465
  29 C :   -0.312180
  30 H :    0.151119
  31 H :    0.174996
  32 C :   -0.280491
  33 H :    0.149636
  34 H :    0.150402
  35 H :    0.175527
  36 H :    0.151907
  37 H :    0.149413
  38 H :    0.152696
  39 F :   -0.139878
Sum of atomic charges:    0.0000000

LOEWDIN ATOMIC CHARGES
----------------------
   0 C :   -0.302917
   1 N :    0.106111
   2 C :   -0.285371
   3 C :   -0.363901
   4 H :    0.143567
   5 H :    0.158114
   6 S :    0.578494
   7 C :   -0.468161
   8 C :   -0.336354
   9 N :   -0.032474
  10 H :    0.158371
  11 H :    0.175250
  12 H :    0.169279
  13 H :    0.088038
  14 H :    0.093624
  15 O :   -0.266428
  16 O :   -0.256947
  17 C :   -0.274722
  18 H :    0.133257
  19 H :    0.126814
  20 C :   -0.271356
  21 C :   -0.278924
  22 H :    0.141475
  23 H :    0.129671
  24 H :    0.147867
  25 H :    0.153323
  26 C :   -0.272051
  27 H :    0.137720
  28 H :    0.140746
  29 C :   -0.276880
  30 H :    0.140894
  31 H :    0.142139
  32 C :   -0.270832
  33 H :    0.139445
  34 H :    0.130892
  35 H :    0.142343
  36 H :    0.139805
  37 H :    0.138198
  38 H :    0.140462
  39 F :    0.061421

  Mayer bond orders larger than 0.100000
B(  0-C ,  1-N ) :   0.9183 B(  0-C , 17-C ) :   0.8536 B(  0-C , 18-H ) :   0.9956
B(  0-C , 19-H ) :   1.0064 B(  1-N ,  7-C ) :   1.1080 B(  1-N , 12-H ) :   0.9273
B(  2-C ,  3-C ) :   0.9044 B(  2-C , 21-C ) :   0.9137 B(  2-C , 24-H ) :   0.9619
B(  2-C , 25-H ) :   0.9689 B(  3-C ,  4-H ) :   0.9490 B(  3-C ,  5-H ) :   0.9492
B(  3-C ,  6-S ) :   0.9198 B(  6-S , 15-O ) :   1.8193 B(  6-S , 16-O ) :   1.9701
B(  6-S , 39-F ) :   1.0248 B(  7-C ,  8-C ) :   1.5615 B(  7-C ,  9-N ) :   1.0185
B(  8-C , 13-H ) :   1.0394 B(  8-C , 14-H ) :   1.0048 B(  9-N , 10-H ) :   0.9213
B(  9-N , 11-H ) :   0.9324 B( 17-C , 26-C ) :   0.9156 B( 17-C , 27-H ) :   0.9841
B( 17-C , 28-H ) :   0.9746 B( 20-C , 21-C ) :   0.9083 B( 20-C , 32-C ) :   0.9166
B( 20-C , 35-H ) :   0.9879 B( 20-C , 36-H ) :   0.9810 B( 21-C , 22-H ) :   0.9696
B( 21-C , 23-H ) :   0.9810 B( 26-C , 29-C ) :   0.8740 B( 26-C , 30-H ) :   0.9800
B( 26-C , 31-H ) :   0.9714 B( 29-C , 32-C ) :   0.9208 B( 29-C , 33-H ) :   0.9787
B( 29-C , 34-H ) :   0.9898 B( 32-C , 37-H ) :   0.9949 B( 32-C , 38-H ) :   0.9893

Dispersion correction           -0.003070670
FINAL SINGLE POINT ENERGY     -1190.886995303782

DIPOLE MOMENT
-------------
                                X             Y             Z
Electronic contribution:    -18.43591       3.17229     -16.16463
Nuclear contribution   :     18.77618      -4.78855      17.68602
                        -----------------------------------------
Total Dipole Moment    :      0.34027      -1.61625       1.52140
                        -----------------------------------------
Magnitude (a.u.)       :      2.24560
Magnitude (Debye)      :      5.70785

Rotational constants in cm-1:     0.014368     0.012319     0.007509
Rotational constants in MHz :   430.738566   369.302170   225.105103

                             ****ORCA TERMINATED NORMALLY****
TOTAL RUN TIME: 0 days 0 hours 1 minutes 22 seconds 471 msec
