                         Program Version 5.0.0 -  RELEASE  -
|  1> !M062X D3Zero RIJCOSX def2-TZVP def2/J TightSCF xyzfile
|  2>
|  3> *xyzfile 0 1 D9.xyz
|  4>
|  5> %MaxCore 64000
|  6>
|  7> %pal nprocs 18
|  8> end
|  9>
| 10> %scf
| 11>   MaxIter 150
| 12> end
| 13>
| 14>
| 15>                          ****END OF INPUT****

CARTESIAN COORDINATES (ANGSTROEM)
---------------------------------
  C      4.490588    1.155899   -2.469290
  N      4.305394    1.222762   -3.908317
  C      4.906458   -3.102816   -5.954844
  C      3.511771   -2.806215   -6.492283
  H      2.736044   -3.373445   -5.973736
  H      3.444904   -3.040831   -7.555281
  S      3.004618   -1.096206   -6.389259
  C      4.631918    2.246365   -4.670958
  N      4.541686    2.143990   -5.987139
  C      5.084086    3.393584   -4.118545
  H      4.920675    3.570501   -3.135870
  H      5.254652    4.197390   -4.706956
  H      3.824530    0.449113   -4.350926
  H      4.343373    1.249318   -6.416646
  H      4.676712    2.956624   -6.574113
  O      4.128856   -0.329647   -6.953717
  O      1.781285   -1.000779   -7.136399
  C      5.942129    0.939500   -2.036893
  H      3.864305    0.328532   -2.136611
  H      4.076233    2.049994   -1.989010
  C      6.462677   -3.117775   -3.944671
  C      5.024977   -3.025679   -4.437625
  H      4.423321   -3.818693   -3.977648
  H      4.579350   -2.087131   -4.108727
  H      5.201533   -4.100207   -6.296905
  H      5.605922   -2.397822   -6.413368
  C      6.559957   -0.356290   -2.559086
  H      5.967976    0.952567   -0.942444
  H      6.547184    1.788331   -2.368849
  C      6.006283   -1.615917   -1.899301
  H      7.642360   -0.318000   -2.402059
  H      6.414855   -0.403433   -3.642587
  C      6.608718   -2.917014   -2.435655
  H      6.190324   -1.561115   -0.820948
  H      4.919250   -1.651245   -2.016586
  H      7.066975   -2.374258   -4.475514
  H      6.887808   -4.089747   -4.215332
  H      6.135197   -3.755573   -1.915159
  H      7.671142   -2.955503   -2.172291
  F      2.851546   -0.783683   -4.956789

 Total Charge           Charge          ....    0
 Multiplicity           Mult            ....    1
 Number of Electrons    NEL             ....  144
 Basis Dimension        Dim             ....  671

ORBITAL ENERGIES
----------------

  NO   OCC          E(Eh)            E(eV)
   0   2.0000     -90.177619     -2453.8578
   1   2.0000     -25.385921      -690.7860
   2   2.0000     -19.665815      -535.1340
   3   2.0000     -19.663303      -535.0657
   4   2.0000     -14.735477      -400.9727
   5   2.0000     -14.712340      -400.3431
   6   2.0000     -10.615544      -288.8636
   7   2.0000     -10.574214      -287.7390
   8   2.0000     -10.567403      -287.5536
   9   2.0000     -10.560883      -287.3762
  10   2.0000     -10.557046      -287.2718
  11   2.0000     -10.544276      -286.9243
  12   2.0000     -10.537564      -286.7417
  13   2.0000     -10.531498      -286.5766
  14   2.0000     -10.523774      -286.3665
  15   2.0000     -10.519115      -286.2397
  16   2.0000     -10.430035      -283.8157
  17   2.0000      -8.503215      -231.3842
  18   2.0000      -6.428174      -174.9195
  19   2.0000      -6.422859      -174.7749
  20   2.0000      -6.422347      -174.7610
  21   2.0000      -1.541034       -41.9337
  22   2.0000      -1.261481       -34.3267
  23   2.0000      -1.165752       -31.7217
  24   2.0000      -1.066634       -29.0246
  25   2.0000      -0.973950       -26.5025
  26   2.0000      -0.958794       -26.0901
  27   2.0000      -0.919915       -25.0322
  28   2.0000      -0.886182       -24.1142
  29   2.0000      -0.855113       -23.2688
  30   2.0000      -0.830295       -22.5935
  31   2.0000      -0.793976       -21.6052
  32   2.0000      -0.782302       -21.2875
  33   2.0000      -0.752220       -20.4690
  34   2.0000      -0.729252       -19.8440
  35   2.0000      -0.715353       -19.4657
  36   2.0000      -0.698658       -19.0115
  37   2.0000      -0.681149       -18.5350
  38   2.0000      -0.667710       -18.1693
  39   2.0000      -0.646589       -17.5946
  40   2.0000      -0.617482       -16.8025
  41   2.0000      -0.602928       -16.4065
  42   2.0000      -0.593454       -16.1487
  43   2.0000      -0.585697       -15.9376
  44   2.0000      -0.566808       -15.4236
  45   2.0000      -0.566108       -15.4046
  46   2.0000      -0.553577       -15.0636
  47   2.0000      -0.543980       -14.8024
  48   2.0000      -0.525175       -14.2907
  49   2.0000      -0.520227       -14.1561
  50   2.0000      -0.507819       -13.8185
  51   2.0000      -0.505117       -13.7449
  52   2.0000      -0.493818       -13.4375
  53   2.0000      -0.480010       -13.0617
  54   2.0000      -0.465452       -12.6656
  55   2.0000      -0.457153       -12.4398
  56   2.0000      -0.452988       -12.3264
  57   2.0000      -0.444866       -12.1054
  58   2.0000      -0.437722       -11.9110
  59   2.0000      -0.432513       -11.7693
  60   2.0000      -0.426399       -11.6029
  61   2.0000      -0.422961       -11.5094
  62   2.0000      -0.419963       -11.4278
  63   2.0000      -0.411481       -11.1970
  64   2.0000      -0.407621       -11.0919
  65   2.0000      -0.402463       -10.9516
  66   2.0000      -0.397009       -10.8032
  67   2.0000      -0.378031       -10.2868
  68   2.0000      -0.377403       -10.2697
  69   2.0000      -0.367307        -9.9949
  70   2.0000      -0.294514        -8.0141
  71   2.0000      -0.199485        -5.4283
  72   0.0000       0.029376         0.7993
  73   0.0000       0.051676         1.4062
  74   0.0000       0.060644         1.6502
  75   0.0000       0.064708         1.7608
  76   0.0000       0.073677         2.0049

MULLIKEN ATOMIC CHARGES
-----------------------
   0 C :   -0.332661
   1 N :   -0.382298
   2 C :   -0.273396
   3 C :   -0.342255
   4 H :    0.195954
   5 H :    0.211070
   6 S :    0.939681
   7 C :    0.525195
   8 N :   -0.614954
   9 C :   -0.597238
  10 H :    0.113430
  11 H :    0.087824
  12 H :    0.195491
  13 H :    0.287558
  14 H :    0.248825
  15 O :   -0.492549
  16 O :   -0.426354
  17 C :   -0.213832
  18 H :    0.168675
  19 H :    0.174169
  20 C :   -0.306259
  21 C :   -0.323206
  22 H :    0.163615
  23 H :    0.101559
  24 H :    0.162067
  25 H :    0.196079
  26 C :   -0.305264
  27 H :    0.137433
  28 H :    0.184454
  29 C :   -0.314786
  30 H :    0.151683
  31 H :    0.158642
  32 C :   -0.281272
  33 H :    0.150975
  34 H :    0.149592
  35 H :    0.174586
  36 H :    0.152690
  37 H :    0.149335
  38 H :    0.153697
  39 F :   -0.127956
Sum of atomic charges:   -0.0000000

LOEWDIN ATOMIC CHARGES
----------------------
   0 C :   -0.284162
   1 N :    0.105232
   2 C :   -0.284942
   3 C :   -0.360244
   4 H :    0.146687
   5 H :    0.159284
   6 S :    0.582563
   7 C :   -0.469015
   8 N :   -0.019020
   9 C :   -0.363626
  10 H :    0.094544
  11 H :    0.091661
  12 H :    0.157966
  13 H :    0.142020
  14 H :    0.175943
  15 O :   -0.286064
  16 O :   -0.250160
  17 C :   -0.269281
  18 H :    0.129958
  19 H :    0.135547
  20 C :   -0.271304
  21 C :   -0.279035
  22 H :    0.142269
  23 H :    0.129907
  24 H :    0.149528
  25 H :    0.152633
  26 C :   -0.273381
  27 H :    0.138455
  28 H :    0.148307
  29 C :   -0.277204
  30 H :    0.140755
  31 H :    0.137706
  32 C :   -0.270875
  33 H :    0.140076
  34 H :    0.130193
  35 H :    0.142158
  36 H :    0.139849
  37 H :    0.137978
  38 H :    0.140943
  39 F :    0.066149

  Mayer bond orders larger than 0.100000
B(  0-C ,  1-N ) :   0.9066 B(  0-C , 17-C ) :   0.8808 B(  0-C , 18-H ) :   0.9970
B(  0-C , 19-H ) :   0.9932 B(  1-N ,  7-C ) :   1.1065 B(  1-N , 12-H ) :   0.9289
B(  2-C ,  3-C ) :   0.9042 B(  2-C , 21-C ) :   0.9082 B(  2-C , 24-H ) :   0.9610
B(  2-C , 25-H ) :   0.9714 B(  3-C ,  4-H ) :   0.9469 B(  3-C ,  5-H ) :   0.9479
B(  3-C ,  6-S ) :   0.9176 B(  6-S , 15-O ) :   1.7642 B(  6-S , 16-O ) :   1.9770
B(  6-S , 39-F ) :   1.0419 B(  7-C ,  8-N ) :   1.0833 B(  7-C ,  9-C ) :   1.5960
B(  8-N , 13-H ) :   0.8694 B(  8-N , 14-H ) :   0.9323 B(  9-C , 10-H ) :   1.0010
B(  9-C , 11-H ) :   1.0082 B( 17-C , 26-C ) :   0.9243 B( 17-C , 27-H ) :   0.9899
B( 17-C , 28-H ) :   0.9694 B( 20-C , 21-C ) :   0.9090 B( 20-C , 32-C ) :   0.9175
B( 20-C , 35-H ) :   0.9873 B( 20-C , 36-H ) :   0.9811 B( 21-C , 22-H ) :   0.9690
B( 21-C , 23-H ) :   0.9822 B( 26-C , 29-C ) :   0.8718 B( 26-C , 30-H ) :   0.9810
B( 26-C , 31-H ) :   0.9719 B( 29-C , 32-C ) :   0.9186 B( 29-C , 33-H ) :   0.9790
B( 29-C , 34-H ) :   0.9907 B( 32-C , 37-H ) :   0.9951 B( 32-C , 38-H ) :   0.9888

Dispersion correction           -0.003087225
FINAL SINGLE POINT ENERGY     -1190.903635559513

DIPOLE MOMENT
-------------
                                X             Y             Z
Electronic contribution:    -18.95267       1.83773     -17.82515
Nuclear contribution   :     18.85717      -4.60195      17.96505
                        -----------------------------------------
Total Dipole Moment    :     -0.09550      -2.76422       0.13991
                        -----------------------------------------
Magnitude (a.u.)       :      2.76941
Magnitude (Debye)      :      7.03928

Rotational constants in cm-1:     0.014436     0.012382     0.007563
Rotational constants in MHz :   432.785702   371.214592   226.743759

                             ****ORCA TERMINATED NORMALLY****
TOTAL RUN TIME: 0 days 0 hours 1 minutes 24 seconds 480 msec
