                         Program Version 5.0.0 -  RELEASE  -
|  1> !wB97X-D3 RIJCOSX def2-TZVPD def2/J TightSCF
|  2> *xyz -1 1
|  3> C          0.70466        1.44313       -4.50363
|  4> C          1.72854        1.42432       -5.63944
|  5> H          2.64672        1.95379       -5.38105
|  6> H          1.29992        1.93061       -6.50361
|  7> S          2.25263       -0.18811       -6.27184
|  8> O          3.56261       -0.44446       -5.63155
|  9> O          2.34494       -0.03374       -7.69650
| 10> O          1.26606       -1.15918       -5.80536
| 11> H         -0.17385        0.91270       -4.80656
| 12> H          0.44778        2.45562       -4.27173
| 13> H          1.12367        0.97423       -3.63791
| 14> *
| 15>
| 16> %MaxCore 64000
| 17>
| 18> %pal nprocs 4
| 19> end
| 20>
| 21> %scf
| 22>   MaxIter 150
| 23> end
| 24>
| 25>
| 26>                          ****END OF INPUT****

CARTESIAN COORDINATES (ANGSTROEM)
---------------------------------
  C      0.704660    1.443130   -4.503630
  C      1.728540    1.424320   -5.639440
  H      2.646720    1.953790   -5.381050
  H      1.299920    1.930610   -6.503610
  S      2.252630   -0.188110   -6.271840
  O      3.562610   -0.444460   -5.631550
  O      2.344940   -0.033740   -7.696500
  O      1.266060   -1.159180   -5.805360
  H     -0.173850    0.912700   -4.806560
  H      0.447780    2.455620   -4.271730
  H      1.123670    0.974230   -3.637910

 Total Charge           Charge          ....   -1
 Multiplicity           Mult            ....    1
 Number of Electrons    NEL             ....   58
 Basis Dimension        Dim             ....  285

ORBITAL ENERGIES
----------------

  NO   OCC          E(Eh)            E(eV)
   0   2.0000     -88.934420     -2420.0286
   1   2.0000     -19.012665      -517.3609
   2   2.0000     -19.005655      -517.1702
   3   2.0000     -18.997030      -516.9355
   4   2.0000     -10.136944      -275.8403
   5   2.0000     -10.131861      -275.7019
   6   2.0000      -7.997327      -217.6183
   7   2.0000      -5.951656      -161.9528
   8   2.0000      -5.950312      -161.9162
   9   2.0000      -5.949994      -161.9076
  10   2.0000      -1.038842       -28.2683
  11   2.0000      -0.906543       -24.6683
  12   2.0000      -0.883621       -24.0446
  13   2.0000      -0.749165       -20.3858
  14   2.0000      -0.620148       -16.8751
  15   2.0000      -0.487577       -13.2676
  16   2.0000      -0.420605       -11.4453
  17   2.0000      -0.416356       -11.3296
  18   2.0000      -0.375621       -10.2212
  19   2.0000      -0.358737        -9.7617
  20   2.0000      -0.356918        -9.7122
  21   2.0000      -0.322684        -8.7807
  22   2.0000      -0.314488        -8.5576
  23   2.0000      -0.248064        -6.7502
  24   2.0000      -0.246809        -6.7160
  25   2.0000      -0.209720        -5.7068
  26   2.0000      -0.201611        -5.4861
  27   2.0000      -0.192936        -5.2501
  28   2.0000      -0.156992        -4.2720
  29   0.0000       0.174332         4.7438
  30   0.0000       0.185788         5.0555
  31   0.0000       0.187149         5.0926
  32   0.0000       0.194149         5.2831
  33   0.0000       0.220558         6.0017

MULLIKEN ATOMIC CHARGES
-----------------------
   0 C :   -1.051738
   1 C :   -0.439442
   2 H :    0.287898
   3 H :    0.271382
   4 S :    1.179883
   5 O :   -0.733789
   6 O :   -0.698370
   7 O :   -0.714888
   8 H :    0.286813
   9 H :    0.329168
  10 H :    0.283083
Sum of atomic charges:   -1.0000000

LOEWDIN ATOMIC CHARGES
----------------------
   0 C :   -0.147769
   1 C :   -0.318316
   2 H :    0.080552
   3 H :    0.074696
   4 S :    0.358797
   5 O :   -0.427770
   6 O :   -0.389881
   7 O :   -0.401751
   8 H :    0.057750
   9 H :    0.050068
  10 H :    0.063625

  Mayer bond orders larger than 0.100000
B(  0-C ,  1-C ) :   0.6394 B(  0-C ,  8-H ) :   0.9895 B(  0-C ,  9-H ) :   0.9162
B(  0-C , 10-H ) :   0.9828 B(  1-C ,  2-H ) :   0.9685 B(  1-C ,  3-H ) :   0.9720
B(  1-C ,  4-S ) :   0.8761 B(  1-C ,  5-O ) :   0.1312 B(  1-C ,  6-O ) :   0.1303
B(  4-S ,  5-O ) :   1.4989 B(  4-S ,  6-O ) :   1.5324 B(  4-S ,  7-O ) :   1.5158

Dispersion correction           -0.002812042
FINAL SINGLE POINT ENERGY      -703.219787593264

DIPOLE MOMENT
-------------
                                X             Y             Z
Electronic contribution:      3.63441      -5.59497      -4.29003
Nuclear contribution   :     -4.50297       7.24642       5.01775
                        -----------------------------------------
Total Dipole Moment    :     -0.86856       1.65145       0.72773
                        -----------------------------------------
Magnitude (a.u.)       :      2.00281
Magnitude (Debye)      :      5.09075

Rotational constants in cm-1:     0.162459     0.081286     0.079601
Rotational constants in MHz :  4870.394399  2436.893583  2386.374948

                             ****ORCA TERMINATED NORMALLY****
TOTAL RUN TIME: 0 days 0 hours 1 minutes 6 seconds 25 msec
