                         Program Version 5.0.0 -  RELEASE  -
|  1> !wB97X-D3 RIJCOSX def2-TZVPD def2/J TightSCF
|  2> *xyz 0 1
|  3> C          0.70466        1.44313       -4.50363
|  4> C          1.72854        1.42432       -5.63944
|  5> H          2.64672        1.95379       -5.38105
|  6> H          1.29992        1.93061       -6.50361
|  7> S          2.25263       -0.18811       -6.27184
|  8> F          3.56261       -0.44446       -5.63155
|  9> O          2.34494       -0.03374       -7.69650
| 10> O          1.26606       -1.15918       -5.80536
| 11> H         -0.17385        0.91270       -4.80656
| 12> H          0.44778        2.45562       -4.27173
| 13> H          1.12367        0.97423       -3.63791
| 14> *
| 15>
| 16> %MaxCore 64000
| 17>
| 18> %pal nprocs 4
| 19> end
| 20>
| 21> %scf
| 22>   MaxIter 150
| 23> end
| 24>
| 25>
| 26>                          ****END OF INPUT****

CARTESIAN COORDINATES (ANGSTROEM)
---------------------------------
  C      0.704660    1.443130   -4.503630
  C      1.728540    1.424320   -5.639440
  H      2.646720    1.953790   -5.381050
  H      1.299920    1.930610   -6.503610
  S      2.252630   -0.188110   -6.271840
  F      3.562610   -0.444460   -5.631550
  O      2.344940   -0.033740   -7.696500
  O      1.266060   -1.159180   -5.805360
  H     -0.173850    0.912700   -4.806560
  H      0.447780    2.455620   -4.271730
  H      1.123670    0.974230   -3.637910

 Total Charge           Charge          ....    0
 Multiplicity           Mult            ....    1
 Number of Electrons    NEL             ....   58
 Basis Dimension        Dim             ....  285

ORBITAL ENERGIES
----------------

  NO   OCC          E(Eh)            E(eV)
   0   2.0000     -89.195153     -2427.1235
   1   2.0000     -24.888255      -677.2438
   2   2.0000     -19.247421      -523.7490
   3   2.0000     -19.239952      -523.5457
   4   2.0000     -10.338164      -281.3157
   5   2.0000     -10.292938      -280.0851
   6   2.0000      -8.258577      -224.7273
   7   2.0000      -6.216028      -169.1467
   8   2.0000      -6.209841      -168.9784
   9   2.0000      -6.208989      -168.9552
  10   2.0000      -1.469750       -39.9939
  11   2.0000      -1.229119       -33.4460
  12   2.0000      -1.134712       -30.8771
  13   2.0000      -0.938114       -25.5274
  14   2.0000      -0.836657       -22.7666
  15   2.0000      -0.780191       -21.2301
  16   2.0000      -0.682421       -18.5696
  17   2.0000      -0.669516       -18.2185
  18   2.0000      -0.655900       -17.8480
  19   2.0000      -0.594678       -16.1820
  20   2.0000      -0.582262       -15.8442
  21   2.0000      -0.555819       -15.1246
  22   2.0000      -0.530086       -14.4244
  23   2.0000      -0.500647       -13.6233
  24   2.0000      -0.498363       -13.5612
  25   2.0000      -0.480933       -13.0868
  26   2.0000      -0.433260       -11.7896
  27   2.0000      -0.426409       -11.6032
  28   2.0000      -0.414440       -11.2775
  29   0.0000       0.052231         1.4213
  30   0.0000       0.063767         1.7352
  31   0.0000       0.068654         1.8682
  32   0.0000       0.072259         1.9663
  33   0.0000       0.098655         2.6845

MULLIKEN ATOMIC CHARGES
-----------------------
   0 C :   -1.101824
   1 C :   -0.450581
   2 H :    0.381139
   3 H :    0.325062
   4 S :    1.204888
   5 F :   -0.163940
   6 O :   -0.585173
   7 O :   -0.596505
   8 H :    0.323704
   9 H :    0.343114
  10 H :    0.320116
Sum of atomic charges:    0.0000000

LOEWDIN ATOMIC CHARGES
----------------------
   0 C :   -0.111037
   1 C :   -0.270425
   2 H :    0.097381
   3 H :    0.100786
   4 S :    0.610025
   5 F :   -0.084884
   6 O :   -0.275154
   7 O :   -0.288519
   8 H :    0.073222
   9 H :    0.074192
  10 H :    0.074414

  Mayer bond orders larger than 0.100000
B(  0-C ,  1-C ) :   0.7033 B(  0-C ,  8-H ) :   0.9692 B(  0-C ,  9-H ) :   0.9199
B(  0-C , 10-H ) :   0.9432 B(  1-C ,  2-H ) :   0.8515 B(  1-C ,  3-H ) :   0.9361
B(  1-C ,  4-S ) :   0.8631 B(  1-C ,  6-O ) :   0.1175 B(  4-S ,  5-F ) :   0.9726
B(  4-S ,  6-O ) :   1.6791 B(  4-S ,  7-O ) :   1.6616

Dispersion correction           -0.002792976
FINAL SINGLE POINT ENERGY      -727.754042549557

DIPOLE MOMENT
-------------
                                X             Y             Z
Electronic contribution:      6.31257      -6.47906      -3.69586
Nuclear contribution   :     -6.09914       7.80989       4.64238
                        -----------------------------------------
Total Dipole Moment    :      0.21344       1.33083       0.94652
                        -----------------------------------------
Magnitude (a.u.)       :      1.64699
Magnitude (Debye)      :      4.18631

Rotational constants in cm-1:     0.154372     0.078826     0.078033
Rotational constants in MHz :  4627.943144  2363.154585  2339.382767

                             ****ORCA TERMINATED NORMALLY****
TOTAL RUN TIME: 0 days 0 hours 1 minutes 4 seconds 702 msec
