                         Program Version 5.0.0 -  RELEASE  -
|  1> !wB97X-D3 RIJCOSX def2-TZVPD def2/J TightSCF
|  2> *xyz 0 1
|  3> C          2.91632       -1.24259       -1.54313
|  4> C          3.46659       -1.59097       -2.88908
|  5> C          4.65227       -1.14316       -3.25969
|  6> N          2.75226       -2.29204       -3.72803
|  7> H          1.77836       -2.48960       -3.51274
|  8> H          2.94861       -2.20854       -4.71681
|  9> H          5.14672       -0.51251       -2.63385
| 10> H          4.78303       -1.00720       -4.25350
| 11> C          2.80408        0.29070       -1.35924
| 12> H          1.94047       -1.71653       -1.44116
| 13> H          3.55857       -1.66343       -0.76637
| 14> H          2.17393        0.69633       -2.12297
| 15> H          3.77707        0.73043       -1.42880
| 16> H          2.38369        0.50492       -0.39889
| 17> *
| 18>
| 19> %MaxCore 64000
| 20>
| 21> %pal nprocs 4
| 22> end
| 23>
| 24> %scf
| 25>   MaxIter 150
| 26> end
| 27>
| 28>
| 29>                          ****END OF INPUT****

CARTESIAN COORDINATES (ANGSTROEM)
---------------------------------
  C      2.916320   -1.242590   -1.543130
  C      3.466590   -1.590970   -2.889080
  C      4.652270   -1.143160   -3.259690
  N      2.752260   -2.292040   -3.728030
  H      1.778360   -2.489600   -3.512740
  H      2.948610   -2.208540   -4.716810
  H      5.146720   -0.512510   -2.633850
  H      4.783030   -1.007200   -4.253500
  C      2.804080    0.290700   -1.359240
  H      1.940470   -1.716530   -1.441160
  H      3.558570   -1.663430   -0.766370
  H      2.173930    0.696330   -2.122970
  H      3.777070    0.730430   -1.428800
  H      2.383690    0.504920   -0.398890

 Total Charge           Charge          ....    0
 Multiplicity           Mult            ....    1
 Number of Electrons    NEL             ....   40
 Basis Dimension        Dim             ....  266

ORBITAL ENERGIES
----------------

  NO   OCC          E(Eh)            E(eV)
   0   2.0000     -14.424549      -392.5119
   1   2.0000     -10.297167      -280.2002
   2   2.0000     -10.278391      -279.6892
   3   2.0000     -10.260640      -279.2062
   4   2.0000     -10.199937      -277.5544
   5   2.0000      -1.055282       -28.7157
   6   2.0000      -0.898881       -24.4598
   7   2.0000      -0.827055       -22.5053
   8   2.0000      -0.756567       -20.5872
   9   2.0000      -0.671022       -18.2594
  10   2.0000      -0.625099       -17.0098
  11   2.0000      -0.582340       -15.8463
  12   2.0000      -0.551208       -14.9991
  13   2.0000      -0.509157       -13.8549
  14   2.0000      -0.488091       -13.2816
  15   2.0000      -0.474266       -12.9054
  16   2.0000      -0.451771       -12.2933
  17   2.0000      -0.438300       -11.9268
  18   2.0000      -0.422549       -11.4982
  19   2.0000      -0.277979        -7.5642
  20   0.0000       0.068282         1.8581
  21   0.0000       0.089537         2.4364
  22   0.0000       0.093539         2.5453
  23   0.0000       0.102062         2.7772
  24   0.0000       0.117190         3.1889

MULLIKEN ATOMIC CHARGES
-----------------------
   0 C :   -0.205709
   1 C :    0.632472
   2 C :   -1.382029
   3 N :   -0.438755
   4 H :    0.221096
   5 H :    0.187312
   6 H :    0.361997
   7 H :    0.320309
   8 C :   -1.148505
   9 H :    0.268678
  10 H :    0.262108
  11 H :    0.308891
  12 H :    0.310013
  13 H :    0.302122
Sum of atomic charges:    0.0000000

LOEWDIN ATOMIC CHARGES
----------------------
   0 C :   -0.188058
   1 C :   -0.504699
   2 C :    0.004942
   3 N :    0.095986
   4 H :    0.108679
   5 H :    0.113621
   6 H :    0.021961
   7 H :    0.024802
   8 C :   -0.087889
   9 H :    0.100506
  10 H :    0.116297
  11 H :    0.072270
  12 H :    0.059643
  13 H :    0.061940

  Mayer bond orders larger than 0.100000
B(  0-C ,  1-C ) :   0.7218 B(  0-C ,  8-C ) :   0.5671 B(  0-C ,  9-H ) :   1.0307
B(  0-C , 10-H ) :   0.9300 B(  1-C ,  2-C ) :   1.2611 B(  1-C ,  3-N ) :   1.0871
B(  1-C ,  8-C ) :   0.1705 B(  1-C ,  9-H ) :  -0.1211 B(  2-C ,  3-N ) :   0.1414
B(  2-C ,  6-H ) :   0.8975 B(  2-C ,  7-H ) :   0.9976 B(  3-N ,  4-H ) :   0.9694
B(  3-N ,  5-H ) :   0.9685 B(  8-C , 11-H ) :   0.9699 B(  8-C , 12-H ) :   0.9636
B(  8-C , 13-H ) :   0.9565

Dispersion correction           -0.002988923
FINAL SINGLE POINT ENERGY      -212.575358615312

DIPOLE MOMENT
-------------
                                X             Y             Z
Electronic contribution:      0.08394      -2.72043      -1.80528
Nuclear contribution   :     -0.99366       2.78648       1.68526
                        -----------------------------------------
Total Dipole Moment    :     -0.90972       0.06605      -0.12002
                        -----------------------------------------
Magnitude (a.u.)       :      0.91997
Magnitude (Debye)      :      2.33838

Rotational constants in cm-1:     0.282898     0.128664     0.101801
Rotational constants in MHz :  8481.061354  3857.240210  3051.924245

                             ****ORCA TERMINATED NORMALLY****
TOTAL RUN TIME: 0 days 0 hours 1 minutes 1 seconds 461 msec
