                         Program Version 5.0.0 -  RELEASE  -
|  1> !wB97X-D3 RIJCOSX def2-TZVPD def2/J TightSCF
|  2> *xyz 0 1
|  3> C          0.70466        1.44313       -4.50363
|  4> C          1.72854        1.42432       -5.63944
|  5> H          2.64672        1.95379       -5.38105
|  6> H          1.29992        1.93061       -6.50361
|  7> S          2.25263       -0.18811       -6.27184
|  8> O          3.56261       -0.44446       -5.63155
|  9> F          2.34494       -0.03374       -7.69650
| 10> O          1.26606       -1.15918       -5.80536
| 11> H         -0.17385        0.91270       -4.80656
| 12> H          0.44778        2.45562       -4.27173
| 13> H          1.12367        0.97423       -3.63791
| 14> *
| 15>
| 16> %MaxCore 64000
| 17>
| 18> %pal nprocs 4
| 19> end
| 20>
| 21> %scf
| 22>   MaxIter 150
| 23> end
| 24>
| 25>
| 26>                          ****END OF INPUT****

CARTESIAN COORDINATES (ANGSTROEM)
---------------------------------
  C      0.704660    1.443130   -4.503630
  C      1.728540    1.424320   -5.639440
  H      2.646720    1.953790   -5.381050
  H      1.299920    1.930610   -6.503610
  S      2.252630   -0.188110   -6.271840
  O      3.562610   -0.444460   -5.631550
  F      2.344940   -0.033740   -7.696500
  O      1.266060   -1.159180   -5.805360
  H     -0.173850    0.912700   -4.806560
  H      0.447780    2.455620   -4.271730
  H      1.123670    0.974230   -3.637910

 Total Charge           Charge          ....    0
 Multiplicity           Mult            ....    1
 Number of Electrons    NEL             ....   58
 Basis Dimension        Dim             ....  285

ORBITAL ENERGIES
----------------

  NO   OCC          E(Eh)            E(eV)
   0   2.0000     -89.197556     -2427.1889
   1   2.0000     -24.912103      -677.8928
   2   2.0000     -19.240398      -523.5578
   3   2.0000     -19.232114      -523.3324
   4   2.0000     -10.339226      -281.3446
   5   2.0000     -10.293565      -280.1021
   6   2.0000      -8.260979      -224.7927
   7   2.0000      -6.218275      -169.2079
   8   2.0000      -6.212081      -169.0393
   9   2.0000      -6.211547      -169.0248
  10   2.0000      -1.507832       -41.0302
  11   2.0000      -1.214795       -33.0563
  12   2.0000      -1.115007       -30.3409
  13   2.0000      -0.938972       -25.5507
  14   2.0000      -0.851377       -23.1672
  15   2.0000      -0.788665       -21.4607
  16   2.0000      -0.698646       -19.0111
  17   2.0000      -0.696607       -18.9556
  18   2.0000      -0.660600       -17.9758
  19   2.0000      -0.595517       -16.2048
  20   2.0000      -0.583588       -15.8802
  21   2.0000      -0.543721       -14.7954
  22   2.0000      -0.527110       -14.3434
  23   2.0000      -0.503789       -13.7088
  24   2.0000      -0.487163       -13.2564
  25   2.0000      -0.480539       -13.0761
  26   2.0000      -0.426126       -11.5955
  27   2.0000      -0.415854       -11.3160
  28   2.0000      -0.398661       -10.8481
  29   0.0000       0.048725         1.3259
  30   0.0000       0.061993         1.6869
  31   0.0000       0.068039         1.8514
  32   0.0000       0.073814         2.0086
  33   0.0000       0.097239         2.6460

MULLIKEN ATOMIC CHARGES
-----------------------
   0 C :   -1.114564
   1 C :   -0.445659
   2 H :    0.345330
   3 H :    0.348150
   4 S :    1.193930
   5 O :   -0.603776
   6 F :   -0.123964
   7 O :   -0.591874
   8 H :    0.323044
   9 H :    0.344412
  10 H :    0.324971
Sum of atomic charges:   -0.0000000

LOEWDIN ATOMIC CHARGES
----------------------
   0 C :   -0.105490
   1 C :   -0.274934
   2 H :    0.101056
   3 H :    0.091183
   4 S :    0.609078
   5 O :   -0.309051
   6 F :   -0.049172
   7 O :   -0.289140
   8 H :    0.072049
   9 H :    0.075170
  10 H :    0.079252

  Mayer bond orders larger than 0.100000
B(  0-C ,  1-C ) :   0.7273 B(  0-C ,  8-H ) :   0.9534 B(  0-C ,  9-H ) :   0.9095
B(  0-C , 10-H ) :   0.9557 B(  1-C ,  2-H ) :   0.9260 B(  1-C ,  3-H ) :   0.8718
B(  1-C ,  4-S ) :   0.8643 B(  1-C ,  5-O ) :   0.1071 B(  4-S ,  5-O ) :   1.6493
B(  4-S ,  6-F ) :   1.0196 B(  4-S ,  7-O ) :   1.6679

Dispersion correction           -0.002819710
FINAL SINGLE POINT ENERGY      -727.734380426165

DIPOLE MOMENT
-------------
                                X             Y             Z
Electronic contribution:      4.20463      -5.77898      -7.22211
Nuclear contribution   :     -4.83029       7.38191       6.79413
                        -----------------------------------------
Total Dipole Moment    :     -0.62565       1.60293      -0.42798
                        -----------------------------------------
Magnitude (a.u.)       :      1.77313
Magnitude (Debye)      :      4.50693

Rotational constants in cm-1:     0.156575     0.079070     0.076729
Rotational constants in MHz :  4694.010604  2370.444114  2300.280155

                             ****ORCA TERMINATED NORMALLY****
TOTAL RUN TIME: 0 days 0 hours 1 minutes 7 seconds 791 msec
