                         Program Version 5.0.0 -  RELEASE  -
|  1> !wB97X-D3 RIJCOSX def2-TZVPD def2/J TightSCF
|  2> *xyz 0 1
|  3> C          2.91632       -1.24259       -1.54313
|  4> C          3.46659       -1.59097       -2.88908
|  5> N          4.65227       -1.14316       -3.25969
|  6> C          2.75226       -2.29204       -3.72803
|  7> H          1.77836       -2.48960       -3.51274
|  8> H          2.94861       -2.20854       -4.71681
|  9> H          5.14672       -0.51251       -2.63385
| 10> H          4.78303       -1.00720       -4.25350
| 11> C          2.80408        0.29070       -1.35924
| 12> H          1.94047       -1.71653       -1.44116
| 13> H          3.55857       -1.66343       -0.76637
| 14> H          2.17393        0.69633       -2.12297
| 15> H          3.77707        0.73043       -1.42880
| 16> H          2.38369        0.50492       -0.39889
| 17> *
| 18>
| 19> %MaxCore 64000
| 20>
| 21> %pal nprocs 4
| 22> end
| 23>
| 24> %scf
| 25>   MaxIter 150
| 26> end
| 27>
| 28>
| 29>                          ****END OF INPUT****

CARTESIAN COORDINATES (ANGSTROEM)
---------------------------------
  C      2.916320   -1.242590   -1.543130
  C      3.466590   -1.590970   -2.889080
  N      4.652270   -1.143160   -3.259690
  C      2.752260   -2.292040   -3.728030
  H      1.778360   -2.489600   -3.512740
  H      2.948610   -2.208540   -4.716810
  H      5.146720   -0.512510   -2.633850
  H      4.783030   -1.007200   -4.253500
  C      2.804080    0.290700   -1.359240
  H      1.940470   -1.716530   -1.441160
  H      3.558570   -1.663430   -0.766370
  H      2.173930    0.696330   -2.122970
  H      3.777070    0.730430   -1.428800
  H      2.383690    0.504920   -0.398890

 Total Charge           Charge          ....    0
 Multiplicity           Mult            ....    1
 Number of Electrons    NEL             ....   40
 Basis Dimension        Dim             ....  266

ORBITAL ENERGIES
----------------

  NO   OCC          E(Eh)            E(eV)
   0   2.0000     -14.420635      -392.4054
   1   2.0000     -10.295540      -280.1559
   2   2.0000     -10.276790      -279.6457
   3   2.0000     -10.265571      -279.3404
   4   2.0000     -10.203891      -277.6620
   5   2.0000      -1.050074       -28.5740
   6   2.0000      -0.896266       -24.3886
   7   2.0000      -0.838658       -22.8210
   8   2.0000      -0.748940       -20.3797
   9   2.0000      -0.670785       -18.2530
  10   2.0000      -0.629325       -17.1248
  11   2.0000      -0.578969       -15.7546
  12   2.0000      -0.537231       -14.6188
  13   2.0000      -0.534829       -14.5534
  14   2.0000      -0.485186       -13.2026
  15   2.0000      -0.478758       -13.0277
  16   2.0000      -0.452633       -12.3168
  17   2.0000      -0.437181       -11.8963
  18   2.0000      -0.416942       -11.3456
  19   2.0000      -0.285106        -7.7581
  20   0.0000       0.066480         1.8090
  21   0.0000       0.090692         2.4679
  22   0.0000       0.094505         2.5716
  23   0.0000       0.103275         2.8103
  24   0.0000       0.115403         3.1403

MULLIKEN ATOMIC CHARGES
-----------------------
   0 C :   -0.265783
   1 C :    0.697360
   2 N :   -0.486867
   3 C :   -1.334346
   4 H :    0.312311
   5 H :    0.340157
   6 H :    0.216104
   7 H :    0.194167
   8 C :   -1.116516
   9 H :    0.240243
  10 H :    0.283510
  11 H :    0.318270
  12 H :    0.297127
  13 H :    0.304264
Sum of atomic charges:   -0.0000000

LOEWDIN ATOMIC CHARGES
----------------------
   0 C :   -0.190863
   1 C :   -0.506418
   2 N :    0.095962
   3 C :    0.010628
   4 H :    0.026118
   5 H :    0.025663
   6 H :    0.104533
   7 H :    0.113307
   8 C :   -0.089071
   9 H :    0.107638
  10 H :    0.112124
  11 H :    0.073487
  12 H :    0.053270
  13 H :    0.063622

  Mayer bond orders larger than 0.100000
B(  0-C ,  1-C ) :   0.8879 B(  0-C ,  8-C ) :   0.6252 B(  0-C ,  9-H ) :   0.9705
B(  0-C , 10-H ) :   0.9051 B(  1-C ,  2-N ) :   1.0041 B(  1-C ,  3-C ) :   1.2337
B(  1-C ,  5-H ) :  -0.1050 B(  2-N ,  3-C ) :   0.1164 B(  2-N ,  6-H ) :   0.9360
B(  2-N ,  7-H ) :   0.9766 B(  3-C ,  4-H ) :   0.9802 B(  3-C ,  5-H ) :   0.9740
B(  8-C , 11-H ) :   0.9979 B(  8-C , 12-H ) :   0.9306 B(  8-C , 13-H ) :   0.9741

Dispersion correction           -0.003012779
FINAL SINGLE POINT ENERGY      -212.579238374572

DIPOLE MOMENT
-------------
                                X             Y             Z
Electronic contribution:      1.72243      -1.72491      -1.39942
Nuclear contribution   :     -1.43372       2.52039       1.57679
                        -----------------------------------------
Total Dipole Moment    :      0.28871       0.79548       0.17737
                        -----------------------------------------
Magnitude (a.u.)       :      0.86464
Magnitude (Debye)      :      2.19773

Rotational constants in cm-1:     0.274962     0.131786     0.102554
Rotational constants in MHz :  8243.150005  3950.846092  3074.493018

                             ****ORCA TERMINATED NORMALLY****
TOTAL RUN TIME: 0 days 0 hours 0 minutes 58 seconds 920 msec
