                         Program Version 5.0.0 -  RELEASE  -
|  1> !wB97X-D3 RIJCOSX def2-TZVPD def2/J TightSCF
|  2> *xyz 0 1
|  3> C          0.70466        1.44313       -4.50363
|  4> C          1.72854        1.42432       -5.63944
|  5> H          2.64672        1.95379       -5.38105
|  6> H          1.29992        1.93061       -6.50361
|  7> S          2.25263       -0.18811       -6.27184
|  8> O          3.56261       -0.44446       -5.63155
|  9> O          2.34494       -0.03374       -7.69650
| 10> F          1.26606       -1.15918       -5.80536
| 11> H         -0.17385        0.91270       -4.80656
| 12> H          0.44778        2.45562       -4.27173
| 13> H          1.12367        0.97423       -3.63791
| 14> *
| 15>
| 16> %MaxCore 64000
| 17>
| 18> %pal nprocs 4
| 19> end
| 20>
| 21> %scf
| 22>   MaxIter 150
| 23> end
| 24>
| 25>
| 26>                          ****END OF INPUT****

CARTESIAN COORDINATES (ANGSTROEM)
---------------------------------
  C      0.704660    1.443130   -4.503630
  C      1.728540    1.424320   -5.639440
  H      2.646720    1.953790   -5.381050
  H      1.299920    1.930610   -6.503610
  S      2.252630   -0.188110   -6.271840
  O      3.562610   -0.444460   -5.631550
  O      2.344940   -0.033740   -7.696500
  F      1.266060   -1.159180   -5.805360
  H     -0.173850    0.912700   -4.806560
  H      0.447780    2.455620   -4.271730
  H      1.123670    0.974230   -3.637910

 Total Charge           Charge          ....    0
 Multiplicity           Mult            ....    1
 Number of Electrons    NEL             ....   58
 Basis Dimension        Dim             ....  285

ORBITAL ENERGIES
----------------

  NO   OCC          E(Eh)            E(eV)
   0   2.0000     -89.195910     -2427.1441
   1   2.0000     -24.899245      -677.5429
   2   2.0000     -19.247519      -523.7516
   3   2.0000     -19.231565      -523.3175
   4   2.0000     -10.338135      -281.3150
   5   2.0000     -10.300773      -280.2983
   6   2.0000      -8.259368      -224.7488
   7   2.0000      -6.216883      -169.1700
   8   2.0000      -6.210351      -168.9922
   9   2.0000      -6.209930      -168.9808
  10   2.0000      -1.486361       -40.4459
  11   2.0000      -1.224931       -33.3321
  12   2.0000      -1.123046       -30.5596
  13   2.0000      -0.942204       -25.6387
  14   2.0000      -0.840079       -22.8597
  15   2.0000      -0.789796       -21.4914
  16   2.0000      -0.697751       -18.9868
  17   2.0000      -0.682193       -18.5634
  18   2.0000      -0.649446       -17.6723
  19   2.0000      -0.599209       -16.3053
  20   2.0000      -0.576103       -15.6766
  21   2.0000      -0.550465       -14.9789
  22   2.0000      -0.543224       -14.7819
  23   2.0000      -0.511145       -13.9090
  24   2.0000      -0.493387       -13.4257
  25   2.0000      -0.483872       -13.1668
  26   2.0000      -0.431111       -11.7311
  27   2.0000      -0.417212       -11.3529
  28   2.0000      -0.405145       -11.0246
  29   0.0000       0.050265         1.3678
  30   0.0000       0.062461         1.6996
  31   0.0000       0.069948         1.9034
  32   0.0000       0.072640         1.9766
  33   0.0000       0.099663         2.7120

MULLIKEN ATOMIC CHARGES
-----------------------
   0 C :   -1.160115
   1 C :   -0.376095
   2 H :    0.334354
   3 H :    0.326802
   4 S :    1.205826
   5 O :   -0.610692
   6 O :   -0.578774
   7 F :   -0.155701
   8 H :    0.346742
   9 H :    0.332536
  10 H :    0.335117
Sum of atomic charges:    0.0000000

LOEWDIN ATOMIC CHARGES
----------------------
   0 C :   -0.113601
   1 C :   -0.266907
   2 H :    0.107125
   3 H :    0.096838
   4 S :    0.607814
   5 O :   -0.310357
   6 O :   -0.274500
   7 F :   -0.065965
   8 H :    0.069162
   9 H :    0.074945
  10 H :    0.075444

  Mayer bond orders larger than 0.100000
B(  0-C ,  1-C ) :   0.6626 B(  0-C ,  8-H ) :   0.9234 B(  0-C ,  9-H ) :   0.9350
B(  0-C , 10-H ) :   0.9502 B(  1-C ,  2-H ) :   0.9212 B(  1-C ,  3-H ) :   0.9305
B(  1-C ,  4-S ) :   0.8473 B(  1-C ,  5-O ) :   0.1024 B(  1-C ,  6-O ) :   0.1098
B(  4-S ,  5-O ) :   1.6480 B(  4-S ,  6-O ) :   1.6860 B(  4-S ,  7-F ) :   0.9952

Dispersion correction           -0.002791679
FINAL SINGLE POINT ENERGY      -727.744287449978

DIPOLE MOMENT
-------------
                                X             Y             Z
Electronic contribution:      2.36509      -7.66287      -3.99381
Nuclear contribution   :     -3.70606       8.55465       4.82350
                        -----------------------------------------
Total Dipole Moment    :     -1.34097       0.89178       0.82969
                        -----------------------------------------
Magnitude (a.u.)       :      1.81159
Magnitude (Debye)      :      4.60469

Rotational constants in cm-1:     0.153201     0.080978     0.077494
Rotational constants in MHz :  4592.852844  2427.650814  2323.207507

                             ****ORCA TERMINATED NORMALLY****
TOTAL RUN TIME: 0 days 0 hours 1 minutes 4 seconds 675 msec
