                         Program Version 5.0.0 -  RELEASE  -
|  1> !wB97X-D3 RIJCOSX def2-TZVPD def2/J TightSCF xyzfile
|  2>
|  3> *xyzfile 0 1 D1.xyz
|  4>
|  5> %MaxCore 64000
|  6>
|  7> %pal nprocs 18
|  8> end
|  9>
| 10> %scf
| 11>   MaxIter 150
| 12> end
| 13>
| 14>
| 15>                          ****END OF INPUT****

CARTESIAN COORDINATES (ANGSTROEM)
---------------------------------
  C      2.916324   -1.242589   -1.543125
  C      0.704661    1.443129   -4.503630
  C      1.728539    1.424320   -5.639443
  H      2.646718    1.953794   -5.381054
  H      1.299916    1.930613   -6.503614
  S      2.252625   -0.188115   -6.271840
  C      3.466585   -1.590971   -2.889082
  C      4.652275   -1.143164   -3.259692
  N      2.752264   -2.292043   -3.728029
  H      1.778364   -2.489604   -3.512738
  H      2.948612   -2.208544   -4.716813
  H      5.146723   -0.512508   -2.633852
  H      4.783030   -1.007203   -4.253498
  F      3.562607   -0.444464   -5.631552
  O      2.344944   -0.033742   -7.696501
  C      2.804084    0.290698   -1.359243
  C      1.052550    0.695659   -3.214915
  H     -0.232483    1.032925   -4.884449
  H      0.511700    2.495794   -4.267966
  C      2.388380    1.093669   -2.597108
  H      3.763425    0.674718   -0.999889
  H      2.094788    0.461222   -0.545756
  O      1.266058   -1.159177   -5.805365
  H      3.167316    1.013242   -3.359430
  H      2.357690    2.149375   -2.310997
  H      1.039284   -0.368429   -3.449329
  H      0.250787    0.865605   -2.488283
  H      1.940472   -1.716529   -1.441161
  H      3.558569   -1.663433   -0.766371

 Total Charge           Charge          ....    0
 Multiplicity           Mult            ....    1
 Number of Electrons    NEL             ....  112
 Basis Dimension        Dim             ....  643

ORBITAL ENERGIES
----------------

  NO   OCC          E(Eh)            E(eV)
   0   2.0000     -89.203249     -2427.3438
   1   2.0000     -24.897883      -677.5058
   2   2.0000     -19.254837      -523.9508
   3   2.0000     -19.250889      -523.8433
   4   2.0000     -14.416228      -392.2855
   5   2.0000     -10.340568      -281.3812
   6   2.0000     -10.305384      -280.4237
   7   2.0000     -10.295879      -280.1651
   8   2.0000     -10.282909      -279.8122
   9   2.0000     -10.281091      -279.7627
  10   2.0000     -10.279353      -279.7154
  11   2.0000     -10.278560      -279.6938
  12   2.0000     -10.197411      -277.4857
  13   2.0000      -8.267079      -224.9587
  14   2.0000      -6.224625      -169.3807
  15   2.0000      -6.218182      -169.2053
  16   2.0000      -6.217442      -169.1852
  17   2.0000      -1.482336       -40.3364
  18   2.0000      -1.239010       -33.7152
  19   2.0000      -1.146061       -31.1859
  20   2.0000      -1.052149       -28.6304
  21   2.0000      -0.959544       -26.1105
  22   2.0000      -0.922150       -25.0930
  23   2.0000      -0.880060       -23.9477
  24   2.0000      -0.847989       -23.0750
  25   2.0000      -0.813173       -22.1276
  26   2.0000      -0.801819       -21.8186
  27   2.0000      -0.746196       -20.3050
  28   2.0000      -0.707268       -19.2457
  29   2.0000      -0.688381       -18.7318
  30   2.0000      -0.679630       -18.4937
  31   2.0000      -0.669652       -18.2222
  32   2.0000      -0.655116       -17.8266
  33   2.0000      -0.619054       -16.8453
  34   2.0000      -0.603774       -16.4295
  35   2.0000      -0.595798       -16.2125
  36   2.0000      -0.581684       -15.8284
  37   2.0000      -0.576142       -15.6776
  38   2.0000      -0.562743       -15.3130
  39   2.0000      -0.545298       -14.8383
  40   2.0000      -0.533539       -14.5183
  41   2.0000      -0.522733       -14.2243
  42   2.0000      -0.501272       -13.6403
  43   2.0000      -0.491471       -13.3736
  44   2.0000      -0.483371       -13.1532
  45   2.0000      -0.479721       -13.0539
  46   2.0000      -0.471872       -12.8403
  47   2.0000      -0.455111       -12.3842
  48   2.0000      -0.448878       -12.2146
  49   2.0000      -0.439157       -11.9501
  50   2.0000      -0.433527       -11.7969
  51   2.0000      -0.423817       -11.5327
  52   2.0000      -0.418321       -11.3831
  53   2.0000      -0.415196       -11.2981
  54   2.0000      -0.409911       -11.1542
  55   2.0000      -0.274637        -7.4733
  56   0.0000       0.050842         1.3835
  57   0.0000       0.059643         1.6230
  58   0.0000       0.063762         1.7350
  59   0.0000       0.067182         1.8281
  60   0.0000       0.083203         2.2641

MULLIKEN ATOMIC CHARGES
-----------------------
   0 C :   -0.767583
   1 C :   -0.628495
   2 C :   -0.835640
   3 H :    0.475896
   4 H :    0.338025
   5 S :    1.161443
   6 C :    0.632531
   7 C :   -1.583481
   8 N :   -0.343238
   9 H :    0.299846
  10 H :    0.159071
  11 H :    0.450481
  12 H :    0.531959
  13 F :   -0.179932
  14 O :   -0.588222
  15 C :   -0.625288
  16 C :   -0.290260
  17 H :    0.327771
  18 H :    0.344761
  19 C :   -0.470559
  20 H :    0.380020
  21 H :    0.304450
  22 O :   -0.655682
  23 H :    0.233991
  24 H :    0.308782
  25 H :    0.137527
  26 H :    0.299516
  27 H :    0.331626
  28 H :    0.250683
Sum of atomic charges:   -0.0000000

LOEWDIN ATOMIC CHARGES
----------------------
   0 C :   -0.132706
   1 C :   -0.215607
   2 C :   -0.209964
   3 H :    0.103475
   4 H :    0.106975
   5 S :    0.633878
   6 C :   -0.493700
   7 C :    0.003412
   8 N :    0.110361
   9 H :    0.113426
  10 H :    0.078947
  11 H :    0.036191
  12 H :    0.011544
  13 F :   -0.109285
  14 O :   -0.259925
  15 C :   -0.184574
  16 C :   -0.205175
  17 H :    0.115994
  18 H :    0.121158
  19 C :   -0.207532
  20 H :    0.109310
  21 H :    0.108679
  22 O :   -0.282089
  23 H :    0.090630
  24 H :    0.118757
  25 H :    0.084936
  26 H :    0.122810
  27 H :    0.109014
  28 H :    0.121063

  Mayer bond orders larger than 0.100000
B(  0-C ,  6-C ) :   0.8600 B(  0-C , 15-C ) :   0.9624 B(  0-C , 16-C ) :   0.1316
B(  0-C , 27-H ) :   0.9057 B(  0-C , 28-H ) :   0.9758 B(  1-C ,  2-C ) :   0.8601
B(  1-C ,  5-S ) :   0.1019 B(  1-C , 16-C ) :   0.9157 B(  1-C , 17-H ) :   0.8985
B(  1-C , 18-H ) :   0.8792 B(  1-C , 19-C ) :   0.2985 B(  1-C , 25-H ) :   0.1104
B(  2-C ,  3-H ) :   0.7346 B(  2-C ,  4-H ) :   0.9317 B(  2-C ,  5-S ) :   0.8587
B(  2-C , 14-O ) :   0.1569 B(  2-C , 19-C ) :   0.1635 B(  5-S , 13-F ) :   1.1112
B(  5-S , 14-O ) :   1.4553 B(  5-S , 22-O ) :   1.5895 B(  6-C ,  7-C ) :   1.2465
B(  6-C ,  8-N ) :   0.9396 B(  6-C , 12-H ) :  -0.1222 B(  6-C , 19-C ) :   0.1335
B(  7-C ,  8-N ) :   0.1029 B(  7-C , 11-H ) :   0.8766 B(  7-C , 12-H ) :   0.7303
B(  7-C , 15-C ) :   0.1668 B(  8-N ,  9-H ) :   0.7796 B(  8-N , 10-H ) :   0.8967
B( 15-C , 16-C ) :   0.3418 B( 15-C , 19-C ) :   1.0850 B( 15-C , 20-H ) :   0.8232
B( 15-C , 21-H ) :   0.8972 B( 16-C , 19-C ) :   0.4582 B( 16-C , 25-H ) :   1.1498
B( 16-C , 26-H ) :   0.8446 B( 19-C , 23-H ) :   1.0308 B( 19-C , 24-H ) :   0.8658

Dispersion correction           -0.016341872
FINAL SINGLE POINT ENERGY     -1017.753858639633

DIPOLE MOMENT
-------------
                                X             Y             Z
Electronic contribution:      2.13826      -4.92579     -18.57121
Nuclear contribution   :     -2.89481       6.29550      19.36835
                        -----------------------------------------
Total Dipole Moment    :     -0.75656       1.36971       0.79715
                        -----------------------------------------
Magnitude (a.u.)       :      1.75611
Magnitude (Debye)      :      4.46367

Rotational constants in cm-1:     0.036515     0.018832     0.015081
Rotational constants in MHz :  1094.679513   564.567051   452.109105

                             ****ORCA TERMINATED NORMALLY****
TOTAL RUN TIME: 0 days 0 hours 2 minutes 49 seconds 750 msec
