                         Program Version 5.0.0 -  RELEASE  -
|  1> !B3LYP D3BJ RIJCOSX def2-TZVP def2/J TightSCF
|  2> *xyz -1 1
|  3> C         -0.05517        1.61942       -3.78858
|  4> C          1.22302        2.46987       -3.75691
|  5> H          1.11470        3.25807       -4.53300
|  6> H          1.23773        3.01124       -2.79216
|  7> O          2.35381        1.71203       -3.93448
|  8> H         -0.10198        1.08015       -4.71156
|  9> H         -0.91014        2.25726       -3.70441
| 10> H         -0.04403        0.92826       -2.97183
| 11> *
| 12>
| 13> %MaxCore 64000
| 14>
| 15> %pal nprocs 4
| 16> end
| 17>
| 18> %scf
| 19>   MaxIter 150
| 20> end
| 21>
| 22>
| 23>                          ****END OF INPUT****

CARTESIAN COORDINATES (ANGSTROEM)
---------------------------------
  C     -0.055170    1.619420   -3.788580
  C      1.223020    2.469870   -3.756910
  H      1.114700    3.258070   -4.533000
  H      1.237730    3.011240   -2.792160
  O      2.353810    1.712030   -3.934480
  H     -0.101980    1.080150   -4.711560
  H     -0.910140    2.257260   -3.704410
  H     -0.044030    0.928260   -2.971830

 Total Charge           Charge          ....   -1
 Multiplicity           Mult            ....    1
 Number of Electrons    NEL             ....   26
 Basis Dimension        Dim             ....  123

ORBITAL ENERGIES
----------------

  NO   OCC          E(Eh)            E(eV)
   0   2.0000     -18.770421      -510.7691
   1   2.0000      -9.971499      -271.3383
   2   2.0000      -9.950767      -270.7741
   3   2.0000      -0.663509       -18.0550
   4   2.0000      -0.517068       -14.0701
   5   2.0000      -0.363737        -9.8978
   6   2.0000      -0.242617        -6.6019
   7   2.0000      -0.219947        -5.9851
   8   2.0000      -0.164668        -4.4808
   9   2.0000      -0.149138        -4.0583
  10   2.0000      -0.098077        -2.6688
  11   2.0000       0.045318         1.2332
  12   2.0000       0.047139         1.2827
  13   0.0000       0.216739         5.8978
  14   0.0000       0.252382         6.8677
  15   0.0000       0.276548         7.5252
  16   0.0000       0.281198         7.6518
  17   0.0000       0.313798         8.5389

MULLIKEN ATOMIC CHARGES
-----------------------
   0 C :   -0.098694
   1 C :    0.069613
   2 H :   -0.081353
   3 H :   -0.079242
   4 O :   -0.774290
   5 H :    0.008908
   6 H :   -0.054407
   7 H :    0.009464
Sum of atomic charges:   -1.0000000

LOEWDIN ATOMIC CHARGES
----------------------
   0 C :   -0.359088
   1 C :   -0.543990
   2 H :    0.048496
   3 H :    0.050125
   4 O :   -0.428848
   5 H :    0.083217
   6 H :    0.067114
   7 H :    0.082973

  Mayer bond orders larger than 0.100000
B(  0-C ,  1-C ) :   0.8703 B(  0-C ,  4-O ) :  -0.2925 B(  0-C ,  5-H ) :   0.9623
B(  0-C ,  6-H ) :   0.9117 B(  0-C ,  7-H ) :   0.9657 B(  1-C ,  2-H ) :   0.9149
B(  1-C ,  3-H ) :   0.9153 B(  1-C ,  4-O ) :   1.6218 B(  4-O ,  6-H ) :   0.1140

Dispersion correction           -0.006240015
FINAL SINGLE POINT ENERGY      -154.396687280025

DIPOLE MOMENT
-------------
                                X             Y             Z
Electronic contribution:      2.97830      -0.64172      -0.27662
Nuclear contribution   :     -4.28298       0.81046       0.39340
                        -----------------------------------------
Total Dipole Moment    :     -1.30467       0.16875       0.11679
                        -----------------------------------------
Magnitude (a.u.)       :      1.32072
Magnitude (Debye)      :      3.35699

Rotational constants in cm-1:     1.266793     0.328147     0.288309
Rotational constants in MHz : 37977.512300  9837.594308  8643.275638

                             ****ORCA TERMINATED NORMALLY****
TOTAL RUN TIME: 0 days 0 hours 0 minutes 11 seconds 894 msec
