                         Program Version 5.0.0 -  RELEASE  -
|  1> !B3LYP D3BJ RIJCOSX def2-TZVP def2/J TightSCF
|  2> *xyz 1 1
|  3> C          1.63556       -1.67040       -5.29211
|  4> C          0.33848       -1.50091       -4.50540
|  5> N          2.48451       -0.50741       -5.14039
|  6> H          1.39834       -1.82924       -6.35259
|  7> H          2.15586       -2.56540       -4.93209
|  8> C          3.45115       -0.14953       -5.95259
|  9> N          3.92267        1.08956       -5.85071
| 10> N          3.96616       -1.00618       -6.86788
| 11> H          3.52139       -1.90647       -6.99527
| 12> H          4.44482       -0.62347       -7.67035
| 13> H          2.25200        0.24080       -4.49879
| 14> H          3.46428        1.64078       -5.13639
| 15> H          4.83447        1.31375       -6.22465
| 16> H         -0.17658       -0.62881       -4.85045
| 17> H          0.56384       -1.39374       -3.46490
| 18> H         -0.28102       -2.36136       -4.64938
| 19> *
| 20>
| 21> %MaxCore 64000
| 22>
| 23> %pal nprocs 4
| 24> end
| 25>
| 26> %scf
| 27>   MaxIter 150
| 28> end
| 29>
| 30>
| 31>                          ****END OF INPUT****

CARTESIAN COORDINATES (ANGSTROEM)
---------------------------------
  C      1.635560   -1.670400   -5.292110
  C      0.338480   -1.500910   -4.505400
  N      2.484510   -0.507410   -5.140390
  H      1.398340   -1.829240   -6.352590
  H      2.155860   -2.565400   -4.932090
  C      3.451150   -0.149530   -5.952590
  N      3.922670    1.089560   -5.850710
  N      3.966160   -1.006180   -6.867880
  H      3.521390   -1.906470   -6.995270
  H      4.444820   -0.623470   -7.670350
  H      2.252000    0.240800   -4.498790
  H      3.464280    1.640780   -5.136390
  H      4.834470    1.313750   -6.224650
  H     -0.176580   -0.628810   -4.850450
  H      0.563840   -1.393740   -3.464900
  H     -0.281020   -2.361360   -4.649380

 Total Charge           Charge          ....    1
 Multiplicity           Mult            ....    1
 Number of Electrons    NEL             ....   48
 Basis Dimension        Dim             ....  246

ORBITAL ENERGIES
----------------

  NO   OCC          E(Eh)            E(eV)
   0   2.0000     -14.541533      -395.6952
   1   2.0000     -14.536950      -395.5705
   2   2.0000     -14.535058      -395.5190
   3   2.0000     -10.499854      -285.7155
   4   2.0000     -10.378309      -282.4081
   5   2.0000     -10.306681      -280.4591
   6   2.0000      -1.217996       -33.1434
   7   2.0000      -1.106209       -30.1015
   8   2.0000      -1.092819       -29.7371
   9   2.0000      -0.935324       -25.4515
  10   2.0000      -0.831906       -22.6373
  11   2.0000      -0.813596       -22.1391
  12   2.0000      -0.775742       -21.1090
  13   2.0000      -0.745665       -20.2906
  14   2.0000      -0.690332       -18.7849
  15   2.0000      -0.684821       -18.6349
  16   2.0000      -0.660708       -17.9788
  17   2.0000      -0.642088       -17.4721
  18   2.0000      -0.601492       -16.3674
  19   2.0000      -0.547655       -14.9024
  20   2.0000      -0.531674       -14.4676
  21   2.0000      -0.522001       -14.2044
  22   2.0000      -0.477819       -13.0021
  23   2.0000      -0.454421       -12.3654
  24   0.0000      -0.168182        -4.5765
  25   0.0000      -0.156603        -4.2614
  26   0.0000      -0.123166        -3.3515
  27   0.0000      -0.105898        -2.8816
  28   0.0000      -0.085471        -2.3258

MULLIKEN ATOMIC CHARGES
-----------------------
   0 C :   -0.121581
   1 C :   -0.367411
   2 N :   -0.218479
   3 H :    0.135510
   4 H :    0.159380
   5 C :    0.428298
   6 N :   -0.375767
   7 N :   -0.407033
   8 H :    0.283013
   9 H :    0.276330
  10 H :    0.231762
  11 H :    0.259922
  12 H :    0.284061
  13 H :    0.135896
  14 H :    0.141744
  15 H :    0.154354
Sum of atomic charges:    1.0000000

LOEWDIN ATOMIC CHARGES
----------------------
   0 C :   -0.283715
   1 C :   -0.272341
   2 N :    0.175930
   3 H :    0.139841
   4 H :    0.143461
   5 C :   -0.402122
   6 N :    0.064957
   7 N :    0.054047
   8 H :    0.193156
   9 H :    0.194594
  10 H :    0.209189
  11 H :    0.196190
  12 H :    0.198955
  13 H :    0.124388
  14 H :    0.126341
  15 H :    0.137128

  Mayer bond orders larger than 0.100000
B(  0-C ,  1-C ) :   0.9772 B(  0-C ,  2-N ) :   0.8542 B(  0-C ,  3-H ) :   0.9621
B(  0-C ,  4-H ) :   0.9451 B(  1-C , 13-H ) :   0.9726 B(  1-C , 14-H ) :   0.9700
B(  1-C , 15-H ) :   0.9638 B(  2-N ,  5-C ) :   1.3967 B(  2-N , 10-H ) :   0.9060
B(  5-C ,  6-N ) :   1.3218 B(  5-C ,  7-N ) :   1.3064 B(  6-N , 11-H ) :   0.9034
B(  6-N , 12-H ) :   0.8935 B(  7-N ,  8-H ) :   0.8977 B(  7-N ,  9-H ) :   0.8984

Dispersion correction           -0.019755220
FINAL SINGLE POINT ENERGY      -284.350808161561

DIPOLE MOMENT
-------------
                                X             Y             Z
Electronic contribution:      4.71206       2.48931      -1.70492
Nuclear contribution   :     -3.96322      -1.85512       1.24891
                        -----------------------------------------
Total Dipole Moment    :      0.74884       0.63419      -0.45601
                        -----------------------------------------
Magnitude (a.u.)       :      1.08209
Magnitude (Debye)      :      2.75044

Rotational constants in cm-1:     0.261404     0.067000     0.054949
Rotational constants in MHz :  7836.702504  2008.609425  1647.329138

                             ****ORCA TERMINATED NORMALLY****
TOTAL RUN TIME: 0 days 0 hours 0 minutes 32 seconds 697 msec
