                         Program Version 5.0.0 -  RELEASE  -
|  1> !B3LYP D3BJ RIJCOSX def2-TZVP def2/J TightSCF xyzfile
|  2>
|  3> *xyzfile 0 1 B.xyz
|  4>
|  5> %MaxCore 64000
|  6>
|  7> %pal nprocs 18
|  8> end
|  9>
| 10> %scf
| 11>   MaxIter 150
| 12> end
| 13>
| 14>
| 15>                          ****END OF INPUT****

CARTESIAN COORDINATES (ANGSTROEM)
---------------------------------
  C      1.635557   -1.670396   -5.292109
  C      0.338484   -1.500907   -4.505398
  N      2.484511   -0.507410   -5.140392
  C     -0.684873   -0.528026   -5.099889
  C     -0.290406    0.951335   -5.153423
  H      0.607991    1.070692   -5.764412
  C     -0.055168    1.619420   -3.788577
  H     -1.080912    1.483775   -5.689436
  H      0.045006    0.862302   -3.003015
  H     -0.922936    2.230329   -3.517028
  C      1.223022    2.469865   -3.756911
  H      1.114701    3.258074   -4.532999
  H      1.237732    3.011242   -2.792157
  O      2.353815    1.712032   -3.934477
  H      1.398337   -1.829239   -6.352591
  H      2.155864   -2.565398   -4.932091
  C      3.451149   -0.149530   -5.952589
  N      3.922667    1.089559   -5.850711
  N      3.966162   -1.006183   -6.867880
  H      3.521391   -1.906467   -6.995270
  H      4.444824   -0.623472   -7.670348
  H      2.251995    0.240804   -4.498792
  H      3.464277    1.640782   -5.136392
  H      4.834470    1.313745   -6.224653
  H     -0.937999   -0.869056   -6.110838
  H     -1.604638   -0.622496   -4.513132
  H      0.594887   -1.211578   -3.482312
  H     -0.126530   -2.487656   -4.434176

 Total Charge           Charge          ....    0
 Multiplicity           Mult            ....    1
 Number of Electrons    NEL             ....   88
 Basis Dimension        Dim             ....  443

ORBITAL ENERGIES
----------------

  NO   OCC          E(Eh)            E(eV)
   0   2.0000     -18.988304      -516.6980
   1   2.0000     -14.370947      -391.0534
   2   2.0000     -14.329355      -389.9216
   3   2.0000     -14.327028      -389.8583
   4   2.0000     -10.310955      -280.5753
   5   2.0000     -10.219564      -278.0885
   6   2.0000     -10.170434      -276.7516
   7   2.0000     -10.157333      -276.3951
   8   2.0000     -10.144064      -276.0340
   9   2.0000     -10.138732      -275.8889
  10   2.0000     -10.120457      -275.3916
  11   2.0000      -1.029232       -28.0068
  12   2.0000      -0.926075       -25.1998
  13   2.0000      -0.905813       -24.6484
  14   2.0000      -0.879460       -23.9313
  15   2.0000      -0.797849       -21.7106
  16   2.0000      -0.744451       -20.2575
  17   2.0000      -0.688724       -18.7411
  18   2.0000      -0.651758       -17.7352
  19   2.0000      -0.624770       -17.0009
  20   2.0000      -0.596373       -16.2281
  21   2.0000      -0.577129       -15.7045
  22   2.0000      -0.560837       -15.2612
  23   2.0000      -0.525423       -14.2975
  24   2.0000      -0.508608       -13.8399
  25   2.0000      -0.494846       -13.4654
  26   2.0000      -0.486533       -13.2392
  27   2.0000      -0.475708       -12.9447
  28   2.0000      -0.437429       -11.9031
  29   2.0000      -0.424397       -11.5484
  30   2.0000      -0.413552       -11.2533
  31   2.0000      -0.409664       -11.1475
  32   2.0000      -0.382713       -10.4142
  33   2.0000      -0.364880        -9.9289
  34   2.0000      -0.357474        -9.7274
  35   2.0000      -0.336191        -9.1482
  36   2.0000      -0.319483        -8.6936
  37   2.0000      -0.309539        -8.4230
  38   2.0000      -0.302898        -8.2423
  39   2.0000      -0.295513        -8.0413
  40   2.0000      -0.289315        -7.8727
  41   2.0000      -0.262314        -7.1379
  42   2.0000      -0.175786        -4.7834
  43   2.0000      -0.168366        -4.5815
  44   0.0000      -0.004750        -0.1293
  45   0.0000       0.012653         0.3443
  46   0.0000       0.029282         0.7968
  47   0.0000       0.046675         1.2701
  48   0.0000       0.065820         1.7910

MULLIKEN ATOMIC CHARGES
-----------------------
   0 C :   -0.114571
   1 C :   -0.195014
   2 N :   -0.208563
   3 C :   -0.165260
   4 C :   -0.184724
   5 H :    0.093103
   6 C :   -0.118653
   7 H :    0.075989
   8 H :    0.052113
   9 H :    0.055436
  10 C :    0.062687
  11 H :    0.008554
  12 H :    0.029662
  13 O :   -0.734900
  14 H :    0.083281
  15 H :    0.110508
  16 C :    0.387635
  17 N :   -0.404717
  18 N :   -0.453089
  19 H :    0.250551
  20 H :    0.240113
  21 H :    0.257307
  22 H :    0.280169
  23 H :    0.215727
  24 H :    0.072861
  25 H :    0.088596
  26 H :    0.120168
  27 H :    0.095031
Sum of atomic charges:   -0.0000000

LOEWDIN ATOMIC CHARGES
----------------------
   0 C :   -0.280611
   1 C :   -0.261021
   2 N :    0.176346
   3 C :   -0.267805
   4 C :   -0.270132
   5 H :    0.134000
   6 C :   -0.279736
   7 H :    0.129022
   8 H :    0.124723
   9 H :    0.122665
  10 C :   -0.462448
  11 H :    0.090274
  12 H :    0.097293
  13 O :   -0.300950
  14 H :    0.125670
  15 H :    0.128323
  16 C :   -0.425340
  17 N :    0.041074
  18 N :    0.002959
  19 H :    0.175694
  20 H :    0.173992
  21 H :    0.160657
  22 H :    0.153912
  23 H :    0.166491
  24 H :    0.129141
  25 H :    0.136627
  26 H :    0.140879
  27 H :    0.138301

  Mayer bond orders larger than 0.100000
B(  0-C ,  1-C ) :   0.9857 B(  0-C ,  2-N ) :   0.9201 B(  0-C , 14-H ) :   0.9544
B(  0-C , 15-H ) :   0.9473 B(  1-C ,  3-C ) :   0.9834 B(  1-C , 26-H ) :   0.9727
B(  1-C , 27-H ) :   0.9668 B(  2-N , 16-C ) :   1.4527 B(  2-N , 21-H ) :   0.7321
B(  3-C ,  4-C ) :   0.9671 B(  3-C , 24-H ) :   0.9665 B(  3-C , 25-H ) :   0.9653
B(  4-C ,  5-H ) :   0.9740 B(  4-C ,  6-C ) :   0.9582 B(  4-C ,  7-H ) :   0.9683
B(  6-C ,  8-H ) :   0.9671 B(  6-C ,  9-H ) :   0.9469 B(  6-C , 10-C ) :   0.9463
B( 10-C , 11-H ) :   0.9593 B( 10-C , 12-H ) :   0.9448 B( 10-C , 13-O ) :   1.1900
B( 13-O , 21-H ) :   0.2785 B( 13-O , 22-H ) :   0.2373 B( 16-C , 17-N ) :   1.3904
B( 16-C , 18-N ) :   1.2102 B( 17-N , 22-H ) :   0.7478 B( 17-N , 23-H ) :   0.9172
B( 18-N , 19-H ) :   0.9133 B( 18-N , 20-H ) :   0.9136

Dispersion correction           -0.047244951
FINAL SINGLE POINT ENERGY      -516.370024109490

DIPOLE MOMENT
-------------
                                X             Y             Z
Electronic contribution:      8.41469      -0.91569      -2.24556
Nuclear contribution   :     -7.46499      -1.05836       0.01518
                        -----------------------------------------
Total Dipole Moment    :      0.94970      -1.97405      -2.23038
                        -----------------------------------------
Magnitude (a.u.)       :      3.12624
Magnitude (Debye)      :      7.94628

Rotational constants in cm-1:     0.044680     0.028958     0.019773
Rotational constants in MHz :  1339.486245   868.136755   592.791310

                             ****ORCA TERMINATED NORMALLY****
TOTAL RUN TIME: 0 days 0 hours 0 minutes 52 seconds 548 msec
