                         Program Version 5.0.0 -  RELEASE  -
|  1> !B3LYP D3BJ RIJCOSX def2-TZVP def2/J TightSCF
|  2> *xyz 0 1
|  3> C         -0.05517        1.61942       -3.78858
|  4> C          1.22302        2.46987       -3.75691
|  5> H          1.11470        3.25807       -4.53300
|  6> H          1.23773        3.01124       -2.79216
|  7> F          2.35381        1.71203       -3.93448
|  8> H         -0.10198        1.08015       -4.71156
|  9> H         -0.91014        2.25726       -3.70441
| 10> H         -0.04403        0.92826       -2.97183
| 11> *
| 12>
| 13> %MaxCore 64000
| 14>
| 15> %pal nprocs 4
| 16> end
| 17>
| 18> %scf
| 19>   MaxIter 150
| 20> end
| 21>
| 22>
| 23>                          ****END OF INPUT****

CARTESIAN COORDINATES (ANGSTROEM)
---------------------------------
  C     -0.055170    1.619420   -3.788580
  C      1.223020    2.469870   -3.756910
  H      1.114700    3.258070   -4.533000
  H      1.237730    3.011240   -2.792160
  F      2.353810    1.712030   -3.934480
  H     -0.101980    1.080150   -4.711560
  H     -0.910140    2.257260   -3.704410
  H     -0.044030    0.928260   -2.971830

 Total Charge           Charge          ....    0
 Multiplicity           Mult            ....    1
 Number of Electrons    NEL             ....   26
 Basis Dimension        Dim             ....  123

ORBITAL ENERGIES
----------------

  NO   OCC          E(Eh)            E(eV)
   0   2.0000     -24.665030      -671.1696
   1   2.0000     -10.246508      -278.8216
   2   2.0000     -10.162417      -276.5334
   3   2.0000      -1.195801       -32.5394
   4   2.0000      -0.764062       -20.7912
   5   2.0000      -0.631104       -17.1732
   6   2.0000      -0.506831       -13.7916
   7   2.0000      -0.494663       -13.4605
   8   2.0000      -0.456467       -12.4211
   9   2.0000      -0.404886       -11.0175
  10   2.0000      -0.401488       -10.9251
  11   2.0000      -0.336187        -9.1481
  12   2.0000      -0.332184        -9.0392
  13   0.0000       0.041000         1.1157
  14   0.0000       0.079124         2.1531
  15   0.0000       0.095128         2.5886
  16   0.0000       0.097636         2.6568
  17   0.0000       0.112267         3.0549

MULLIKEN ATOMIC CHARGES
-----------------------
   0 C :   -0.298672
   1 C :    0.063887
   2 H :    0.082139
   3 H :    0.081992
   4 F :   -0.247151
   5 H :    0.109775
   6 H :    0.099167
   7 H :    0.108863
Sum of atomic charges:   -0.0000000

LOEWDIN ATOMIC CHARGES
----------------------
   0 C :   -0.305031
   1 C :   -0.360829
   2 H :    0.114710
   3 H :    0.113993
   4 F :    0.088499
   5 H :    0.115205
   6 H :    0.119068
   7 H :    0.114385

  Mayer bond orders larger than 0.100000
B(  0-C ,  1-C ) :   0.9749 B(  0-C ,  5-H ) :   0.9710 B(  0-C ,  6-H ) :   0.9580
B(  0-C ,  7-H ) :   0.9721 B(  1-C ,  2-H ) :   0.9689 B(  1-C ,  3-H ) :   0.9691
B(  1-C ,  4-F ) :   0.9856

Dispersion correction           -0.005745158
FINAL SINGLE POINT ENERGY      -179.048520809800

DIPOLE MOMENT
-------------
                                X             Y             Z
Electronic contribution:      5.04152      -0.74576      -0.43424
Nuclear contribution   :     -5.66833       1.07099       0.52006
                        -----------------------------------------
Total Dipole Moment    :     -0.62681       0.32523       0.08582
                        -----------------------------------------
Magnitude (a.u.)       :      0.71136
Magnitude (Debye)      :      1.80814

Rotational constants in cm-1:     1.245689     0.305293     0.269541
Rotational constants in MHz : 37344.801915  9152.442838  8080.640229

                             ****ORCA TERMINATED NORMALLY****
TOTAL RUN TIME: 0 days 0 hours 0 minutes 11 seconds 749 msec
