                         Program Version 5.0.0 -  RELEASE  -
|  1> !B3LYP D3BJ RIJCOSX def2-TZVP def2/J TightSCF
|  2> *xyz 0 1
|  3> C          1.63556       -1.67040       -5.29211
|  4> C          0.33848       -1.50091       -4.50540
|  5> C          2.48451       -0.50741       -5.14039
|  6> H          1.39834       -1.82924       -6.35259
|  7> H          2.15586       -2.56540       -4.93209
|  8> C          3.45115       -0.14953       -5.95259
|  9> N          3.92267        1.08956       -5.85071
| 10> N          3.96616       -1.00618       -6.86788
| 11> H          3.52139       -1.90647       -6.99527
| 12> H          4.44482       -0.62347       -7.67035
| 13> H          2.25200        0.24080       -4.49879
| 14> H          3.46428        1.64078       -5.13639
| 15> H          4.83447        1.31375       -6.22465
| 16> H         -0.17658       -0.62881       -4.85045
| 17> H          0.56384       -1.39374       -3.46490
| 18> H         -0.28102       -2.36136       -4.64938
| 19> *
| 20>
| 21> %MaxCore 64000
| 22>
| 23> %pal nprocs 4
| 24> end
| 25>
| 26> %scf
| 27>   MaxIter 150
| 28> end
| 29>
| 30>
| 31>                          ****END OF INPUT****

CARTESIAN COORDINATES (ANGSTROEM)
---------------------------------
  C      1.635560   -1.670400   -5.292110
  C      0.338480   -1.500910   -4.505400
  C      2.484510   -0.507410   -5.140390
  H      1.398340   -1.829240   -6.352590
  H      2.155860   -2.565400   -4.932090
  C      3.451150   -0.149530   -5.952590
  N      3.922670    1.089560   -5.850710
  N      3.966160   -1.006180   -6.867880
  H      3.521390   -1.906470   -6.995270
  H      4.444820   -0.623470   -7.670350
  H      2.252000    0.240800   -4.498790
  H      3.464280    1.640780   -5.136390
  H      4.834470    1.313750   -6.224650
  H     -0.176580   -0.628810   -4.850450
  H      0.563840   -1.393740   -3.464900
  H     -0.281020   -2.361360   -4.649380

 Total Charge           Charge          ....    0
 Multiplicity           Mult            ....    1
 Number of Electrons    NEL             ....   48
 Basis Dimension        Dim             ....  246

ORBITAL ENERGIES
----------------

  NO   OCC          E(Eh)            E(eV)
   0   2.0000     -14.312674      -389.4677
   1   2.0000     -14.307688      -389.3320
   2   2.0000     -10.204312      -277.6735
   3   2.0000     -10.143374      -276.0152
   4   2.0000     -10.133867      -275.7565
   5   2.0000     -10.087804      -274.5031
   6   2.0000      -0.954958       -25.9857
   7   2.0000      -0.868503       -23.6332
   8   2.0000      -0.773397       -21.0452
   9   2.0000      -0.695740       -18.9321
  10   2.0000      -0.609556       -16.5869
  11   2.0000      -0.577834       -15.7237
  12   2.0000      -0.531753       -14.4697
  13   2.0000      -0.511191       -13.9102
  14   2.0000      -0.465586       -12.6692
  15   2.0000      -0.438226       -11.9247
  16   2.0000      -0.426477       -11.6050
  17   2.0000      -0.392808       -10.6888
  18   2.0000      -0.375831       -10.2269
  19   2.0000      -0.340310        -9.2603
  20   2.0000      -0.330084        -8.9820
  21   2.0000      -0.328952        -8.9512
  22   2.0000      -0.261784        -7.1235
  23   2.0000      -0.161043        -4.3822
  24   0.0000       0.022773         0.6197
  25   0.0000       0.051191         1.3930
  26   0.0000       0.063076         1.7164
  27   0.0000       0.075790         2.0624
  28   0.0000       0.080658         2.1948

MULLIKEN ATOMIC CHARGES
-----------------------
   0 C :   -0.170370
   1 C :   -0.334884
   2 C :   -0.254222
   3 H :    0.060366
   4 H :    0.079225
   5 C :    0.331656
   6 N :   -0.454035
   7 N :   -0.479716
   8 H :    0.234737
   9 H :    0.206960
  10 H :    0.049888
  11 H :    0.225256
  12 H :    0.209378
  13 H :    0.097511
  14 H :    0.100793
  15 H :    0.097456
Sum of atomic charges:    0.0000000

LOEWDIN ATOMIC CHARGES
----------------------
   0 C :   -0.301610
   1 C :   -0.293725
   2 C :   -0.284378
   3 H :    0.125220
   4 H :    0.127362
   5 C :   -0.453201
   6 N :   -0.018218
   7 N :   -0.024815
   8 H :    0.171796
   9 H :    0.156648
  10 H :    0.122359
  11 H :    0.178872
  12 H :    0.158513
  13 H :    0.112299
  14 H :    0.113639
  15 H :    0.109240

  Mayer bond orders larger than 0.100000
B(  0-C ,  1-C ) :   0.9656 B(  0-C ,  2-C ) :   0.9853 B(  0-C ,  3-H ) :   0.9656
B(  0-C ,  4-H ) :   0.9669 B(  1-C , 13-H ) :   0.9801 B(  1-C , 14-H ) :   0.9822
B(  1-C , 15-H ) :   0.9830 B(  2-C ,  5-C ) :   1.6384 B(  2-C , 10-H ) :   1.0007
B(  5-C ,  6-N ) :   1.1587 B(  5-C ,  7-N ) :   1.1381 B(  6-N , 11-H ) :   0.9220
B(  6-N , 12-H ) :   0.9222 B(  7-N ,  8-H ) :   0.9245 B(  7-N ,  9-H ) :   0.9248

Dispersion correction           -0.020679637
FINAL SINGLE POINT ENERGY      -267.867626420449

DIPOLE MOMENT
-------------
                                X             Y             Z
Electronic contribution:      4.57399       2.18941      -1.93968
Nuclear contribution   :     -3.99655      -1.83277       1.34879
                        -----------------------------------------
Total Dipole Moment    :      0.57744       0.35664      -0.59090
                        -----------------------------------------
Magnitude (a.u.)       :      0.89988
Magnitude (Debye)      :      2.28732

Rotational constants in cm-1:     0.262971     0.067064     0.055026
Rotational constants in MHz :  7883.664566  2010.513309  1649.636654

                             ****ORCA TERMINATED NORMALLY****
TOTAL RUN TIME: 0 days 0 hours 0 minutes 30 seconds 926 msec
