                         Program Version 5.0.0 -  RELEASE  -
|  1> !B3LYP D3BJ RIJCOSX def2-TZVP def2/J TightSCF
|  2> *xyz 0 1
|  3> C          1.63556       -1.67040       -5.29211
|  4> C          0.33848       -1.50091       -4.50540
|  5> N          2.48451       -0.50741       -5.14039
|  6> H          1.39834       -1.82924       -6.35259
|  7> H          2.15586       -2.56540       -4.93209
|  8> C          3.45115       -0.14953       -5.95259
|  9> C          3.92267        1.08956       -5.85071
| 10> N          3.96616       -1.00618       -6.86788
| 11> H          3.52139       -1.90647       -6.99527
| 12> H          4.44482       -0.62347       -7.67035
| 13> H          2.25200        0.24080       -4.49879
| 14> H          3.46428        1.64078       -5.13639
| 15> H          4.83447        1.31375       -6.22465
| 16> H         -0.17658       -0.62881       -4.85045
| 17> H          0.56384       -1.39374       -3.46490
| 18> H         -0.28102       -2.36136       -4.64938
| 19> *
| 20>
| 21> %MaxCore 64000
| 22>
| 23> %pal nprocs 4
| 24> end
| 25>
| 26> %scf
| 27>   MaxIter 150
| 28> end
| 29>
| 30>
| 31>                          ****END OF INPUT****

CARTESIAN COORDINATES (ANGSTROEM)
---------------------------------
  C      1.635560   -1.670400   -5.292110
  C      0.338480   -1.500910   -4.505400
  N      2.484510   -0.507410   -5.140390
  H      1.398340   -1.829240   -6.352590
  H      2.155860   -2.565400   -4.932090
  C      3.451150   -0.149530   -5.952590
  C      3.922670    1.089560   -5.850710
  N      3.966160   -1.006180   -6.867880
  H      3.521390   -1.906470   -6.995270
  H      4.444820   -0.623470   -7.670350
  H      2.252000    0.240800   -4.498790
  H      3.464280    1.640780   -5.136390
  H      4.834470    1.313750   -6.224650
  H     -0.176580   -0.628810   -4.850450
  H      0.563840   -1.393740   -3.464900
  H     -0.281020   -2.361360   -4.649380

 Total Charge           Charge          ....    0
 Multiplicity           Mult            ....    1
 Number of Electrons    NEL             ....   48
 Basis Dimension        Dim             ....  246

ORBITAL ENERGIES
----------------

  NO   OCC          E(Eh)            E(eV)
   0   2.0000     -14.313794      -389.4981
   1   2.0000     -14.311386      -389.4326
   2   2.0000     -10.210585      -277.8441
   3   2.0000     -10.209051      -277.8024
   4   2.0000     -10.167441      -276.6701
   5   2.0000     -10.075026      -274.1554
   6   2.0000      -0.968039       -26.3417
   7   2.0000      -0.881932       -23.9986
   8   2.0000      -0.777330       -21.1522
   9   2.0000      -0.701332       -19.0842
  10   2.0000      -0.628433       -17.1005
  11   2.0000      -0.595152       -16.1949
  12   2.0000      -0.533090       -14.5061
  13   2.0000      -0.496251       -13.5037
  14   2.0000      -0.479820       -13.0566
  15   2.0000      -0.463026       -12.5996
  16   2.0000      -0.419061       -11.4032
  17   2.0000      -0.395681       -10.7670
  18   2.0000      -0.380048       -10.3416
  19   2.0000      -0.376817       -10.2537
  20   2.0000      -0.375284       -10.2120
  21   2.0000      -0.348193        -9.4748
  22   2.0000      -0.256718        -6.9857
  23   2.0000      -0.159380        -4.3369
  24   0.0000       0.024335         0.6622
  25   0.0000       0.045148         1.2285
  26   0.0000       0.054670         1.4876
  27   0.0000       0.072955         1.9852
  28   0.0000       0.086414         2.3515

MULLIKEN ATOMIC CHARGES
-----------------------
   0 C :   -0.064774
   1 C :   -0.355754
   2 N :   -0.272277
   3 H :    0.086870
   4 H :    0.099023
   5 C :    0.375286
   6 C :   -0.521273
   7 N :   -0.479386
   8 H :    0.217297
   9 H :    0.235636
  10 H :    0.205111
  11 H :    0.045510
  12 H :    0.087244
  13 H :    0.115141
  14 H :    0.114294
  15 H :    0.112051
Sum of atomic charges:    0.0000000

LOEWDIN ATOMIC CHARGES
----------------------
   0 C :   -0.309250
   1 C :   -0.295985
   2 N :    0.120107
   3 H :    0.122594
   4 H :    0.121708
   5 C :   -0.456430
   6 C :   -0.349786
   7 N :   -0.021738
   8 H :    0.158205
   9 H :    0.172883
  10 H :    0.197373
  11 H :    0.094671
  12 H :    0.094392
  13 H :    0.116293
  14 H :    0.115910
  15 H :    0.119053

  Mayer bond orders larger than 0.100000
B(  0-C ,  1-C ) :   0.9738 B(  0-C ,  2-N ) :   0.9407 B(  0-C ,  3-H ) :   0.9586
B(  0-C ,  4-H ) :   0.9499 B(  1-C , 13-H ) :   0.9765 B(  1-C , 14-H ) :   0.9773
B(  1-C , 15-H ) :   0.9762 B(  2-N ,  5-C ) :   1.2138 B(  2-N , 10-H ) :   0.9241
B(  5-C ,  6-C ) :   1.5907 B(  5-C ,  7-N ) :   1.1143 B(  6-C , 11-H ) :   1.0093
B(  6-C , 12-H ) :   0.9998 B(  7-N ,  8-H ) :   0.9301 B(  7-N ,  9-H ) :   0.9241

Dispersion correction           -0.020426333
FINAL SINGLE POINT ENERGY      -267.857764207649

DIPOLE MOMENT
-------------
                                X             Y             Z
Electronic contribution:      2.96679       0.53455      -1.29602
Nuclear contribution   :     -3.69145      -1.49398       1.19810
                        -----------------------------------------
Total Dipole Moment    :     -0.72466      -0.95944      -0.09792
                        -----------------------------------------
Magnitude (a.u.)       :      1.20633
Magnitude (Debye)      :      3.06626

Rotational constants in cm-1:     0.270790     0.068966     0.056679
Rotational constants in MHz :  8118.084803  2067.559423  1699.196934

                             ****ORCA TERMINATED NORMALLY****
TOTAL RUN TIME: 0 days 0 hours 0 minutes 33 seconds 72 msec
