                         Program Version 5.0.0 -  RELEASE  -
|  1> !B3LYP D3BJ RIJCOSX def2-TZVP def2/J TightSCF
|  2> *xyz 0 1
|  3> C          1.63556       -1.67040       -5.29211
|  4> C          0.33848       -1.50091       -4.50540
|  5> N          2.48451       -0.50741       -5.14039
|  6> H          1.39834       -1.82924       -6.35259
|  7> H          2.15586       -2.56540       -4.93209
|  8> C          3.45115       -0.14953       -5.95259
|  9> N          3.92267        1.08956       -5.85071
| 10> C          3.96616       -1.00618       -6.86788
| 11> H          3.52139       -1.90647       -6.99527
| 12> H          4.44482       -0.62347       -7.67035
| 13> H          2.25200        0.24080       -4.49879
| 14> H          3.46428        1.64078       -5.13639
| 15> H          4.83447        1.31375       -6.22465
| 16> H         -0.17658       -0.62881       -4.85045
| 17> H          0.56384       -1.39374       -3.46490
| 18> H         -0.28102       -2.36136       -4.64938
| 19> *
| 20>
| 21> %MaxCore 64000
| 22>
| 23> %pal nprocs 4
| 24> end
| 25>
| 26> %scf
| 27>   MaxIter 150
| 28> end
| 29>
| 30>
| 31>                          ****END OF INPUT****

CARTESIAN COORDINATES (ANGSTROEM)
---------------------------------
  C      1.635560   -1.670400   -5.292110
  C      0.338480   -1.500910   -4.505400
  N      2.484510   -0.507410   -5.140390
  H      1.398340   -1.829240   -6.352590
  H      2.155860   -2.565400   -4.932090
  C      3.451150   -0.149530   -5.952590
  N      3.922670    1.089560   -5.850710
  C      3.966160   -1.006180   -6.867880
  H      3.521390   -1.906470   -6.995270
  H      4.444820   -0.623470   -7.670350
  H      2.252000    0.240800   -4.498790
  H      3.464280    1.640780   -5.136390
  H      4.834470    1.313750   -6.224650
  H     -0.176580   -0.628810   -4.850450
  H      0.563840   -1.393740   -3.464900
  H     -0.281020   -2.361360   -4.649380

 Total Charge           Charge          ....    0
 Multiplicity           Mult            ....    1
 Number of Electrons    NEL             ....   48
 Basis Dimension        Dim             ....  246

ORBITAL ENERGIES
----------------

  NO   OCC          E(Eh)            E(eV)
   0   2.0000     -14.319669      -389.6580
   1   2.0000     -14.313613      -389.4932
   2   2.0000     -10.210338      -277.8374
   3   2.0000     -10.203416      -277.6491
   4   2.0000     -10.163515      -276.5633
   5   2.0000     -10.076091      -274.1844
   6   2.0000      -0.976436       -26.5702
   7   2.0000      -0.886852       -24.1325
   8   2.0000      -0.763655       -20.7801
   9   2.0000      -0.701185       -19.0802
  10   2.0000      -0.644606       -17.5406
  11   2.0000      -0.567283       -15.4366
  12   2.0000      -0.534797       -14.5526
  13   2.0000      -0.523875       -14.2554
  14   2.0000      -0.473718       -12.8905
  15   2.0000      -0.466199       -12.6859
  16   2.0000      -0.400441       -10.8966
  17   2.0000      -0.395934       -10.7739
  18   2.0000      -0.391792       -10.6612
  19   2.0000      -0.370442       -10.0802
  20   2.0000      -0.361888        -9.8475
  21   2.0000      -0.349405        -9.5078
  22   2.0000      -0.251054        -6.8315
  23   2.0000      -0.163005        -4.4356
  24   0.0000       0.017621         0.4795
  25   0.0000       0.041522         1.1299
  26   0.0000       0.061307         1.6682
  27   0.0000       0.077907         2.1199
  28   0.0000       0.089334         2.4309

MULLIKEN ATOMIC CHARGES
-----------------------
   0 C :   -0.040798
   1 C :   -0.346456
   2 N :   -0.282226
   3 H :    0.104084
   4 H :    0.101085
   5 C :    0.350643
   6 N :   -0.446753
   7 C :   -0.528191
   8 H :    0.077026
   9 H :    0.079012
  10 H :    0.167011
  11 H :    0.192763
  12 H :    0.241509
  13 H :    0.108618
  14 H :    0.108542
  15 H :    0.114131
Sum of atomic charges:   -0.0000000

LOEWDIN ATOMIC CHARGES
----------------------
   0 C :   -0.291033
   1 C :   -0.298853
   2 N :    0.121405
   3 H :    0.131664
   4 H :    0.126804
   5 C :   -0.468514
   6 N :   -0.011443
   7 C :   -0.358068
   8 H :    0.094070
   9 H :    0.092438
  10 H :    0.177291
  11 H :    0.159469
  12 H :    0.177643
  13 H :    0.113636
  14 H :    0.113566
  15 H :    0.119926

  Mayer bond orders larger than 0.100000
B(  0-C ,  1-C ) :   0.9565 B(  0-C ,  2-N ) :   0.9293 B(  0-C ,  3-H ) :   0.9652
B(  0-C ,  4-H ) :   0.9590 B(  1-C , 13-H ) :   0.9766 B(  1-C , 14-H ) :   0.9768
B(  1-C , 15-H ) :   0.9781 B(  2-N ,  5-C ) :   1.1800 B(  2-N , 10-H ) :   0.9324
B(  5-C ,  6-N ) :   1.1330 B(  5-C ,  7-C ) :   1.5927 B(  6-N , 11-H ) :   0.9307
B(  6-N , 12-H ) :   0.9195 B(  7-C ,  8-H ) :   1.0089 B(  7-C ,  9-H ) :   0.9983

Dispersion correction           -0.020518407
FINAL SINGLE POINT ENERGY      -267.857904602354

DIPOLE MOMENT
-------------
                                X             Y             Z
Electronic contribution:      3.02496       2.67578      -0.17280
Nuclear contribution   :     -3.68222      -1.93858       0.98231
                        -----------------------------------------
Total Dipole Moment    :     -0.65727       0.73720       0.80951
                        -----------------------------------------
Magnitude (a.u.)       :      1.27702
Magnitude (Debye)      :      3.24592

Rotational constants in cm-1:     0.275407     0.068040     0.056255
Rotational constants in MHz :  8256.498401  2039.796466  1686.484500

                             ****ORCA TERMINATED NORMALLY****
TOTAL RUN TIME: 0 days 0 hours 0 minutes 33 seconds 51 msec
