                         Program Version 5.0.0 -  RELEASE  -
|  1> !B3LYP D3BJ RIJCOSX def2-TZVP def2/J TightSCF xyzfile
|  2>
|  3> *xyzfile 0 1 D1.xyz
|  4>
|  5> %MaxCore 64000
|  6>
|  7> %pal nprocs 18
|  8> end
|  9>
| 10> %scf
| 11>   MaxIter 150
| 12> end
| 13>
| 14>
| 15>                          ****END OF INPUT****

CARTESIAN COORDINATES (ANGSTROEM)
---------------------------------
  C      1.635557   -1.670396   -5.292109
  C      0.338484   -1.500907   -4.505398
  C      2.484511   -0.507410   -5.140392
  C     -0.684873   -0.528026   -5.099889
  C     -0.290406    0.951335   -5.153423
  H      0.607991    1.070692   -5.764412
  C     -0.055168    1.619420   -3.788577
  H     -1.080912    1.483775   -5.689436
  H      0.045006    0.862302   -3.003015
  H     -0.922936    2.230329   -3.517028
  C      1.223022    2.469865   -3.756911
  H      1.114701    3.258074   -4.532999
  H      1.237732    3.011242   -2.792157
  F      2.353815    1.712032   -3.934477
  H      1.398337   -1.829239   -6.352591
  H      2.155864   -2.565398   -4.932091
  C      3.451149   -0.149530   -5.952589
  N      3.922667    1.089559   -5.850711
  N      3.966162   -1.006183   -6.867880
  H      3.521391   -1.906467   -6.995270
  H      4.444824   -0.623472   -7.670348
  H      2.251995    0.240804   -4.498792
  H      3.464277    1.640782   -5.136392
  H      4.834470    1.313745   -6.224653
  H     -0.937999   -0.869056   -6.110838
  H     -1.604638   -0.622496   -4.513132
  H      0.594887   -1.211578   -3.482312
  H     -0.126530   -2.487656   -4.434176

 Total Charge           Charge          ....    0
 Multiplicity           Mult            ....    1
 Number of Electrons    NEL             ....   88
 Basis Dimension        Dim             ....  443

ORBITAL ENERGIES
----------------

  NO   OCC          E(Eh)            E(eV)
   0   2.0000     -24.693767      -671.9516
   1   2.0000     -14.297982      -389.0679
   2   2.0000     -14.282220      -388.6390
   3   2.0000     -10.255821      -279.0751
   4   2.0000     -10.185622      -277.1649
   5   2.0000     -10.173420      -276.8328
   6   2.0000     -10.155735      -276.3516
   7   2.0000     -10.152819      -276.2722
   8   2.0000     -10.142807      -275.9998
   9   2.0000     -10.132304      -275.7140
  10   2.0000     -10.059849      -273.7424
  11   2.0000      -1.234114       -33.5819
  12   2.0000      -0.937134       -25.5007
  13   2.0000      -0.851661       -23.1749
  14   2.0000      -0.806400       -21.9433
  15   2.0000      -0.773173       -21.0391
  16   2.0000      -0.724372       -19.7112
  17   2.0000      -0.689428       -18.7603
  18   2.0000      -0.638877       -17.3847
  19   2.0000      -0.605483       -16.4760
  20   2.0000      -0.575714       -15.6660
  21   2.0000      -0.552773       -15.0417
  22   2.0000      -0.534314       -14.5394
  23   2.0000      -0.520043       -14.1511
  24   2.0000      -0.504160       -13.7189
  25   2.0000      -0.501730       -13.6528
  26   2.0000      -0.482462       -13.1285
  27   2.0000      -0.455242       -12.3878
  28   2.0000      -0.437450       -11.9036
  29   2.0000      -0.437118       -11.8946
  30   2.0000      -0.415135       -11.2964
  31   2.0000      -0.400024       -10.8852
  32   2.0000      -0.389024       -10.5859
  33   2.0000      -0.375291       -10.2122
  34   2.0000      -0.360220        -9.8021
  35   2.0000      -0.356381        -9.6976
  36   2.0000      -0.348314        -9.4781
  37   2.0000      -0.335764        -9.1366
  38   2.0000      -0.318254        -8.6601
  39   2.0000      -0.307982        -8.3806
  40   2.0000      -0.301607        -8.2071
  41   2.0000      -0.290309        -7.8997
  42   2.0000      -0.244925        -6.6647
  43   2.0000      -0.142774        -3.8851
  44   0.0000       0.032799         0.8925
  45   0.0000       0.039772         1.0823
  46   0.0000       0.051264         1.3950
  47   0.0000       0.064110         1.7445
  48   0.0000       0.070252         1.9116

MULLIKEN ATOMIC CHARGES
-----------------------
   0 C :   -0.147487
   1 C :   -0.178879
   2 C :   -0.338434
   3 C :   -0.171498
   4 C :   -0.185363
   5 H :    0.136068
   6 C :   -0.186311
   7 H :    0.080225
   8 H :    0.101370
   9 H :    0.102340
  10 C :    0.020993
  11 H :    0.096697
  12 H :    0.100483
  13 F :   -0.236186
  14 H :    0.044553
  15 H :    0.071976
  16 C :    0.279259
  17 N :   -0.473124
  18 N :   -0.480707
  19 H :    0.229184
  20 H :    0.200243
  21 H :    0.168377
  22 H :    0.244361
  23 H :    0.197448
  24 H :    0.081676
  25 H :    0.080008
  26 H :    0.082263
  27 H :    0.080465
Sum of atomic charges:   -0.0000000

LOEWDIN ATOMIC CHARGES
----------------------
   0 C :   -0.280627
   1 C :   -0.258463
   2 C :   -0.285615
   3 C :   -0.262234
   4 C :   -0.265782
   5 H :    0.144326
   6 C :   -0.265250
   7 H :    0.129330
   8 H :    0.138654
   9 H :    0.139274
  10 C :   -0.336344
  11 H :    0.123797
  12 H :    0.122245
  13 F :    0.143011
  14 H :    0.125861
  15 H :    0.129057
  16 C :   -0.462582
  17 N :   -0.028297
  18 N :   -0.030303
  19 H :    0.169054
  20 H :    0.152561
  21 H :    0.117807
  22 H :    0.160466
  23 H :    0.152505
  24 H :    0.134288
  25 H :    0.132207
  26 H :    0.130597
  27 H :    0.130455

  Mayer bond orders larger than 0.100000
B(  0-C ,  1-C ) :   0.9848 B(  0-C ,  2-C ) :   0.9600 B(  0-C , 14-H ) :   0.9534
B(  0-C , 15-H ) :   0.9604 B(  1-C ,  3-C ) :   0.9895 B(  1-C , 26-H ) :   0.9796
B(  1-C , 27-H ) :   0.9761 B(  2-C , 16-C ) :   1.6302 B(  2-C , 21-H ) :   0.9990
B(  3-C ,  4-C ) :   0.9610 B(  3-C , 24-H ) :   0.9631 B(  3-C , 25-H ) :   0.9693
B(  4-C ,  5-H ) :   0.9830 B(  4-C ,  6-C ) :   0.9319 B(  4-C ,  7-H ) :   0.9662
B(  6-C ,  8-H ) :   0.9660 B(  6-C ,  9-H ) :   0.9516 B(  6-C , 10-C ) :   0.9790
B( 10-C , 11-H ) :   0.9741 B( 10-C , 12-H ) :   0.9663 B( 10-C , 13-F ) :   0.9171
B( 16-C , 17-N ) :   1.1962 B( 16-C , 18-N ) :   1.1404 B( 17-N , 22-H ) :   0.8842
B( 17-N , 23-H ) :   0.9284 B( 18-N , 19-H ) :   0.9261 B( 18-N , 20-H ) :   0.9254

Dispersion correction           -0.047298686
FINAL SINGLE POINT ENERGY      -524.295902922538

DIPOLE MOMENT
-------------
                                X             Y             Z
Electronic contribution:      7.90499       3.85955       1.10129
Nuclear contribution   :     -8.11591      -2.99033      -1.35383
                        -----------------------------------------
Total Dipole Moment    :     -0.21091       0.86923      -0.25254
                        -----------------------------------------
Magnitude (a.u.)       :      0.92942
Magnitude (Debye)      :      2.36239

Rotational constants in cm-1:     0.043530     0.028984     0.019589
Rotational constants in MHz :  1305.007140   868.923804   587.262638

                             ****ORCA TERMINATED NORMALLY****
TOTAL RUN TIME: 0 days 0 hours 0 minutes 44 seconds 326 msec
