                         Program Version 5.0.0 -  RELEASE  -
|  1> !LC-BLYP RIJCOSX def2-TZVPD def2/J TightSCF
|  2> *xyz -1 1
|  3> C          0.84888        2.66797       -4.30235
|  4> C          2.09343        1.86104       -4.65684
|  5> H          2.44481        2.04157       -5.67499
|  6> H          2.90175        2.13786       -3.98034
|  7> S          1.87964        0.07859       -4.46297
|  8> O          3.20757       -0.46611       -4.42026
|  9> O          1.07506       -0.05616       -3.26876
| 10> O          1.13166       -0.31996       -5.67903
| 11> H          0.05064        2.40112       -4.96303
| 12> H          1.06043        3.71210       -4.40203
| 13> H          0.56237        2.45684       -3.29327
| 14> *
| 15>
| 16> %MaxCore 64000
| 17>
| 18> %pal nprocs 4
| 19> end
| 20>
| 21> %scf
| 22>   MaxIter 150
| 23> end
| 24>
| 25>
| 26>                          ****END OF INPUT****

CARTESIAN COORDINATES (ANGSTROEM)
---------------------------------
  C      0.848880    2.667970   -4.302350
  C      2.093430    1.861040   -4.656840
  H      2.444810    2.041570   -5.674990
  H      2.901750    2.137860   -3.980340
  S      1.879640    0.078590   -4.462970
  O      3.207570   -0.466110   -4.420260
  O      1.075060   -0.056160   -3.268760
  O      1.131660   -0.319960   -5.679030
  H      0.050640    2.401120   -4.963030
  H      1.060430    3.712100   -4.402030
  H      0.562370    2.456840   -3.293270

 Total Charge           Charge          ....   -1
 Multiplicity           Mult            ....    1
 Number of Electrons    NEL             ....   58
 Basis Dimension        Dim             ....  285

ORBITAL ENERGIES
----------------

  NO   OCC          E(Eh)            E(eV)
   0   2.0000     -88.259497     -2401.6630
   1   2.0000     -18.724276      -509.5135
   2   2.0000     -18.720931      -509.4224
   3   2.0000     -18.708629      -509.0877
   4   2.0000      -9.928234      -270.1610
   5   2.0000      -9.920208      -269.9426
   6   2.0000      -7.801838      -212.2988
   7   2.0000      -5.830025      -158.6431
   8   2.0000      -5.828838      -158.6108
   9   2.0000      -5.828518      -158.6020
  10   2.0000      -1.025720       -27.9112
  11   2.0000      -0.892664       -24.2906
  12   2.0000      -0.867574       -23.6079
  13   2.0000      -0.740985       -20.1632
  14   2.0000      -0.612218       -16.6593
  15   2.0000      -0.486522       -13.2389
  16   2.0000      -0.424656       -11.5555
  17   2.0000      -0.422488       -11.4965
  18   2.0000      -0.379991       -10.3401
  19   2.0000      -0.366726        -9.9791
  20   2.0000      -0.356725        -9.7070
  21   2.0000      -0.329473        -8.9654
  22   2.0000      -0.311531        -8.4772
  23   2.0000      -0.258588        -7.0365
  24   2.0000      -0.258245        -7.0272
  25   2.0000      -0.221103        -6.0165
  26   2.0000      -0.210463        -5.7270
  27   2.0000      -0.200504        -5.4560
  28   2.0000      -0.166247        -4.5238
  29   0.0000       0.162987         4.4351
  30   0.0000       0.175531         4.7764
  31   0.0000       0.176069         4.7911
  32   0.0000       0.183268         4.9870
  33   0.0000       0.208380         5.6703

MULLIKEN ATOMIC CHARGES
-----------------------
   0 C :   -1.271432
   1 C :   -0.705502
   2 H :    0.386444
   3 H :    0.381164
   4 S :    1.068672
   5 O :   -0.640992
   6 O :   -0.661517
   7 O :   -0.701796
   8 H :    0.347960
   9 H :    0.421988
  10 H :    0.375011
Sum of atomic charges:   -1.0000000

LOEWDIN ATOMIC CHARGES
----------------------
   0 C :   -0.164442
   1 C :   -0.341526
   2 H :    0.090221
   3 H :    0.084435
   4 S :    0.302735
   5 O :   -0.372031
   6 O :   -0.373359
   7 O :   -0.406957
   8 H :    0.067626
   9 H :    0.054131
  10 H :    0.059167

  Mayer bond orders larger than 0.100000
B(  0-C ,  1-C ) :   0.4643 B(  0-C ,  8-H ) :   0.9589 B(  0-C ,  9-H ) :   0.8601
B(  0-C , 10-H ) :   0.9382 B(  1-C ,  2-H ) :   0.9038 B(  1-C ,  3-H ) :   0.9047
B(  1-C ,  4-S ) :   0.9582 B(  1-C ,  5-O ) :   0.1097 B(  1-C ,  7-O ) :   0.1068
B(  4-S ,  5-O ) :   1.5295 B(  4-S ,  6-O ) :   1.5060 B(  4-S ,  7-O ) :   1.4821

FINAL SINGLE POINT ENERGY      -702.485299529591

DIPOLE MOMENT
-------------
                                X             Y             Z
Electronic contribution:      1.61927      -7.64229       0.05725
Nuclear contribution   :     -1.55288       9.51857       0.00420
                        -----------------------------------------
Total Dipole Moment    :      0.06639       1.87628       0.06145
                        -----------------------------------------
Magnitude (a.u.)       :      1.87846
Magnitude (Debye)      :      4.77466

Rotational constants in cm-1:     0.163401     0.083833     0.082462
Rotational constants in MHz :  4898.624208  2513.264548  2472.149188

                             ****ORCA TERMINATED NORMALLY****
TOTAL RUN TIME: 0 days 0 hours 0 minutes 49 seconds 608 msec
