                         Program Version 5.0.0 -  RELEASE  -
|  1> !LC-BLYP RIJCOSX def2-TZVPD def2/J TightSCF
|  2> *xyz 1 1
|  3> C         -0.46129        2.23469       -4.98962
|  4> C          0.84888        2.66797       -4.30235
|  5> C         -0.42384        2.39877       -6.47432
|  6> N         -0.95947        3.49265       -7.00740
|  7> N          0.14558        1.48689       -7.20399
|  8> H          0.56537        0.69681       -6.72386
|  9> H          0.22068        1.58177       -8.20752
| 10> H         -1.40624        4.18151       -6.40326
| 11> H         -0.93421        3.68160       -7.99947
| 12> H         -1.28888        2.82674       -4.59500
| 13> H         -0.65170        1.18634       -4.75655
| 14> H          1.66208        2.08894       -4.68750
| 15> H          0.76716        2.51042       -3.24717
| 16> H          1.02677        3.70527       -4.49537
| 17> *
| 18>
| 19> %MaxCore 64000
| 20>
| 21> %pal nprocs 4
| 22> end
| 23>
| 24> %scf
| 25>   MaxIter 150
| 26> end
| 27>
| 28>
| 29>                          ****END OF INPUT****

CARTESIAN COORDINATES (ANGSTROEM)
---------------------------------
  C     -0.461290    2.234690   -4.989620
  C      0.848880    2.667970   -4.302350
  C     -0.423840    2.398770   -6.474320
  N     -0.959470    3.492650   -7.007400
  N      0.145580    1.486890   -7.203990
  H      0.565370    0.696810   -6.723860
  H      0.220680    1.581770   -8.207520
  H     -1.406240    4.181510   -6.403260
  H     -0.934210    3.681600   -7.999470
  H     -1.288880    2.826740   -4.595000
  H     -0.651700    1.186340   -4.756550
  H      1.662080    2.088940   -4.687500
  H      0.767160    2.510420   -3.247170
  H      1.026770    3.705270   -4.495370

 Total Charge           Charge          ....    1
 Multiplicity           Mult            ....    1
 Number of Electrons    NEL             ....   40
 Basis Dimension        Dim             ....  266

ORBITAL ENERGIES
----------------

  NO   OCC          E(Eh)            E(eV)
   0   2.0000     -14.417575      -392.3222
   1   2.0000     -14.413505      -392.2114
   2   2.0000     -10.393997      -282.8351
   3   2.0000     -10.266968      -279.3784
   4   2.0000     -10.222267      -278.1620
   5   2.0000      -1.306421       -35.5495
   6   2.0000      -1.210313       -32.9343
   7   2.0000      -1.078677       -29.3523
   8   2.0000      -0.967928       -26.3387
   9   2.0000      -0.923344       -25.1255
  10   2.0000      -0.882525       -24.0147
  11   2.0000      -0.856121       -23.2962
  12   2.0000      -0.801357       -21.8060
  13   2.0000      -0.759215       -20.6593
  14   2.0000      -0.727911       -19.8075
  15   2.0000      -0.719256       -19.5720
  16   2.0000      -0.644625       -17.5411
  17   2.0000      -0.634761       -17.2727
  18   2.0000      -0.627465       -17.0742
  19   2.0000      -0.591531       -16.0964
  20   0.0000      -0.130879        -3.5614
  21   0.0000      -0.112621        -3.0646
  22   0.0000      -0.073257        -1.9934
  23   0.0000      -0.068909        -1.8751
  24   0.0000      -0.050106        -1.3635

MULLIKEN ATOMIC CHARGES
-----------------------
   0 C :   -0.920728
   1 C :   -1.176732
   2 C :    0.728166
   3 N :   -0.321053
   4 N :   -0.277559
   5 H :    0.252121
   6 H :    0.224418
   7 H :    0.236791
   8 H :    0.211234
   9 H :    0.420494
  10 H :    0.410843
  11 H :    0.389747
  12 H :    0.426401
  13 H :    0.395856
Sum of atomic charges:    1.0000000

LOEWDIN ATOMIC CHARGES
----------------------
   0 C :   -0.162782
   1 C :   -0.063278
   2 C :   -0.377330
   3 N :    0.230883
   4 N :    0.241612
   5 H :    0.156087
   6 H :    0.153032
   7 H :    0.151122
   8 H :    0.143999
   9 H :    0.132232
  10 H :    0.136853
  11 H :    0.080955
  12 H :    0.090528
  13 H :    0.086087

  Mayer bond orders larger than 0.100000
B(  0-C ,  1-C ) :   0.5440 B(  0-C ,  2-C ) :   0.5977 B(  0-C ,  9-H ) :   0.8927
B(  0-C , 10-H ) :   0.9216 B(  1-C , 11-H ) :   0.8911 B(  1-C , 12-H ) :   0.9063
B(  1-C , 13-H ) :   0.9235 B(  2-C ,  3-N ) :   1.0756 B(  2-C ,  4-N ) :   1.1520
B(  3-N ,  4-N ) :   0.1136 B(  3-N ,  7-H ) :   0.9483 B(  3-N ,  8-H ) :   1.0263
B(  4-N ,  5-H ) :   0.9341 B(  4-N ,  6-H ) :   1.0019

FINAL SINGLE POINT ENERGY      -228.509752160875

DIPOLE MOMENT
-------------
                                X             Y             Z
Electronic contribution:     -1.55845      -0.27092      -3.87341
Nuclear contribution   :      1.33202       0.27544       2.83701
                        -----------------------------------------
Total Dipole Moment    :     -0.22643       0.00452      -1.03641
                        -----------------------------------------
Magnitude (a.u.)       :      1.06086
Magnitude (Debye)      :      2.69650

Rotational constants in cm-1:     0.258570     0.126296     0.098869
Rotational constants in MHz :  7751.748523  3786.267300  2964.011691

                             ****ORCA TERMINATED NORMALLY****
TOTAL RUN TIME: 0 days 0 hours 0 minutes 52 seconds 641 msec
