                         Program Version 5.0.0 -  RELEASE  -
|  1> !LC-BLYP RIJCOSX def2-TZVPD def2/J TightSCF xyzfile
|  2>
|  3> *xyzfile 0 1 B.xyz
|  4>
|  5> %MaxCore 64000
|  6>
|  7> %pal nprocs 4
|  8> end
|  9>
| 10> %scf
| 11>   MaxIter 150
| 12> end
| 13>
| 14>
| 15>                          ****END OF INPUT****

CARTESIAN COORDINATES (ANGSTROEM)
---------------------------------
  C     -0.461293    2.234686   -4.989619
  C      0.848883    2.667967   -4.302351
  C      2.093434    1.861037   -4.656845
  H      2.444814    2.041567   -5.674990
  H      2.901748    2.137864   -3.980338
  S      1.879644    0.078594   -4.462965
  C     -0.423841    2.398772   -6.474317
  N     -0.959467    3.492647   -7.007401
  N      0.145585    1.486891   -7.203987
  H      0.565371    0.696807   -6.723858
  H      0.220682    1.581768   -8.207520
  H     -1.406243    4.181507   -6.403261
  H     -0.934215    3.681601   -7.999468
  O      3.207574   -0.466111   -4.420259
  O      1.075064   -0.056160   -3.268758
  O      1.131661   -0.319960   -5.679031
  H      0.668432    2.559427   -3.232850
  H      1.034074    3.729426   -4.497081
  H     -1.288884    2.826737   -4.594997
  H     -0.651696    1.186343   -4.756552

 Total Charge           Charge          ....    0
 Multiplicity           Mult            ....    1
 Number of Electrons    NEL             ....   88
 Basis Dimension        Dim             ....  478

ORBITAL ENERGIES
----------------

  NO   OCC          E(Eh)            E(eV)
   0   2.0000     -88.411454     -2405.7980
   1   2.0000     -18.878913      -513.7213
   2   2.0000     -18.865534      -513.3573
   3   2.0000     -18.863586      -513.3043
   4   2.0000     -14.280102      -388.5813
   5   2.0000     -14.248150      -387.7119
   6   2.0000     -10.247262      -278.8422
   7   2.0000     -10.120437      -275.3911
   8   2.0000     -10.100007      -274.8352
   9   2.0000     -10.077044      -274.2103
  10   2.0000      -7.953838      -216.4349
  11   2.0000      -5.982336      -162.7876
  12   2.0000      -5.981238      -162.7578
  13   2.0000      -5.979782      -162.7181
  14   2.0000      -1.178117       -32.0582
  15   2.0000      -1.160338       -31.5744
  16   2.0000      -1.066178       -29.0122
  17   2.0000      -1.035124       -28.1672
  18   2.0000      -1.033529       -28.1238
  19   2.0000      -0.945923       -25.7399
  20   2.0000      -0.866843       -23.5880
  21   2.0000      -0.801380       -21.8067
  22   2.0000      -0.759723       -20.6731
  23   2.0000      -0.738022       -20.0826
  24   2.0000      -0.711719       -19.3669
  25   2.0000      -0.667230       -18.1563
  26   2.0000      -0.627862       -17.0850
  27   2.0000      -0.625576       -17.0228
  28   2.0000      -0.591369       -16.0920
  29   2.0000      -0.578945       -15.7539
  30   2.0000      -0.552262       -15.0278
  31   2.0000      -0.541472       -14.7342
  32   2.0000      -0.518276       -14.1030
  33   2.0000      -0.509433       -13.8624
  34   2.0000      -0.492539       -13.4027
  35   2.0000      -0.476379       -12.9629
  36   2.0000      -0.458934       -12.4882
  37   2.0000      -0.446162       -12.1407
  38   2.0000      -0.410760       -11.1774
  39   2.0000      -0.405822       -11.0430
  40   2.0000      -0.372116       -10.1258
  41   2.0000      -0.362634        -9.8678
  42   2.0000      -0.353325        -9.6145
  43   2.0000      -0.320746        -8.7279
  44   0.0000      -0.001267        -0.0345
  45   0.0000       0.010162         0.2765
  46   0.0000       0.034990         0.9521
  47   0.0000       0.052916         1.4399
  48   0.0000       0.057743         1.5713

MULLIKEN ATOMIC CHARGES
-----------------------
   0 C :   -1.071934
   1 C :   -0.680072
   2 C :   -1.069980
   3 H :    0.428953
   4 H :    0.443211
   5 S :    1.201394
   6 C :    0.565856
   7 N :   -0.329353
   8 N :   -0.228053
   9 H :    0.353680
  10 H :    0.166708
  11 H :    0.224662
  12 H :    0.192792
  13 O :   -0.611969
  14 O :   -0.634179
  15 O :   -0.792892
  16 H :    0.480392
  17 H :    0.380670
  18 H :    0.473741
  19 H :    0.506372
Sum of atomic charges:   -0.0000000

LOEWDIN ATOMIC CHARGES
----------------------
   0 C :   -0.123489
   1 C :   -0.215736
   2 C :   -0.259063
   3 H :    0.101329
   4 H :    0.107974
   5 S :    0.386460
   6 C :   -0.370163
   7 N :    0.196656
   8 N :    0.238753
   9 H :    0.030887
  10 H :    0.146378
  11 H :    0.135433
  12 H :    0.128733
  13 O :   -0.312392
  14 O :   -0.319609
  15 O :   -0.367804
  16 H :    0.121230
  17 H :    0.119614
  18 H :    0.129248
  19 H :    0.125563

  Mayer bond orders larger than 0.100000
B(  0-C ,  1-C ) :   0.6070 B(  0-C ,  6-C ) :   0.5839 B(  0-C ,  7-N ) :   0.1018
B(  0-C , 18-H ) :   0.8130 B(  0-C , 19-H ) :   0.9071 B(  1-C ,  2-C ) :   0.5964
B(  1-C , 16-H ) :   0.8167 B(  1-C , 17-H ) :   0.9211 B(  2-C ,  3-H ) :   0.8641
B(  2-C ,  4-H ) :   0.8914 B(  2-C ,  5-S ) :   0.9484 B(  2-C , 13-O ) :   0.1436
B(  2-C , 15-O ) :   0.1407 B(  5-S , 13-O ) :   1.5268 B(  5-S , 14-O ) :   1.5343
B(  5-S , 15-O ) :   1.2578 B(  6-C ,  7-N ) :   0.9887 B(  6-C ,  8-N ) :   1.2340
B(  7-N ,  8-N ) :   0.1057 B(  7-N , 11-H ) :   0.9670 B(  7-N , 12-H ) :   1.0264
B(  8-N ,  9-H ) :   0.7443 B(  8-N , 10-H ) :   1.0513

FINAL SINGLE POINT ENERGY      -890.760935996100

DIPOLE MOMENT
-------------
                                X             Y             Z
Electronic contribution:      3.09025      -7.61618       1.07995
Nuclear contribution   :     -5.91573      12.15027      -4.18945
                        -----------------------------------------
Total Dipole Moment    :     -2.82548       4.53409      -3.10950
                        -----------------------------------------
Magnitude (a.u.)       :      6.18145
Magnitude (Debye)      :     15.71200

Rotational constants in cm-1:     0.082044     0.024757     0.022371
Rotational constants in MHz :  2459.631375   742.181961   670.660570

                             ****ORCA TERMINATED NORMALLY****
TOTAL RUN TIME: 0 days 0 hours 3 minutes 3 seconds 267 msec
