                         Program Version 5.0.0 -  RELEASE  -
|  1> !LC-BLYP RIJCOSX def2-TZVPD def2/J TightSCF
|  2> *xyz 0 1
|  3> C          0.84888        2.66797       -4.30235
|  4> C          2.09343        1.86104       -4.65684
|  5> H          2.44481        2.04157       -5.67499
|  6> H          2.90175        2.13786       -3.98034
|  7> S          1.87964        0.07859       -4.46297
|  8> F          3.20757       -0.46611       -4.42026
|  9> O          1.07506       -0.05616       -3.26876
| 10> O          1.13166       -0.31996       -5.67903
| 11> H          0.05064        2.40112       -4.96303
| 12> H          1.06043        3.71210       -4.40203
| 13> H          0.56237        2.45684       -3.29327
| 14> *
| 15>
| 16> %MaxCore 64000
| 17>
| 18> %pal nprocs 4
| 19> end
| 20>
| 21> %scf
| 22>   MaxIter 150
| 23> end
| 24>
| 25>
| 26>                          ****END OF INPUT****

CARTESIAN COORDINATES (ANGSTROEM)
---------------------------------
  C      0.848880    2.667970   -4.302350
  C      2.093430    1.861040   -4.656840
  H      2.444810    2.041570   -5.674990
  H      2.901750    2.137860   -3.980340
  S      1.879640    0.078590   -4.462970
  F      3.207570   -0.466110   -4.420260
  O      1.075060   -0.056160   -3.268760
  O      1.131660   -0.319960   -5.679030
  H      0.050640    2.401120   -4.963030
  H      1.060430    3.712100   -4.402030
  H      0.562370    2.456840   -3.293270

 Total Charge           Charge          ....    0
 Multiplicity           Mult            ....    1
 Number of Electrons    NEL             ....   58
 Basis Dimension        Dim             ....  285

ORBITAL ENERGIES
----------------

  NO   OCC          E(Eh)            E(eV)
   0   2.0000     -88.520682     -2408.7702
   1   2.0000     -24.582086      -668.9126
   2   2.0000     -18.954377      -515.7748
   3   2.0000     -18.942137      -515.4418
   4   2.0000     -10.129583      -275.6400
   5   2.0000     -10.083300      -274.3805
   6   2.0000      -8.063518      -219.4195
   7   2.0000      -6.095144      -165.8573
   8   2.0000      -6.088375      -165.6731
   9   2.0000      -6.088124      -165.6663
  10   2.0000      -1.473542       -40.0971
  11   2.0000      -1.202389       -32.7187
  12   2.0000      -1.100429       -29.9442
  13   2.0000      -0.930767       -25.3275
  14   2.0000      -0.845334       -23.0027
  15   2.0000      -0.783488       -21.3198
  16   2.0000      -0.697977       -18.9929
  17   2.0000      -0.697664       -18.9844
  18   2.0000      -0.661412       -17.9979
  19   2.0000      -0.600433       -16.3386
  20   2.0000      -0.589749       -16.0479
  21   2.0000      -0.545559       -14.8454
  22   2.0000      -0.533017       -14.5041
  23   2.0000      -0.508678       -13.8418
  24   2.0000      -0.490960       -13.3597
  25   2.0000      -0.485180       -13.2024
  26   2.0000      -0.437062       -11.8931
  27   2.0000      -0.421987       -11.4828
  28   2.0000      -0.408365       -11.1122
  29   0.0000       0.032762         0.8915
  30   0.0000       0.050649         1.3782
  31   0.0000       0.056418         1.5352
  32   0.0000       0.059906         1.6301
  33   0.0000       0.087428         2.3790

MULLIKEN ATOMIC CHARGES
-----------------------
   0 C :   -1.302179
   1 C :   -0.721445
   2 H :    0.444729
   3 H :    0.439589
   4 S :    1.059618
   5 F :   -0.082777
   6 O :   -0.522481
   7 O :   -0.549485
   8 H :    0.388720
   9 H :    0.428834
  10 H :    0.416878
Sum of atomic charges:    0.0000000

LOEWDIN ATOMIC CHARGES
----------------------
   0 C :   -0.119471
   1 C :   -0.297906
   2 H :    0.108536
   3 H :    0.101302
   4 S :    0.550628
   5 F :   -0.030806
   6 O :   -0.262100
   7 O :   -0.288813
   8 H :    0.083604
   9 H :    0.080154
  10 H :    0.074872

  Mayer bond orders larger than 0.100000
B(  0-C ,  1-C ) :   0.5331 B(  0-C ,  8-H ) :   0.9185 B(  0-C ,  9-H ) :   0.8611
B(  0-C , 10-H ) :   0.8921 B(  1-C ,  2-H ) :   0.8434 B(  1-C ,  3-H ) :   0.8221
B(  1-C ,  4-S ) :   0.9334 B(  4-S ,  5-F ) :   1.0328 B(  4-S ,  6-O ) :   1.7044
B(  4-S ,  7-O ) :   1.6772

FINAL SINGLE POINT ENERGY      -726.983418342952

DIPOLE MOMENT
-------------
                                X             Y             Z
Electronic contribution:      4.17749      -9.30278       0.10321
Nuclear contribution   :     -3.08754      10.54185      -0.04092
                        -----------------------------------------
Total Dipole Moment    :      1.08995       1.23907       0.06230
                        -----------------------------------------
Magnitude (a.u.)       :      1.65142
Magnitude (Debye)      :      4.19757

Rotational constants in cm-1:     0.158925     0.081210     0.079022
Rotational constants in MHz :  4764.450166  2434.603461  2369.014434

                             ****ORCA TERMINATED NORMALLY****
TOTAL RUN TIME: 0 days 0 hours 0 minutes 49 seconds 384 msec
