                         Program Version 5.0.0 -  RELEASE  -
|  1> !LC-BLYP RIJCOSX def2-TZVPD def2/J TightSCF
|  2> *xyz 0 1
|  3> C         -0.46129        2.23469       -4.98962
|  4> C          0.84888        2.66797       -4.30235
|  5> C         -0.42384        2.39877       -6.47432
|  6> C         -0.95947        3.49265       -7.00740
|  7> N          0.14558        1.48689       -7.20399
|  8> H          0.56537        0.69681       -6.72386
|  9> H          0.22068        1.58177       -8.20752
| 10> H         -1.40624        4.18151       -6.40326
| 11> H         -0.93421        3.68160       -7.99947
| 12> H         -1.28888        2.82674       -4.59500
| 13> H         -0.65170        1.18634       -4.75655
| 14> H          1.66208        2.08894       -4.68750
| 15> H          0.76716        2.51042       -3.24717
| 16> H          1.02677        3.70527       -4.49537
| 17> *
| 18>
| 19> %MaxCore 64000
| 20>
| 21> %pal nprocs 4
| 22> end
| 23>
| 24> %scf
| 25>   MaxIter 150
| 26> end
| 27>
| 28>
| 29>                          ****END OF INPUT****

CARTESIAN COORDINATES (ANGSTROEM)
---------------------------------
  C     -0.461290    2.234690   -4.989620
  C      0.848880    2.667970   -4.302350
  C     -0.423840    2.398770   -6.474320
  C     -0.959470    3.492650   -7.007400
  N      0.145580    1.486890   -7.203990
  H      0.565370    0.696810   -6.723860
  H      0.220680    1.581770   -8.207520
  H     -1.406240    4.181510   -6.403260
  H     -0.934210    3.681600   -7.999470
  H     -1.288880    2.826740   -4.595000
  H     -0.651700    1.186340   -4.756550
  H      1.662080    2.088940   -4.687500
  H      0.767160    2.510420   -3.247170
  H      1.026770    3.705270   -4.495370

 Total Charge           Charge          ....    0
 Multiplicity           Mult            ....    1
 Number of Electrons    NEL             ....   40
 Basis Dimension        Dim             ....  266

ORBITAL ENERGIES
----------------

  NO   OCC          E(Eh)            E(eV)
   0   2.0000     -14.172779      -385.6609
   1   2.0000     -10.090424      -274.5744
   2   2.0000     -10.067866      -273.9606
   3   2.0000     -10.052819      -273.5511
   4   2.0000      -9.999361      -272.0964
   5   2.0000      -1.038400       -28.2563
   6   2.0000      -0.888016       -24.1641
   7   2.0000      -0.821473       -22.3534
   8   2.0000      -0.744833       -20.2679
   9   2.0000      -0.675915       -18.3926
  10   2.0000      -0.634852       -17.2752
  11   2.0000      -0.587016       -15.9735
  12   2.0000      -0.542582       -14.7644
  13   2.0000      -0.525164       -14.2904
  14   2.0000      -0.494834       -13.4651
  15   2.0000      -0.483766       -13.1639
  16   2.0000      -0.451114       -12.2754
  17   2.0000      -0.434896       -11.8341
  18   2.0000      -0.432061       -11.7570
  19   2.0000      -0.283124        -7.7042
  20   0.0000       0.050397         1.3714
  21   0.0000       0.075739         2.0610
  22   0.0000       0.081581         2.2199
  23   0.0000       0.083272         2.2659
  24   0.0000       0.111599         3.0368

MULLIKEN ATOMIC CHARGES
-----------------------
   0 C :   -0.977438
   1 C :   -1.136919
   2 C :    0.734802
   3 C :   -1.192601
   4 N :   -0.325557
   5 H :    0.191660
   6 H :    0.174269
   7 H :    0.286445
   8 H :    0.339794
   9 H :    0.374829
  10 H :    0.413600
  11 H :    0.360037
  12 H :    0.392948
  13 H :    0.364131
Sum of atomic charges:   -0.0000000

LOEWDIN ATOMIC CHARGES
----------------------
   0 C :   -0.216102
   1 C :   -0.101217
   2 C :   -0.520767
   3 C :    0.014468
   4 N :    0.113162
   5 H :    0.112102
   6 H :    0.117249
   7 H :    0.025259
   8 H :    0.019320
   9 H :    0.114890
  10 H :    0.113694
  11 H :    0.066526
  12 H :    0.066815
  13 H :    0.074601

  Mayer bond orders larger than 0.100000
B(  0-C ,  1-C ) :   0.5096 B(  0-C ,  2-C ) :   0.5333 B(  0-C ,  3-C ) :   0.1646
B(  0-C ,  4-N ) :   0.1239 B(  0-C ,  9-H ) :   0.9324 B(  0-C , 10-H ) :   0.9540
B(  1-C ,  2-C ) :  -0.1051 B(  1-C , 11-H ) :   0.9155 B(  1-C , 12-H ) :   0.9118
B(  1-C , 13-H ) :   0.9682 B(  2-C ,  3-C ) :   1.0645 B(  2-C ,  4-N ) :   0.8694
B(  2-C ,  8-H ) :  -0.1435 B(  3-C ,  4-N ) :   0.1281 B(  3-C ,  7-H ) :   1.0112
B(  3-C ,  8-H ) :   1.0295 B(  4-N ,  5-H ) :   1.0097 B(  4-N ,  6-H ) :   1.0228

FINAL SINGLE POINT ENERGY      -212.043005316966

DIPOLE MOMENT
-------------
                                X             Y             Z
Electronic contribution:     -0.72619      -1.16365      -2.57053
Nuclear contribution   :      1.14741       0.51394       2.60761
                        -----------------------------------------
Total Dipole Moment    :      0.42122      -0.64971       0.03707
                        -----------------------------------------
Magnitude (a.u.)       :      0.77519
Magnitude (Debye)      :      1.97038

Rotational constants in cm-1:     0.269157     0.129188     0.102123
Rotational constants in MHz :  8069.118715  3872.945231  3061.580645

                             ****ORCA TERMINATED NORMALLY****
TOTAL RUN TIME: 0 days 0 hours 0 minutes 46 seconds 920 msec
