                         Program Version 5.0.0 -  RELEASE  -
|  1> !LC-BLYP RIJCOSX def2-TZVPD def2/J TightSCF
|  2> *xyz 0 1
|  3> C          0.84888        2.66797       -4.30235
|  4> C          2.09343        1.86104       -4.65684
|  5> H          2.44481        2.04157       -5.67499
|  6> H          2.90175        2.13786       -3.98034
|  7> S          1.87964        0.07859       -4.46297
|  8> O          3.20757       -0.46611       -4.42026
|  9> F          1.07506       -0.05616       -3.26876
| 10> O          1.13166       -0.31996       -5.67903
| 11> H          0.05064        2.40112       -4.96303
| 12> H          1.06043        3.71210       -4.40203
| 13> H          0.56237        2.45684       -3.29327
| 14> *
| 15>
| 16> %MaxCore 64000
| 17>
| 18> %pal nprocs 4
| 19> end
| 20>
| 21> %scf
| 22>   MaxIter 150
| 23> end
| 24>
| 25>
| 26>                          ****END OF INPUT****

CARTESIAN COORDINATES (ANGSTROEM)
---------------------------------
  C      0.848880    2.667970   -4.302350
  C      2.093430    1.861040   -4.656840
  H      2.444810    2.041570   -5.674990
  H      2.901750    2.137860   -3.980340
  S      1.879640    0.078590   -4.462970
  O      3.207570   -0.466110   -4.420260
  F      1.075060   -0.056160   -3.268760
  O      1.131660   -0.319960   -5.679030
  H      0.050640    2.401120   -4.963030
  H      1.060430    3.712100   -4.402030
  H      0.562370    2.456840   -3.293270

 Total Charge           Charge          ....    0
 Multiplicity           Mult            ....    1
 Number of Electrons    NEL             ....   58
 Basis Dimension        Dim             ....  285

ORBITAL ENERGIES
----------------

  NO   OCC          E(Eh)            E(eV)
   0   2.0000     -88.519968     -2408.7508
   1   2.0000     -24.576411      -668.7581
   2   2.0000     -18.957932      -515.8716
   3   2.0000     -18.942090      -515.4405
   4   2.0000     -10.129393      -275.6348
   5   2.0000     -10.090327      -274.5718
   6   2.0000      -8.062790      -219.3997
   7   2.0000      -6.094639      -165.8436
   8   2.0000      -6.087556      -165.6508
   9   2.0000      -6.087331      -165.6447
  10   2.0000      -1.464915       -39.8624
  11   2.0000      -1.206147       -32.8209
  12   2.0000      -1.103440       -30.0261
  13   2.0000      -0.936114       -25.4730
  14   2.0000      -0.838353       -22.8127
  15   2.0000      -0.786839       -21.4110
  16   2.0000      -0.706688       -19.2300
  17   2.0000      -0.691031       -18.8039
  18   2.0000      -0.651300       -17.7228
  19   2.0000      -0.602403       -16.3922
  20   2.0000      -0.581280       -15.8174
  21   2.0000      -0.556359       -15.1393
  22   2.0000      -0.542206       -14.7542
  23   2.0000      -0.515425       -14.0254
  24   2.0000      -0.499233       -13.5848
  25   2.0000      -0.486661       -13.2427
  26   2.0000      -0.437594       -11.9075
  27   2.0000      -0.422665       -11.5013
  28   2.0000      -0.411515       -11.1979
  29   0.0000       0.033959         0.9241
  30   0.0000       0.050429         1.3723
  31   0.0000       0.056705         1.5430
  32   0.0000       0.059643         1.6230
  33   0.0000       0.087229         2.3736

MULLIKEN ATOMIC CHARGES
-----------------------
   0 C :   -1.324598
   1 C :   -0.672380
   2 H :    0.429346
   3 H :    0.437139
   4 S :    1.053010
   5 O :   -0.500959
   6 F :   -0.114101
   7 O :   -0.551339
   8 H :    0.395646
   9 H :    0.423265
  10 H :    0.424972
Sum of atomic charges:    0.0000000

LOEWDIN ATOMIC CHARGES
----------------------
   0 C :   -0.129039
   1 C :   -0.289006
   2 H :    0.117906
   3 H :    0.104269
   4 S :    0.546987
   5 O :   -0.255400
   6 F :   -0.038364
   7 O :   -0.288284
   8 H :    0.080368
   9 H :    0.079459
  10 H :    0.071103

  Mayer bond orders larger than 0.100000
B(  0-C ,  1-C ) :   0.4441 B(  0-C ,  8-H ) :   0.9349 B(  0-C ,  9-H ) :   0.8831
B(  0-C , 10-H ) :   0.8639 B(  1-C ,  2-H ) :   0.8564 B(  1-C ,  3-H ) :   0.8578
B(  1-C ,  4-S ) :   0.9407 B(  4-S ,  5-O ) :   1.7269 B(  4-S ,  6-F ) :   1.0262
B(  4-S ,  7-O ) :   1.6801

FINAL SINGLE POINT ENERGY      -726.987898065535

DIPOLE MOMENT
-------------
                                X             Y             Z
Electronic contribution:      0.56573      -8.57877       2.03725
Nuclear contribution   :     -0.86540      10.11467      -1.24082
                        -----------------------------------------
Total Dipole Moment    :     -0.29966       1.53590       0.79643
                        -----------------------------------------
Magnitude (a.u.)       :      1.75588
Magnitude (Debye)      :      4.46308

Rotational constants in cm-1:     0.154065     0.083345     0.080357
Rotational constants in MHz :  4618.752213  2498.631937  2409.037217

                             ****ORCA TERMINATED NORMALLY****
TOTAL RUN TIME: 0 days 0 hours 0 minutes 49 seconds 91 msec
