                         Program Version 5.0.0 -  RELEASE  -
|  1> !LC-BLYP RIJCOSX def2-TZVPD def2/J TightSCF
|  2> *xyz 0 1
|  3> C         -0.46129        2.23469       -4.98962
|  4> C          0.84888        2.66797       -4.30235
|  5> C         -0.42384        2.39877       -6.47432
|  6> N         -0.95947        3.49265       -7.00740
|  7> C          0.14558        1.48689       -7.20399
|  8> H          0.56537        0.69681       -6.72386
|  9> H          0.22068        1.58177       -8.20752
| 10> H         -1.40624        4.18151       -6.40326
| 11> H         -0.93421        3.68160       -7.99947
| 12> H         -1.28888        2.82674       -4.59500
| 13> H         -0.65170        1.18634       -4.75655
| 14> H          1.66208        2.08894       -4.68750
| 15> H          0.76716        2.51042       -3.24717
| 16> H          1.02677        3.70527       -4.49537
| 17> *
| 18>
| 19> %MaxCore 64000
| 20>
| 21> %pal nprocs 4
| 22> end
| 23>
| 24> %scf
| 25>   MaxIter 150
| 26> end
| 27>
| 28>
| 29>                          ****END OF INPUT****

CARTESIAN COORDINATES (ANGSTROEM)
---------------------------------
  C     -0.461290    2.234690   -4.989620
  C      0.848880    2.667970   -4.302350
  C     -0.423840    2.398770   -6.474320
  N     -0.959470    3.492650   -7.007400
  C      0.145580    1.486890   -7.203990
  H      0.565370    0.696810   -6.723860
  H      0.220680    1.581770   -8.207520
  H     -1.406240    4.181510   -6.403260
  H     -0.934210    3.681600   -7.999470
  H     -1.288880    2.826740   -4.595000
  H     -0.651700    1.186340   -4.756550
  H      1.662080    2.088940   -4.687500
  H      0.767160    2.510420   -3.247170
  H      1.026770    3.705270   -4.495370

 Total Charge           Charge          ....    0
 Multiplicity           Mult            ....    1
 Number of Electrons    NEL             ....   40
 Basis Dimension        Dim             ....  266

ORBITAL ENERGIES
----------------

  NO   OCC          E(Eh)            E(eV)
   0   2.0000     -14.169595      -385.5743
   1   2.0000     -10.088026      -274.5091
   2   2.0000     -10.067508      -273.9508
   3   2.0000     -10.051355      -273.5113
   4   2.0000      -9.998262      -272.0665
   5   2.0000      -1.026482       -27.9320
   6   2.0000      -0.889343       -24.2003
   7   2.0000      -0.824948       -22.4480
   8   2.0000      -0.745844       -20.2954
   9   2.0000      -0.670388       -18.2422
  10   2.0000      -0.625119       -17.0104
  11   2.0000      -0.589264       -16.0347
  12   2.0000      -0.544679       -14.8215
  13   2.0000      -0.519330       -14.1317
  14   2.0000      -0.495088       -13.4720
  15   2.0000      -0.485012       -13.1979
  16   2.0000      -0.448270       -12.1980
  17   2.0000      -0.435707       -11.8562
  18   2.0000      -0.430878       -11.7248
  19   2.0000      -0.287668        -7.8279
  20   0.0000       0.051342         1.3971
  21   0.0000       0.075709         2.0602
  22   0.0000       0.080095         2.1795
  23   0.0000       0.084736         2.3058
  24   0.0000       0.112809         3.0697

MULLIKEN ATOMIC CHARGES
-----------------------
   0 C :   -0.979481
   1 C :   -1.139165
   2 C :    0.734320
   3 N :   -0.364227
   4 C :   -1.148126
   5 H :    0.316299
   6 H :    0.356231
   7 H :    0.181019
   8 H :    0.156023
   9 H :    0.414202
  10 H :    0.361643
  11 H :    0.369078
  12 H :    0.385863
  13 H :    0.356321
Sum of atomic charges:   -0.0000000

LOEWDIN ATOMIC CHARGES
----------------------
   0 C :   -0.214908
   1 C :   -0.100436
   2 C :   -0.511480
   3 N :    0.105261
   4 C :    0.008657
   5 H :    0.034460
   6 H :    0.029086
   7 H :    0.105148
   8 H :    0.107348
   9 H :    0.109968
  10 H :    0.117453
  11 H :    0.071031
  12 H :    0.066474
  13 H :    0.071939

  Mayer bond orders larger than 0.100000
B(  0-C ,  1-C ) :   0.5161 B(  0-C ,  2-C ) :   0.4841 B(  0-C ,  3-N ) :   0.1055
B(  0-C ,  4-C ) :   0.1604 B(  0-C ,  9-H ) :   0.9518 B(  0-C , 10-H ) :   0.9710
B(  1-C , 11-H ) :   0.9402 B(  1-C , 12-H ) :   0.9123 B(  1-C , 13-H ) :   0.9375
B(  2-C ,  3-N ) :   0.7907 B(  2-C ,  4-C ) :   1.1055 B(  2-C ,  6-H ) :  -0.1387
B(  2-C ,  9-H ) :  -0.1083 B(  3-N ,  4-C ) :   0.1348 B(  3-N ,  7-H ) :   1.0262
B(  3-N ,  8-H ) :   1.0520 B(  4-C ,  5-H ) :   0.9784 B(  4-C ,  6-H ) :   1.0049

FINAL SINGLE POINT ENERGY      -212.043556196012

DIPOLE MOMENT
-------------
                                X             Y             Z
Electronic contribution:     -1.69344       0.56420      -2.40163
Nuclear contribution   :      1.40335       0.04939       2.56207
                        -----------------------------------------
Total Dipole Moment    :     -0.29009       0.61359       0.16045
                        -----------------------------------------
Magnitude (a.u.)       :      0.69742
Magnitude (Debye)      :      1.77270

Rotational constants in cm-1:     0.271383     0.128194     0.101873
Rotational constants in MHz :  8135.853259  3843.152748  3054.074278

                             ****ORCA TERMINATED NORMALLY****
TOTAL RUN TIME: 0 days 0 hours 0 minutes 51 seconds 921 msec
