                         Program Version 5.0.0 -  RELEASE  -
|  1> !LC-BLYP RIJCOSX def2-TZVPD def2/J TightSCF
|  2> *xyz 0 1
|  3> C          0.84888        2.66797       -4.30235
|  4> C          2.09343        1.86104       -4.65684
|  5> H          2.44481        2.04157       -5.67499
|  6> H          2.90175        2.13786       -3.98034
|  7> S          1.87964        0.07859       -4.46297
|  8> O          3.20757       -0.46611       -4.42026
|  9> O          1.07506       -0.05616       -3.26876
| 10> F          1.13166       -0.31996       -5.67903
| 11> H          0.05064        2.40112       -4.96303
| 12> H          1.06043        3.71210       -4.40203
| 13> H          0.56237        2.45684       -3.29327
| 14> *
| 15>
| 16> %MaxCore 64000
| 17>
| 18> %pal nprocs 4
| 19> end
| 20>
| 21> %scf
| 22>   MaxIter 150
| 23> end
| 24>
| 25>
| 26>                          ****END OF INPUT****

CARTESIAN COORDINATES (ANGSTROEM)
---------------------------------
  C      0.848880    2.667970   -4.302350
  C      2.093430    1.861040   -4.656840
  H      2.444810    2.041570   -5.674990
  H      2.901750    2.137860   -3.980340
  S      1.879640    0.078590   -4.462970
  O      3.207570   -0.466110   -4.420260
  O      1.075060   -0.056160   -3.268760
  F      1.131660   -0.319960   -5.679030
  H      0.050640    2.401120   -4.963030
  H      1.060430    3.712100   -4.402030
  H      0.562370    2.456840   -3.293270

 Total Charge           Charge          ....    0
 Multiplicity           Mult            ....    1
 Number of Electrons    NEL             ....   58
 Basis Dimension        Dim             ....  285

ORBITAL ENERGIES
----------------

  NO   OCC          E(Eh)            E(eV)
   0   2.0000     -88.518007     -2408.6974
   1   2.0000     -24.558066      -668.2589
   2   2.0000     -18.957560      -515.8614
   3   2.0000     -18.954080      -515.7667
   4   2.0000     -10.128604      -275.6133
   5   2.0000     -10.084618      -274.4164
   6   2.0000      -8.060872      -219.3475
   7   2.0000      -6.092725      -165.7915
   8   2.0000      -6.085866      -165.6048
   9   2.0000      -6.085282      -165.5889
  10   2.0000      -1.435392       -39.0590
  11   2.0000      -1.214113       -33.0377
  12   2.0000      -1.121772       -30.5250
  13   2.0000      -0.932129       -25.3645
  14   2.0000      -0.828493       -22.5444
  15   2.0000      -0.778109       -21.1734
  16   2.0000      -0.687155       -18.6984
  17   2.0000      -0.669833       -18.2271
  18   2.0000      -0.653300       -17.7772
  19   2.0000      -0.601904       -16.3786
  20   2.0000      -0.584161       -15.8958
  21   2.0000      -0.560630       -15.2555
  22   2.0000      -0.536072       -14.5873
  23   2.0000      -0.509732       -13.8705
  24   2.0000      -0.504186       -13.7196
  25   2.0000      -0.482830       -13.1385
  26   2.0000      -0.444452       -12.0941
  27   2.0000      -0.433176       -11.7873
  28   2.0000      -0.424798       -11.5594
  29   0.0000       0.035656         0.9702
  30   0.0000       0.052154         1.4192
  31   0.0000       0.056685         1.5425
  32   0.0000       0.059022         1.6061
  33   0.0000       0.087716         2.3869

MULLIKEN ATOMIC CHARGES
-----------------------
   0 C :   -1.266035
   1 C :   -0.727602
   2 H :    0.452290
   3 H :    0.422488
   4 S :    1.064894
   5 O :   -0.508187
   6 O :   -0.523004
   7 F :   -0.142877
   8 H :    0.384364
   9 H :    0.430197
  10 H :    0.413472
Sum of atomic charges:   -0.0000000

LOEWDIN ATOMIC CHARGES
----------------------
   0 C :   -0.129033
   1 C :   -0.289676
   2 H :    0.107706
   3 H :    0.112046
   4 S :    0.550617
   5 O :   -0.256331
   6 O :   -0.260041
   7 F :   -0.065970
   8 H :    0.077993
   9 H :    0.078595
  10 H :    0.074095

  Mayer bond orders larger than 0.100000
B(  0-C ,  1-C ) :   0.4803 B(  0-C ,  8-H ) :   0.9034 B(  0-C ,  9-H ) :   0.8731
B(  0-C , 10-H ) :   0.9176 B(  1-C ,  2-H ) :   0.8294 B(  1-C ,  3-H ) :   0.8631
B(  1-C ,  4-S ) :   0.9403 B(  4-S ,  5-O ) :   1.7218 B(  4-S ,  6-O ) :   1.7026
B(  4-S ,  7-F ) :   0.9860

FINAL SINGLE POINT ENERGY      -727.003286067800

DIPOLE MOMENT
-------------
                                X             Y             Z
Electronic contribution:      0.64542      -9.05638      -2.05579
Nuclear contribution   :     -0.92438      10.38956       1.27076
                        -----------------------------------------
Total Dipole Moment    :     -0.27896       1.33318      -0.78503
                        -----------------------------------------
Magnitude (a.u.)       :      1.57209
Magnitude (Debye)      :      3.99594

Rotational constants in cm-1:     0.154243     0.082247     0.080562
Rotational constants in MHz :  4624.087322  2465.703680  2415.175852

                             ****ORCA TERMINATED NORMALLY****
TOTAL RUN TIME: 0 days 0 hours 0 minutes 53 seconds 508 msec
