                         Program Version 5.0.0 -  RELEASE  -
|  1> !LC-BLYP RIJCOSX def2-TZVPD def2/J TightSCF xyzfile
|  2>
|  3> *xyzfile 0 1 D1.xyz
|  4>
|  5> %MaxCore 64000
|  6>
|  7> %pal nprocs 4
|  8> end
|  9>
| 10> %scf
| 11>   MaxIter 150
| 12> end
| 13>
| 14>
| 15>                          ****END OF INPUT****

CARTESIAN COORDINATES (ANGSTROEM)
---------------------------------
  C     -0.461293    2.234686   -4.989619
  C      0.848883    2.667967   -4.302351
  C      2.093434    1.861037   -4.656845
  H      2.444814    2.041567   -5.674990
  H      2.901748    2.137864   -3.980338
  S      1.879644    0.078594   -4.462965
  C     -0.423841    2.398772   -6.474317
  C     -0.959467    3.492647   -7.007401
  N      0.145585    1.486891   -7.203987
  H      0.565371    0.696807   -6.723858
  H      0.220682    1.581768   -8.207520
  H     -1.406243    4.181507   -6.403261
  H     -0.934215    3.681601   -7.999468
  F      3.207574   -0.466111   -4.420259
  O      1.075064   -0.056160   -3.268758
  O      1.131661   -0.319960   -5.679031
  H      0.668432    2.559427   -3.232850
  H      1.034074    3.729426   -4.497081
  H     -1.288884    2.826737   -4.594997
  H     -0.651696    1.186343   -4.756552

 Total Charge           Charge          ....    0
 Multiplicity           Mult            ....    1
 Number of Electrons    NEL             ....   88
 Basis Dimension        Dim             ....  478

ORBITAL ENERGIES
----------------

  NO   OCC          E(Eh)            E(eV)
   0   2.0000     -88.540245     -2409.3026
   1   2.0000     -24.597525      -669.3327
   2   2.0000     -18.971251      -516.2340
   3   2.0000     -18.967093      -516.1208
   4   2.0000     -14.143994      -384.8777
   5   2.0000     -10.136108      -275.8175
   6   2.0000     -10.097263      -274.7605
   7   2.0000     -10.083923      -274.3975
   8   2.0000     -10.070086      -274.0210
   9   2.0000      -9.992472      -271.9090
  10   2.0000      -8.083234      -219.9560
  11   2.0000      -6.114727      -166.3902
  12   2.0000      -6.108268      -166.2144
  13   2.0000      -6.107779      -166.2011
  14   2.0000      -1.489147       -40.5217
  15   2.0000      -1.224404       -33.3177
  16   2.0000      -1.127626       -30.6843
  17   2.0000      -1.023164       -27.8417
  18   2.0000      -0.946206       -25.7476
  19   2.0000      -0.879200       -23.9243
  20   2.0000      -0.845725       -23.0134
  21   2.0000      -0.802246       -21.8302
  22   2.0000      -0.756669       -20.5900
  23   2.0000      -0.716601       -19.4997
  24   2.0000      -0.705849       -19.2071
  25   2.0000      -0.686105       -18.6699
  26   2.0000      -0.663641       -18.0586
  27   2.0000      -0.633101       -17.2276
  28   2.0000      -0.611394       -16.6369
  29   2.0000      -0.597085       -16.2475
  30   2.0000      -0.579692       -15.7742
  31   2.0000      -0.559637       -15.2285
  32   2.0000      -0.551768       -15.0144
  33   2.0000      -0.520010       -14.1502
  34   2.0000      -0.501024       -13.6335
  35   2.0000      -0.497278       -13.5316
  36   2.0000      -0.482311       -13.1243
  37   2.0000      -0.463845       -12.6219
  38   2.0000      -0.454023       -12.3546
  39   2.0000      -0.446558       -12.1515
  40   2.0000      -0.432550       -11.7703
  41   2.0000      -0.427553       -11.6343
  42   2.0000      -0.419692       -11.4204
  43   2.0000      -0.272977        -7.4281
  44   0.0000       0.025066         0.6821
  45   0.0000       0.046001         1.2517
  46   0.0000       0.048346         1.3156
  47   0.0000       0.058642         1.5957
  48   0.0000       0.077778         2.1164

MULLIKEN ATOMIC CHARGES
-----------------------
   0 C :   -1.200468
   1 C :   -0.659614
   2 C :   -1.074699
   3 H :    0.502023
   4 H :    0.496619
   5 S :    1.136464
   6 C :    0.599122
   7 C :   -1.158291
   8 N :   -0.294395
   9 H :    0.317664
  10 H :    0.112744
  11 H :    0.299141
  12 H :    0.348510
  13 F :   -0.067156
  14 O :   -0.527651
  15 O :   -0.648114
  16 H :    0.429267
  17 H :    0.427762
  18 H :    0.454547
  19 H :    0.506524
Sum of atomic charges:    0.0000000

LOEWDIN ATOMIC CHARGES
----------------------
   0 C :   -0.155987
   1 C :   -0.206152
   2 C :   -0.229618
   3 H :    0.115506
   4 H :    0.108889
   5 S :    0.605733
   6 C :   -0.497284
   7 C :    0.011837
   8 N :    0.122042
   9 H :    0.016715
  10 H :    0.122966
  11 H :    0.021372
  12 H :    0.018216
  13 F :   -0.017359
  14 O :   -0.238035
  15 O :   -0.286795
  16 H :    0.115794
  17 H :    0.132996
  18 H :    0.127500
  19 H :    0.111666

  Mayer bond orders larger than 0.100000
B(  0-C ,  1-C ) :   0.5650 B(  0-C ,  6-C ) :   0.5992 B(  0-C ,  7-C ) :   0.2211
B(  0-C , 18-H ) :   0.8968 B(  0-C , 19-H ) :   0.8807 B(  1-C ,  2-C ) :   0.6553
B(  1-C , 16-H ) :   0.8525 B(  1-C , 17-H ) :   0.8617 B(  2-C ,  3-H ) :   0.7853
B(  2-C ,  4-H ) :   0.7929 B(  2-C ,  5-S ) :   0.9298 B(  2-C ,  8-N ) :   0.1335
B(  5-S , 13-F ) :   1.0067 B(  5-S , 14-O ) :   1.7298 B(  5-S , 15-O ) :   1.5532
B(  6-C ,  7-C ) :   1.1266 B(  6-C ,  8-N ) :   0.8223 B(  6-C , 12-H ) :  -0.1095
B(  7-C ,  8-N ) :   0.1441 B(  7-C , 11-H ) :   1.0438 B(  7-C , 12-H ) :   0.9929
B(  8-N ,  9-H ) :   0.8537 B(  8-N , 10-H ) :   1.0800

FINAL SINGLE POINT ENERGY      -898.644379106807

DIPOLE MOMENT
-------------
                                X             Y             Z
Electronic contribution:     10.17302     -13.91057       5.47725
Nuclear contribution   :     -8.53047      14.15581      -5.17613
                        -----------------------------------------
Total Dipole Moment    :      1.64255       0.24524       0.30112
                        -----------------------------------------
Magnitude (a.u.)       :      1.68783
Magnitude (Debye)      :      4.29012

Rotational constants in cm-1:     0.081196     0.024861     0.022477
Rotational constants in MHz :  2434.181666   745.320670   673.846846

                             ****ORCA TERMINATED NORMALLY****
TOTAL RUN TIME: 0 days 0 hours 2 minutes 58 seconds 669 msec
