                         Program Version 5.0.0 -  RELEASE  -
|  1> !LC-BLYP RIJCOSX def2-TZVPD def2/J TightSCF xyzfile
|  2>
|  3> *xyzfile 0 1 D2.xyz
|  4>
|  5> %MaxCore 64000
|  6>
|  7> %pal nprocs 4
|  8> end
|  9>
| 10> %scf
| 11>   MaxIter 150
| 12> end
| 13>
| 14>
| 15>                          ****END OF INPUT****

CARTESIAN COORDINATES (ANGSTROEM)
---------------------------------
  C     -0.461293    2.234686   -4.989619
  C      0.848883    2.667967   -4.302351
  C      2.093434    1.861037   -4.656845
  H      2.444814    2.041567   -5.674990
  H      2.901748    2.137864   -3.980338
  S      1.879644    0.078594   -4.462965
  C     -0.423841    2.398772   -6.474317
  N     -0.959467    3.492647   -7.007401
  C      0.145585    1.486891   -7.203987
  H      0.565371    0.696807   -6.723858
  H      0.220682    1.581768   -8.207520
  H     -1.406243    4.181507   -6.403261
  H     -0.934215    3.681601   -7.999468
  F      3.207574   -0.466111   -4.420259
  O      1.075064   -0.056160   -3.268758
  O      1.131661   -0.319960   -5.679031
  H      0.668432    2.559427   -3.232850
  H      1.034074    3.729426   -4.497081
  H     -1.288884    2.826737   -4.594997
  H     -0.651696    1.186343   -4.756552

 Total Charge           Charge          ....    0
 Multiplicity           Mult            ....    1
 Number of Electrons    NEL             ....   88
 Basis Dimension        Dim             ....  478

ORBITAL ENERGIES
----------------

  NO   OCC          E(Eh)            E(eV)
   0   2.0000     -88.522607     -2408.8226
   1   2.0000     -24.582406      -668.9213
   2   2.0000     -18.956196      -515.8243
   3   2.0000     -18.944416      -515.5038
   4   2.0000     -14.163895      -385.4192
   5   2.0000     -10.125214      -275.5211
   6   2.0000     -10.094747      -274.6920
   7   2.0000     -10.079474      -274.2764
   8   2.0000     -10.070036      -274.0196
   9   2.0000      -9.976079      -271.4629
  10   2.0000      -8.065664      -219.4779
  11   2.0000      -6.097270      -165.9152
  12   2.0000      -6.090572      -165.7329
  13   2.0000      -6.090221      -165.7233
  14   2.0000      -1.474106       -40.1125
  15   2.0000      -1.207022       -32.8447
  16   2.0000      -1.108110       -30.1532
  17   2.0000      -1.021598       -27.7991
  18   2.0000      -0.939232       -25.5578
  19   2.0000      -0.876422       -23.8487
  20   2.0000      -0.831122       -22.6160
  21   2.0000      -0.809526       -22.0283
  22   2.0000      -0.748081       -20.3563
  23   2.0000      -0.701827       -19.0977
  24   2.0000      -0.695128       -18.9154
  25   2.0000      -0.668357       -18.1869
  26   2.0000      -0.667362       -18.1598
  27   2.0000      -0.618602       -16.8330
  28   2.0000      -0.603780       -16.4297
  29   2.0000      -0.593391       -16.1470
  30   2.0000      -0.578362       -15.7380
  31   2.0000      -0.559822       -15.2335
  32   2.0000      -0.544396       -14.8138
  33   2.0000      -0.511000       -13.9050
  34   2.0000      -0.501708       -13.6522
  35   2.0000      -0.492424       -13.3995
  36   2.0000      -0.474754       -12.9187
  37   2.0000      -0.459951       -12.5159
  38   2.0000      -0.440668       -11.9912
  39   2.0000      -0.436973       -11.8906
  40   2.0000      -0.422274       -11.4906
  41   2.0000      -0.416864       -11.3435
  42   2.0000      -0.392595       -10.6831
  43   2.0000      -0.279337        -7.6011
  44   0.0000       0.032186         0.8758
  45   0.0000       0.047834         1.3016
  46   0.0000       0.054512         1.4834
  47   0.0000       0.057875         1.5749
  48   0.0000       0.079755         2.1702

MULLIKEN ATOMIC CHARGES
-----------------------
   0 C :   -1.218498
   1 C :   -0.673997
   2 C :   -1.079031
   3 H :    0.542292
   4 H :    0.489486
   5 S :    1.088002
   6 C :    0.740902
   7 N :   -0.366506
   8 C :   -1.265460
   9 H :    0.473328
  10 H :    0.301113
  11 H :    0.177730
  12 H :    0.164013
  13 F :   -0.074567
  14 O :   -0.540494
  15 O :   -0.556930
  16 H :    0.436131
  17 H :    0.405541
  18 H :    0.507980
  19 H :    0.448966
Sum of atomic charges:   -0.0000000

LOEWDIN ATOMIC CHARGES
----------------------
   0 C :   -0.153392
   1 C :   -0.208413
   2 C :   -0.229963
   3 H :    0.114330
   4 H :    0.107381
   5 S :    0.597625
   6 C :   -0.481822
   7 N :    0.101758
   8 C :    0.021225
   9 H :   -0.038423
  10 H :    0.042175
  11 H :    0.101869
  12 H :    0.106177
  13 F :   -0.022730
  14 O :   -0.247950
  15 O :   -0.291750
  16 H :    0.114898
  17 H :    0.129923
  18 H :    0.122549
  19 H :    0.114533

  Mayer bond orders larger than 0.100000
B(  0-C ,  1-C ) :   0.6192 B(  0-C ,  6-C ) :   0.4006 B(  0-C ,  7-N ) :   0.1566
B(  0-C ,  8-C ) :   0.1147 B(  0-C , 18-H ) :   0.8403 B(  0-C , 19-H ) :   0.9641
B(  1-C ,  2-C ) :   0.6714 B(  1-C , 16-H ) :   0.8400 B(  1-C , 17-H ) :   0.8770
B(  2-C ,  3-H ) :   0.7889 B(  2-C ,  4-H ) :   0.8024 B(  2-C ,  5-S ) :   0.9105
B(  2-C ,  8-C ) :   0.1346 B(  2-C , 15-O ) :   0.1062 B(  5-S , 13-F ) :   0.9980
B(  5-S , 14-O ) :   1.7145 B(  5-S , 15-O ) :   1.6268 B(  6-C ,  7-N ) :   0.7307
B(  6-C ,  8-C ) :   0.8840 B(  6-C , 10-H ) :  -0.1793 B(  6-C , 18-H ) :  -0.1082
B(  7-N ,  8-C ) :   0.1193 B(  7-N , 11-H ) :   1.0364 B(  7-N , 12-H ) :   1.0432
B(  8-C ,  9-H ) :   0.9126 B(  8-C , 10-H ) :   1.1762 B(  9-H , 15-O ) :  -0.2948

FINAL SINGLE POINT ENERGY      -898.625416930252

DIPOLE MOMENT
-------------
                                X             Y             Z
Electronic contribution:      9.27880     -12.45564       5.40916
Nuclear contribution   :     -8.42493      13.96425      -5.19491
                        -----------------------------------------
Total Dipole Moment    :      0.85387       1.50861       0.21425
                        -----------------------------------------
Magnitude (a.u.)       :      1.74668
Magnitude (Debye)      :      4.43971

Rotational constants in cm-1:     0.082815     0.024151     0.022015
Rotational constants in MHz :  2482.732265   724.035221   660.002136

                             ****ORCA TERMINATED NORMALLY****
TOTAL RUN TIME: 0 days 0 hours 3 minutes 13 seconds 868 msec
