                         Program Version 5.0.0 -  RELEASE  -
|  1> !LC-BLYP RIJCOSX def2-TZVPD def2/J TightSCF xyzfile
|  2>
|  3> *xyzfile 0 1 D3.xyz
|  4>
|  5> %MaxCore 64000
|  6>
|  7> %pal nprocs 4
|  8> end
|  9>
| 10> %scf
| 11>   MaxIter 150
| 12> end
| 13>
| 14>
| 15>                          ****END OF INPUT****

CARTESIAN COORDINATES (ANGSTROEM)
---------------------------------
  C     -0.461293    2.234686   -4.989619
  C      0.848883    2.667967   -4.302351
  C      2.093434    1.861037   -4.656845
  H      2.444814    2.041567   -5.674990
  H      2.901748    2.137864   -3.980338
  S      1.879644    0.078594   -4.462965
  C     -0.423841    2.398772   -6.474317
  C     -0.959467    3.492647   -7.007401
  N      0.145585    1.486891   -7.203987
  H      0.565371    0.696807   -6.723858
  H      0.220682    1.581768   -8.207520
  H     -1.406243    4.181507   -6.403261
  H     -0.934215    3.681601   -7.999468
  O      3.207574   -0.466111   -4.420259
  F      1.075064   -0.056160   -3.268758
  O      1.131661   -0.319960   -5.679031
  H      0.668432    2.559427   -3.232850
  H      1.034074    3.729426   -4.497081
  H     -1.288884    2.826737   -4.594997
  H     -0.651696    1.186343   -4.756552

 Total Charge           Charge          ....    0
 Multiplicity           Mult            ....    1
 Number of Electrons    NEL             ....   88
 Basis Dimension        Dim             ....  478

ORBITAL ENERGIES
----------------

  NO   OCC          E(Eh)            E(eV)
   0   2.0000     -88.539191     -2409.2739
   1   2.0000     -24.591652      -669.1729
   2   2.0000     -18.974010      -516.3091
   3   2.0000     -18.965736      -516.0839
   4   2.0000     -14.146702      -384.9513
   5   2.0000     -10.135544      -275.8022
   6   2.0000     -10.103189      -274.9217
   7   2.0000     -10.089577      -274.5513
   8   2.0000     -10.080938      -274.3163
   9   2.0000      -9.997298      -272.0403
  10   2.0000      -8.082139      -219.9262
  11   2.0000      -6.113910      -166.3680
  12   2.0000      -6.107237      -166.1864
  13   2.0000      -6.106397      -166.1635
  14   2.0000      -1.480397       -40.2837
  15   2.0000      -1.226523       -33.3754
  16   2.0000      -1.130605       -30.7653
  17   2.0000      -1.027015       -27.9465
  18   2.0000      -0.952367       -25.9152
  19   2.0000      -0.878404       -23.9026
  20   2.0000      -0.844515       -22.9804
  21   2.0000      -0.807227       -21.9658
  22   2.0000      -0.758120       -20.6295
  23   2.0000      -0.716421       -19.4948
  24   2.0000      -0.711421       -19.3587
  25   2.0000      -0.680619       -18.5206
  26   2.0000      -0.669286       -18.2122
  27   2.0000      -0.626890       -17.0586
  28   2.0000      -0.609427       -16.5833
  29   2.0000      -0.600447       -16.3390
  30   2.0000      -0.580295       -15.7906
  31   2.0000      -0.564408       -15.3583
  32   2.0000      -0.557297       -15.1648
  33   2.0000      -0.527639       -14.3578
  34   2.0000      -0.509941       -13.8762
  35   2.0000      -0.503274       -13.6948
  36   2.0000      -0.485056       -13.1991
  37   2.0000      -0.479890       -13.0585
  38   2.0000      -0.450039       -12.2462
  39   2.0000      -0.447058       -12.1651
  40   2.0000      -0.440355       -11.9827
  41   2.0000      -0.431479       -11.7411
  42   2.0000      -0.421353       -11.4656
  43   2.0000      -0.277005        -7.5377
  44   0.0000       0.028830         0.7845
  45   0.0000       0.045300         1.2327
  46   0.0000       0.050771         1.3815
  47   0.0000       0.056929         1.5491
  48   0.0000       0.077337         2.1044

MULLIKEN ATOMIC CHARGES
-----------------------
   0 C :   -1.079445
   1 C :   -0.653731
   2 C :   -1.004492
   3 H :    0.475080
   4 H :    0.463407
   5 S :    1.148417
   6 C :    0.565426
   7 C :   -1.164329
   8 N :   -0.294173
   9 H :    0.333485
  10 H :    0.111909
  11 H :    0.297801
  12 H :    0.351448
  13 O :   -0.514352
  14 F :   -0.118459
  15 O :   -0.643719
  16 H :    0.414359
  17 H :    0.426502
  18 H :    0.437827
  19 H :    0.447038
Sum of atomic charges:    0.0000000

LOEWDIN ATOMIC CHARGES
----------------------
   0 C :   -0.161924
   1 C :   -0.215593
   2 C :   -0.220085
   3 H :    0.124725
   4 H :    0.111757
   5 S :    0.601271
   6 C :   -0.497220
   7 C :    0.013806
   8 N :    0.123743
   9 H :    0.017895
  10 H :    0.124295
  11 H :    0.021870
  12 H :    0.019730
  13 O :   -0.236788
  14 F :   -0.020380
  15 O :   -0.285789
  16 H :    0.112297
  17 H :    0.131988
  18 H :    0.126720
  19 H :    0.107681

  Mayer bond orders larger than 0.100000
B(  0-C ,  1-C ) :   0.5001 B(  0-C ,  6-C ) :   0.6486 B(  0-C ,  7-C ) :   0.2165
B(  0-C , 18-H ) :   0.9400 B(  0-C , 19-H ) :   0.8785 B(  1-C ,  2-C ) :   0.5710
B(  1-C , 16-H ) :   0.8879 B(  1-C , 17-H ) :   0.8512 B(  2-C ,  3-H ) :   0.8128
B(  2-C ,  4-H ) :   0.8851 B(  2-C ,  5-S ) :   0.9328 B(  2-C ,  8-N ) :   0.1316
B(  5-S , 13-O ) :   1.6830 B(  5-S , 14-F ) :   1.0277 B(  5-S , 15-O ) :   1.5512
B(  6-C ,  7-C ) :   1.1301 B(  6-C ,  8-N ) :   0.8348 B(  6-C , 12-H ) :  -0.1109
B(  7-C ,  8-N ) :   0.1476 B(  7-C , 11-H ) :   1.0481 B(  7-C , 12-H ) :   0.9869
B(  8-N ,  9-H ) :   0.8408 B(  8-N , 10-H ) :   1.0765

FINAL SINGLE POINT ENERGY      -898.648561651078

DIPOLE MOMENT
-------------
                                X             Y             Z
Electronic contribution:      6.46441     -13.13722       7.39681
Nuclear contribution   :     -6.19944      13.70770      -6.43483
                        -----------------------------------------
Total Dipole Moment    :      0.26497       0.57047       0.96198
                        -----------------------------------------
Magnitude (a.u.)       :      1.14937
Magnitude (Debye)      :      2.92147

Rotational constants in cm-1:     0.079903     0.025241     0.022805
Rotational constants in MHz :  2395.439281   756.708181   683.680583

                             ****ORCA TERMINATED NORMALLY****
TOTAL RUN TIME: 0 days 0 hours 2 minutes 59 seconds 61 msec
