                         Program Version 5.0.0 -  RELEASE  -
|  1> !LC-BLYP RIJCOSX def2-TZVPD def2/J TightSCF xyzfile
|  2>
|  3> *xyzfile 0 1 D4.xyz
|  4>
|  5> %MaxCore 64000
|  6>
|  7> %pal nprocs 4
|  8> end
|  9>
| 10> %scf
| 11>   MaxIter 150
| 12> end
| 13>
| 14>
| 15>                          ****END OF INPUT****

CARTESIAN COORDINATES (ANGSTROEM)
---------------------------------
  C     -0.461293    2.234686   -4.989619
  C      0.848883    2.667967   -4.302351
  C      2.093434    1.861037   -4.656845
  H      2.444814    2.041567   -5.674990
  H      2.901748    2.137864   -3.980338
  S      1.879644    0.078594   -4.462965
  C     -0.423841    2.398772   -6.474317
  N     -0.959467    3.492647   -7.007401
  C      0.145585    1.486891   -7.203987
  H      0.565371    0.696807   -6.723858
  H      0.220682    1.581768   -8.207520
  H     -1.406243    4.181507   -6.403261
  H     -0.934215    3.681601   -7.999468
  O      3.207574   -0.466111   -4.420259
  F      1.075064   -0.056160   -3.268758
  O      1.131661   -0.319960   -5.679031
  H      0.668432    2.559427   -3.232850
  H      1.034074    3.729426   -4.497081
  H     -1.288884    2.826737   -4.594997
  H     -0.651696    1.186343   -4.756552

 Total Charge           Charge          ....    0
 Multiplicity           Mult            ....    1
 Number of Electrons    NEL             ....   88
 Basis Dimension        Dim             ....  478

ORBITAL ENERGIES
----------------

  NO   OCC          E(Eh)            E(eV)
   0   2.0000     -88.521385     -2408.7893
   1   2.0000     -24.577608      -668.7907
   2   2.0000     -18.958147      -515.8774
   3   2.0000     -18.943057      -515.4668
   4   2.0000     -14.167798      -385.5254
   5   2.0000     -10.124741      -275.5082
   6   2.0000     -10.100744      -274.8552
   7   2.0000     -10.084390      -274.4102
   8   2.0000     -10.080800      -274.3125
   9   2.0000      -9.979894      -271.5667
  10   2.0000      -8.064425      -219.4442
  11   2.0000      -6.096350      -165.8901
  12   2.0000      -6.089205      -165.6957
  13   2.0000      -6.088832      -165.6855
  14   2.0000      -1.466445       -39.9040
  15   2.0000      -1.208902       -32.8959
  16   2.0000      -1.110531       -30.2191
  17   2.0000      -1.026139       -27.9227
  18   2.0000      -0.946046       -25.7432
  19   2.0000      -0.876246       -23.8439
  20   2.0000      -0.830027       -22.5862
  21   2.0000      -0.813789       -22.1443
  22   2.0000      -0.750080       -20.4107
  23   2.0000      -0.707482       -19.2516
  24   2.0000      -0.696096       -18.9417
  25   2.0000      -0.673698       -18.3323
  26   2.0000      -0.659176       -17.9371
  27   2.0000      -0.621703       -16.9174
  28   2.0000      -0.604558       -16.4509
  29   2.0000      -0.586826       -15.9683
  30   2.0000      -0.583221       -15.8703
  31   2.0000      -0.565237       -15.3809
  32   2.0000      -0.547295       -14.8927
  33   2.0000      -0.517612       -14.0849
  34   2.0000      -0.506210       -13.7747
  35   2.0000      -0.498603       -13.5677
  36   2.0000      -0.480618       -13.0783
  37   2.0000      -0.474445       -12.9103
  38   2.0000      -0.443386       -12.0651
  39   2.0000      -0.435825       -11.8594
  40   2.0000      -0.426682       -11.6106
  41   2.0000      -0.423203       -11.5159
  42   2.0000      -0.389905       -10.6099
  43   2.0000      -0.283324        -7.7096
  44   0.0000       0.033010         0.8982
  45   0.0000       0.048346         1.3156
  46   0.0000       0.053126         1.4456
  47   0.0000       0.058346         1.5877
  48   0.0000       0.076487         2.0813

MULLIKEN ATOMIC CHARGES
-----------------------
   0 C :   -1.106107
   1 C :   -0.655972
   2 C :   -1.006083
   3 H :    0.508800
   4 H :    0.462240
   5 S :    1.092023
   6 C :    0.712740
   7 N :   -0.367695
   8 C :   -1.268585
   9 H :    0.480009
  10 H :    0.308793
  11 H :    0.175918
  12 H :    0.164803
  13 O :   -0.530226
  14 F :   -0.121584
  15 O :   -0.552285
  16 H :    0.418505
  17 H :    0.405115
  18 H :    0.490156
  19 H :    0.389433
Sum of atomic charges:    0.0000000

LOEWDIN ATOMIC CHARGES
----------------------
   0 C :   -0.159271
   1 C :   -0.217532
   2 C :   -0.220459
   3 H :    0.123496
   4 H :    0.110193
   5 S :    0.592631
   6 C :   -0.482199
   7 N :    0.101897
   8 C :    0.025207
   9 H :   -0.037157
  10 H :    0.044087
  11 H :    0.101922
  12 H :    0.107156
  13 O :   -0.244857
  14 F :   -0.027087
  15 O :   -0.290925
  16 H :    0.111501
  17 H :    0.129028
  18 H :    0.121815
  19 H :    0.110555

  Mayer bond orders larger than 0.100000
B(  0-C ,  1-C ) :   0.5547 B(  0-C ,  2-C ) :  -0.1115 B(  0-C ,  6-C ) :   0.4573
B(  0-C ,  7-N ) :   0.1561 B(  0-C ,  8-C ) :   0.1295 B(  0-C , 18-H ) :   0.8881
B(  0-C , 19-H ) :   0.9555 B(  1-C ,  2-C ) :   0.5748 B(  1-C , 16-H ) :   0.8713
B(  1-C , 17-H ) :   0.8696 B(  2-C ,  3-H ) :   0.8205 B(  2-C ,  4-H ) :   0.8854
B(  2-C ,  5-S ) :   0.9159 B(  2-C ,  8-C ) :   0.1336 B(  5-S , 13-O ) :   1.6712
B(  5-S , 14-F ) :   1.0178 B(  5-S , 15-O ) :   1.6226 B(  6-C ,  7-N ) :   0.7296
B(  6-C ,  8-C ) :   0.8742 B(  6-C , 10-H ) :  -0.1834 B(  6-C , 18-H ) :  -0.1141
B(  7-N ,  8-C ) :   0.1211 B(  7-N , 11-H ) :   1.0374 B(  7-N , 12-H ) :   1.0421
B(  8-C ,  9-H ) :   0.9214 B(  8-C , 10-H ) :   1.1688 B(  9-H , 15-O ) :  -0.3072

FINAL SINGLE POINT ENERGY      -898.628562686998

DIPOLE MOMENT
-------------
                                X             Y             Z
Electronic contribution:      5.56176     -11.69345       7.33670
Nuclear contribution   :     -6.09390      13.51614      -6.45360
                        -----------------------------------------
Total Dipole Moment    :     -0.53214       1.82269       0.88310
                        -----------------------------------------
Magnitude (a.u.)       :      2.09409
Magnitude (Debye)      :      5.32275

Rotational constants in cm-1:     0.081469     0.024519     0.022336
Rotational constants in MHz :  2442.393231   735.066768   669.628729

                             ****ORCA TERMINATED NORMALLY****
TOTAL RUN TIME: 0 days 0 hours 3 minutes 18 seconds 379 msec
