                         Program Version 5.0.0 -  RELEASE  -
|  1> !LC-BLYP RIJCOSX def2-TZVPD def2/J TightSCF xyzfile
|  2>
|  3> *xyzfile 0 1 D5.xyz
|  4>
|  5> %MaxCore 64000
|  6>
|  7> %pal nprocs 4
|  8> end
|  9>
| 10> %scf
| 11>   MaxIter 150
| 12> end
| 13>
| 14>
| 15>                          ****END OF INPUT****

CARTESIAN COORDINATES (ANGSTROEM)
---------------------------------
  C     -0.461293    2.234686   -4.989619
  C      0.848883    2.667967   -4.302351
  C      2.093434    1.861037   -4.656845
  H      2.444814    2.041567   -5.674990
  H      2.901748    2.137864   -3.980338
  S      1.879644    0.078594   -4.462965
  C     -0.423841    2.398772   -6.474317
  C     -0.959467    3.492647   -7.007401
  N      0.145585    1.486891   -7.203987
  H      0.565371    0.696807   -6.723858
  H      0.220682    1.581768   -8.207520
  H     -1.406243    4.181507   -6.403261
  H     -0.934215    3.681601   -7.999468
  O      3.207574   -0.466111   -4.420259
  O      1.075064   -0.056160   -3.268758
  F      1.131661   -0.319960   -5.679031
  H      0.668432    2.559427   -3.232850
  H      1.034074    3.729426   -4.497081
  H     -1.288884    2.826737   -4.594997
  H     -0.651696    1.186343   -4.756552

 Total Charge           Charge          ....    0
 Multiplicity           Mult            ....    1
 Number of Electrons    NEL             ....   88
 Basis Dimension        Dim             ....  478

ORBITAL ENERGIES
----------------

  NO   OCC          E(Eh)            E(eV)
   0   2.0000     -88.529935     -2409.0220
   1   2.0000     -24.582590      -668.9263
   2   2.0000     -18.968996      -516.1726
   3   2.0000     -18.965123      -516.0672
   4   2.0000     -14.175074      -385.7234
   5   2.0000     -10.132525      -275.7200
   6   2.0000     -10.101358      -274.8719
   7   2.0000     -10.098008      -274.7808
   8   2.0000     -10.084134      -274.4032
   9   2.0000     -10.009904      -272.3833
  10   2.0000      -8.073290      -219.6854
  11   2.0000      -6.105514      -166.1395
  12   2.0000      -6.097947      -165.9336
  13   2.0000      -6.097445      -165.9199
  14   2.0000      -1.464105       -39.8403
  15   2.0000      -1.227268       -33.3957
  16   2.0000      -1.133065       -30.8323
  17   2.0000      -1.049509       -28.5586
  18   2.0000      -0.948518       -25.8105
  19   2.0000      -0.881558       -23.9884
  20   2.0000      -0.855095       -23.2683
  21   2.0000      -0.808507       -22.0006
  22   2.0000      -0.768654       -20.9161
  23   2.0000      -0.713315       -19.4103
  24   2.0000      -0.697684       -18.9849
  25   2.0000      -0.680644       -18.5213
  26   2.0000      -0.662941       -18.0395
  27   2.0000      -0.642726       -17.4895
  28   2.0000      -0.610061       -16.6006
  29   2.0000      -0.596880       -16.2419
  30   2.0000      -0.580065       -15.7844
  31   2.0000      -0.573139       -15.5959
  32   2.0000      -0.553460       -15.0604
  33   2.0000      -0.530539       -14.4367
  34   2.0000      -0.510605       -13.8943
  35   2.0000      -0.501024       -13.6336
  36   2.0000      -0.491220       -13.3668
  37   2.0000      -0.478946       -13.0328
  38   2.0000      -0.456831       -12.4310
  39   2.0000      -0.452909       -12.3243
  40   2.0000      -0.442517       -12.0415
  41   2.0000      -0.436557       -11.8793
  42   2.0000      -0.431010       -11.7284
  43   2.0000      -0.293069        -7.9748
  44   0.0000       0.035730         0.9723
  45   0.0000       0.045920         1.2495
  46   0.0000       0.050508         1.3744
  47   0.0000       0.056722         1.5435
  48   0.0000       0.078738         2.1426

MULLIKEN ATOMIC CHARGES
-----------------------
   0 C :   -1.206059
   1 C :   -0.594170
   2 C :   -1.050027
   3 H :    0.490140
   4 H :    0.462665
   5 S :    1.084394
   6 C :    0.678918
   7 C :   -1.169964
   8 N :   -0.335967
   9 H :    0.369396
  10 H :    0.108192
  11 H :    0.303688
  12 H :    0.348979
  13 O :   -0.518309
  14 O :   -0.519558
  15 F :   -0.233482
  16 H :    0.446096
  17 H :    0.440374
  18 H :    0.447317
  19 H :    0.447378
Sum of atomic charges:    0.0000000

LOEWDIN ATOMIC CHARGES
----------------------
   0 C :   -0.158241
   1 C :   -0.212686
   2 C :   -0.226717
   3 H :    0.113788
   4 H :    0.118927
   5 S :    0.575418
   6 C :   -0.495786
   7 C :    0.023048
   8 N :    0.124768
   9 H :    0.048172
  10 H :    0.127033
  11 H :    0.027011
  12 H :    0.022193
  13 O :   -0.242050
  14 O :   -0.241708
  15 F :   -0.089160
  16 H :    0.116704
  17 H :    0.131302
  18 H :    0.129236
  19 H :    0.108748

  Mayer bond orders larger than 0.100000
B(  0-C ,  1-C ) :   0.5473 B(  0-C ,  6-C ) :   0.5726 B(  0-C ,  7-C ) :   0.2125
B(  0-C , 18-H ) :   0.8995 B(  0-C , 19-H ) :   0.9309 B(  1-C ,  2-C ) :   0.5724
B(  1-C , 16-H ) :   0.8575 B(  1-C , 17-H ) :   0.8644 B(  2-C ,  3-H ) :   0.8058
B(  2-C ,  4-H ) :   0.8412 B(  2-C ,  5-S ) :   0.9305 B(  2-C ,  8-N ) :   0.1335
B(  5-S , 13-O ) :   1.6663 B(  5-S , 14-O ) :   1.7107 B(  5-S , 15-F ) :   0.9510
B(  6-C ,  7-C ) :   1.0712 B(  6-C ,  8-N ) :   0.7720 B(  6-C , 12-H ) :  -0.1197
B(  7-C ,  8-N ) :   0.1451 B(  7-C , 11-H ) :   1.0354 B(  7-C , 12-H ) :   0.9990
B(  8-N ,  9-H ) :   0.8624 B(  8-N , 10-H ) :   1.0917

FINAL SINGLE POINT ENERGY      -898.652289518877

DIPOLE MOMENT
-------------
                                X             Y             Z
Electronic contribution:      6.41225     -13.39582       3.16524
Nuclear contribution   :     -6.26130      13.99605      -3.80018
                        -----------------------------------------
Total Dipole Moment    :      0.15094       0.60023      -0.63494
                        -----------------------------------------
Magnitude (a.u.)       :      0.88669
Magnitude (Debye)      :      2.25378

Rotational constants in cm-1:     0.079895     0.025630     0.022948
Rotational constants in MHz :  2395.188639   768.373696   687.955250

                             ****ORCA TERMINATED NORMALLY****
TOTAL RUN TIME: 0 days 0 hours 2 minutes 58 seconds 513 msec
