                         Program Version 5.0.0 -  RELEASE  -
|  1> !LC-BLYP RIJCOSX def2-TZVPD def2/J TightSCF xyzfile
|  2>
|  3> *xyzfile 0 1 D6.xyz
|  4>
|  5> %MaxCore 64000
|  6>
|  7> %pal nprocs 4
|  8> end
|  9>
| 10> %scf
| 11>   MaxIter 150
| 12> end
| 13>
| 14>
| 15>                          ****END OF INPUT****

CARTESIAN COORDINATES (ANGSTROEM)
---------------------------------
  C     -0.461293    2.234686   -4.989619
  C      0.848883    2.667967   -4.302351
  C      2.093434    1.861037   -4.656845
  H      2.444814    2.041567   -5.674990
  H      2.901748    2.137864   -3.980338
  S      1.879644    0.078594   -4.462965
  C     -0.423841    2.398772   -6.474317
  N     -0.959467    3.492647   -7.007401
  C      0.145585    1.486891   -7.203987
  H      0.565371    0.696807   -6.723858
  H      0.220682    1.581768   -8.207520
  H     -1.406243    4.181507   -6.403261
  H     -0.934215    3.681601   -7.999468
  O      3.207574   -0.466111   -4.420259
  O      1.075064   -0.056160   -3.268758
  F      1.131661   -0.319960   -5.679031
  H      0.668432    2.559427   -3.232850
  H      1.034074    3.729426   -4.497081
  H     -1.288884    2.826737   -4.594997
  H     -0.651696    1.186343   -4.756552

 Total Charge           Charge          ....    0
 Multiplicity           Mult            ....    1
 Number of Electrons    NEL             ....   88
 Basis Dimension        Dim             ....  478

ORBITAL ENERGIES
----------------

  NO   OCC          E(Eh)            E(eV)
   0   2.0000     -88.516970     -2408.6692
   1   2.0000     -24.557370      -668.2400
   2   2.0000     -18.956129      -515.8225
   3   2.0000     -18.953234      -515.7437
   4   2.0000     -14.180438      -385.8693
   5   2.0000     -10.122377      -275.4439
   6   2.0000     -10.100475      -274.8479
   7   2.0000     -10.096553      -274.7412
   8   2.0000     -10.084520      -274.4137
   9   2.0000     -10.002821      -272.1906
  10   2.0000      -8.060036      -219.3247
  11   2.0000      -6.091971      -165.7710
  12   2.0000      -6.084960      -165.5802
  13   2.0000      -6.084359      -165.5638
  14   2.0000      -1.440680       -39.2029
  15   2.0000      -1.214031       -33.0355
  16   2.0000      -1.121049       -30.5053
  17   2.0000      -1.038643       -28.2629
  18   2.0000      -0.944034       -25.6885
  19   2.0000      -0.880745       -23.9663
  20   2.0000      -0.833751       -22.6875
  21   2.0000      -0.819805       -22.3080
  22   2.0000      -0.749212       -20.3871
  23   2.0000      -0.709544       -19.3077
  24   2.0000      -0.675613       -18.3844
  25   2.0000      -0.663676       -18.0595
  26   2.0000      -0.655472       -17.8363
  27   2.0000      -0.638372       -17.3710
  28   2.0000      -0.607578       -16.5330
  29   2.0000      -0.594596       -16.1798
  30   2.0000      -0.576212       -15.6795
  31   2.0000      -0.561576       -15.2813
  32   2.0000      -0.552897       -15.0451
  33   2.0000      -0.517695       -14.0872
  34   2.0000      -0.507230       -13.8024
  35   2.0000      -0.498819       -13.5736
  36   2.0000      -0.482535       -13.1304
  37   2.0000      -0.474763       -12.9190
  38   2.0000      -0.450196       -12.2504
  39   2.0000      -0.440935       -11.9985
  40   2.0000      -0.438627       -11.9356
  41   2.0000      -0.427215       -11.6251
  42   2.0000      -0.423511       -11.5243
  43   2.0000      -0.299887        -8.1603
  44   0.0000       0.039791         1.0828
  45   0.0000       0.052445         1.4271
  46   0.0000       0.053128         1.4457
  47   0.0000       0.056019         1.5244
  48   0.0000       0.078582         2.1383

MULLIKEN ATOMIC CHARGES
-----------------------
   0 C :   -1.211124
   1 C :   -0.608974
   2 C :   -1.049199
   3 H :    0.523230
   4 H :    0.461869
   5 S :    1.059886
   6 C :    0.781345
   7 N :   -0.361245
   8 C :   -1.374510
   9 H :    0.564027
  10 H :    0.312852
  11 H :    0.184034
  12 H :    0.167187
  13 O :   -0.532209
  14 O :   -0.526978
  15 F :   -0.154396
  16 H :    0.454113
  17 H :    0.414335
  18 H :    0.500423
  19 H :    0.395336
Sum of atomic charges:    0.0000000

LOEWDIN ATOMIC CHARGES
----------------------
   0 C :   -0.155109
   1 C :   -0.214205
   2 C :   -0.226484
   3 H :    0.113187
   4 H :    0.117486
   5 S :    0.573769
   6 C :   -0.478923
   7 N :    0.111455
   8 C :    0.022803
   9 H :   -0.012192
  10 H :    0.044004
  11 H :    0.106744
  12 H :    0.109698
  13 O :   -0.246961
  14 O :   -0.248383
  15 F :   -0.097512
  16 H :    0.116073
  17 H :    0.128317
  18 H :    0.124473
  19 H :    0.111759

  Mayer bond orders larger than 0.100000
B(  0-C ,  1-C ) :   0.6104 B(  0-C ,  6-C ) :   0.3768 B(  0-C ,  7-N ) :   0.1551
B(  0-C ,  8-C ) :   0.1267 B(  0-C , 18-H ) :   0.8481 B(  0-C , 19-H ) :   1.0022
B(  1-C ,  2-C ) :   0.5889 B(  1-C ,  8-C ) :  -0.1076 B(  1-C , 16-H ) :   0.8399
B(  1-C , 17-H ) :   0.8808 B(  2-C ,  3-H ) :   0.8139 B(  2-C ,  4-H ) :   0.8443
B(  2-C ,  5-S ) :   0.9256 B(  2-C ,  8-C ) :   0.1379 B(  5-S , 13-O ) :   1.6520
B(  5-S , 14-O ) :   1.6972 B(  5-S , 15-F ) :   1.0001 B(  6-C ,  7-N ) :   0.7384
B(  6-C ,  8-C ) :   0.9200 B(  6-C , 10-H ) :  -0.1506 B(  6-C , 18-H ) :  -0.1057
B(  7-N ,  8-C ) :   0.1218 B(  7-N , 11-H ) :   1.0279 B(  7-N , 12-H ) :   1.0399
B(  8-C ,  9-H ) :   0.7711 B(  8-C , 10-H ) :   1.1393 B(  8-C , 15-F ) :   0.1540
B(  9-H , 15-F ) :  -0.2713

FINAL SINGLE POINT ENERGY      -898.645384144637

DIPOLE MOMENT
-------------
                                X             Y             Z
Electronic contribution:      5.54493     -11.96493       3.17342
Nuclear contribution   :     -6.15577      13.80449      -3.81895
                        -----------------------------------------
Total Dipole Moment    :     -0.61083       1.83957      -0.64553
                        -----------------------------------------
Magnitude (a.u.)       :      2.04300
Magnitude (Debye)      :      5.19289

Rotational constants in cm-1:     0.081431     0.024887     0.022470
Rotational constants in MHz :  2441.231544   746.086417   673.646914

                             ****ORCA TERMINATED NORMALLY****
TOTAL RUN TIME: 0 days 0 hours 2 minutes 56 seconds 64 msec
