                         Program Version 5.0.0 -  RELEASE  -
|  1> !BLYP D3BJ RIJCOSX def2-TZVPD def2/J TightSCF
|  2> *xyz -1 1
|  3> C          0.70466        1.44313       -4.50363
|  4> C          1.72854        1.42432       -5.63944
|  5> H          2.64672        1.95379       -5.38105
|  6> H          1.29992        1.93061       -6.50361
|  7> S          2.25263       -0.18811       -6.27184
|  8> O          3.56261       -0.44446       -5.63155
|  9> O          2.34494       -0.03374       -7.69650
| 10> O          1.26606       -1.15918       -5.80536
| 11> H         -0.17385        0.91270       -4.80656
| 12> H          0.44778        2.45562       -4.27173
| 13> H          1.12367        0.97423       -3.63791
| 14> *
| 15>
| 16> %MaxCore 64000
| 17>
| 18> %pal nprocs 4
| 19> end
| 20>
| 21> %scf
| 22>   MaxIter 150
| 23> end
| 24>
| 25>
| 26>                          ****END OF INPUT****

CARTESIAN COORDINATES (ANGSTROEM)
---------------------------------
  C      0.704660    1.443130   -4.503630
  C      1.728540    1.424320   -5.639440
  H      2.646720    1.953790   -5.381050
  H      1.299920    1.930610   -6.503610
  S      2.252630   -0.188110   -6.271840
  O      3.562610   -0.444460   -5.631550
  O      2.344940   -0.033740   -7.696500
  O      1.266060   -1.159180   -5.805360
  H     -0.173850    0.912700   -4.806560
  H      0.447780    2.455620   -4.271730
  H      1.123670    0.974230   -3.637910

 Total Charge           Charge          ....   -1
 Multiplicity           Mult            ....    1
 Number of Electrons    NEL             ....   58
 Basis Dimension        Dim             ....  285

ORBITAL ENERGIES
----------------

  NO   OCC          E(Eh)            E(eV)
   0   2.0000     -88.078725     -2396.7439
   1   2.0000     -18.554644      -504.8975
   2   2.0000     -18.548293      -504.7247
   3   2.0000     -18.540077      -504.5011
   4   2.0000      -9.763041      -265.6658
   5   2.0000      -9.760546      -265.5979
   6   2.0000      -7.609749      -207.0718
   7   2.0000      -5.638351      -153.4273
   8   2.0000      -5.637459      -153.4031
   9   2.0000      -5.637181      -153.3955
  10   2.0000      -0.825224       -22.4555
  11   2.0000      -0.700383       -19.0584
  12   2.0000      -0.678543       -18.4641
  13   2.0000      -0.552249       -15.0275
  14   2.0000      -0.436909       -11.8889
  15   2.0000      -0.317459        -8.6385
  16   2.0000      -0.264537        -7.1984
  17   2.0000      -0.254750        -6.9321
  18   2.0000      -0.220404        -5.9975
  19   2.0000      -0.202634        -5.5140
  20   2.0000      -0.200003        -5.4424
  21   2.0000      -0.177764        -4.8372
  22   2.0000      -0.170902        -4.6505
  23   2.0000      -0.099115        -2.6971
  24   2.0000      -0.096940        -2.6379
  25   2.0000      -0.067829        -1.8457
  26   2.0000      -0.062460        -1.6996
  27   2.0000      -0.049973        -1.3598
  28   2.0000      -0.014950        -0.4068
  29   0.0000       0.107828         2.9342
  30   0.0000       0.134761         3.6670
  31   0.0000       0.143543         3.9060
  32   0.0000       0.152170         4.1408
  33   0.0000       0.168614         4.5882

MULLIKEN ATOMIC CHARGES
-----------------------
   0 C :   -1.084939
   1 C :   -0.450603
   2 H :    0.271518
   3 H :    0.268498
   4 S :    1.236184
   5 O :   -0.744098
   6 O :   -0.694167
   7 O :   -0.720137
   8 H :    0.286609
   9 H :    0.339408
  10 H :    0.291726
Sum of atomic charges:   -1.0000000

LOEWDIN ATOMIC CHARGES
----------------------
   0 C :   -0.142237
   1 C :   -0.319329
   2 H :    0.074257
   3 H :    0.068555
   4 S :    0.326592
   5 O :   -0.408224
   6 O :   -0.372526
   7 O :   -0.382158
   8 H :    0.052607
   9 H :    0.044305
  10 H :    0.058159

  Mayer bond orders larger than 0.100000
B(  0-C ,  1-C ) :   0.5240 B(  0-C ,  8-H ) :   0.9943 B(  0-C ,  9-H ) :   0.9119
B(  0-C , 10-H ) :   0.9761 B(  1-C ,  2-H ) :   0.9634 B(  1-C ,  3-H ) :   0.9589
B(  1-C ,  4-S ) :   0.9099 B(  1-C ,  5-O ) :   0.1379 B(  1-C ,  6-O ) :   0.1464
B(  1-C ,  7-O ) :   0.1093 B(  4-S ,  5-O ) :   1.4531 B(  4-S ,  6-O ) :   1.4833
B(  4-S ,  7-O ) :   1.4562

Dispersion correction           -0.020270714
FINAL SINGLE POINT ENERGY      -703.245837381100

DIPOLE MOMENT
-------------
                                X             Y             Z
Electronic contribution:      3.67875      -5.69130      -4.32949
Nuclear contribution   :     -4.50297       7.24642       5.01775
                        -----------------------------------------
Total Dipole Moment    :     -0.82422       1.55511       0.68826
                        -----------------------------------------
Magnitude (a.u.)       :      1.88982
Magnitude (Debye)      :      4.80354

Rotational constants in cm-1:     0.162459     0.081286     0.079601
Rotational constants in MHz :  4870.394399  2436.893583  2386.374948

                             ****ORCA TERMINATED NORMALLY****
TOTAL RUN TIME: 0 days 0 hours 0 minutes 15 seconds 793 msec
