                         Program Version 5.0.0 -  RELEASE  -
|  1> !BLYP D3BJ RIJCOSX def2-TZVPD def2/J TightSCF
|  2> *xyz 1 1
|  3> C          2.91632       -1.24259       -1.54313
|  4> C          3.46659       -1.59097       -2.88908
|  5> N          4.65227       -1.14316       -3.25969
|  6> N          2.75226       -2.29204       -3.72803
|  7> H          1.77836       -2.48960       -3.51274
|  8> H          2.94861       -2.20854       -4.71681
|  9> H          5.14672       -0.51251       -2.63385
| 10> H          4.78303       -1.00720       -4.25350
| 11> C          2.80408        0.29070       -1.35924
| 12> H          1.94047       -1.71653       -1.44116
| 13> H          3.55857       -1.66343       -0.76637
| 14> H          2.17393        0.69633       -2.12297
| 15> H          3.77707        0.73043       -1.42880
| 16> H          2.38369        0.50492       -0.39889
| 17> *
| 18>
| 19> %MaxCore 64000
| 20>
| 21> %pal nprocs 4
| 22> end
| 23>
| 24> %scf
| 25>   MaxIter 150
| 26> end
| 27>
| 28>
| 29>                          ****END OF INPUT****

CARTESIAN COORDINATES (ANGSTROEM)
---------------------------------
  C      2.916320   -1.242590   -1.543130
  C      3.466590   -1.590970   -2.889080
  N      4.652270   -1.143160   -3.259690
  N      2.752260   -2.292040   -3.728030
  H      1.778360   -2.489600   -3.512740
  H      2.948610   -2.208540   -4.716810
  H      5.146720   -0.512510   -2.633850
  H      4.783030   -1.007200   -4.253500
  C      2.804080    0.290700   -1.359240
  H      1.940470   -1.716530   -1.441160
  H      3.558570   -1.663430   -0.766370
  H      2.173930    0.696330   -2.122970
  H      3.777070    0.730430   -1.428800
  H      2.383690    0.504920   -0.398890

 Total Charge           Charge          ....    1
 Multiplicity           Mult            ....    1
 Number of Electrons    NEL             ....   40
 Basis Dimension        Dim             ....  266

ORBITAL ENERGIES
----------------

  NO   OCC          E(Eh)            E(eV)
   0   2.0000     -14.253312      -387.8523
   1   2.0000     -14.248255      -387.7147
   2   2.0000     -10.220074      -278.1024
   3   2.0000     -10.105932      -274.9964
   4   2.0000     -10.066193      -273.9150
   5   2.0000      -1.119779       -30.4707
   6   2.0000      -1.028287       -27.9811
   7   2.0000      -0.892815       -24.2947
   8   2.0000      -0.796740       -21.6804
   9   2.0000      -0.754025       -20.5181
  10   2.0000      -0.712592       -19.3906
  11   2.0000      -0.694972       -18.9111
  12   2.0000      -0.647593       -17.6219
  13   2.0000      -0.611124       -16.6295
  14   2.0000      -0.575240       -15.6531
  15   2.0000      -0.550936       -14.9917
  16   2.0000      -0.507968       -13.8225
  17   2.0000      -0.498321       -13.5600
  18   2.0000      -0.486577       -13.2404
  19   2.0000      -0.456048       -12.4097
  20   0.0000      -0.252337        -6.8664
  21   0.0000      -0.192002        -5.2246
  22   0.0000      -0.151357        -4.1186
  23   0.0000      -0.147363        -4.0100
  24   0.0000      -0.116444        -3.1686

MULLIKEN ATOMIC CHARGES
-----------------------
   0 C :   -0.290731
   1 C :    0.563206
   2 N :   -0.278519
   3 N :   -0.238578
   4 H :    0.226127
   5 H :    0.204830
   6 H :    0.224845
   7 H :    0.200503
   8 C :   -1.189799
   9 H :    0.262171
  10 H :    0.277761
  11 H :    0.368926
  12 H :    0.350510
  13 H :    0.318748
Sum of atomic charges:    1.0000000

LOEWDIN ATOMIC CHARGES
----------------------
   0 C :   -0.131418
   1 C :   -0.375002
   2 N :    0.239338
   3 N :    0.243174
   4 H :    0.148306
   5 H :    0.143561
   6 H :    0.141131
   7 H :    0.142963
   8 C :   -0.039833
   9 H :    0.119907
  10 H :    0.135450
  11 H :    0.081625
  12 H :    0.065749
  13 H :    0.085049

  Mayer bond orders larger than 0.100000
B(  0-C ,  1-C ) :   0.8355 B(  0-C ,  8-C ) :   0.5742 B(  0-C ,  9-H ) :   0.9640
B(  0-C , 10-H ) :   0.9518 B(  1-C ,  2-N ) :   1.2197 B(  1-C ,  3-N ) :   1.2943
B(  2-N ,  3-N ) :   0.1038 B(  2-N ,  6-H ) :   0.9208 B(  2-N ,  7-H ) :   0.9763
B(  3-N ,  4-H ) :   0.9368 B(  3-N ,  5-H ) :   0.9592 B(  8-C , 11-H ) :   0.9322
B(  8-C , 12-H ) :   0.8989 B(  8-C , 13-H ) :   0.9779

Dispersion correction           -0.020755680
FINAL SINGLE POINT ENERGY      -229.027383566493

DIPOLE MOMENT
-------------
                                X             Y             Z
Electronic contribution:      1.31969      -2.85332      -2.76112
Nuclear contribution   :     -1.30215       2.77761       1.84194
                        -----------------------------------------
Total Dipole Moment    :      0.01754      -0.07572      -0.91918
                        -----------------------------------------
Magnitude (a.u.)       :      0.92246
Magnitude (Debye)      :      2.34472

Rotational constants in cm-1:     0.267442     0.127541     0.099068
Rotational constants in MHz :  8017.703171  3823.592522  2969.992494

                             ****ORCA TERMINATED NORMALLY****
TOTAL RUN TIME: 0 days 0 hours 0 minutes 29 seconds 197 msec
