                         Program Version 5.0.0 -  RELEASE  -
|  1> !BLYP D3BJ RIJCOSX def2-TZVPD def2/J TightSCF xyzfile
|  2>
|  3> *xyzfile 0 1 B.xyz
|  4>
|  5> %MaxCore 64000
|  6>
|  7> %pal nprocs 4
|  8> end
|  9>
| 10> %scf
| 11>   MaxIter 150
| 12> end
| 13>
| 14>
| 15>                          ****END OF INPUT****

CARTESIAN COORDINATES (ANGSTROEM)
---------------------------------
  C      2.916324   -1.242589   -1.543125
  C      0.704661    1.443129   -4.503630
  C      1.728539    1.424320   -5.639443
  H      2.646718    1.953794   -5.381054
  H      1.299916    1.930613   -6.503614
  S      2.252625   -0.188115   -6.271840
  C      3.466585   -1.590971   -2.889082
  N      4.652275   -1.143164   -3.259692
  N      2.752264   -2.292043   -3.728029
  H      1.778364   -2.489604   -3.512738
  H      2.948612   -2.208544   -4.716813
  H      5.146723   -0.512508   -2.633852
  H      4.783030   -1.007203   -4.253498
  O      3.562607   -0.444464   -5.631552
  O      2.344944   -0.033742   -7.696501
  C      2.804084    0.290698   -1.359243
  C      1.052550    0.695659   -3.214915
  H     -0.232483    1.032925   -4.884449
  H      0.511700    2.495794   -4.267966
  C      2.388380    1.093669   -2.597108
  H      3.763425    0.674718   -0.999889
  H      2.094788    0.461222   -0.545756
  O      1.266058   -1.159177   -5.805365
  H      3.167316    1.013242   -3.359430
  H      2.357690    2.149375   -2.310997
  H      1.039284   -0.368429   -3.449329
  H      0.250787    0.865605   -2.488283
  H      1.940472   -1.716529   -1.441161
  H      3.558569   -1.663433   -0.766371

 Total Charge           Charge          ....    0
 Multiplicity           Mult            ....    1
 Number of Electrons    NEL             ....  112
 Basis Dimension        Dim             ....  643

ORBITAL ENERGIES
----------------

  NO   OCC          E(Eh)            E(eV)
   0   2.0000     -88.233808     -2400.9640
   1   2.0000     -18.712073      -509.1814
   2   2.0000     -18.705813      -509.0110
   3   2.0000     -18.697179      -508.7761
   4   2.0000     -14.076958      -383.0535
   5   2.0000     -14.075905      -383.0249
   6   2.0000     -10.054038      -273.5843
   7   2.0000      -9.966927      -271.2139
   8   2.0000      -9.946163      -270.6489
   9   2.0000      -9.918554      -269.8976
  10   2.0000      -9.906032      -269.5568
  11   2.0000      -9.901829      -269.4425
  12   2.0000      -9.899016      -269.3659
  13   2.0000      -7.765273      -211.3038
  14   2.0000      -5.794003      -157.6628
  15   2.0000      -5.793276      -157.6431
  16   2.0000      -5.792142      -157.6122
  17   2.0000      -0.983526       -26.7631
  18   2.0000      -0.949455       -25.8360
  19   2.0000      -0.858949       -23.3732
  20   2.0000      -0.851375       -23.1671
  21   2.0000      -0.848246       -23.0819
  22   2.0000      -0.765053       -20.8182
  23   2.0000      -0.720571       -19.6077
  24   2.0000      -0.677573       -18.4377
  25   2.0000      -0.629607       -17.1325
  26   2.0000      -0.607007       -16.5175
  27   2.0000      -0.572894       -15.5892
  28   2.0000      -0.543874       -14.7996
  29   2.0000      -0.530628       -14.4391
  30   2.0000      -0.519848       -14.1458
  31   2.0000      -0.482131       -13.1194
  32   2.0000      -0.470151       -12.7935
  33   2.0000      -0.455941       -12.4068
  34   2.0000      -0.443454       -12.0670
  35   2.0000      -0.418949       -11.4002
  36   2.0000      -0.409684       -11.1481
  37   2.0000      -0.392511       -10.6808
  38   2.0000      -0.383598       -10.4382
  39   2.0000      -0.379535       -10.3277
  40   2.0000      -0.373577       -10.1655
  41   2.0000      -0.363089        -9.8801
  42   2.0000      -0.349739        -9.5169
  43   2.0000      -0.339377        -9.2349
  44   2.0000      -0.331108        -9.0099
  45   2.0000      -0.327165        -8.9026
  46   2.0000      -0.302317        -8.2265
  47   2.0000      -0.296095        -8.0572
  48   2.0000      -0.284378        -7.7383
  49   2.0000      -0.282623        -7.6906
  50   2.0000      -0.257362        -7.0032
  51   2.0000      -0.252574        -6.8729
  52   2.0000      -0.220653        -6.0043
  53   2.0000      -0.216472        -5.8905
  54   2.0000      -0.209063        -5.6889
  55   2.0000      -0.177927        -4.8416
  56   0.0000      -0.088529        -2.4090
  57   0.0000      -0.046638        -1.2691
  58   0.0000      -0.023857        -0.6492
  59   0.0000      -0.009727        -0.2647
  60   0.0000      -0.003564        -0.0970

MULLIKEN ATOMIC CHARGES
-----------------------
   0 C :   -0.513894
   1 C :   -0.536289
   2 C :   -0.903663
   3 H :    0.341185
   4 H :    0.298292
   5 S :    1.396457
   6 C :    0.437860
   7 N :   -0.294405
   8 N :   -0.272899
   9 H :    0.210149
  10 H :    0.268426
  11 H :    0.202467
  12 H :    0.324338
  13 O :   -0.863632
  14 O :   -0.645386
  15 C :   -0.631527
  16 C :   -0.378129
  17 H :    0.289072
  18 H :    0.275711
  19 C :   -0.462469
  20 H :    0.330534
  21 H :    0.279726
  22 O :   -0.803335
  23 H :    0.322674
  24 H :    0.311054
  25 H :    0.237042
  26 H :    0.278651
  27 H :    0.256280
  28 H :    0.245712
Sum of atomic charges:   -0.0000000

LOEWDIN ATOMIC CHARGES
----------------------
   0 C :   -0.100412
   1 C :   -0.217291
   2 C :   -0.240149
   3 H :    0.087168
   4 H :    0.090860
   5 S :    0.411715
   6 C :   -0.394221
   7 N :    0.218980
   8 N :    0.229719
   9 H :    0.132231
  10 H :    0.091225
  11 H :    0.133465
  12 H :    0.092789
  13 O :   -0.389460
  14 O :   -0.306864
  15 C :   -0.174566
  16 C :   -0.202445
  17 H :    0.109358
  18 H :    0.108989
  19 C :   -0.199335
  20 H :    0.103781
  21 H :    0.112298
  22 O :   -0.343935
  23 H :    0.092307
  24 H :    0.119294
  25 H :    0.079209
  26 H :    0.115593
  27 H :    0.116361
  28 H :    0.123336

  Mayer bond orders larger than 0.100000
B(  0-C ,  6-C ) :   0.8327 B(  0-C , 15-C ) :   0.7842 B(  0-C , 16-C ) :   0.1048
B(  0-C , 19-C ) :  -0.1536 B(  0-C , 27-H ) :   0.9738 B(  0-C , 28-H ) :   0.9883
B(  1-C ,  2-C ) :   0.7808 B(  1-C , 16-C ) :   0.8723 B(  1-C , 17-H ) :   0.8982
B(  1-C , 18-H ) :   0.9393 B(  1-C , 19-C ) :   0.1586 B(  2-C ,  3-H ) :   0.8522
B(  2-C ,  4-H ) :   0.9583 B(  2-C ,  5-S ) :   0.8995 B(  2-C , 13-O ) :   0.1884
B(  2-C , 14-O ) :   0.2078 B(  2-C , 19-C ) :   0.1081 B(  2-C , 22-O ) :   0.1006
B(  5-S , 13-O ) :   1.4007 B(  5-S , 14-O ) :   1.3222 B(  5-S , 22-O ) :   1.2886
B(  6-C ,  7-N ) :   1.2717 B(  6-C ,  8-N ) :   1.3739 B(  6-C , 13-O ) :  -0.1222
B(  7-N ,  8-N ) :   0.1071 B(  7-N , 11-H ) :   0.9006 B(  7-N , 12-H ) :   0.8115
B(  8-N ,  9-H ) :   0.8823 B(  8-N , 10-H ) :   0.8139 B( 13-O , 22-O ) :   0.1288
B( 15-C , 16-C ) :   0.1844 B( 15-C , 19-C ) :   0.7714 B( 15-C , 20-H ) :   0.8760
B( 15-C , 21-H ) :   0.9294 B( 16-C , 19-C ) :   0.3487 B( 16-C , 23-H ) :  -0.1050
B( 16-C , 25-H ) :   1.0381 B( 16-C , 26-H ) :   0.9054 B( 19-C , 23-H ) :   1.0354
B( 19-C , 24-H ) :   0.8998 B( 19-C , 25-H ) :  -0.1019

Dispersion correction           -0.074169826
FINAL SINGLE POINT ENERGY     -1009.860891510300

DIPOLE MOMENT
-------------
                                X             Y             Z
Electronic contribution:      2.75895      -6.32026     -13.45125
Nuclear contribution   :     -1.90023       6.18953      17.82209
                        -----------------------------------------
Total Dipole Moment    :      0.85872      -0.13073       4.37084
                        -----------------------------------------
Magnitude (a.u.)       :      4.45631
Magnitude (Debye)      :     11.32704

Rotational constants in cm-1:     0.036337     0.018755     0.015005
Rotational constants in MHz :  1089.341704   562.266628   449.834770

                             ****ORCA TERMINATED NORMALLY****
TOTAL RUN TIME: 0 days 0 hours 1 minutes 25 seconds 664 msec
