                         Program Version 5.0.0 -  RELEASE  -
|  1> !BLYP D3BJ RIJCOSX def2-TZVPD def2/J TightSCF
|  2> *xyz 0 1
|  3> C          0.70466        1.44313       -4.50363
|  4> C          1.72854        1.42432       -5.63944
|  5> H          2.64672        1.95379       -5.38105
|  6> H          1.29992        1.93061       -6.50361
|  7> S          2.25263       -0.18811       -6.27184
|  8> F          3.56261       -0.44446       -5.63155
|  9> O          2.34494       -0.03374       -7.69650
| 10> O          1.26606       -1.15918       -5.80536
| 11> H         -0.17385        0.91270       -4.80656
| 12> H          0.44778        2.45562       -4.27173
| 13> H          1.12367        0.97423       -3.63791
| 14> *
| 15>
| 16> %MaxCore 64000
| 17>
| 18> %pal nprocs 4
| 19> end
| 20>
| 21> %scf
| 22>   MaxIter 150
| 23> end
| 24>
| 25>
| 26>                          ****END OF INPUT****

CARTESIAN COORDINATES (ANGSTROEM)
---------------------------------
  C      0.704660    1.443130   -4.503630
  C      1.728540    1.424320   -5.639440
  H      2.646720    1.953790   -5.381050
  H      1.299920    1.930610   -6.503610
  S      2.252630   -0.188110   -6.271840
  F      3.562610   -0.444460   -5.631550
  O      2.344940   -0.033740   -7.696500
  O      1.266060   -1.159180   -5.805360
  H     -0.173850    0.912700   -4.806560
  H      0.447780    2.455620   -4.271730
  H      1.123670    0.974230   -3.637910

 Total Charge           Charge          ....    0
 Multiplicity           Mult            ....    1
 Number of Electrons    NEL             ....   58
 Basis Dimension        Dim             ....  285

ORBITAL ENERGIES
----------------

  NO   OCC          E(Eh)            E(eV)
   0   2.0000     -88.334596     -2403.7065
   1   2.0000     -24.381146      -663.4447
   2   2.0000     -18.786650      -511.2107
   3   2.0000     -18.779801      -511.0244
   4   2.0000      -9.962655      -271.0976
   5   2.0000      -9.921898      -269.9886
   6   2.0000      -7.866228      -214.0509
   7   2.0000      -5.898500      -160.5063
   8   2.0000      -5.891885      -160.3263
   9   2.0000      -5.891462      -160.3148
  10   2.0000      -1.239673       -33.7332
  11   2.0000      -1.015050       -27.6209
  12   2.0000      -0.926533       -25.2122
  13   2.0000      -0.740204       -20.1420
  14   2.0000      -0.651329       -17.7236
  15   2.0000      -0.600715       -16.3463
  16   2.0000      -0.510252       -13.8847
  17   2.0000      -0.493572       -13.4308
  18   2.0000      -0.486545       -13.2396
  19   2.0000      -0.437995       -11.9184
  20   2.0000      -0.423139       -11.5142
  21   2.0000      -0.398930       -10.8554
  22   2.0000      -0.380560       -10.3556
  23   2.0000      -0.356375        -9.6975
  24   2.0000      -0.350175        -9.5287
  25   2.0000      -0.334528        -9.1030
  26   2.0000      -0.288947        -7.8627
  27   2.0000      -0.284498        -7.7416
  28   2.0000      -0.268400        -7.3035
  29   0.0000      -0.030179        -0.8212
  30   0.0000      -0.010539        -0.2868
  31   0.0000       0.005331         0.1451
  32   0.0000       0.012378         0.3368
  33   0.0000       0.021679         0.5899

MULLIKEN ATOMIC CHARGES
-----------------------
   0 C :   -1.083438
   1 C :   -0.446057
   2 H :    0.352213
   3 H :    0.302780
   4 S :    1.186610
   5 F :   -0.170666
   6 O :   -0.554235
   7 O :   -0.572473
   8 H :    0.319160
   9 H :    0.344114
  10 H :    0.321992
Sum of atomic charges:    0.0000000

LOEWDIN ATOMIC CHARGES
----------------------
   0 C :   -0.101946
   1 C :   -0.271742
   2 H :    0.092377
   3 H :    0.095963
   4 S :    0.573175
   5 F :   -0.075475
   6 O :   -0.255227
   7 O :   -0.266952
   8 H :    0.069182
   9 H :    0.070492
  10 H :    0.070155

  Mayer bond orders larger than 0.100000
B(  0-C ,  1-C ) :   0.5930 B(  0-C ,  8-H ) :   0.9757 B(  0-C ,  9-H ) :   0.9176
B(  0-C , 10-H ) :   0.9402 B(  1-C ,  2-H ) :   0.8646 B(  1-C ,  3-H ) :   0.9432
B(  1-C ,  4-S ) :   0.9003 B(  1-C ,  6-O ) :   0.1266 B(  4-S ,  5-F ) :   0.9895
B(  4-S ,  6-O ) :   1.6770 B(  4-S ,  7-O ) :   1.6508 B(  6-O ,  7-O ) :   0.1207

Dispersion correction           -0.019339317
FINAL SINGLE POINT ENERGY      -727.787112501350

DIPOLE MOMENT
-------------
                                X             Y             Z
Electronic contribution:      6.28788      -6.53800      -3.73705
Nuclear contribution   :     -6.09914       7.80989       4.64238
                        -----------------------------------------
Total Dipole Moment    :      0.18875       1.27189       0.90533
                        -----------------------------------------
Magnitude (a.u.)       :      1.57257
Magnitude (Debye)      :      3.99714

Rotational constants in cm-1:     0.154372     0.078826     0.078033
Rotational constants in MHz :  4627.943144  2363.154585  2339.382767

                             ****ORCA TERMINATED NORMALLY****
TOTAL RUN TIME: 0 days 0 hours 0 minutes 33 seconds 469 msec
