                         Program Version 5.0.0 -  RELEASE  -
|  1> !BLYP D3BJ RIJCOSX def2-TZVPD def2/J TightSCF
|  2> *xyz 0 1
|  3> C          2.91632       -1.24259       -1.54313
|  4> C          3.46659       -1.59097       -2.88908
|  5> C          4.65227       -1.14316       -3.25969
|  6> N          2.75226       -2.29204       -3.72803
|  7> H          1.77836       -2.48960       -3.51274
|  8> H          2.94861       -2.20854       -4.71681
|  9> H          5.14672       -0.51251       -2.63385
| 10> H          4.78303       -1.00720       -4.25350
| 11> C          2.80408        0.29070       -1.35924
| 12> H          1.94047       -1.71653       -1.44116
| 13> H          3.55857       -1.66343       -0.76637
| 14> H          2.17393        0.69633       -2.12297
| 15> H          3.77707        0.73043       -1.42880
| 16> H          2.38369        0.50492       -0.39889
| 17> *
| 18>
| 19> %MaxCore 64000
| 20>
| 21> %pal nprocs 4
| 22> end
| 23>
| 24> %scf
| 25>   MaxIter 150
| 26> end
| 27>
| 28>
| 29>                          ****END OF INPUT****

CARTESIAN COORDINATES (ANGSTROEM)
---------------------------------
  C      2.916320   -1.242590   -1.543130
  C      3.466590   -1.590970   -2.889080
  C      4.652270   -1.143160   -3.259690
  N      2.752260   -2.292040   -3.728030
  H      1.778360   -2.489600   -3.512740
  H      2.948610   -2.208540   -4.716810
  H      5.146720   -0.512510   -2.633850
  H      4.783030   -1.007200   -4.253500
  C      2.804080    0.290700   -1.359240
  H      1.940470   -1.716530   -1.441160
  H      3.558570   -1.663430   -0.766370
  H      2.173930    0.696330   -2.122970
  H      3.777070    0.730430   -1.428800
  H      2.383690    0.504920   -0.398890

 Total Charge           Charge          ....    0
 Multiplicity           Mult            ....    1
 Number of Electrons    NEL             ....   40
 Basis Dimension        Dim             ....  266

ORBITAL ENERGIES
----------------

  NO   OCC          E(Eh)            E(eV)
   0   2.0000     -14.010896      -381.2559
   1   2.0000      -9.920986      -269.9637
   2   2.0000      -9.907062      -269.5849
   3   2.0000      -9.890605      -269.1370
   4   2.0000      -9.833697      -267.5885
   5   2.0000      -0.850774       -23.1507
   6   2.0000      -0.702757       -19.1230
   7   2.0000      -0.637643       -17.3511
   8   2.0000      -0.575909       -15.6713
   9   2.0000      -0.506343       -13.7783
  10   2.0000      -0.468031       -12.7358
  11   2.0000      -0.425093       -11.5674
  12   2.0000      -0.397893       -10.8272
  13   2.0000      -0.360820        -9.8184
  14   2.0000      -0.342225        -9.3124
  15   2.0000      -0.330435        -8.9916
  16   2.0000      -0.311712        -8.4821
  17   2.0000      -0.299614        -8.1529
  18   2.0000      -0.282013        -7.6740
  19   2.0000      -0.155833        -4.2404
  20   0.0000      -0.015728        -0.4280
  21   0.0000      -0.001736        -0.0472
  22   0.0000       0.015592         0.4243
  23   0.0000       0.022358         0.6084
  24   0.0000       0.033403         0.9090

MULLIKEN ATOMIC CHARGES
-----------------------
   0 C :   -0.268500
   1 C :    0.508420
   2 C :   -1.065945
   3 N :   -0.310116
   4 H :    0.166740
   5 H :    0.145540
   6 H :    0.326908
   7 H :    0.256300
   8 C :   -1.149420
   9 H :    0.230691
  10 H :    0.228458
  11 H :    0.317245
  12 H :    0.310017
  13 H :    0.303662
Sum of atomic charges:    0.0000000

LOEWDIN ATOMIC CHARGES
----------------------
   0 C :   -0.183519
   1 C :   -0.503301
   2 C :    0.016266
   3 N :    0.116406
   4 H :    0.100539
   5 H :    0.106460
   6 H :    0.017367
   7 H :    0.019325
   8 C :   -0.079095
   9 H :    0.096230
  10 H :    0.111516
  11 H :    0.067857
  12 H :    0.056174
  13 H :    0.057773

  Mayer bond orders larger than 0.100000
B(  0-C ,  1-C ) :   0.6878 B(  0-C ,  8-C ) :   0.5441 B(  0-C ,  9-H ) :   1.0580
B(  0-C , 10-H ) :   0.9377 B(  1-C ,  2-C ) :   1.3814 B(  1-C ,  3-N ) :   1.0710
B(  1-C ,  9-H ) :  -0.1377 B(  2-C ,  3-N ) :   0.1279 B(  2-C ,  6-H ) :   0.9140
B(  2-C ,  7-H ) :   1.0735 B(  3-N ,  4-H ) :   0.9910 B(  3-N ,  5-H ) :   0.9790
B(  8-C , 11-H ) :   0.9507 B(  8-C , 12-H ) :   0.9703 B(  8-C , 13-H ) :   0.9569

Dispersion correction           -0.021692616
FINAL SINGLE POINT ENERGY      -212.543270417229

DIPOLE MOMENT
-------------
                                X             Y             Z
Electronic contribution:      0.11570      -2.74385      -1.81900
Nuclear contribution   :     -0.99366       2.78648       1.68526
                        -----------------------------------------
Total Dipole Moment    :     -0.87795       0.04263      -0.13374
                        -----------------------------------------
Magnitude (a.u.)       :      0.88910
Magnitude (Debye)      :      2.25992

Rotational constants in cm-1:     0.282898     0.128664     0.101801
Rotational constants in MHz :  8481.061354  3857.240210  3051.924245

                             ****ORCA TERMINATED NORMALLY****
TOTAL RUN TIME: 0 days 0 hours 0 minutes 23 seconds 633 msec
