                         Program Version 5.0.0 -  RELEASE  -
|  1> !BLYP D3BJ RIJCOSX def2-TZVPD def2/J TightSCF
|  2> *xyz 0 1
|  3> C          0.70466        1.44313       -4.50363
|  4> C          1.72854        1.42432       -5.63944
|  5> H          2.64672        1.95379       -5.38105
|  6> H          1.29992        1.93061       -6.50361
|  7> S          2.25263       -0.18811       -6.27184
|  8> O          3.56261       -0.44446       -5.63155
|  9> F          2.34494       -0.03374       -7.69650
| 10> O          1.26606       -1.15918       -5.80536
| 11> H         -0.17385        0.91270       -4.80656
| 12> H          0.44778        2.45562       -4.27173
| 13> H          1.12367        0.97423       -3.63791
| 14> *
| 15>
| 16> %MaxCore 64000
| 17>
| 18> %pal nprocs 4
| 19> end
| 20>
| 21> %scf
| 22>   MaxIter 150
| 23> end
| 24>
| 25>
| 26>                          ****END OF INPUT****

CARTESIAN COORDINATES (ANGSTROEM)
---------------------------------
  C      0.704660    1.443130   -4.503630
  C      1.728540    1.424320   -5.639440
  H      2.646720    1.953790   -5.381050
  H      1.299920    1.930610   -6.503610
  S      2.252630   -0.188110   -6.271840
  O      3.562610   -0.444460   -5.631550
  F      2.344940   -0.033740   -7.696500
  O      1.266060   -1.159180   -5.805360
  H     -0.173850    0.912700   -4.806560
  H      0.447780    2.455620   -4.271730
  H      1.123670    0.974230   -3.637910

 Total Charge           Charge          ....    0
 Multiplicity           Mult            ....    1
 Number of Electrons    NEL             ....   58
 Basis Dimension        Dim             ....  285

ORBITAL ENERGIES
----------------

  NO   OCC          E(Eh)            E(eV)
   0   2.0000     -88.337152     -2403.7761
   1   2.0000     -24.403711      -664.0587
   2   2.0000     -18.780109      -511.0327
   3   2.0000     -18.772337      -510.8213
   4   2.0000      -9.963706      -271.1262
   5   2.0000      -9.922676      -270.0097
   6   2.0000      -7.868667      -214.1173
   7   2.0000      -5.900826      -160.5696
   8   2.0000      -5.894260      -160.3910
   9   2.0000      -5.893954      -160.3826
  10   2.0000      -1.276278       -34.7293
  11   2.0000      -1.001518       -27.2527
  12   2.0000      -0.907683       -24.6993
  13   2.0000      -0.741155       -20.1678
  14   2.0000      -0.665386       -18.1061
  15   2.0000      -0.608249       -16.5513
  16   2.0000      -0.523237       -14.2380
  17   2.0000      -0.519902       -14.1473
  18   2.0000      -0.492474       -13.4009
  19   2.0000      -0.439096       -11.9484
  20   2.0000      -0.424204       -11.5432
  21   2.0000      -0.390764       -10.6332
  22   2.0000      -0.378080       -10.2881
  23   2.0000      -0.358620        -9.7585
  24   2.0000      -0.344494        -9.3742
  25   2.0000      -0.330103        -8.9825
  26   2.0000      -0.283132        -7.7044
  27   2.0000      -0.272766        -7.4223
  28   2.0000      -0.253196        -6.8898
  29   0.0000      -0.030543        -0.8311
  30   0.0000      -0.014834        -0.4036
  31   0.0000       0.005086         0.1384
  32   0.0000       0.012359         0.3363
  33   0.0000       0.021313         0.5800

MULLIKEN ATOMIC CHARGES
-----------------------
   0 C :   -1.110235
   1 C :   -0.437006
   2 H :    0.318384
   3 H :    0.329268
   4 S :    1.181858
   5 O :   -0.583611
   6 F :   -0.125357
   7 O :   -0.569406
   8 H :    0.319008
   9 H :    0.344538
  10 H :    0.332560
Sum of atomic charges:   -0.0000000

LOEWDIN ATOMIC CHARGES
----------------------
   0 C :   -0.096406
   1 C :   -0.276477
   2 H :    0.096064
   3 H :    0.086344
   4 S :    0.571361
   5 O :   -0.286474
   6 F :   -0.041263
   7 O :   -0.267831
   8 H :    0.067988
   9 H :    0.071628
  10 H :    0.075066

  Mayer bond orders larger than 0.100000
B(  0-C ,  1-C ) :   0.6104 B(  0-C ,  8-H ) :   0.9611 B(  0-C ,  9-H ) :   0.9080
B(  0-C , 10-H ) :   0.9468 B(  1-C ,  2-H ) :   0.9384 B(  1-C ,  3-H ) :   0.8721
B(  1-C ,  4-S ) :   0.8986 B(  1-C ,  5-O ) :   0.1104 B(  4-S ,  5-O ) :   1.6477
B(  4-S ,  6-F ) :   1.0325 B(  4-S ,  7-O ) :   1.6547 B(  5-O ,  7-O ) :   0.1191

Dispersion correction           -0.019363624
FINAL SINGLE POINT ENERGY      -727.768368998293

DIPOLE MOMENT
-------------
                                X             Y             Z
Electronic contribution:      4.22734      -5.85268      -7.18538
Nuclear contribution   :     -4.83029       7.38191       6.79413
                        -----------------------------------------
Total Dipole Moment    :     -0.60294       1.52922      -0.39125
                        -----------------------------------------
Magnitude (a.u.)       :      1.68972
Magnitude (Debye)      :      4.29492

Rotational constants in cm-1:     0.156575     0.079070     0.076729
Rotational constants in MHz :  4694.010604  2370.444114  2300.280155

                             ****ORCA TERMINATED NORMALLY****
TOTAL RUN TIME: 0 days 0 hours 0 minutes 25 seconds 18 msec
