                         Program Version 5.0.0 -  RELEASE  -
|  1> !BLYP D3BJ RIJCOSX def2-TZVPD def2/J TightSCF
|  2> *xyz 0 1
|  3> C          2.91632       -1.24259       -1.54313
|  4> C          3.46659       -1.59097       -2.88908
|  5> N          4.65227       -1.14316       -3.25969
|  6> C          2.75226       -2.29204       -3.72803
|  7> H          1.77836       -2.48960       -3.51274
|  8> H          2.94861       -2.20854       -4.71681
|  9> H          5.14672       -0.51251       -2.63385
| 10> H          4.78303       -1.00720       -4.25350
| 11> C          2.80408        0.29070       -1.35924
| 12> H          1.94047       -1.71653       -1.44116
| 13> H          3.55857       -1.66343       -0.76637
| 14> H          2.17393        0.69633       -2.12297
| 15> H          3.77707        0.73043       -1.42880
| 16> H          2.38369        0.50492       -0.39889
| 17> *
| 18>
| 19> %MaxCore 64000
| 20>
| 21> %pal nprocs 4
| 22> end
| 23>
| 24> %scf
| 25>   MaxIter 150
| 26> end
| 27>
| 28>
| 29>                          ****END OF INPUT****

CARTESIAN COORDINATES (ANGSTROEM)
---------------------------------
  C      2.916320   -1.242590   -1.543130
  C      3.466590   -1.590970   -2.889080
  N      4.652270   -1.143160   -3.259690
  C      2.752260   -2.292040   -3.728030
  H      1.778360   -2.489600   -3.512740
  H      2.948610   -2.208540   -4.716810
  H      5.146720   -0.512510   -2.633850
  H      4.783030   -1.007200   -4.253500
  C      2.804080    0.290700   -1.359240
  H      1.940470   -1.716530   -1.441160
  H      3.558570   -1.663430   -0.766370
  H      2.173930    0.696330   -2.122970
  H      3.777070    0.730430   -1.428800
  H      2.383690    0.504920   -0.398890

 Total Charge           Charge          ....    0
 Multiplicity           Mult            ....    1
 Number of Electrons    NEL             ....   40
 Basis Dimension        Dim             ....  266

ORBITAL ENERGIES
----------------

  NO   OCC          E(Eh)            E(eV)
   0   2.0000     -14.007041      -381.1510
   1   2.0000      -9.919778      -269.9309
   2   2.0000      -9.905253      -269.5356
   3   2.0000      -9.895447      -269.2688
   4   2.0000      -9.836994      -267.6782
   5   2.0000      -0.845864       -23.0171
   6   2.0000      -0.700500       -19.0616
   7   2.0000      -0.647849       -17.6289
   8   2.0000      -0.568760       -15.4768
   9   2.0000      -0.505672       -13.7600
  10   2.0000      -0.471990       -12.8435
  11   2.0000      -0.422049       -11.4845
  12   2.0000      -0.387340       -10.5401
  13   2.0000      -0.382827       -10.4172
  14   2.0000      -0.340100        -9.2546
  15   2.0000      -0.333875        -9.0852
  16   2.0000      -0.313122        -8.5205
  17   2.0000      -0.297404        -8.0928
  18   2.0000      -0.276900        -7.5348
  19   2.0000      -0.162073        -4.4102
  20   0.0000      -0.017395        -0.4733
  21   0.0000       0.000493         0.0134
  22   0.0000       0.019463         0.5296
  23   0.0000       0.021959         0.5975
  24   0.0000       0.031522         0.8578

MULLIKEN ATOMIC CHARGES
-----------------------
   0 C :   -0.304050
   1 C :    0.577771
   2 N :   -0.366157
   3 C :   -1.001430
   4 H :    0.273023
   5 H :    0.283067
   6 H :    0.159576
   7 H :    0.142798
   8 C :   -1.154961
   9 H :    0.195460
  10 H :    0.253299
  11 H :    0.327670
  12 H :    0.306489
  13 H :    0.307443
Sum of atomic charges:   -0.0000000

LOEWDIN ATOMIC CHARGES
----------------------
   0 C :   -0.186050
   1 C :   -0.504307
   2 N :    0.116837
   3 C :    0.021039
   4 H :    0.020735
   5 H :    0.020234
   6 H :    0.097378
   7 H :    0.106396
   8 C :   -0.080698
   9 H :    0.103752
  10 H :    0.106996
  11 H :    0.068968
  12 H :    0.049052
  13 H :    0.059668

  Mayer bond orders larger than 0.100000
B(  0-C ,  1-C ) :   0.8085 B(  0-C ,  8-C ) :   0.5719 B(  0-C ,  9-H ) :   1.0027
B(  0-C , 10-H ) :   0.9192 B(  1-C ,  2-N ) :   0.9606 B(  1-C ,  3-C ) :   1.3430
B(  2-N ,  3-C ) :   0.1060 B(  2-N ,  6-H ) :   0.9653 B(  2-N ,  7-H ) :   0.9964
B(  3-C ,  4-H ) :   0.9933 B(  3-C ,  5-H ) :   1.0338 B(  8-C , 11-H ) :   0.9856
B(  8-C , 12-H ) :   0.9388 B(  8-C , 13-H ) :   0.9709

Dispersion correction           -0.021626519
FINAL SINGLE POINT ENERGY      -212.546577953135

DIPOLE MOMENT
-------------
                                X             Y             Z
Electronic contribution:      1.73833      -1.75109      -1.41478
Nuclear contribution   :     -1.43372       2.52039       1.57679
                        -----------------------------------------
Total Dipole Moment    :      0.30461       0.76929       0.16201
                        -----------------------------------------
Magnitude (a.u.)       :      0.84311
Magnitude (Debye)      :      2.14303

Rotational constants in cm-1:     0.274962     0.131786     0.102554
Rotational constants in MHz :  8243.150005  3950.846092  3074.493018

                             ****ORCA TERMINATED NORMALLY****
TOTAL RUN TIME: 0 days 0 hours 0 minutes 32 seconds 725 msec
