                         Program Version 5.0.0 -  RELEASE  -
|  1> !BLYP D3BJ RIJCOSX def2-TZVPD def2/J TightSCF
|  2> *xyz 0 1
|  3> C          0.70466        1.44313       -4.50363
|  4> C          1.72854        1.42432       -5.63944
|  5> H          2.64672        1.95379       -5.38105
|  6> H          1.29992        1.93061       -6.50361
|  7> S          2.25263       -0.18811       -6.27184
|  8> O          3.56261       -0.44446       -5.63155
|  9> O          2.34494       -0.03374       -7.69650
| 10> F          1.26606       -1.15918       -5.80536
| 11> H         -0.17385        0.91270       -4.80656
| 12> H          0.44778        2.45562       -4.27173
| 13> H          1.12367        0.97423       -3.63791
| 14> *
| 15>
| 16> %MaxCore 64000
| 17>
| 18> %pal nprocs 4
| 19> end
| 20>
| 21> %scf
| 22>   MaxIter 150
| 23> end
| 24>
| 25>
| 26>                          ****END OF INPUT****

CARTESIAN COORDINATES (ANGSTROEM)
---------------------------------
  C      0.704660    1.443130   -4.503630
  C      1.728540    1.424320   -5.639440
  H      2.646720    1.953790   -5.381050
  H      1.299920    1.930610   -6.503610
  S      2.252630   -0.188110   -6.271840
  O      3.562610   -0.444460   -5.631550
  O      2.344940   -0.033740   -7.696500
  F      1.266060   -1.159180   -5.805360
  H     -0.173850    0.912700   -4.806560
  H      0.447780    2.455620   -4.271730
  H      1.123670    0.974230   -3.637910

 Total Charge           Charge          ....    0
 Multiplicity           Mult            ....    1
 Number of Electrons    NEL             ....   58
 Basis Dimension        Dim             ....  285

ORBITAL ENERGIES
----------------

  NO   OCC          E(Eh)            E(eV)
   0   2.0000     -88.335566     -2403.7330
   1   2.0000     -24.391730      -663.7327
   2   2.0000     -18.786776      -511.2142
   3   2.0000     -18.771918      -510.8099
   4   2.0000      -9.962633      -271.0970
   5   2.0000      -9.929249      -270.1886
   6   2.0000      -7.867168      -214.0765
   7   2.0000      -5.899496      -160.5335
   8   2.0000      -5.892610      -160.3461
   9   2.0000      -5.892517      -160.3435
  10   2.0000      -1.255892       -34.1746
  11   2.0000      -1.011137       -27.5144
  12   2.0000      -0.915342       -24.9077
  13   2.0000      -0.743956       -20.2441
  14   2.0000      -0.655190       -17.8286
  15   2.0000      -0.609082       -16.5740
  16   2.0000      -0.523701       -14.2506
  17   2.0000      -0.505817       -13.7640
  18   2.0000      -0.481872       -13.1124
  19   2.0000      -0.442232       -12.0337
  20   2.0000      -0.418182       -11.3793
  21   2.0000      -0.397377       -10.8132
  22   2.0000      -0.389454       -10.5976
  23   2.0000      -0.364959        -9.9310
  24   2.0000      -0.349946        -9.5225
  25   2.0000      -0.334248        -9.0954
  26   2.0000      -0.288987        -7.8637
  27   2.0000      -0.273445        -7.4408
  28   2.0000      -0.259511        -7.0617
  29   0.0000      -0.037753        -1.0273
  30   0.0000      -0.002655        -0.0722
  31   0.0000       0.007380         0.2008
  32   0.0000       0.012551         0.3415
  33   0.0000       0.018268         0.4971

MULLIKEN ATOMIC CHARGES
-----------------------
   0 C :   -1.170225
   1 C :   -0.360305
   2 H :    0.308966
   3 H :    0.314437
   4 S :    1.188835
   5 O :   -0.589108
   6 O :   -0.548392
   7 F :   -0.163528
   8 H :    0.342473
   9 H :    0.331209
  10 H :    0.345638
Sum of atomic charges:    0.0000000

LOEWDIN ATOMIC CHARGES
----------------------
   0 C :   -0.104826
   1 C :   -0.268376
   2 H :    0.102338
   3 H :    0.092122
   4 S :    0.570884
   5 O :   -0.287635
   6 O :   -0.254574
   7 F :   -0.056988
   8 H :    0.064969
   9 H :    0.070989
  10 H :    0.071098

  Mayer bond orders larger than 0.100000
B(  0-C ,  1-C ) :   0.5438 B(  0-C ,  8-H ) :   0.9280 B(  0-C ,  9-H ) :   0.9417
B(  0-C , 10-H ) :   0.9405 B(  1-C ,  2-H ) :   0.9290 B(  1-C ,  3-H ) :   0.9237
B(  1-C ,  4-S ) :   0.8814 B(  1-C ,  5-O ) :   0.1031 B(  1-C ,  6-O ) :   0.1186
B(  4-S ,  5-O ) :   1.6434 B(  4-S ,  6-O ) :   1.6810 B(  4-S ,  7-F ) :   1.0115
B(  5-O ,  6-O ) :   0.1154

Dispersion correction           -0.019241327
FINAL SINGLE POINT ENERGY      -727.777623550533

DIPOLE MOMENT
-------------
                                X             Y             Z
Electronic contribution:      2.43176      -7.69448      -4.02974
Nuclear contribution   :     -3.70606       8.55465       4.82350
                        -----------------------------------------
Total Dipole Moment    :     -1.27430       0.86017       0.79376
                        -----------------------------------------
Magnitude (a.u.)       :      1.73026
Magnitude (Debye)      :      4.39797

Rotational constants in cm-1:     0.153201     0.080978     0.077494
Rotational constants in MHz :  4592.852844  2427.650814  2323.207507

                             ****ORCA TERMINATED NORMALLY****
TOTAL RUN TIME: 0 days 0 hours 0 minutes 21 seconds 778 msec
