                         Program Version 5.0.0 -  RELEASE  -
|  1> !BLYP D3BJ RIJCOSX def2-TZVPD def2/J TightSCF xyzfile
|  2>
|  3> *xyzfile 0 1 D1.xyz
|  4>
|  5> %MaxCore 64000
|  6>
|  7> %pal nprocs 4
|  8> end
|  9>
| 10> %scf
| 11>   MaxIter 150
| 12> end
| 13>
| 14>
| 15>                          ****END OF INPUT****

CARTESIAN COORDINATES (ANGSTROEM)
---------------------------------
  C      2.916324   -1.242589   -1.543125
  C      0.704661    1.443129   -4.503630
  C      1.728539    1.424320   -5.639443
  H      2.646718    1.953794   -5.381054
  H      1.299916    1.930613   -6.503614
  S      2.252625   -0.188115   -6.271840
  C      3.466585   -1.590971   -2.889082
  C      4.652275   -1.143164   -3.259692
  N      2.752264   -2.292043   -3.728029
  H      1.778364   -2.489604   -3.512738
  H      2.948612   -2.208544   -4.716813
  H      5.146723   -0.512508   -2.633852
  H      4.783030   -1.007203   -4.253498
  F      3.562607   -0.444464   -5.631552
  O      2.344944   -0.033742   -7.696501
  C      2.804084    0.290698   -1.359243
  C      1.052550    0.695659   -3.214915
  H     -0.232483    1.032925   -4.884449
  H      0.511700    2.495794   -4.267966
  C      2.388380    1.093669   -2.597108
  H      3.763425    0.674718   -0.999889
  H      2.094788    0.461222   -0.545756
  O      1.266058   -1.159177   -5.805365
  H      3.167316    1.013242   -3.359430
  H      2.357690    2.149375   -2.310997
  H      1.039284   -0.368429   -3.449329
  H      0.250787    0.865605   -2.488283
  H      1.940472   -1.716529   -1.441161
  H      3.558569   -1.663433   -0.766371

 Total Charge           Charge          ....    0
 Multiplicity           Mult            ....    1
 Number of Electrons    NEL             ....  112
 Basis Dimension        Dim             ....  643

ORBITAL ENERGIES
----------------

  NO   OCC          E(Eh)            E(eV)
   0   2.0000     -88.341685     -2403.8995
   1   2.0000     -24.389251      -663.6653
   2   2.0000     -18.793267      -511.3908
   3   2.0000     -18.789468      -511.2874
   4   2.0000     -14.002280      -381.0214
   5   2.0000      -9.964535      -271.1488
   6   2.0000      -9.932326      -270.2723
   7   2.0000      -9.919253      -269.9166
   8   2.0000      -9.910805      -269.6867
   9   2.0000      -9.908696      -269.6293
  10   2.0000      -9.907528      -269.5976
  11   2.0000      -9.906443      -269.5680
  12   2.0000      -9.831129      -267.5186
  13   2.0000      -7.873799      -214.2570
  14   2.0000      -5.906146      -160.7144
  15   2.0000      -5.899393      -160.5307
  16   2.0000      -5.898895      -160.5171
  17   2.0000      -1.251452       -34.0537
  18   2.0000      -1.024119       -27.8677
  19   2.0000      -0.936989       -25.4968
  20   2.0000      -0.847479       -23.0611
  21   2.0000      -0.758446       -20.6384
  22   2.0000      -0.724131       -19.7046
  23   2.0000      -0.687131       -18.6978
  24   2.0000      -0.659551       -17.9473
  25   2.0000      -0.627958       -17.0876
  26   2.0000      -0.616472       -16.7751
  27   2.0000      -0.567697       -15.4478
  28   2.0000      -0.533540       -14.5184
  29   2.0000      -0.513181       -13.9644
  30   2.0000      -0.505887       -13.7659
  31   2.0000      -0.500845       -13.6287
  32   2.0000      -0.489135       -13.3101
  33   2.0000      -0.460478       -12.5302
  34   2.0000      -0.444049       -12.0832
  35   2.0000      -0.438031       -11.9194
  36   2.0000      -0.424083       -11.5399
  37   2.0000      -0.418325       -11.3832
  38   2.0000      -0.405709       -11.0399
  39   2.0000      -0.393425       -10.7056
  40   2.0000      -0.383534       -10.4365
  41   2.0000      -0.373903       -10.1744
  42   2.0000      -0.349843        -9.5197
  43   2.0000      -0.346873        -9.4389
  44   2.0000      -0.339514        -9.2387
  45   2.0000      -0.335149        -9.1199
  46   2.0000      -0.329040        -8.9536
  47   2.0000      -0.312587        -8.5059
  48   2.0000      -0.306984        -8.3535
  49   2.0000      -0.295590        -8.0434
  50   2.0000      -0.293946        -7.9987
  51   2.0000      -0.284962        -7.7542
  52   2.0000      -0.282462        -7.6862
  53   2.0000      -0.275401        -7.4940
  54   2.0000      -0.272795        -7.4231
  55   2.0000      -0.152931        -4.1615
  56   0.0000      -0.029295        -0.7972
  57   0.0000      -0.017324        -0.4714
  58   0.0000      -0.011020        -0.2999
  59   0.0000      -0.005637        -0.1534
  60   0.0000      -0.002378        -0.0647

MULLIKEN ATOMIC CHARGES
-----------------------
   0 C :   -0.666167
   1 C :   -0.468998
   2 C :   -0.896430
   3 H :    0.438074
   4 H :    0.306382
   5 S :    1.269223
   6 C :    0.434743
   7 C :   -1.207418
   8 N :   -0.335578
   9 H :    0.195878
  10 H :    0.157681
  11 H :    0.351064
  12 H :    0.492262
  13 F :   -0.203837
  14 O :   -0.552379
  15 C :   -0.575584
  16 C :   -0.502891
  17 H :    0.286168
  18 H :    0.301351
  19 C :   -0.508210
  20 H :    0.294396
  21 H :    0.298850
  22 O :   -0.664483
  23 H :    0.346613
  24 H :    0.302413
  25 H :    0.316298
  26 H :    0.269142
  27 H :    0.272106
  28 H :    0.249331
Sum of atomic charges:   -0.0000000

LOEWDIN ATOMIC CHARGES
----------------------
   0 C :   -0.128974
   1 C :   -0.209193
   2 C :   -0.212129
   3 H :    0.098261
   4 H :    0.102263
   5 S :    0.600006
   6 C :   -0.492799
   7 C :    0.011912
   8 N :    0.126581
   9 H :    0.106274
  10 H :    0.073622
  11 H :    0.031383
  12 H :    0.007490
  13 F :   -0.099177
  14 O :   -0.240012
  15 C :   -0.177777
  16 C :   -0.199406
  17 H :    0.111879
  18 H :    0.117229
  19 C :   -0.201623
  20 H :    0.105216
  21 H :    0.104629
  22 O :   -0.261474
  23 H :    0.088705
  24 H :    0.114925
  25 H :    0.082658
  26 H :    0.119054
  27 H :    0.104214
  28 H :    0.116263

  Mayer bond orders larger than 0.100000
B(  0-C ,  6-C ) :   0.7360 B(  0-C , 15-C ) :   0.8578 B(  0-C , 16-C ) :   0.1174
B(  0-C , 19-C ) :  -0.1115 B(  0-C , 27-H ) :   0.9671 B(  0-C , 28-H ) :   0.9560
B(  1-C ,  2-C ) :   0.7609 B(  1-C , 16-C ) :   0.8197 B(  1-C , 17-H ) :   0.9244
B(  1-C , 18-H ) :   0.9222 B(  1-C , 19-C ) :   0.1100 B(  2-C ,  3-H ) :   0.7567
B(  2-C ,  4-H ) :   0.9525 B(  2-C ,  5-S ) :   0.9166 B(  2-C , 13-F ) :   0.1036
B(  2-C , 14-O ) :   0.1630 B(  2-C , 19-C ) :   0.1437 B(  5-S , 13-F ) :   1.0747
B(  5-S , 14-O ) :   1.4392 B(  5-S , 22-O ) :   1.5261 B(  6-C ,  7-C ) :   1.4259
B(  6-C ,  8-N ) :   0.8542 B(  6-C , 11-H ) :  -0.1164 B(  6-C , 12-H ) :  -0.1318
B(  7-C ,  8-N ) :   0.1088 B(  7-C , 11-H ) :   1.0115 B(  7-C , 12-H ) :   0.7628
B(  8-N ,  9-H ) :   0.8457 B(  8-N , 10-H ) :   0.8784 B( 15-C , 16-C ) :   0.1806
B( 15-C , 19-C ) :   0.9315 B( 15-C , 20-H ) :   0.8767 B( 15-C , 21-H ) :   0.9114
B( 16-C , 19-C ) :   0.3510 B( 16-C , 23-H ) :  -0.1117 B( 16-C , 25-H ) :   1.0463
B( 16-C , 26-H ) :   0.8929 B( 19-C , 23-H ) :   1.0002 B( 19-C , 24-H ) :   0.8830

Dispersion correction           -0.073786530
FINAL SINGLE POINT ENERGY     -1017.741709133763

DIPOLE MOMENT
-------------
                                X             Y             Z
Electronic contribution:      2.15160      -5.01545     -18.62231
Nuclear contribution   :     -2.89481       6.29550      19.36835
                        -----------------------------------------
Total Dipole Moment    :     -0.74321       1.28005       0.74605
                        -----------------------------------------
Magnitude (a.u.)       :      1.65755
Magnitude (Debye)      :      4.21315

Rotational constants in cm-1:     0.036515     0.018832     0.015081
Rotational constants in MHz :  1094.679513   564.567051   452.109105

                             ****ORCA TERMINATED NORMALLY****
TOTAL RUN TIME: 0 days 0 hours 1 minutes 16 seconds 922 msec
