                         Program Version 5.0.0 -  RELEASE  -
|  1> !BLYP D3BJ RIJCOSX def2-TZVPD def2/J TightSCF xyzfile
|  2>
|  3> *xyzfile 0 1 D2.xyz
|  4>
|  5> %MaxCore 64000
|  6>
|  7> %pal nprocs 4
|  8> end
|  9>
| 10> %scf
| 11>   MaxIter 150
| 12> end
| 13>
| 14>
| 15>                          ****END OF INPUT****

CARTESIAN COORDINATES (ANGSTROEM)
---------------------------------
  C      2.916324   -1.242589   -1.543125
  C      0.704661    1.443129   -4.503630
  C      1.728539    1.424320   -5.639443
  H      2.646718    1.953794   -5.381054
  H      1.299916    1.930613   -6.503614
  S      2.252625   -0.188115   -6.271840
  C      3.466585   -1.590971   -2.889082
  N      4.652275   -1.143164   -3.259692
  C      2.752264   -2.292043   -3.728029
  H      1.778364   -2.489604   -3.512738
  H      2.948612   -2.208544   -4.716813
  H      5.146723   -0.512508   -2.633852
  H      4.783030   -1.007203   -4.253498
  F      3.562607   -0.444464   -5.631552
  O      2.344944   -0.033742   -7.696501
  C      2.804084    0.290698   -1.359243
  C      1.052550    0.695659   -3.214915
  H     -0.232483    1.032925   -4.884449
  H      0.511700    2.495794   -4.267966
  C      2.388380    1.093669   -2.597108
  H      3.763425    0.674718   -0.999889
  H      2.094788    0.461222   -0.545756
  O      1.266058   -1.159177   -5.805365
  H      3.167316    1.013242   -3.359430
  H      2.357690    2.149375   -2.310997
  H      1.039284   -0.368429   -3.449329
  H      0.250787    0.865605   -2.488283
  H      1.940472   -1.716529   -1.441161
  H      3.558569   -1.663433   -0.766371

 Total Charge           Charge          ....    0
 Multiplicity           Mult            ....    1
 Number of Electrons    NEL             ....  112
 Basis Dimension        Dim             ....  643

ORBITAL ENERGIES
----------------

  NO   OCC          E(Eh)            E(eV)
   0   2.0000     -88.335681     -2403.7361
   1   2.0000     -24.387244      -663.6106
   2   2.0000     -18.788398      -511.2583
   3   2.0000     -18.778747      -510.9957
   4   2.0000     -14.005111      -381.0985
   5   2.0000      -9.961146      -271.0566
   6   2.0000      -9.928387      -270.1651
   7   2.0000      -9.915827      -269.8234
   8   2.0000      -9.911593      -269.7081
   9   2.0000      -9.909731      -269.6575
  10   2.0000      -9.905181      -269.5337
  11   2.0000      -9.905040      -269.5299
  12   2.0000      -9.832416      -267.5536
  13   2.0000      -7.867708      -214.0912
  14   2.0000      -5.900219      -160.5531
  15   2.0000      -5.893125      -160.3601
  16   2.0000      -5.892806      -160.3514
  17   2.0000      -1.249003       -33.9871
  18   2.0000      -1.017349       -27.6835
  19   2.0000      -0.928277       -25.2597
  20   2.0000      -0.846717       -23.0403
  21   2.0000      -0.755119       -20.5478
  22   2.0000      -0.722300       -19.6548
  23   2.0000      -0.685225       -18.6459
  24   2.0000      -0.659604       -17.9487
  25   2.0000      -0.637516       -17.3477
  26   2.0000      -0.610019       -16.5995
  27   2.0000      -0.561821       -15.2879
  28   2.0000      -0.532341       -14.4857
  29   2.0000      -0.508510       -13.8373
  30   2.0000      -0.504345       -13.7239
  31   2.0000      -0.497003       -13.5241
  32   2.0000      -0.487984       -13.2787
  33   2.0000      -0.468802       -12.7567
  34   2.0000      -0.438404       -11.9296
  35   2.0000      -0.437017       -11.8918
  36   2.0000      -0.423094       -11.5130
  37   2.0000      -0.410926       -11.1819
  38   2.0000      -0.400124       -10.8879
  39   2.0000      -0.392355       -10.6765
  40   2.0000      -0.384218       -10.4551
  41   2.0000      -0.368846       -10.0368
  42   2.0000      -0.356494        -9.7007
  43   2.0000      -0.340716        -9.2713
  44   2.0000      -0.338328        -9.2064
  45   2.0000      -0.334981        -9.1153
  46   2.0000      -0.322709        -8.7814
  47   2.0000      -0.311619        -8.4796
  48   2.0000      -0.302435        -8.2297
  49   2.0000      -0.291391        -7.9291
  50   2.0000      -0.286470        -7.7953
  51   2.0000      -0.284877        -7.7519
  52   2.0000      -0.276752        -7.5308
  53   2.0000      -0.271883        -7.3983
  54   2.0000      -0.266513        -7.2522
  55   2.0000      -0.159356        -4.3363
  56   0.0000      -0.031539        -0.8582
  57   0.0000      -0.016963        -0.4616
  58   0.0000      -0.013963        -0.3800
  59   0.0000      -0.007587        -0.2065
  60   0.0000       0.009063         0.2466

MULLIKEN ATOMIC CHARGES
-----------------------
   0 C :   -0.624031
   1 C :   -0.476569
   2 C :   -0.901649
   3 H :    0.418391
   4 H :    0.310267
   5 S :    1.299811
   6 C :    0.453446
   7 N :   -0.341655
   8 C :   -1.312356
   9 H :    0.396208
  10 H :    0.530463
  11 H :    0.173551
  12 H :    0.244921
  13 F :   -0.222760
  14 O :   -0.567323
  15 C :   -0.696325
  16 C :   -0.465845
  17 H :    0.303837
  18 H :    0.294563
  19 C :   -0.367144
  20 H :    0.311830
  21 H :    0.248249
  22 O :   -0.625790
  23 H :    0.263800
  24 H :    0.309804
  25 H :    0.338603
  26 H :    0.255476
  27 H :    0.210581
  28 H :    0.237646
Sum of atomic charges:   -0.0000000

LOEWDIN ATOMIC CHARGES
----------------------
   0 C :   -0.131110
   1 C :   -0.208808
   2 C :   -0.214111
   3 H :    0.095191
   4 H :    0.101716
   5 S :    0.600679
   6 C :   -0.491015
   7 N :    0.123950
   8 C :    0.006409
   9 H :    0.037457
  10 H :    0.003246
  11 H :    0.107930
  12 H :    0.084979
  13 F :   -0.103550
  14 O :   -0.241821
  15 C :   -0.181816
  16 C :   -0.196665
  17 H :    0.112747
  18 H :    0.115881
  19 C :   -0.202931
  20 H :    0.098963
  21 H :    0.105758
  22 O :   -0.251018
  23 H :    0.086117
  24 H :    0.114144
  25 H :    0.086471
  26 H :    0.119260
  27 H :    0.110853
  28 H :    0.111092

  Mayer bond orders larger than 0.100000
B(  0-C ,  6-C ) :   0.7677 B(  0-C , 15-C ) :   0.8286 B(  0-C , 16-C ) :   0.1532
B(  0-C , 19-C ) :  -0.1650 B(  0-C , 27-H ) :   0.9955 B(  0-C , 28-H ) :   0.9535
B(  1-C ,  2-C ) :   0.7735 B(  1-C , 16-C ) :   0.7986 B(  1-C , 17-H ) :   0.8975
B(  1-C , 18-H ) :   0.9314 B(  1-C , 19-C ) :   0.1240 B(  2-C ,  3-H ) :   0.7678
B(  2-C ,  4-H ) :   0.9501 B(  2-C ,  5-S ) :   0.9186 B(  2-C , 14-O ) :   0.1673
B(  2-C , 19-C ) :   0.1589 B(  5-S , 13-F ) :   1.0972 B(  5-S , 14-O ) :   1.4258
B(  5-S , 22-O ) :   1.5759 B(  6-C ,  7-N ) :   0.8730 B(  6-C ,  8-C ) :   1.4900
B(  6-C ,  9-H ) :  -0.1074 B(  6-C , 10-H ) :  -0.2059 B(  7-N , 11-H ) :   0.8833
B(  7-N , 12-H ) :   0.8423 B(  8-C ,  9-H ) :   0.9241 B(  8-C , 10-H ) :   0.8102
B(  9-H , 10-H ) :   0.1008 B( 15-C , 16-C ) :   0.1897 B( 15-C , 19-C ) :   0.8560
B( 15-C , 20-H ) :   0.8969 B( 15-C , 21-H ) :   0.9437 B( 16-C , 19-C ) :   0.3119
B( 16-C , 23-H ) :  -0.1468 B( 16-C , 25-H ) :   1.0867 B( 16-C , 26-H ) :   0.8894
B( 19-C , 23-H ) :   1.0328 B( 19-C , 24-H ) :   0.8986 B( 19-C , 25-H ) :  -0.1140

Dispersion correction           -0.073941254
FINAL SINGLE POINT ENERGY     -1017.741357235793

DIPOLE MOMENT
-------------
                                X             Y             Z
Electronic contribution:      3.45096      -4.32667     -18.29446
Nuclear contribution   :     -3.13969       6.14743      19.30799
                        -----------------------------------------
Total Dipole Moment    :      0.31128       1.82077       1.01354
                        -----------------------------------------
Magnitude (a.u.)       :      2.10697
Magnitude (Debye)      :      5.35550

Rotational constants in cm-1:     0.036460     0.018762     0.015014
Rotational constants in MHz :  1093.039020   562.475626   450.105862

                             ****ORCA TERMINATED NORMALLY****
TOTAL RUN TIME: 0 days 0 hours 1 minutes 19 seconds 572 msec
