                         Program Version 5.0.0 -  RELEASE  -
|  1> !BLYP D3BJ RIJCOSX def2-TZVPD def2/J TightSCF xyzfile
|  2>
|  3> *xyzfile 0 1 D3.xyz
|  4>
|  5> %MaxCore 64000
|  6>
|  7> %pal nprocs 4
|  8> end
|  9>
| 10> %scf
| 11>   MaxIter 150
| 12> end
| 13>
| 14>
| 15>                          ****END OF INPUT****

CARTESIAN COORDINATES (ANGSTROEM)
---------------------------------
  C      2.916324   -1.242589   -1.543125
  C      0.704661    1.443129   -4.503630
  C      1.728539    1.424320   -5.639443
  H      2.646718    1.953794   -5.381054
  H      1.299916    1.930613   -6.503614
  S      2.252625   -0.188115   -6.271840
  C      3.466585   -1.590971   -2.889082
  C      4.652275   -1.143164   -3.259692
  N      2.752264   -2.292043   -3.728029
  H      1.778364   -2.489604   -3.512738
  H      2.948612   -2.208544   -4.716813
  H      5.146723   -0.512508   -2.633852
  H      4.783030   -1.007203   -4.253498
  O      3.562607   -0.444464   -5.631552
  F      2.344944   -0.033742   -7.696501
  C      2.804084    0.290698   -1.359243
  C      1.052550    0.695659   -3.214915
  H     -0.232483    1.032925   -4.884449
  H      0.511700    2.495794   -4.267966
  C      2.388380    1.093669   -2.597108
  H      3.763425    0.674718   -0.999889
  H      2.094788    0.461222   -0.545756
  O      1.266058   -1.159177   -5.805365
  H      3.167316    1.013242   -3.359430
  H      2.357690    2.149375   -2.310997
  H      1.039284   -0.368429   -3.449329
  H      0.250787    0.865605   -2.488283
  H      1.940472   -1.716529   -1.441161
  H      3.558569   -1.663433   -0.766371

 Total Charge           Charge          ....    0
 Multiplicity           Mult            ....    1
 Number of Electrons    NEL             ....  112
 Basis Dimension        Dim             ....  643

ORBITAL ENERGIES
----------------

  NO   OCC          E(Eh)            E(eV)
   0   2.0000     -88.347949     -2404.0699
   1   2.0000     -24.412369      -664.2943
   2   2.0000     -18.793453      -511.3958
   3   2.0000     -18.784632      -511.1558
   4   2.0000     -13.980053      -380.4166
   5   2.0000      -9.967987      -271.2427
   6   2.0000      -9.933838      -270.3135
   7   2.0000      -9.904988      -269.5284
   8   2.0000      -9.897680      -269.3296
   9   2.0000      -9.896923      -269.3090
  10   2.0000      -9.895266      -269.2639
  11   2.0000      -9.892952      -269.2009
  12   2.0000      -9.806924      -266.8600
  13   2.0000      -7.880031      -214.4265
  14   2.0000      -5.912132      -160.8773
  15   2.0000      -5.905737      -160.7033
  16   2.0000      -5.905157      -160.6875
  17   2.0000      -1.285306       -34.9749
  18   2.0000      -1.017730       -27.6939
  19   2.0000      -0.924084       -25.1456
  20   2.0000      -0.825559       -22.4646
  21   2.0000      -0.757833       -20.6217
  22   2.0000      -0.716070       -19.4853
  23   2.0000      -0.686688       -18.6857
  24   2.0000      -0.654448       -17.8084
  25   2.0000      -0.625834       -17.0298
  26   2.0000      -0.601965       -16.3803
  27   2.0000      -0.566278       -15.4092
  28   2.0000      -0.533640       -14.5211
  29   2.0000      -0.528871       -14.3913
  30   2.0000      -0.508596       -13.8396
  31   2.0000      -0.501918       -13.6579
  32   2.0000      -0.477713       -12.9992
  33   2.0000      -0.448589       -12.2067
  34   2.0000      -0.441059       -12.0018
  35   2.0000      -0.438882       -11.9426
  36   2.0000      -0.421921       -11.4810
  37   2.0000      -0.413968       -11.2646
  38   2.0000      -0.396181       -10.7806
  39   2.0000      -0.385934       -10.5018
  40   2.0000      -0.376604       -10.2479
  41   2.0000      -0.363403        -9.8887
  42   2.0000      -0.349643        -9.5143
  43   2.0000      -0.338072        -9.1994
  44   2.0000      -0.332000        -9.0342
  45   2.0000      -0.317874        -8.6498
  46   2.0000      -0.312554        -8.5050
  47   2.0000      -0.305041        -8.3006
  48   2.0000      -0.293779        -7.9941
  49   2.0000      -0.291074        -7.9205
  50   2.0000      -0.283265        -7.7080
  51   2.0000      -0.274142        -7.4598
  52   2.0000      -0.271564        -7.3896
  53   2.0000      -0.264355        -7.1935
  54   2.0000      -0.255750        -6.9593
  55   2.0000      -0.131216        -3.5706
  56   0.0000      -0.036124        -0.9830
  57   0.0000      -0.022757        -0.6193
  58   0.0000      -0.004777        -0.1300
  59   0.0000      -0.000582        -0.0158
  60   0.0000       0.002865         0.0780

MULLIKEN ATOMIC CHARGES
-----------------------
   0 C :   -0.672749
   1 C :   -0.501309
   2 C :   -0.918790
   3 H :    0.375271
   4 H :    0.382435
   5 S :    1.269270
   6 C :    0.410748
   7 C :   -1.203206
   8 N :   -0.357030
   9 H :    0.189621
  10 H :    0.217817
  11 H :    0.332222
  12 H :    0.522730
  13 O :   -0.645228
  14 F :   -0.076339
  15 C :   -0.555526
  16 C :   -0.462777
  17 H :    0.267554
  18 H :    0.290197
  19 C :   -0.587106
  20 H :    0.292723
  21 H :    0.298940
  22 O :   -0.666569
  23 H :    0.412750
  24 H :    0.295994
  25 H :    0.301068
  26 H :    0.273288
  27 H :    0.269586
  28 H :    0.244416
Sum of atomic charges:   -0.0000000

LOEWDIN ATOMIC CHARGES
----------------------
   0 C :   -0.132410
   1 C :   -0.206705
   2 C :   -0.215224
   3 H :    0.101766
   4 H :    0.093133
   5 S :    0.621078
   6 C :   -0.494496
   7 C :    0.009853
   8 N :    0.123378
   9 H :    0.101158
  10 H :    0.070254
  11 H :    0.028559
  12 H :   -0.000924
  13 O :   -0.290993
  14 F :   -0.029197
  15 C :   -0.179657
  16 C :   -0.196132
  17 H :    0.109977
  18 H :    0.118322
  19 C :   -0.199876
  20 H :    0.104388
  21 H :    0.102088
  22 O :   -0.262422
  23 H :    0.092580
  24 H :    0.112878
  25 H :    0.084466
  26 H :    0.118517
  27 H :    0.101811
  28 H :    0.113833

  Mayer bond orders larger than 0.100000
B(  0-C ,  6-C ) :   0.7282 B(  0-C , 15-C ) :   0.8563 B(  0-C , 16-C ) :   0.1219
B(  0-C , 19-C ) :  -0.1098 B(  0-C , 27-H ) :   0.9724 B(  0-C , 28-H ) :   0.9590
B(  1-C ,  2-C ) :   0.8256 B(  1-C , 16-C ) :   0.8125 B(  1-C , 17-H ) :   0.9215
B(  1-C , 18-H ) :   0.9181 B(  1-C , 19-C ) :   0.1396 B(  2-C ,  3-H ) :   0.8665
B(  2-C ,  4-H ) :   0.8316 B(  2-C ,  5-S ) :   0.9084 B(  2-C , 13-O ) :   0.1721
B(  2-C , 19-C ) :   0.1347 B(  2-C , 22-O ) :   0.1099 B(  5-S , 13-O ) :   1.6734
B(  5-S , 14-F ) :   0.8828 B(  5-S , 22-O ) :   1.5651 B(  6-C ,  7-C ) :   1.4659
B(  6-C ,  8-N ) :   0.8776 B(  6-C , 11-H ) :  -0.1259 B(  6-C , 12-H ) :  -0.1275
B(  7-C ,  8-N ) :   0.1148 B(  7-C , 11-H ) :   1.0419 B(  7-C , 12-H ) :   0.7410
B(  8-N ,  9-H ) :   0.8493 B(  8-N , 10-H ) :   0.8248 B( 13-O , 22-O ) :   0.1542
B( 15-C , 16-C ) :   0.1874 B( 15-C , 19-C ) :   0.9110 B( 15-C , 20-H ) :   0.8771
B( 15-C , 21-H ) :   0.9142 B( 16-C , 19-C ) :   0.3597 B( 16-C , 25-H ) :   1.0465
B( 16-C , 26-H ) :   0.9012 B( 19-C , 23-H ) :   0.9522 B( 19-C , 24-H ) :   0.9005

Dispersion correction           -0.074612403
FINAL SINGLE POINT ENERGY     -1017.725565282004

DIPOLE MOMENT
-------------
                                X             Y             Z
Electronic contribution:      0.08701      -4.23345     -22.51343
Nuclear contribution   :     -1.50273       5.82595      21.72909
                        -----------------------------------------
Total Dipole Moment    :     -1.41572       1.59250      -0.78434
                        -----------------------------------------
Magnitude (a.u.)       :      2.27057
Magnitude (Debye)      :      5.77134

Rotational constants in cm-1:     0.036883     0.018294     0.014745
Rotational constants in MHz :  1105.724679   548.429785   442.050481

                             ****ORCA TERMINATED NORMALLY****
TOTAL RUN TIME: 0 days 0 hours 1 minutes 14 seconds 100 msec
