                         Program Version 5.0.0 -  RELEASE  -
|  1> !BLYP D3BJ RIJCOSX def2-TZVPD def2/J TightSCF xyzfile
|  2>
|  3> *xyzfile 0 1 D4.xyz
|  4>
|  5> %MaxCore 64000
|  6>
|  7> %pal nprocs 4
|  8> end
|  9>
| 10> %scf
| 11>   MaxIter 150
| 12> end
| 13>
| 14>
| 15>                          ****END OF INPUT****

CARTESIAN COORDINATES (ANGSTROEM)
---------------------------------
  C      2.916324   -1.242589   -1.543125
  C      0.704661    1.443129   -4.503630
  C      1.728539    1.424320   -5.639443
  H      2.646718    1.953794   -5.381054
  H      1.299916    1.930613   -6.503614
  S      2.252625   -0.188115   -6.271840
  C      3.466585   -1.590971   -2.889082
  N      4.652275   -1.143164   -3.259692
  C      2.752264   -2.292043   -3.728029
  H      1.778364   -2.489604   -3.512738
  H      2.948612   -2.208544   -4.716813
  H      5.146723   -0.512508   -2.633852
  H      4.783030   -1.007203   -4.253498
  O      3.562607   -0.444464   -5.631552
  F      2.344944   -0.033742   -7.696501
  C      2.804084    0.290698   -1.359243
  C      1.052550    0.695659   -3.214915
  H     -0.232483    1.032925   -4.884449
  H      0.511700    2.495794   -4.267966
  C      2.388380    1.093669   -2.597108
  H      3.763425    0.674718   -0.999889
  H      2.094788    0.461222   -0.545756
  O      1.266058   -1.159177   -5.805365
  H      3.167316    1.013242   -3.359430
  H      2.357690    2.149375   -2.310997
  H      1.039284   -0.368429   -3.449329
  H      0.250787    0.865605   -2.488283
  H      1.940472   -1.716529   -1.441161
  H      3.558569   -1.663433   -0.766371

 Total Charge           Charge          ....    0
 Multiplicity           Mult            ....    1
 Number of Electrons    NEL             ....  112
 Basis Dimension        Dim             ....  643

ORBITAL ENERGIES
----------------

  NO   OCC          E(Eh)            E(eV)
   0   2.0000     -88.344081     -2403.9647
   1   2.0000     -24.408759      -664.1961
   2   2.0000     -18.784894      -511.1630
   3   2.0000     -18.781543      -511.0718
   4   2.0000     -13.979287      -380.3958
   5   2.0000      -9.964790      -271.1557
   6   2.0000      -9.930114      -270.2121
   7   2.0000      -9.899915      -269.3904
   8   2.0000      -9.899315      -269.3740
   9   2.0000      -9.898294      -269.3463
  10   2.0000      -9.895563      -269.2720
  11   2.0000      -9.890735      -269.1406
  12   2.0000      -9.810321      -266.9524
  13   2.0000      -7.875822      -214.3120
  14   2.0000      -5.907930      -160.7629
  15   2.0000      -5.901506      -160.5881
  16   2.0000      -5.901035      -160.5753
  17   2.0000      -1.281555       -34.8729
  18   2.0000      -1.011101       -27.5135
  19   2.0000      -0.918576       -24.9957
  20   2.0000      -0.822177       -22.3726
  21   2.0000      -0.754349       -20.5269
  22   2.0000      -0.714806       -19.4509
  23   2.0000      -0.682200       -18.5636
  24   2.0000      -0.653832       -17.7917
  25   2.0000      -0.631968       -17.1967
  26   2.0000      -0.600255       -16.3338
  27   2.0000      -0.559123       -15.2145
  28   2.0000      -0.530616       -14.4388
  29   2.0000      -0.525021       -14.2866
  30   2.0000      -0.505829       -13.7643
  31   2.0000      -0.500902       -13.6302
  32   2.0000      -0.476054       -12.9541
  33   2.0000      -0.452069       -12.3014
  34   2.0000      -0.439699       -11.9648
  35   2.0000      -0.438176       -11.9234
  36   2.0000      -0.413816       -11.2605
  37   2.0000      -0.402420       -10.9504
  38   2.0000      -0.396137       -10.7794
  39   2.0000      -0.389820       -10.6075
  40   2.0000      -0.375830       -10.2269
  41   2.0000      -0.359152        -9.7730
  42   2.0000      -0.350052        -9.5254
  43   2.0000      -0.334775        -9.1097
  44   2.0000      -0.329954        -8.9785
  45   2.0000      -0.322541        -8.7768
  46   2.0000      -0.312391        -8.5006
  47   2.0000      -0.304798        -8.2940
  48   2.0000      -0.291005        -7.9186
  49   2.0000      -0.284011        -7.7283
  50   2.0000      -0.279104        -7.5948
  51   2.0000      -0.275047        -7.4844
  52   2.0000      -0.266957        -7.2643
  53   2.0000      -0.259078        -7.0499
  54   2.0000      -0.252106        -6.8601
  55   2.0000      -0.138063        -3.7569
  56   0.0000      -0.033261        -0.9051
  57   0.0000      -0.020292        -0.5522
  58   0.0000      -0.007879        -0.2144
  59   0.0000       0.001486         0.0404
  60   0.0000       0.005076         0.1381

MULLIKEN ATOMIC CHARGES
-----------------------
   0 C :   -0.632654
   1 C :   -0.507811
   2 C :   -0.919855
   3 H :    0.352619
   4 H :    0.387454
   5 S :    1.256196
   6 C :    0.443148
   7 N :   -0.343991
   8 C :   -1.314692
   9 H :    0.425597
  10 H :    0.525605
  11 H :    0.170807
  12 H :    0.286439
  13 O :   -0.666304
  14 F :   -0.081875
  15 C :   -0.673371
  16 C :   -0.406389
  17 H :    0.285676
  18 H :    0.283344
  19 C :   -0.427146
  20 H :    0.309792
  21 H :    0.243022
  22 O :   -0.627908
  23 H :    0.321219
  24 H :    0.301448
  25 H :    0.313981
  26 H :    0.254527
  27 H :    0.208094
  28 H :    0.233027
Sum of atomic charges:   -0.0000000

LOEWDIN ATOMIC CHARGES
----------------------
   0 C :   -0.134404
   1 C :   -0.206314
   2 C :   -0.217069
   3 H :    0.098859
   4 H :    0.092677
   5 S :    0.622385
   6 C :   -0.492089
   7 N :    0.124042
   8 C :    0.000918
   9 H :    0.032511
  10 H :   -0.000021
  11 H :    0.104073
  12 H :    0.074470
  13 O :   -0.298468
  14 F :   -0.029448
  15 C :   -0.183401
  16 C :   -0.193507
  17 H :    0.110805
  18 H :    0.117025
  19 C :   -0.201246
  20 H :    0.098219
  21 H :    0.103342
  22 O :   -0.249662
  23 H :    0.089978
  24 H :    0.112126
  25 H :    0.088061
  26 H :    0.118698
  27 H :    0.108531
  28 H :    0.108909

  Mayer bond orders larger than 0.100000
B(  0-C ,  6-C ) :   0.7801 B(  0-C , 15-C ) :   0.8326 B(  0-C , 16-C ) :   0.1586
B(  0-C , 19-C ) :  -0.1640 B(  0-C , 27-H ) :   0.9913 B(  0-C , 28-H ) :   0.9552
B(  1-C ,  2-C ) :   0.8445 B(  1-C , 16-C ) :   0.7921 B(  1-C , 17-H ) :   0.8937
B(  1-C , 18-H ) :   0.9243 B(  1-C , 19-C ) :   0.1561 B(  2-C ,  3-H ) :   0.8767
B(  2-C ,  4-H ) :   0.8306 B(  2-C ,  5-S ) :   0.8965 B(  2-C , 13-O ) :   0.1767
B(  2-C , 14-F ) :   0.1019 B(  2-C , 19-C ) :   0.1377 B(  2-C , 22-O ) :   0.1164
B(  5-S , 13-O ) :   1.7079 B(  5-S , 14-F ) :   0.8826 B(  5-S , 22-O ) :   1.6009
B(  6-C ,  7-N ) :   0.8750 B(  6-C ,  8-C ) :   1.5116 B(  6-C ,  9-H ) :  -0.1096
B(  6-C , 10-H ) :  -0.1918 B(  7-N , 11-H ) :   0.8779 B(  7-N , 12-H ) :   0.8178
B(  8-C ,  9-H ) :   0.9073 B(  8-C , 10-H ) :   0.8281 B(  9-H , 10-H ) :   0.1036
B( 13-O , 22-O ) :   0.1683 B( 15-C , 16-C ) :   0.1873 B( 15-C , 19-C ) :   0.8446
B( 15-C , 20-H ) :   0.8954 B( 15-C , 21-H ) :   0.9475 B( 16-C , 19-C ) :   0.3309
B( 16-C , 23-H ) :  -0.1265 B( 16-C , 25-H ) :   1.0943 B( 16-C , 26-H ) :   0.9059
B( 19-C , 23-H ) :   1.0018 B( 19-C , 24-H ) :   0.9186 B( 19-C , 25-H ) :  -0.1087

Dispersion correction           -0.074763614
FINAL SINGLE POINT ENERGY     -1017.727968179512

DIPOLE MOMENT
-------------
                                X             Y             Z
Electronic contribution:      1.36159      -3.53967     -22.19424
Nuclear contribution   :     -1.74760       5.67788      21.66873
                        -----------------------------------------
Total Dipole Moment    :     -0.38602       2.13821      -0.52551
                        -----------------------------------------
Magnitude (a.u.)       :      2.23542
Magnitude (Debye)      :      5.68198

Rotational constants in cm-1:     0.036818     0.018222     0.014682
Rotational constants in MHz :  1103.783048   546.296792   440.157914

                             ****ORCA TERMINATED NORMALLY****
TOTAL RUN TIME: 0 days 0 hours 1 minutes 21 seconds 640 msec
