                         Program Version 5.0.0 -  RELEASE  -
|  1> !BLYP D3BJ RIJCOSX def2-TZVPD def2/J TightSCF xyzfile
|  2>
|  3> *xyzfile 0 1 D5.xyz
|  4>
|  5> %MaxCore 64000
|  6>
|  7> %pal nprocs 4
|  8> end
|  9>
| 10> %scf
| 11>   MaxIter 150
| 12> end
| 13>
| 14>
| 15>                          ****END OF INPUT****

CARTESIAN COORDINATES (ANGSTROEM)
---------------------------------
  C      2.916324   -1.242589   -1.543125
  C      0.704661    1.443129   -4.503630
  C      1.728539    1.424320   -5.639443
  H      2.646718    1.953794   -5.381054
  H      1.299916    1.930613   -6.503614
  S      2.252625   -0.188115   -6.271840
  C      3.466585   -1.590971   -2.889082
  C      4.652275   -1.143164   -3.259692
  N      2.752264   -2.292043   -3.728029
  H      1.778364   -2.489604   -3.512738
  H      2.948612   -2.208544   -4.716813
  H      5.146723   -0.512508   -2.633852
  H      4.783030   -1.007203   -4.253498
  O      3.562607   -0.444464   -5.631552
  O      2.344944   -0.033742   -7.696501
  C      2.804084    0.290698   -1.359243
  C      1.052550    0.695659   -3.214915
  H     -0.232483    1.032925   -4.884449
  H      0.511700    2.495794   -4.267966
  C      2.388380    1.093669   -2.597108
  H      3.763425    0.674718   -0.999889
  H      2.094788    0.461222   -0.545756
  F      1.266058   -1.159177   -5.805365
  H      3.167316    1.013242   -3.359430
  H      2.357690    2.149375   -2.310997
  H      1.039284   -0.368429   -3.449329
  H      0.250787    0.865605   -2.488283
  H      1.940472   -1.716529   -1.441161
  H      3.558569   -1.663433   -0.766371

 Total Charge           Charge          ....    0
 Multiplicity           Mult            ....    1
 Number of Electrons    NEL             ....  112
 Basis Dimension        Dim             ....  643

ORBITAL ENERGIES
----------------

  NO   OCC          E(Eh)            E(eV)
   0   2.0000     -88.343938     -2403.9608
   1   2.0000     -24.402873      -664.0359
   2   2.0000     -18.794715      -511.4302
   3   2.0000     -18.781292      -511.0649
   4   2.0000     -13.996728      -380.8703
   5   2.0000      -9.965587      -271.1774
   6   2.0000      -9.938285      -270.4345
   7   2.0000      -9.916505      -269.8418
   8   2.0000      -9.907260      -269.5903
   9   2.0000      -9.904197      -269.5069
  10   2.0000      -9.902900      -269.4716
  11   2.0000      -9.901625      -269.4369
  12   2.0000      -9.815973      -267.1062
  13   2.0000      -7.876093      -214.3194
  14   2.0000      -5.908455      -160.7772
  15   2.0000      -5.901643      -160.5919
  16   2.0000      -5.901114      -160.5775
  17   2.0000      -1.268792       -34.5256
  18   2.0000      -1.021180       -27.7877
  19   2.0000      -0.928518       -25.2663
  20   2.0000      -0.840349       -22.8670
  21   2.0000      -0.762420       -20.7465
  22   2.0000      -0.721391       -19.6301
  23   2.0000      -0.686981       -18.6937
  24   2.0000      -0.654540       -17.8109
  25   2.0000      -0.633007       -17.2250
  26   2.0000      -0.608398       -16.5553
  27   2.0000      -0.572001       -15.5650
  28   2.0000      -0.536735       -14.6053
  29   2.0000      -0.524780       -14.2800
  30   2.0000      -0.513677       -13.9779
  31   2.0000      -0.495967       -13.4960
  32   2.0000      -0.485973       -13.2240
  33   2.0000      -0.457600       -12.4519
  34   2.0000      -0.443794       -12.0763
  35   2.0000      -0.439572       -11.9614
  36   2.0000      -0.421390       -11.4666
  37   2.0000      -0.416674       -11.3383
  38   2.0000      -0.402550       -10.9539
  39   2.0000      -0.396837       -10.7985
  40   2.0000      -0.382587       -10.4107
  41   2.0000      -0.369902       -10.0656
  42   2.0000      -0.351673        -9.5695
  43   2.0000      -0.342085        -9.3086
  44   2.0000      -0.340196        -9.2572
  45   2.0000      -0.330451        -8.9920
  46   2.0000      -0.323600        -8.8056
  47   2.0000      -0.307242        -8.3605
  48   2.0000      -0.304493        -8.2857
  49   2.0000      -0.293677        -7.9914
  50   2.0000      -0.288342        -7.8462
  51   2.0000      -0.283467        -7.7135
  52   2.0000      -0.279312        -7.6005
  53   2.0000      -0.266926        -7.2634
  54   2.0000      -0.260201        -7.0804
  55   2.0000      -0.142560        -3.8792
  56   0.0000      -0.041734        -1.1356
  57   0.0000      -0.015522        -0.4224
  58   0.0000      -0.013555        -0.3689
  59   0.0000      -0.003556        -0.0968
  60   0.0000       0.007477         0.2035

MULLIKEN ATOMIC CHARGES
-----------------------
   0 C :   -0.668751
   1 C :   -0.616702
   2 C :   -0.789025
   3 H :    0.400821
   4 H :    0.311360
   5 S :    1.272793
   6 C :    0.458464
   7 C :   -1.199461
   8 N :   -0.393668
   9 H :    0.202076
  10 H :    0.198644
  11 H :    0.333056
  12 H :    0.518149
  13 O :   -0.641793
  14 O :   -0.554907
  15 C :   -0.555821
  16 C :   -0.386692
  17 H :    0.283161
  18 H :    0.293048
  19 C :   -0.558460
  20 H :    0.295068
  21 H :    0.302608
  22 F :   -0.223646
  23 H :    0.391085
  24 H :    0.301983
  25 H :    0.250967
  26 H :    0.265901
  27 H :    0.269102
  28 H :    0.240636
Sum of atomic charges:    0.0000000

LOEWDIN ATOMIC CHARGES
----------------------
   0 C :   -0.132294
   1 C :   -0.214938
   2 C :   -0.207316
   3 H :    0.107690
   4 H :    0.098589
   5 S :    0.609514
   6 C :   -0.495834
   7 C :    0.017627
   8 N :    0.114098
   9 H :    0.099080
  10 H :    0.071278
  11 H :    0.031751
  12 H :    0.002012
  13 O :   -0.287817
  14 O :   -0.237929
  15 C :   -0.178689
  16 C :   -0.200518
  17 H :    0.107863
  18 H :    0.117403
  19 C :   -0.198132
  20 H :    0.105535
  21 H :    0.102785
  22 F :   -0.056616
  23 H :    0.093527
  24 H :    0.114955
  25 H :    0.081366
  26 H :    0.118754
  27 H :    0.101326
  28 H :    0.114929

  Mayer bond orders larger than 0.100000
B(  0-C ,  6-C ) :   0.7289 B(  0-C , 15-C ) :   0.8549 B(  0-C , 16-C ) :   0.1165
B(  0-C , 19-C ) :  -0.1115 B(  0-C , 27-H ) :   0.9703 B(  0-C , 28-H ) :   0.9579
B(  1-C ,  2-C ) :   0.7985 B(  1-C , 16-C ) :   0.7465 B(  1-C , 17-H ) :   0.9526
B(  1-C , 18-H ) :   0.9199 B(  1-C , 19-C ) :   0.1378 B(  2-C ,  3-H ) :   0.8163
B(  2-C ,  4-H ) :   0.9695 B(  2-C ,  5-S ) :   0.8946 B(  2-C , 13-O ) :   0.1560
B(  2-C , 14-O ) :   0.1585 B(  2-C , 19-C ) :   0.1257 B(  5-S , 13-O ) :   1.6738
B(  5-S , 14-O ) :   1.4774 B(  5-S , 22-F ) :   0.9917 B(  6-C ,  7-C ) :   1.4743
B(  6-C ,  8-N ) :   0.8520 B(  6-C , 11-H ) :  -0.1180 B(  6-C , 12-H ) :  -0.1246
B(  7-C ,  8-N ) :   0.1154 B(  7-C , 11-H ) :   1.0388 B(  7-C , 12-H ) :   0.7448
B(  8-N ,  9-H ) :   0.8546 B(  8-N , 10-H ) :   0.8171 B( 15-C , 16-C ) :   0.2028
B( 15-C , 19-C ) :   0.9031 B( 15-C , 20-H ) :   0.8749 B( 15-C , 21-H ) :   0.9123
B( 16-C , 19-C ) :   0.3669 B( 16-C , 25-H ) :   1.0422 B( 16-C , 26-H ) :   0.9190
B( 19-C , 23-H ) :   0.9800 B( 19-C , 24-H ) :   0.8907

Dispersion correction           -0.073981714
FINAL SINGLE POINT ENERGY     -1017.730024277678

DIPOLE MOMENT
-------------
                                X             Y             Z
Electronic contribution:     -1.65109      -6.11320     -19.06056
Nuclear contribution   :     -0.26930       7.11259      19.56706
                        -----------------------------------------
Total Dipole Moment    :     -1.92039       0.99939       0.50650
                        -----------------------------------------
Magnitude (a.u.)       :      2.22333
Magnitude (Debye)      :      5.65127

Rotational constants in cm-1:     0.036519     0.018683     0.015073
Rotational constants in MHz :  1094.801738   560.111127   451.890222

                             ****ORCA TERMINATED NORMALLY****
TOTAL RUN TIME: 0 days 0 hours 1 minutes 20 seconds 339 msec
