                         Program Version 5.0.0 -  RELEASE  -
|  1> !BLYP D3BJ RIJCOSX def2-TZVPD def2/J TightSCF xyzfile
|  2>
|  3> *xyzfile 0 1 D6.xyz
|  4>
|  5> %MaxCore 64000
|  6>
|  7> %pal nprocs 4
|  8> end
|  9>
| 10> %scf
| 11>   MaxIter 150
| 12> end
| 13>
| 14>
| 15>                          ****END OF INPUT****

CARTESIAN COORDINATES (ANGSTROEM)
---------------------------------
  C      2.916324   -1.242589   -1.543125
  C      0.704661    1.443129   -4.503630
  C      1.728539    1.424320   -5.639443
  H      2.646718    1.953794   -5.381054
  H      1.299916    1.930613   -6.503614
  S      2.252625   -0.188115   -6.271840
  C      3.466585   -1.590971   -2.889082
  N      4.652275   -1.143164   -3.259692
  C      2.752264   -2.292043   -3.728029
  H      1.778364   -2.489604   -3.512738
  H      2.948612   -2.208544   -4.716813
  H      5.146723   -0.512508   -2.633852
  H      4.783030   -1.007203   -4.253498
  O      3.562607   -0.444464   -5.631552
  O      2.344944   -0.033742   -7.696501
  C      2.804084    0.290698   -1.359243
  C      1.052550    0.695659   -3.214915
  H     -0.232483    1.032925   -4.884449
  H      0.511700    2.495794   -4.267966
  C      2.388380    1.093669   -2.597108
  H      3.763425    0.674718   -0.999889
  H      2.094788    0.461222   -0.545756
  F      1.266058   -1.159177   -5.805365
  H      3.167316    1.013242   -3.359430
  H      2.357690    2.149375   -2.310997
  H      1.039284   -0.368429   -3.449329
  H      0.250787    0.865605   -2.488283
  H      1.940472   -1.716529   -1.441161
  H      3.558569   -1.663433   -0.766371

 Total Charge           Charge          ....    0
 Multiplicity           Mult            ....    1
 Number of Electrons    NEL             ....  112
 Basis Dimension        Dim             ....  643

ORBITAL ENERGIES
----------------

  NO   OCC          E(Eh)            E(eV)
   0   2.0000     -88.341223     -2403.8869
   1   2.0000     -24.392556      -663.7552
   2   2.0000     -18.791172      -511.3338
   3   2.0000     -18.777707      -510.9674
   4   2.0000     -13.988119      -380.6361
   5   2.0000      -9.962817      -271.1020
   6   2.0000      -9.934705      -270.3371
   7   2.0000      -9.910709      -269.6841
   8   2.0000      -9.909156      -269.6418
   9   2.0000      -9.908115      -269.6135
  10   2.0000      -9.906177      -269.5608
  11   2.0000      -9.900527      -269.4070
  12   2.0000      -9.825291      -267.3598
  13   2.0000      -7.872888      -214.2322
  14   2.0000      -5.905105      -160.6861
  15   2.0000      -5.898639      -160.5101
  16   2.0000      -5.898027      -160.4935
  17   2.0000      -1.258368       -34.2419
  18   2.0000      -1.017173       -27.6787
  19   2.0000      -0.924958       -25.1694
  20   2.0000      -0.831688       -22.6314
  21   2.0000      -0.759222       -20.6595
  22   2.0000      -0.720080       -19.5944
  23   2.0000      -0.681657       -18.5488
  24   2.0000      -0.656145       -17.8546
  25   2.0000      -0.635384       -17.2897
  26   2.0000      -0.607121       -16.5206
  27   2.0000      -0.564502       -15.3609
  28   2.0000      -0.532126       -14.4799
  29   2.0000      -0.514975       -14.0132
  30   2.0000      -0.508474       -13.8363
  31   2.0000      -0.498337       -13.5604
  32   2.0000      -0.481829       -13.1112
  33   2.0000      -0.453943       -12.3524
  34   2.0000      -0.440457       -11.9854
  35   2.0000      -0.436945       -11.8899
  36   2.0000      -0.419279       -11.4092
  37   2.0000      -0.409982       -11.1562
  38   2.0000      -0.403980       -10.9928
  39   2.0000      -0.391039       -10.6407
  40   2.0000      -0.386270       -10.5109
  41   2.0000      -0.367618       -10.0034
  42   2.0000      -0.355623        -9.6770
  43   2.0000      -0.343662        -9.3515
  44   2.0000      -0.337095        -9.1728
  45   2.0000      -0.335187        -9.1209
  46   2.0000      -0.320000        -8.7076
  47   2.0000      -0.313562        -8.5325
  48   2.0000      -0.302863        -8.2413
  49   2.0000      -0.289825        -7.8865
  50   2.0000      -0.286423        -7.7940
  51   2.0000      -0.282227        -7.6798
  52   2.0000      -0.277596        -7.5538
  53   2.0000      -0.262621        -7.1463
  54   2.0000      -0.258070        -7.0224
  55   2.0000      -0.151051        -4.1103
  56   0.0000      -0.036426        -0.9912
  57   0.0000      -0.014789        -0.4024
  58   0.0000      -0.009824        -0.2673
  59   0.0000      -0.003001        -0.0817
  60   0.0000       0.009489         0.2582

MULLIKEN ATOMIC CHARGES
-----------------------
   0 C :   -0.611657
   1 C :   -0.620638
   2 C :   -0.799549
   3 H :    0.379790
   4 H :    0.320045
   5 S :    1.304559
   6 C :    0.478008
   7 N :   -0.338610
   8 C :   -1.462375
   9 H :    0.461273
  10 H :    0.578877
  11 H :    0.173092
  12 H :    0.276594
  13 O :   -0.675213
  14 O :   -0.563464
  15 C :   -0.680778
  16 C :   -0.326191
  17 H :    0.299540
  18 H :    0.287519
  19 C :   -0.399625
  20 H :    0.313188
  21 H :    0.246170
  22 F :   -0.204574
  23 H :    0.299680
  24 H :    0.307682
  25 H :    0.268924
  26 H :    0.251736
  27 H :    0.207507
  28 H :    0.228492
Sum of atomic charges:   -0.0000000

LOEWDIN ATOMIC CHARGES
----------------------
   0 C :   -0.132451
   1 C :   -0.214340
   2 C :   -0.208529
   3 H :    0.105068
   4 H :    0.098244
   5 S :    0.612766
   6 C :   -0.491334
   7 N :    0.130205
   8 C :   -0.007108
   9 H :    0.029133
  10 H :   -0.000780
  11 H :    0.106780
  12 H :    0.077430
  13 O :   -0.296140
  14 O :   -0.238210
  15 C :   -0.181815
  16 C :   -0.198190
  17 H :    0.108788
  18 H :    0.116134
  19 C :   -0.199649
  20 H :    0.099622
  21 H :    0.104302
  22 F :   -0.048070
  23 H :    0.090866
  24 H :    0.114218
  25 H :    0.084974
  26 H :    0.118869
  27 H :    0.108426
  28 H :    0.110790

  Mayer bond orders larger than 0.100000
B(  0-C ,  6-C ) :   0.7883 B(  0-C , 15-C ) :   0.8285 B(  0-C , 16-C ) :   0.1572
B(  0-C , 19-C ) :  -0.1677 B(  0-C , 27-H ) :   0.9918 B(  0-C , 28-H ) :   0.9471
B(  1-C ,  2-C ) :   0.8124 B(  1-C , 16-C ) :   0.7232 B(  1-C , 17-H ) :   0.9232
B(  1-C , 18-H ) :   0.9261 B(  1-C , 19-C ) :   0.1540 B(  2-C ,  3-H ) :   0.8293
B(  2-C ,  4-H ) :   0.9677 B(  2-C ,  5-S ) :   0.8924 B(  2-C , 13-O ) :   0.1716
B(  2-C , 14-O ) :   0.1659 B(  2-C , 19-C ) :   0.1323 B(  5-S , 13-O ) :   1.7004
B(  5-S , 14-O ) :   1.4581 B(  5-S , 22-F ) :   1.0116 B(  6-C ,  7-N ) :   0.9105
B(  6-C ,  8-C ) :   1.4577 B(  6-C ,  9-H ) :  -0.1051 B(  6-C , 10-H ) :  -0.1621
B(  6-C , 13-O ) :  -0.1483 B(  7-N , 11-H ) :   0.8776 B(  7-N , 12-H ) :   0.8115
B(  8-C ,  9-H ) :   0.8853 B(  8-C , 10-H ) :   0.7280 B( 15-C , 16-C ) :   0.2006
B( 15-C , 19-C ) :   0.8424 B( 15-C , 20-H ) :   0.8939 B( 15-C , 21-H ) :   0.9462
B( 16-C , 19-C ) :   0.3304 B( 16-C , 23-H ) :  -0.1323 B( 16-C , 25-H ) :   1.0903
B( 16-C , 26-H ) :   0.9196 B( 19-C , 23-H ) :   1.0283 B( 19-C , 24-H ) :   0.9059
B( 19-C , 25-H ) :  -0.1085

Dispersion correction           -0.074114374
FINAL SINGLE POINT ENERGY     -1017.738850833406

DIPOLE MOMENT
-------------
                                X             Y             Z
Electronic contribution:     -0.37895      -5.39742     -18.71388
Nuclear contribution   :     -0.51418       6.96452      19.50670
                        -----------------------------------------
Total Dipole Moment    :     -0.89313       1.56710       0.79282
                        -----------------------------------------
Magnitude (a.u.)       :      1.97029
Magnitude (Debye)      :      5.00808

Rotational constants in cm-1:     0.036455     0.018603     0.015008
Rotational constants in MHz :  1092.895336   557.693628   449.926016

                             ****ORCA TERMINATED NORMALLY****
TOTAL RUN TIME: 0 days 0 hours 1 minutes 22 seconds 703 msec
