                         Program Version 5.0.0 -  RELEASE  -
|  1> !wB97X-D3 RIJCOSX def2-SVPD def2/J TightSCF
|  2> *xyz -1 1
|  3> C          4.12921        0.89839       -3.41895
|  4> C          5.01734        1.31521       -2.22130
|  5> O          4.73706        0.85411       -1.12283
|  6> O          5.92815        2.16811       -2.49136
|  7> H          4.48610        1.37210       -4.30953
|  8> H          3.11885        1.19903       -3.23540
|  9> H          4.16886       -0.16404       -3.53966
| 10> *
| 11> %MaxCore 64000
| 12>
| 13> %pal nprocs 18
| 14> end
| 15>
| 16> %scf
| 17>   MaxIter 150
| 18> end
| 19>
| 20>
| 21>                          ****END OF INPUT****

CARTESIAN COORDINATES (ANGSTROEM)
---------------------------------
  C      4.129210    0.898390   -3.418950
  C      5.017340    1.315210   -2.221300
  O      4.737060    0.854110   -1.122830
  O      5.928150    2.168110   -2.491360
  H      4.486100    1.372100   -4.309530
  H      3.118850    1.199030   -3.235400
  H      4.168860   -0.164040   -3.539660

 Total Charge           Charge          ....   -1
 Multiplicity           Mult            ....    1
 Number of Electrons    NEL             ....   32
 Basis Dimension        Dim             ....  110

ORBITAL ENERGIES
----------------

  NO   OCC          E(Eh)            E(eV)
   0   2.0000     -18.984689      -516.5997
   1   2.0000     -18.974615      -516.3255
   2   2.0000     -10.176594      -276.9192
   3   2.0000     -10.099511      -274.8217
   4   2.0000      -0.930651       -25.3243
   5   2.0000      -0.831284       -22.6204
   6   2.0000      -0.648014       -17.6333
   7   2.0000      -0.403176       -10.9710
   8   2.0000      -0.359276        -9.7764
   9   2.0000      -0.343092        -9.3360
  10   2.0000      -0.328760        -8.9460
  11   2.0000      -0.286316        -7.7911
  12   2.0000      -0.267871        -7.2891
  13   2.0000      -0.142480        -3.8771
  14   2.0000      -0.134877        -3.6702
  15   2.0000      -0.123268        -3.3543
  16   0.0000       0.240054         6.5322
  17   0.0000       0.273825         7.4512
  18   0.0000       0.298425         8.1206
  19   0.0000       0.309390         8.4189
  20   0.0000       0.334456         9.1010

MULLIKEN ATOMIC CHARGES
-----------------------
   0 C :    0.412784
   1 C :    0.046072
   2 O :   -0.607567
   3 O :   -0.694266
   4 H :   -0.067064
   5 H :   -0.045706
   6 H :   -0.044252
Sum of atomic charges:   -1.0000000

LOEWDIN ATOMIC CHARGES
----------------------
   0 C :    0.138160
   1 C :   -0.332121
   2 O :   -0.320443
   3 O :   -0.364326
   4 H :   -0.044783
   5 H :   -0.037137
   6 H :   -0.039350

  Mayer bond orders larger than 0.100000
B(  0-C ,  1-C ) :   1.2008 B(  0-C ,  4-H ) :   0.8907 B(  0-C ,  5-H ) :   0.8440
B(  0-C ,  6-H ) :   0.8350 B(  1-C ,  2-O ) :   1.5750 B(  1-C ,  3-O ) :   1.4820
B(  1-C ,  4-H ) :   0.2198 B(  1-C ,  5-H ) :   0.1397 B(  1-C ,  6-H ) :   0.1468

Dispersion correction           -0.000905406
FINAL SINGLE POINT ENERGY      -228.304706877939

DIPOLE MOMENT
-------------
                                X             Y             Z
Electronic contribution:      2.01408       0.92865       2.86502
Nuclear contribution   :     -2.87913      -1.42371      -3.86600
                        -----------------------------------------
Total Dipole Moment    :     -0.86504      -0.49507      -1.00098
                        -----------------------------------------
Magnitude (a.u.)       :      1.41257
Magnitude (Debye)      :      3.59047

Rotational constants in cm-1:     0.390018     0.334370     0.186171
Rotational constants in MHz : 11692.450907 10024.149143  5581.251544

                             ****ORCA TERMINATED NORMALLY****
TOTAL RUN TIME: 0 days 0 hours 0 minutes 4 seconds 573 msec
