                         Program Version 5.0.0 -  RELEASE  -
|  1> !wB97X-D3 RIJCOSX def2-SVPD def2/J TightSCF
|  2> *xyz 1 1
|  3> C          3.34350        3.35457       -3.59200
|  4> C          4.25587        3.70385       -4.72605
|  5> N          3.73403        4.29378       -5.80077
|  6> N          5.51504        3.40725       -4.63718
|  7> H          6.14919        3.60120       -5.39905
|  8> H          5.81358        2.89950       -3.80879
|  9> H          2.74138        4.51311       -5.82470
| 10> H          4.28755        4.52126       -6.61434
| 11> H          2.34726        3.66659       -3.82664
| 12> H          3.67283        3.85124       -2.70331
| 13> H          3.35820        2.29620       -3.43538
| 14> *
| 15> %MaxCore 64000
| 16>
| 17> %pal nprocs 18
| 18> end
| 19>
| 20> %scf
| 21>   MaxIter 150
| 22> end
| 23>
| 24>
| 25>                          ****END OF INPUT****

CARTESIAN COORDINATES (ANGSTROEM)
---------------------------------
  C      3.343500    3.354570   -3.592000
  C      4.255870    3.703850   -4.726050
  N      3.734030    4.293780   -5.800770
  N      5.515040    3.407250   -4.637180
  H      6.149190    3.601200   -5.399050
  H      5.813580    2.899500   -3.808790
  H      2.741380    4.513110   -5.824700
  H      4.287550    4.521260   -6.614340
  H      2.347260    3.666590   -3.826640
  H      3.672830    3.851240   -2.703310
  H      3.358200    2.296200   -3.435380

 Total Charge           Charge          ....    1
 Multiplicity           Mult            ....    1
 Number of Electrons    NEL             ....   32
 Basis Dimension        Dim             ....  136

ORBITAL ENERGIES
----------------

  NO   OCC          E(Eh)            E(eV)
   0   2.0000     -14.692453      -399.8020
   1   2.0000     -14.688633      -399.6980
   2   2.0000     -10.626296      -289.1562
   3   2.0000     -10.489159      -285.4245
   4   2.0000      -1.322669       -35.9917
   5   2.0000      -1.224583       -33.3226
   6   2.0000      -1.066474       -29.0202
   7   2.0000      -0.949752       -25.8441
   8   2.0000      -0.890319       -24.2268
   9   2.0000      -0.876060       -23.8388
  10   2.0000      -0.809558       -22.0292
  11   2.0000      -0.767953       -20.8971
  12   2.0000      -0.716743       -19.5036
  13   2.0000      -0.701414       -19.0864
  14   2.0000      -0.676320       -18.4036
  15   2.0000      -0.595049       -16.1921
  16   0.0000      -0.133064        -3.6209
  17   0.0000      -0.085943        -2.3386
  18   0.0000      -0.039218        -1.0672
  19   0.0000      -0.036930        -1.0049
  20   0.0000      -0.015952        -0.4341

MULLIKEN ATOMIC CHARGES
-----------------------
   0 C :    0.453151
   1 C :    0.398202
   2 N :   -0.103606
   3 N :    0.107075
   4 H :   -0.121018
   5 H :    0.088002
   6 H :    0.091294
   7 H :   -0.097905
   8 H :    0.053606
   9 H :    0.070283
  10 H :    0.060915
Sum of atomic charges:    1.0000000

LOEWDIN ATOMIC CHARGES
----------------------
   0 C :    0.228441
   1 C :   -0.054948
   2 N :    0.271001
   3 N :    0.272316
   4 H :    0.056224
   5 H :    0.066894
   6 H :    0.053784
   7 H :    0.047289
   8 H :    0.007800
   9 H :    0.025624
  10 H :    0.025575

  Mayer bond orders larger than 0.100000
B(  0-C ,  1-C ) :   1.2542 B(  0-C ,  8-H ) :   0.8094 B(  0-C ,  9-H ) :   0.7835
B(  0-C , 10-H ) :   0.8063 B(  1-C ,  2-N ) :   0.9590 B(  1-C ,  3-N ) :   1.2230
B(  1-C ,  4-H ) :  -0.1382 B(  1-C ,  7-H ) :  -0.2288 B(  1-C ,  8-H ) :   0.2179
B(  1-C ,  9-H ) :   0.1528 B(  1-C , 10-H ) :   0.1322 B(  2-N ,  3-N ) :   0.1458
B(  2-N ,  6-H ) :   1.0507 B(  2-N ,  7-H ) :   1.3419 B(  3-N ,  4-H ) :   1.2526
B(  3-N ,  5-H ) :   1.0609 B(  4-H ,  5-H ) :  -0.1445 B(  6-H ,  7-H ) :  -0.1705
B(  9-H , 10-H ) :   0.1010

Dispersion correction           -0.001665635
FINAL SINGLE POINT ENERGY      -189.541026000788

DIPOLE MOMENT
-------------
                                X             Y             Z
Electronic contribution:      1.41872       0.50292      -1.59948
Nuclear contribution   :     -1.09951      -0.46604       1.22975
                        -----------------------------------------
Total Dipole Moment    :      0.31921       0.03688      -0.36973
                        -----------------------------------------
Magnitude (a.u.)       :      0.48985
Magnitude (Debye)      :      1.24510

Rotational constants in cm-1:     0.329035     0.303839     0.162676
Rotational constants in MHz :  9864.215808  9108.853745  4876.907929

                             ****ORCA TERMINATED NORMALLY****
TOTAL RUN TIME: 0 days 0 hours 0 minutes 6 seconds 154 msec
