                         Program Version 5.0.0 -  RELEASE  -
|  1> !wB97X-D3 RIJCOSX def2-SVPD def2/J TightSCF
|  2> *xyz 0 1
|  3> C          4.12921        0.89839       -3.41895
|  4> C          5.01734        1.31521       -2.22130
|  5> F          4.73706        0.85411       -1.12283
|  6> O          5.92815        2.16811       -2.49136
|  7> H          4.48610        1.37210       -4.30953
|  8> H          3.11885        1.19903       -3.23540
|  9> H          4.16886       -0.16404       -3.53966
| 10> *
| 11> %MaxCore 64000
| 12>
| 13> %pal nprocs 18
| 14> end
| 15>
| 16> %scf
| 17>   MaxIter 150
| 18> end
| 19>
| 20>
| 21>                          ****END OF INPUT****

CARTESIAN COORDINATES (ANGSTROEM)
---------------------------------
  C      4.129210    0.898390   -3.418950
  C      5.017340    1.315210   -2.221300
  F      4.737060    0.854110   -1.122830
  O      5.928150    2.168110   -2.491360
  H      4.486100    1.372100   -4.309530
  H      3.118850    1.199030   -3.235400
  H      4.168860   -0.164040   -3.539660

 Total Charge           Charge          ....    0
 Multiplicity           Mult            ....    1
 Number of Electrons    NEL             ....   32
 Basis Dimension        Dim             ....  110

ORBITAL ENERGIES
----------------

  NO   OCC          E(Eh)            E(eV)
   0   2.0000     -24.891293      -677.3265
   1   2.0000     -19.254167      -523.9325
   2   2.0000     -10.483971      -285.2833
   3   2.0000     -10.316871      -280.7363
   4   2.0000      -1.453753       -39.5586
   5   2.0000      -1.131858       -30.7994
   6   2.0000      -0.880645       -23.9636
   7   2.0000      -0.784499       -21.3473
   8   2.0000      -0.676649       -18.4125
   9   2.0000      -0.668161       -18.1816
  10   2.0000      -0.607690       -16.5361
  11   2.0000      -0.545432       -14.8420
  12   2.0000      -0.533310       -14.5121
  13   2.0000      -0.500152       -13.6098
  14   2.0000      -0.449902       -12.2425
  15   2.0000      -0.389386       -10.5957
  16   0.0000       0.052567         1.4304
  17   0.0000       0.082238         2.2378
  18   0.0000       0.122832         3.3424
  19   0.0000       0.156259         4.2520
  20   0.0000       0.165036         4.4909

MULLIKEN ATOMIC CHARGES
-----------------------
   0 C :    0.282142
   1 C :    0.455949
   2 F :   -0.332461
   3 O :   -0.496982
   4 H :   -0.017365
   5 H :    0.055863
   6 H :    0.052854
Sum of atomic charges:    0.0000000

LOEWDIN ATOMIC CHARGES
----------------------
   0 C :    0.209700
   1 C :   -0.023642
   2 F :   -0.015534
   3 O :   -0.162072
   4 H :   -0.001974
   5 H :   -0.001993
   6 H :   -0.004484

  Mayer bond orders larger than 0.100000
B(  0-C ,  1-C ) :   1.2174 B(  0-C ,  4-H ) :   0.9228 B(  0-C ,  5-H ) :   0.8369
B(  0-C ,  6-H ) :   0.8327 B(  1-C ,  2-F ) :   0.8130 B(  1-C ,  3-O ) :   1.8265
B(  1-C ,  4-H ) :   0.1816 B(  1-C ,  6-H ) :   0.1024

Dispersion correction           -0.000899171
FINAL SINGLE POINT ENERGY      -252.827384431677

DIPOLE MOMENT
-------------
                                X             Y             Z
Electronic contribution:      1.69935       0.20246       4.84584
Nuclear contribution   :     -2.65749      -0.95231      -5.09883
                        -----------------------------------------
Total Dipole Moment    :     -0.95813      -0.74985      -0.25299
                        -----------------------------------------
Magnitude (a.u.)       :      1.24270
Magnitude (Debye)      :      3.15869

Rotational constants in cm-1:     0.365278     0.322469     0.176821
Rotational constants in MHz : 10950.755781  9667.377070  5300.957073

                             ****ORCA TERMINATED NORMALLY****
TOTAL RUN TIME: 0 days 0 hours 0 minutes 4 seconds 841 msec
