                         Program Version 5.0.0 -  RELEASE  -
|  1> !wB97X-D3 RIJCOSX def2-SVPD def2/J TightSCF
|  2> *xyz 0 1
|  3> C          3.34350        3.35457       -3.59200
|  4> C          4.25587        3.70385       -4.72605
|  5> C          3.73403        4.29378       -5.80077
|  6> N          5.51504        3.40725       -4.63718
|  7> H          6.14919        3.60120       -5.39905
|  8> H          5.81358        2.89950       -3.80879
|  9> H          2.74138        4.51311       -5.82470
| 10> H          4.28755        4.52126       -6.61434
| 11> H          2.34726        3.66659       -3.82664
| 12> H          3.67283        3.85124       -2.70331
| 13> H          3.35820        2.29620       -3.43538
| 14> *
| 15> %MaxCore 64000
| 16>
| 17> %pal nprocs 18
| 18> end
| 19>
| 20> %scf
| 21>   MaxIter 150
| 22> end
| 23>
| 24>
| 25>                          ****END OF INPUT****

CARTESIAN COORDINATES (ANGSTROEM)
---------------------------------
  C      3.343500    3.354570   -3.592000
  C      4.255870    3.703850   -4.726050
  C      3.734030    4.293780   -5.800770
  N      5.515040    3.407250   -4.637180
  H      6.149190    3.601200   -5.399050
  H      5.813580    2.899500   -3.808790
  H      2.741380    4.513110   -5.824700
  H      4.287550    4.521260   -6.614340
  H      2.347260    3.666590   -3.826640
  H      3.672830    3.851240   -2.703310
  H      3.358200    2.296200   -3.435380

 Total Charge           Charge          ....    0
 Multiplicity           Mult            ....    1
 Number of Electrons    NEL             ....   32
 Basis Dimension        Dim             ....  136

ORBITAL ENERGIES
----------------

  NO   OCC          E(Eh)            E(eV)
   0   2.0000     -14.441083      -392.9618
   1   2.0000     -10.313238      -280.6375
   2   2.0000     -10.279709      -279.7251
   3   2.0000     -10.220041      -278.1015
   4   2.0000      -1.047024       -28.4910
   5   2.0000      -0.865527       -23.5522
   6   2.0000      -0.794688       -21.6246
   7   2.0000      -0.679795       -18.4982
   8   2.0000      -0.635832       -17.3019
   9   2.0000      -0.575570       -15.6621
  10   2.0000      -0.535694       -14.5770
  11   2.0000      -0.494530       -13.4568
  12   2.0000      -0.489064       -13.3081
  13   2.0000      -0.446417       -12.1476
  14   2.0000      -0.437726       -11.9111
  15   2.0000      -0.276545        -7.5252
  16   0.0000       0.090420         2.4604
  17   0.0000       0.126723         3.4483
  18   0.0000       0.128037         3.4841
  19   0.0000       0.132017         3.5924
  20   0.0000       0.164980         4.4893

MULLIKEN ATOMIC CHARGES
-----------------------
   0 C :    0.747797
   1 C :   -0.526642
   2 C :    0.421726
   3 N :    0.283894
   4 H :   -0.183578
   5 H :   -0.112218
   6 H :   -0.139809
   7 H :   -0.467597
   8 H :    0.034248
   9 H :   -0.027573
  10 H :   -0.030246
Sum of atomic charges:    0.0000000

LOEWDIN ATOMIC CHARGES
----------------------
   0 C :    0.159123
   1 C :   -0.297830
   2 C :    0.164579
   3 N :    0.155423
   4 H :    0.015172
   5 H :    0.011600
   6 H :   -0.085587
   7 H :   -0.090251
   8 H :   -0.013031
   9 H :   -0.009797
  10 H :   -0.009400

  Mayer bond orders larger than 0.100000
B(  0-C ,  1-C ) :   1.2619 B(  0-C ,  8-H ) :   0.8025 B(  0-C ,  9-H ) :   0.6882
B(  0-C , 10-H ) :   0.7078 B(  1-C ,  2-C ) :   1.7520 B(  1-C ,  3-N ) :   1.2293
B(  1-C ,  7-H ) :   0.1150 B(  1-C ,  8-H ) :   0.2239 B(  1-C ,  9-H ) :   0.2564
B(  1-C , 10-H ) :   0.2409 B(  2-C ,  3-N ) :   0.2183 B(  2-C ,  6-H ) :   0.9730
B(  2-C ,  7-H ) :   0.8285 B(  3-N ,  4-H ) :   1.2008 B(  3-N ,  5-H ) :   1.1123
B(  4-H ,  5-H ) :  -0.1161

Dispersion correction           -0.001676388
FINAL SINGLE POINT ENERGY      -173.085805234205

DIPOLE MOMENT
-------------
                                X             Y             Z
Electronic contribution:      1.76979      -0.04774      -0.54868
Nuclear contribution   :     -1.20871      -0.33119       0.98382
                        -----------------------------------------
Total Dipole Moment    :      0.56109      -0.37894       0.43514
                        -----------------------------------------
Magnitude (a.u.)       :      0.80483
Magnitude (Debye)      :      2.04572

Rotational constants in cm-1:     0.348453     0.308655     0.168735
Rotational constants in MHz : 10446.369928  9253.232733  5058.539653

                             ****ORCA TERMINATED NORMALLY****
TOTAL RUN TIME: 0 days 0 hours 0 minutes 6 seconds 266 msec
