                         Program Version 5.0.0 -  RELEASE  -
|  1> !wB97X-D3 RIJCOSX def2-SVPD def2/J TightSCF
|  2> *xyz 0 1
|  3> C          4.12921        0.89839       -3.41895
|  4> C          5.01734        1.31521       -2.22130
|  5> O          4.73706        0.85411       -1.12283
|  6> F          5.92815        2.16811       -2.49136
|  7> H          4.48610        1.37210       -4.30953
|  8> H          3.11885        1.19903       -3.23540
|  9> H          4.16886       -0.16404       -3.53966
| 10> *
| 11> %MaxCore 64000
| 12>
| 13> %pal nprocs 18
| 14> end
| 15>
| 16> %scf
| 17>   MaxIter 150
| 18> end
| 19>
| 20>
| 21>                          ****END OF INPUT****

CARTESIAN COORDINATES (ANGSTROEM)
---------------------------------
  C      4.129210    0.898390   -3.418950
  C      5.017340    1.315210   -2.221300
  O      4.737060    0.854110   -1.122830
  F      5.928150    2.168110   -2.491360
  H      4.486100    1.372100   -4.309530
  H      3.118850    1.199030   -3.235400
  H      4.168860   -0.164040   -3.539660

 Total Charge           Charge          ....    0
 Multiplicity           Mult            ....    1
 Number of Electrons    NEL             ....   32
 Basis Dimension        Dim             ....  110

ORBITAL ENERGIES
----------------

  NO   OCC          E(Eh)            E(eV)
   0   2.0000     -24.870174      -676.7518
   1   2.0000     -19.263497      -524.1864
   2   2.0000     -10.480030      -285.1761
   3   2.0000     -10.316859      -280.7360
   4   2.0000      -1.412705       -38.4417
   5   2.0000      -1.165433       -31.7130
   6   2.0000      -0.879110       -23.9218
   7   2.0000      -0.762322       -20.7438
   8   2.0000      -0.652267       -17.7491
   9   2.0000      -0.648945       -17.6587
  10   2.0000      -0.610623       -16.6159
  11   2.0000      -0.545462       -14.8428
  12   2.0000      -0.535406       -14.5691
  13   2.0000      -0.507988       -13.8231
  14   2.0000      -0.466902       -12.7051
  15   2.0000      -0.402559       -10.9542
  16   0.0000       0.055020         1.4972
  17   0.0000       0.083210         2.2643
  18   0.0000       0.124231         3.3805
  19   0.0000       0.158974         4.3259
  20   0.0000       0.161721         4.4007

MULLIKEN ATOMIC CHARGES
-----------------------
   0 C :    0.267628
   1 C :    0.429723
   2 O :   -0.438500
   3 F :   -0.373463
   4 H :    0.002838
   5 H :    0.057911
   6 H :    0.053863
Sum of atomic charges:   -0.0000000

LOEWDIN ATOMIC CHARGES
----------------------
   0 C :    0.212038
   1 C :   -0.020199
   2 O :   -0.125305
   3 F :   -0.058061
   4 H :   -0.014349
   5 H :    0.003553
   6 H :    0.002321

  Mayer bond orders larger than 0.100000
B(  0-C ,  1-C ) :   1.2301 B(  0-C ,  4-H ) :   0.9070 B(  0-C ,  5-H ) :   0.8437
B(  0-C ,  6-H ) :   0.8369 B(  1-C ,  2-O ) :   1.8672 B(  1-C ,  3-F ) :   0.7756
B(  1-C ,  4-H ) :   0.1297 B(  1-C ,  5-H ) :   0.1118 B(  1-C ,  6-H ) :   0.1213

Dispersion correction           -0.000910782
FINAL SINGLE POINT ENERGY      -252.843234840209

DIPOLE MOMENT
-------------
                                X             Y             Z
Electronic contribution:      3.65219       2.35538       2.59872
Nuclear contribution   :     -3.88824      -2.31007      -3.68473
                        -----------------------------------------
Total Dipole Moment    :     -0.23604       0.04531      -1.08600
                        -----------------------------------------
Magnitude (a.u.)       :      1.11228
Magnitude (Debye)      :      2.82720

Rotational constants in cm-1:     0.367620     0.319924     0.176595
Rotational constants in MHz : 11020.955969  9591.092757  5294.190719

                             ****ORCA TERMINATED NORMALLY****
TOTAL RUN TIME: 0 days 0 hours 0 minutes 5 seconds 19 msec
