                         Program Version 5.0.0 -  RELEASE  -
|  1> !wB97X-D3 RIJCOSX def2-SVPD def2/J TightSCF
|  2> *xyz 0 1
|  3> C          3.34350        3.35457       -3.59200
|  4> C          4.25587        3.70385       -4.72605
|  5> N          3.73403        4.29378       -5.80077
|  6> C          5.51504        3.40725       -4.63718
|  7> H          6.14919        3.60120       -5.39905
|  8> H          5.81358        2.89950       -3.80879
|  9> H          2.74138        4.51311       -5.82470
| 10> H          4.28755        4.52126       -6.61434
| 11> H          2.34726        3.66659       -3.82664
| 12> H          3.67283        3.85124       -2.70331
| 13> H          3.35820        2.29620       -3.43538
| 14> *
| 15> %MaxCore 64000
| 16>
| 17> %pal nprocs 18
| 18> end
| 19>
| 20> %scf
| 21>   MaxIter 150
| 22> end
| 23>
| 24>
| 25>                          ****END OF INPUT****

CARTESIAN COORDINATES (ANGSTROEM)
---------------------------------
  C      3.343500    3.354570   -3.592000
  C      4.255870    3.703850   -4.726050
  N      3.734030    4.293780   -5.800770
  C      5.515040    3.407250   -4.637180
  H      6.149190    3.601200   -5.399050
  H      5.813580    2.899500   -3.808790
  H      2.741380    4.513110   -5.824700
  H      4.287550    4.521260   -6.614340
  H      2.347260    3.666590   -3.826640
  H      3.672830    3.851240   -2.703310
  H      3.358200    2.296200   -3.435380

 Total Charge           Charge          ....    0
 Multiplicity           Mult            ....    1
 Number of Electrons    NEL             ....   32
 Basis Dimension        Dim             ....  136

ORBITAL ENERGIES
----------------

  NO   OCC          E(Eh)            E(eV)
   0   2.0000     -14.437791      -392.8723
   1   2.0000     -10.310266      -280.5566
   2   2.0000     -10.279389      -279.7164
   3   2.0000     -10.216936      -278.0170
   4   2.0000      -1.032679       -28.1006
   5   2.0000      -0.870193       -23.6791
   6   2.0000      -0.798369       -21.7247
   7   2.0000      -0.674367       -18.3505
   8   2.0000      -0.625376       -17.0173
   9   2.0000      -0.577182       -15.7059
  10   2.0000      -0.531948       -14.4750
  11   2.0000      -0.494980       -13.4691
  12   2.0000      -0.490136       -13.3373
  13   2.0000      -0.450191       -12.2503
  14   2.0000      -0.432637       -11.7726
  15   2.0000      -0.280309        -7.6276
  16   0.0000       0.091443         2.4883
  17   0.0000       0.126565         3.4440
  18   0.0000       0.127014         3.4562
  19   0.0000       0.131552         3.5797
  20   0.0000       0.163776         4.4566

MULLIKEN ATOMIC CHARGES
-----------------------
   0 C :    0.698169
   1 C :   -0.274212
   2 N :    0.062676
   3 C :    0.335774
   4 H :   -0.374587
   5 H :   -0.144568
   6 H :   -0.075069
   7 H :   -0.165705
   8 H :   -0.112184
   9 H :    0.028942
  10 H :    0.020764
Sum of atomic charges:   -0.0000000

LOEWDIN ATOMIC CHARGES
----------------------
   0 C :    0.160515
   1 C :   -0.285647
   2 N :    0.156849
   3 C :    0.149462
   4 H :   -0.080276
   5 H :   -0.069238
   6 H :   -0.002957
   7 H :    0.004877
   8 H :   -0.026354
   9 H :   -0.003590
  10 H :   -0.003640

  Mayer bond orders larger than 0.100000
B(  0-C ,  1-C ) :   1.0882 B(  0-C ,  3-C ) :   0.1020 B(  0-C ,  8-H ) :   0.7555
B(  0-C ,  9-H ) :   0.7566 B(  0-C , 10-H ) :   0.7674 B(  1-C ,  2-N ) :   0.9965
B(  1-C ,  3-C ) :   1.8880 B(  1-C ,  4-H ) :   0.2044 B(  1-C ,  5-H ) :   0.1511
B(  1-C ,  7-H ) :  -0.1437 B(  1-C ,  8-H ) :   0.2502 B(  1-C ,  9-H ) :   0.1712
B(  1-C , 10-H ) :   0.1584 B(  2-N ,  3-C ) :   0.2296 B(  2-N ,  6-H ) :   1.1111
B(  2-N ,  7-H ) :   1.2994 B(  3-C ,  4-H ) :   0.7964 B(  3-C ,  5-H ) :   0.8095
B(  6-H ,  7-H ) :  -0.1556

Dispersion correction           -0.001663070
FINAL SINGLE POINT ENERGY      -173.084860012242

DIPOLE MOMENT
-------------
                                X             Y             Z
Electronic contribution:      0.19104       0.74201      -1.55043
Nuclear contribution   :     -0.80929      -0.53001       1.24477
                        -----------------------------------------
Total Dipole Moment    :     -0.61825       0.21200      -0.30566
                        -----------------------------------------
Magnitude (a.u.)       :      0.72153
Magnitude (Debye)      :      1.83397

Rotational constants in cm-1:     0.352070     0.305406     0.168593
Rotational constants in MHz : 10554.792117  9155.853997  5054.288053

                             ****ORCA TERMINATED NORMALLY****
TOTAL RUN TIME: 0 days 0 hours 0 minutes 6 seconds 120 msec
