                         Program Version 5.0.0 -  RELEASE  -
|  1> !wB97X-D3 RIJCOSX def2-SVPD def2/J TightSCF xyzfile
|  2>
|  3> *xyzfile 0 1 D1.xyz
|  4>
|  5> %MaxCore 64000
|  6>
|  7> %pal nprocs 18
|  8> end
|  9>
| 10> %scf
| 11>   MaxIter 150
| 12> end
| 13>
| 14>
| 15>                          ****END OF INPUT****

CARTESIAN COORDINATES (ANGSTROEM)
---------------------------------
  C      3.343500    3.354571   -3.591998
  C      2.952633    1.863077   -3.574849
  C      4.129209    0.898394   -3.418950
  H      3.733687   -0.100605   -3.237633
  H      4.719095    0.862556   -4.339005
  C      5.017344    1.315212   -2.221305
  C      4.255868    3.703851   -4.726054
  C      3.734032    4.293783   -5.800770
  N      5.515039    3.407255   -4.637185
  H      6.149187    3.601203   -5.399053
  H      5.813584    2.899504   -3.808785
  H      2.741380    4.513109   -5.824701
  H      4.287548    4.521260   -6.614341
  H      2.278938    1.735250   -2.725496
  H      2.377466    1.625787   -4.475869
  F      4.737055    0.854112   -1.122825
  O      5.928146    2.168108   -2.491365
  H      3.861246    3.597252   -2.662979
  H      2.446493    3.973461   -3.656556

 Total Charge           Charge          ....    0
 Multiplicity           Mult            ....    1
 Number of Electrons    NEL             ....   70
 Basis Dimension        Dim             ....  266

ORBITAL ENERGIES
----------------

  NO   OCC          E(Eh)            E(eV)
   0   2.0000     -24.912218      -677.8959
   1   2.0000     -19.280170      -524.6401
   2   2.0000     -14.402339      -391.9076
   3   2.0000     -10.507466      -285.9227
   4   2.0000     -10.332253      -281.1549
   5   2.0000     -10.315110      -280.6884
   6   2.0000     -10.300934      -280.3027
   7   2.0000     -10.292519      -280.0737
   8   2.0000     -10.209405      -277.8120
   9   2.0000      -1.473204       -40.0879
  10   2.0000      -1.168540       -31.7976
  11   2.0000      -1.026077       -27.9210
  12   2.0000      -0.936491       -25.4832
  13   2.0000      -0.861989       -23.4559
  14   2.0000      -0.820464       -22.3260
  15   2.0000      -0.789482       -21.4829
  16   2.0000      -0.740575       -20.1521
  17   2.0000      -0.696828       -18.9617
  18   2.0000      -0.685553       -18.6548
  19   2.0000      -0.654659       -17.8142
  20   2.0000      -0.651324       -17.7234
  21   2.0000      -0.610863       -16.6224
  22   2.0000      -0.588946       -16.0260
  23   2.0000      -0.562141       -15.2966
  24   2.0000      -0.545380       -14.8405
  25   2.0000      -0.533579       -14.5194
  26   2.0000      -0.494329       -13.4514
  27   2.0000      -0.483524       -13.1573
  28   2.0000      -0.474281       -12.9058
  29   2.0000      -0.470767       -12.8102
  30   2.0000      -0.454462       -12.3665
  31   2.0000      -0.425458       -11.5773
  32   2.0000      -0.419698       -11.4206
  33   2.0000      -0.402983       -10.9657
  34   2.0000      -0.260975        -7.1015
  35   0.0000       0.024329         0.6620
  36   0.0000       0.077331         2.1043
  37   0.0000       0.107079         2.9138
  38   0.0000       0.109889         2.9902
  39   0.0000       0.117609         3.2003

MULLIKEN ATOMIC CHARGES
-----------------------
   0 C :    0.342706
   1 C :   -0.043827
   2 C :    0.067981
   3 H :   -0.094615
   4 H :    0.163489
   5 C :    0.876092
   6 C :   -0.064680
   7 C :    0.324067
   8 N :    0.611863
   9 H :   -0.203897
  10 H :   -0.470340
  11 H :   -0.165265
  12 H :   -0.406764
  13 H :    0.050704
  14 H :   -0.125006
  15 F :   -0.375354
  16 O :   -0.530093
  17 H :    0.055460
  18 H :   -0.012519
Sum of atomic charges:   -0.0000000

LOEWDIN ATOMIC CHARGES
----------------------
   0 C :    0.019877
   1 C :   -0.000042
   2 C :    0.061382
   3 H :    0.025742
   4 H :    0.036541
   5 C :    0.061950
   6 C :   -0.246345
   7 C :    0.163429
   8 N :    0.195711
   9 H :    0.019235
  10 H :   -0.142855
  11 H :   -0.090328
  12 H :   -0.091559
  13 H :    0.024144
  14 H :    0.034682
  15 F :    0.012370
  16 O :   -0.130494
  17 H :    0.018742
  18 H :    0.027818

  Mayer bond orders larger than 0.100000
B(  0-C ,  1-C ) :   1.1564 B(  0-C ,  6-C ) :   1.1471 B(  0-C ,  8-N ) :   0.1042
B(  0-C , 13-H ) :   0.1042 B(  0-C , 14-H ) :   0.1439 B(  0-C , 17-H ) :   0.6701
B(  0-C , 18-H ) :   0.8446 B(  1-C ,  2-C ) :   1.2583 B(  1-C ,  3-H ) :   0.1816
B(  1-C ,  4-H ) :   0.1482 B(  1-C , 13-H ) :   0.8483 B(  1-C , 14-H ) :   0.9851
B(  1-C , 17-H ) :   0.1425 B(  1-C , 18-H ) :   0.1474 B(  2-C ,  3-H ) :   0.8588
B(  2-C ,  4-H ) :   0.8421 B(  2-C ,  5-C ) :   1.0816 B(  2-C , 13-H ) :   0.1136
B(  5-C , 15-F ) :   0.7145 B(  5-C , 16-O ) :   1.6047 B(  6-C ,  7-C ) :   1.7024
B(  6-C ,  8-N ) :   1.1142 B(  6-C , 12-H ) :   0.1574 B(  6-C , 17-H ) :   0.1994
B(  6-C , 18-H ) :   0.1398 B(  7-C ,  8-N ) :   0.1807 B(  7-C , 11-H ) :   0.9648
B(  7-C , 12-H ) :   0.7158 B(  8-N ,  9-H ) :   1.2126 B(  8-N , 10-H ) :   0.9313
B(  8-N , 16-O ) :  -0.1113 B(  9-H , 10-H ) :  -0.2111 B( 10-H , 16-O ) :   0.2022

Dispersion correction           -0.006923573
FINAL SINGLE POINT ENERGY      -463.992965795850

DIPOLE MOMENT
-------------
                                X             Y             Z
Electronic contribution:      5.51716      -5.97469      10.55680
Nuclear contribution   :     -5.86483       4.68058     -10.07545
                        -----------------------------------------
Total Dipole Moment    :     -0.34767      -1.29411       0.48135
                        -----------------------------------------
Magnitude (a.u.)       :      1.42383
Magnitude (Debye)      :      3.61910

Rotational constants in cm-1:     0.107256     0.035474     0.030113
Rotational constants in MHz :  3215.453922  1063.481574   902.777619

                             ****ORCA TERMINATED NORMALLY****
TOTAL RUN TIME: 0 days 0 hours 0 minutes 28 seconds 357 msec
