                         Program Version 5.0.0 -  RELEASE  -
|  1> !wB97X-D3 RIJCOSX def2-SVPD def2/J TightSCF xyzfile
|  2>
|  3> *xyzfile 0 1 D2.xyz
|  4>
|  5> %MaxCore 64000
|  6>
|  7> %pal nprocs 18
|  8> end
|  9>
| 10> %scf
| 11>   MaxIter 150
| 12> end
| 13>
| 14>
| 15>                          ****END OF INPUT****

CARTESIAN COORDINATES (ANGSTROEM)
---------------------------------
  C      3.343500    3.354571   -3.591998
  C      2.952633    1.863077   -3.574849
  C      4.129209    0.898394   -3.418950
  H      3.733687   -0.100605   -3.237633
  H      4.719095    0.862556   -4.339005
  C      5.017344    1.315212   -2.221305
  C      4.255868    3.703851   -4.726054
  N      3.734032    4.293783   -5.800770
  C      5.515039    3.407255   -4.637185
  H      6.149187    3.601203   -5.399053
  H      5.813584    2.899504   -3.808785
  H      2.741380    4.513109   -5.824701
  H      4.287548    4.521260   -6.614341
  H      2.278938    1.735250   -2.725496
  H      2.377466    1.625787   -4.475869
  F      4.737055    0.854112   -1.122825
  O      5.928146    2.168108   -2.491365
  H      3.861246    3.597252   -2.662979
  H      2.446493    3.973461   -3.656556

 Total Charge           Charge          ....    0
 Multiplicity           Mult            ....    1
 Number of Electrons    NEL             ....   70
 Basis Dimension        Dim             ....  266

ORBITAL ENERGIES
----------------

  NO   OCC          E(Eh)            E(eV)
   0   2.0000     -24.894003      -677.4003
   1   2.0000     -19.253923      -523.9259
   2   2.0000     -14.427381      -392.5890
   3   2.0000     -10.485255      -285.3183
   4   2.0000     -10.319530      -280.8087
   5   2.0000     -10.311044      -280.5778
   6   2.0000     -10.294351      -280.1235
   7   2.0000     -10.291559      -280.0476
   8   2.0000     -10.186710      -277.1945
   9   2.0000      -1.455425       -39.6041
  10   2.0000      -1.143351       -31.1122
  11   2.0000      -1.023501       -27.8509
  12   2.0000      -0.929952       -25.3053
  13   2.0000      -0.859231       -23.3809
  14   2.0000      -0.810264       -22.0484
  15   2.0000      -0.788635       -21.4599
  16   2.0000      -0.729577       -19.8528
  17   2.0000      -0.683413       -18.5966
  18   2.0000      -0.671628       -18.2759
  19   2.0000      -0.651689       -17.7333
  20   2.0000      -0.633632       -17.2420
  21   2.0000      -0.601117       -16.3572
  22   2.0000      -0.581443       -15.8219
  23   2.0000      -0.568004       -15.4562
  24   2.0000      -0.550267       -14.9735
  25   2.0000      -0.517663       -14.0863
  26   2.0000      -0.490714       -13.3530
  27   2.0000      -0.488948       -13.3049
  28   2.0000      -0.460685       -12.5359
  29   2.0000      -0.452000       -12.2995
  30   2.0000      -0.446577       -12.1520
  31   2.0000      -0.422210       -11.4889
  32   2.0000      -0.414848       -11.2886
  33   2.0000      -0.363838        -9.9005
  34   2.0000      -0.266843        -7.2612
  35   0.0000       0.042864         1.1664
  36   0.0000       0.082517         2.2454
  37   0.0000       0.102798         2.7973
  38   0.0000       0.111986         3.0473
  39   0.0000       0.118026         3.2117

MULLIKEN ATOMIC CHARGES
-----------------------
   0 C :    0.219506
   1 C :   -0.013318
   2 C :    0.026309
   3 H :   -0.138865
   4 H :    0.217401
   5 C :    0.881181
   6 C :    0.139527
   7 N :   -0.004930
   8 C :    0.844095
   9 H :   -0.646119
  10 H :   -0.255044
  11 H :   -0.104440
  12 H :   -0.167177
  13 H :    0.030781
  14 H :   -0.122940
  15 F :   -0.389146
  16 O :   -0.521425
  17 H :    0.219712
  18 H :   -0.215110
Sum of atomic charges:    0.0000000

LOEWDIN ATOMIC CHARGES
----------------------
   0 C :    0.019477
   1 C :   -0.003969
   2 C :    0.062029
   3 H :    0.023554
   4 H :    0.034495
   5 C :    0.056286
   6 C :   -0.234031
   7 N :    0.154681
   8 C :    0.196811
   9 H :   -0.069342
  10 H :   -0.189696
  11 H :   -0.006996
  12 H :    0.002468
  13 H :    0.023274
  14 H :    0.030803
  15 F :    0.001395
  16 O :   -0.141997
  17 H :    0.023353
  18 H :    0.017404

  Mayer bond orders larger than 0.100000
B(  0-C ,  1-C ) :   1.1775 B(  0-C ,  6-C ) :   1.0584 B(  0-C ,  7-N ) :   0.1204
B(  0-C ,  8-C ) :   0.1965 B(  0-C , 13-H ) :   0.1112 B(  0-C , 14-H ) :   0.1293
B(  0-C , 17-H ) :   0.7424 B(  0-C , 18-H ) :   0.9078 B(  1-C ,  2-C ) :   1.2514
B(  1-C ,  3-H ) :   0.1799 B(  1-C ,  4-H ) :   0.1362 B(  1-C , 13-H ) :   0.8233
B(  1-C , 14-H ) :   0.9604 B(  1-C , 17-H ) :   0.1321 B(  1-C , 18-H ) :   0.1682
B(  2-C ,  3-H ) :   0.8949 B(  2-C ,  4-H ) :   0.8206 B(  2-C ,  5-C ) :   1.0737
B(  2-C , 13-H ) :   0.1211 B(  5-C , 15-F ) :   0.7071 B(  5-C , 16-O ) :   1.6363
B(  6-C ,  7-N ) :   0.9619 B(  6-C ,  8-C ) :   1.9359 B(  6-C ,  9-H ) :   0.2394
B(  6-C , 10-H ) :   0.3183 B(  6-C , 12-H ) :  -0.1163 B(  6-C , 18-H ) :   0.1055
B(  7-N ,  8-C ) :   0.2711 B(  7-N , 11-H ) :   1.1683 B(  7-N , 12-H ) :   1.3128
B(  8-C ,  9-H ) :   0.7304 B(  8-C , 10-H ) :   0.5630 B(  9-H , 10-H ) :  -0.2174
B( 10-H , 16-O ) :   0.1513 B( 11-H , 12-H ) :  -0.1533

Dispersion correction           -0.006784691
FINAL SINGLE POINT ENERGY      -463.967117667093

DIPOLE MOMENT
-------------
                                X             Y             Z
Electronic contribution:      4.28934      -5.17121       9.57208
Nuclear contribution   :     -5.64491       4.57111      -9.93176
                        -----------------------------------------
Total Dipole Moment    :     -1.35557      -0.60010      -0.35969
                        -----------------------------------------
Magnitude (a.u.)       :      1.52547
Magnitude (Debye)      :      3.87743

Rotational constants in cm-1:     0.109825     0.034347     0.029470
Rotational constants in MHz :  3292.465653  1029.684117   883.494260

                             ****ORCA TERMINATED NORMALLY****
TOTAL RUN TIME: 0 days 0 hours 0 minutes 30 seconds 648 msec
