                         Program Version 5.0.0 -  RELEASE  -
|  1> !wB97X-D3 RIJCOSX def2-SVPD def2/J TightSCF xyzfile
|  2>
|  3> *xyzfile 0 1 D3.xyz
|  4>
|  5> %MaxCore 64000
|  6>
|  7> %pal nprocs 18
|  8> end
|  9>
| 10> %scf
| 11>   MaxIter 150
| 12> end
| 13>
| 14>
| 15>                          ****END OF INPUT****

CARTESIAN COORDINATES (ANGSTROEM)
---------------------------------
  C      3.343500    3.354571   -3.591998
  C      2.952633    1.863077   -3.574849
  C      4.129209    0.898394   -3.418950
  H      3.733687   -0.100605   -3.237633
  H      4.719095    0.862556   -4.339005
  C      5.017344    1.315212   -2.221305
  C      4.255868    3.703851   -4.726054
  C      3.734032    4.293783   -5.800770
  N      5.515039    3.407255   -4.637185
  H      6.149187    3.601203   -5.399053
  H      5.813584    2.899504   -3.808785
  H      2.741380    4.513109   -5.824701
  H      4.287548    4.521260   -6.614341
  H      2.278938    1.735250   -2.725496
  H      2.377466    1.625787   -4.475869
  O      4.737055    0.854112   -1.122825
  F      5.928146    2.168108   -2.491365
  H      3.861246    3.597252   -2.662979
  H      2.446493    3.973461   -3.656556

 Total Charge           Charge          ....    0
 Multiplicity           Mult            ....    1
 Number of Electrons    NEL             ....   70
 Basis Dimension        Dim             ....  266

ORBITAL ENERGIES
----------------

  NO   OCC          E(Eh)            E(eV)
   0   2.0000     -24.900045      -677.5647
   1   2.0000     -19.279363      -524.6181
   2   2.0000     -14.430443      -392.6723
   3   2.0000     -10.492288      -285.5097
   4   2.0000     -10.328141      -281.0430
   5   2.0000     -10.314809      -280.6802
   6   2.0000     -10.313860      -280.6544
   7   2.0000     -10.301553      -280.3195
   8   2.0000     -10.223533      -278.1965
   9   2.0000      -1.447486       -39.3881
  10   2.0000      -1.180573       -32.1250
  11   2.0000      -1.048818       -28.5398
  12   2.0000      -0.936608       -25.4864
  13   2.0000      -0.868407       -23.6306
  14   2.0000      -0.828239       -22.5375
  15   2.0000      -0.789707       -21.4890
  16   2.0000      -0.749297       -20.3894
  17   2.0000      -0.695614       -18.9286
  18   2.0000      -0.681250       -18.5378
  19   2.0000      -0.660074       -17.9615
  20   2.0000      -0.632793       -17.2192
  21   2.0000      -0.611846       -16.6492
  22   2.0000      -0.589272       -16.0349
  23   2.0000      -0.573279       -15.5997
  24   2.0000      -0.550522       -14.9805
  25   2.0000      -0.528917       -14.3926
  26   2.0000      -0.502570       -13.6756
  27   2.0000      -0.496190       -13.5020
  28   2.0000      -0.485884       -13.2216
  29   2.0000      -0.478001       -13.0071
  30   2.0000      -0.456946       -12.4341
  31   2.0000      -0.434641       -11.8272
  32   2.0000      -0.430529       -11.7153
  33   2.0000      -0.408968       -11.1286
  34   2.0000      -0.277668        -7.5557
  35   0.0000       0.039188         1.0664
  36   0.0000       0.081937         2.2296
  37   0.0000       0.103767         2.8236
  38   0.0000       0.108508         2.9526
  39   0.0000       0.113763         3.0957

MULLIKEN ATOMIC CHARGES
-----------------------
   0 C :    0.297718
   1 C :   -0.021410
   2 C :    0.078700
   3 H :   -0.106528
   4 H :    0.180828
   5 C :    0.780844
   6 C :   -0.015684
   7 C :    0.319416
   8 N :    0.587672
   9 H :   -0.197226
  10 H :   -0.394817
  11 H :   -0.150911
  12 H :   -0.408480
  13 H :    0.067440
  14 H :   -0.124434
  15 O :   -0.432220
  16 F :   -0.479727
  17 H :    0.028825
  18 H :   -0.010004
Sum of atomic charges:    0.0000000

LOEWDIN ATOMIC CHARGES
----------------------
   0 C :    0.020061
   1 C :    0.001573
   2 C :    0.056845
   3 H :    0.034156
   4 H :    0.026031
   5 C :    0.022810
   6 C :   -0.247152
   7 C :    0.172219
   8 N :    0.194424
   9 H :    0.023076
  10 H :   -0.097322
  11 H :   -0.084239
  12 H :   -0.087980
  13 H :    0.030052
  14 H :    0.033569
  15 O :   -0.096459
  16 F :   -0.052907
  17 H :    0.021485
  18 H :    0.029759

  Mayer bond orders larger than 0.100000
B(  0-C ,  1-C ) :   1.1694 B(  0-C ,  6-C ) :   1.1456 B(  0-C ,  8-N ) :   0.1092
B(  0-C , 13-H ) :   0.1030 B(  0-C , 14-H ) :   0.1505 B(  0-C , 17-H ) :   0.6812
B(  0-C , 18-H ) :   0.8496 B(  1-C ,  2-C ) :   1.2640 B(  1-C ,  3-H ) :   0.1713
B(  1-C ,  4-H ) :   0.1445 B(  1-C , 13-H ) :   0.8563 B(  1-C , 14-H ) :   0.9738
B(  1-C , 17-H ) :   0.1465 B(  1-C , 18-H ) :   0.1434 B(  2-C ,  3-H ) :   0.8737
B(  2-C ,  4-H ) :   0.8224 B(  2-C ,  5-C ) :   1.0669 B(  2-C , 13-H ) :   0.1179
B(  2-C , 16-F ) :   0.1368 B(  3-H ,  5-C ) :   0.1341 B(  5-C , 15-O ) :   1.8540
B(  5-C , 16-F ) :   0.5818 B(  6-C ,  7-C ) :   1.6937 B(  6-C ,  8-N ) :   1.0951
B(  6-C ,  9-H ) :  -0.1117 B(  6-C , 12-H ) :   0.1525 B(  6-C , 17-H ) :   0.1791
B(  6-C , 18-H ) :   0.1476 B(  7-C ,  8-N ) :   0.1865 B(  7-C , 11-H ) :   0.9767
B(  7-C , 12-H ) :   0.7138 B(  8-N ,  9-H ) :   1.2316 B(  8-N , 10-H ) :   0.9496
B(  9-H , 10-H ) :  -0.2075 B( 10-H , 16-F ) :   0.1124 B( 15-O , 16-F ) :   0.1074

Dispersion correction           -0.006980446
FINAL SINGLE POINT ENERGY      -463.999061352687

DIPOLE MOMENT
-------------
                                X             Y             Z
Electronic contribution:      7.44844      -3.58336       8.02804
Nuclear contribution   :     -7.21688       3.18902      -8.52197
                        -----------------------------------------
Total Dipole Moment    :      0.23156      -0.39433      -0.49394
                        -----------------------------------------
Magnitude (a.u.)       :      0.67312
Magnitude (Debye)      :      1.71094

Rotational constants in cm-1:     0.103917     0.036987     0.030872
Rotational constants in MHz :  3115.342573  1108.839114   925.506342

                             ****ORCA TERMINATED NORMALLY****
TOTAL RUN TIME: 0 days 0 hours 0 minutes 25 seconds 136 msec
