                         Program Version 5.0.0 -  RELEASE  -
|  1> !wB97X-D3 RIJCOSX def2-SVPD def2/J TightSCF xyzfile
|  2>
|  3> *xyzfile 0 1 D4.xyz
|  4>
|  5> %MaxCore 64000
|  6>
|  7> %pal nprocs 18
|  8> end
|  9>
| 10> %scf
| 11>   MaxIter 150
| 12> end
| 13>
| 14>
| 15>                          ****END OF INPUT****

CARTESIAN COORDINATES (ANGSTROEM)
---------------------------------
  C      3.343500    3.354571   -3.591998
  C      2.952633    1.863077   -3.574849
  C      4.129209    0.898394   -3.418950
  H      3.733687   -0.100605   -3.237633
  H      4.719095    0.862556   -4.339005
  C      5.017344    1.315212   -2.221305
  C      4.255868    3.703851   -4.726054
  N      3.734032    4.293783   -5.800770
  C      5.515039    3.407255   -4.637185
  H      6.149187    3.601203   -5.399053
  H      5.813584    2.899504   -3.808785
  H      2.741380    4.513109   -5.824701
  H      4.287548    4.521260   -6.614341
  H      2.278938    1.735250   -2.725496
  H      2.377466    1.625787   -4.475869
  O      4.737055    0.854112   -1.122825
  F      5.928146    2.168108   -2.491365
  H      3.861246    3.597252   -2.662979
  H      2.446493    3.973461   -3.656556

 Total Charge           Charge          ....    0
 Multiplicity           Mult            ....    1
 Number of Electrons    NEL             ....   70
 Basis Dimension        Dim             ....  266

ORBITAL ENERGIES
----------------

  NO   OCC          E(Eh)            E(eV)
   0   2.0000     -24.871153      -676.7785
   1   2.0000     -19.264165      -524.2046
   2   2.0000     -14.440985      -392.9592
   3   2.0000     -10.476459      -285.0789
   4   2.0000     -10.316648      -280.7303
   5   2.0000     -10.311533      -280.5911
   6   2.0000     -10.311287      -280.5844
   7   2.0000     -10.301293      -280.3124
   8   2.0000     -10.210651      -277.8459
   9   2.0000      -1.420749       -38.6606
  10   2.0000      -1.165598       -31.7175
  11   2.0000      -1.037387       -28.2287
  12   2.0000      -0.933270       -25.3956
  13   2.0000      -0.865089       -23.5403
  14   2.0000      -0.820848       -22.3364
  15   2.0000      -0.784350       -21.3433
  16   2.0000      -0.729144       -19.8410
  17   2.0000      -0.692103       -18.8331
  18   2.0000      -0.655006       -17.8236
  19   2.0000      -0.642603       -17.4861
  20   2.0000      -0.629996       -17.1431
  21   2.0000      -0.610657       -16.6168
  22   2.0000      -0.586170       -15.9505
  23   2.0000      -0.566604       -15.4181
  24   2.0000      -0.549604       -14.9555
  25   2.0000      -0.523288       -14.2394
  26   2.0000      -0.498169       -13.5559
  27   2.0000      -0.484279       -13.1779
  28   2.0000      -0.475698       -12.9444
  29   2.0000      -0.466009       -12.6808
  30   2.0000      -0.449318       -12.2266
  31   2.0000      -0.430454       -11.7132
  32   2.0000      -0.424856       -11.5609
  33   2.0000      -0.396344       -10.7851
  34   2.0000      -0.283811        -7.7229
  35   0.0000       0.053221         1.4482
  36   0.0000       0.083591         2.2746
  37   0.0000       0.104474         2.8429
  38   0.0000       0.106623         2.9014
  39   0.0000       0.115593         3.1455

MULLIKEN ATOMIC CHARGES
-----------------------
   0 C :    0.187636
   1 C :   -0.006224
   2 C :    0.041660
   3 H :   -0.154145
   4 H :    0.254983
   5 C :    0.786209
   6 C :    0.210533
   7 N :    0.000618
   8 C :    0.836944
   9 H :   -0.661061
  10 H :   -0.198130
  11 H :   -0.096212
  12 H :   -0.164639
  13 H :    0.048608
  14 H :   -0.120336
  15 O :   -0.450938
  16 F :   -0.503429
  17 H :    0.192461
  18 H :   -0.204538
Sum of atomic charges:    0.0000000

LOEWDIN ATOMIC CHARGES
----------------------
   0 C :    0.020245
   1 C :   -0.001271
   2 C :    0.058231
   3 H :    0.032410
   4 H :    0.025446
   5 C :    0.024127
   6 C :   -0.231189
   7 N :    0.162205
   8 C :    0.193465
   9 H :   -0.068119
  10 H :   -0.150792
  11 H :   -0.001842
  12 H :    0.005649
  13 H :    0.029472
  14 H :    0.030021
  15 O :   -0.106575
  16 F :   -0.068244
  17 H :    0.027063
  18 H :    0.019700

  Mayer bond orders larger than 0.100000
B(  0-C ,  1-C ) :   1.1819 B(  0-C ,  6-C ) :   1.0501 B(  0-C ,  7-N ) :   0.1201
B(  0-C ,  8-C ) :   0.1840 B(  0-C , 13-H ) :   0.1076 B(  0-C , 14-H ) :   0.1288
B(  0-C , 17-H ) :   0.7489 B(  0-C , 18-H ) :   0.9163 B(  1-C ,  2-C ) :   1.2596
B(  1-C ,  3-H ) :   0.1712 B(  1-C ,  4-H ) :   0.1299 B(  1-C , 13-H ) :   0.8343
B(  1-C , 14-H ) :   0.9540 B(  1-C , 17-H ) :   0.1363 B(  1-C , 18-H ) :   0.1630
B(  2-C ,  3-H ) :   0.9106 B(  2-C ,  4-H ) :   0.7928 B(  2-C ,  5-C ) :   1.0591
B(  2-C , 13-H ) :   0.1251 B(  2-C , 16-F ) :   0.1611 B(  3-H ,  5-C ) :   0.1372
B(  5-C , 15-O ) :   1.8479 B(  5-C , 16-F ) :   0.6084 B(  6-C ,  7-N ) :   0.9785
B(  6-C ,  8-C ) :   1.9030 B(  6-C ,  9-H ) :   0.2316 B(  6-C , 10-H ) :   0.3125
B(  6-C , 12-H ) :  -0.1160 B(  6-C , 17-H ) :   0.1015 B(  6-C , 18-H ) :   0.1001
B(  7-N ,  8-C ) :   0.2616 B(  7-N , 11-H ) :   1.1606 B(  7-N , 12-H ) :   1.3110
B(  8-C ,  9-H ) :   0.7819 B(  8-C , 10-H ) :   0.4817 B(  9-H , 10-H ) :  -0.2688
B( 11-H , 12-H ) :  -0.1534 B( 15-O , 16-F ) :   0.1248

Dispersion correction           -0.006844424
FINAL SINGLE POINT ENERGY      -463.985593894759

DIPOLE MOMENT
-------------
                                X             Y             Z
Electronic contribution:      6.18902      -2.82349       7.08609
Nuclear contribution   :     -6.99695       3.07955      -8.37829
                        -----------------------------------------
Total Dipole Moment    :     -0.80793       0.25606      -1.29220
                        -----------------------------------------
Magnitude (a.u.)       :      1.54535
Magnitude (Debye)      :      3.92796

Rotational constants in cm-1:     0.106302     0.035771     0.030198
Rotational constants in MHz :  3186.860872  1072.397550   905.318354

                             ****ORCA TERMINATED NORMALLY****
TOTAL RUN TIME: 0 days 0 hours 0 minutes 32 seconds 383 msec
