                         Program Version 5.0.0 -  RELEASE  -
|  1> !wB97X-D3 RIJCOSX def2-SVPD def2/J TightSCF
|  2> *xyz 1 1
|  3> C          3.48828        1.60092       -1.52204
|  4> C          4.34297        1.31342       -2.75683
|  5> N          2.81029        0.42878       -1.01420
|  6> H          5.13203        0.60499       -2.48447
|  7> C          3.53590        0.74925       -3.92460
|  8> H          4.84125        2.24214       -3.05408
|  9> H          2.71455        2.33145       -1.76030
| 10> H          4.09099        2.06315       -0.73338
| 11> C          3.29098       -0.41802       -0.12908
| 12> N          2.51754       -1.43202        0.23936
| 13> N          4.53549       -0.28441        0.39580
| 14> H          5.04363        0.57189        0.22290
| 15> H          4.72335       -0.73327        1.28180
| 16> H          1.93479        0.10230       -1.40379
| 17> H          1.67464       -1.50562       -0.31610
| 18> H          2.92850       -2.21850        0.72549
| 19> H          4.18704        0.56990       -4.75451
| 20> H          2.78096        1.45217       -4.20898
| 21> H          3.07436       -0.16949       -3.62832
| 22> *
| 23> %MaxCore 64000
| 24>
| 25> %pal nprocs 18
| 26> end
| 27>
| 28> %scf
| 29>   MaxIter 150
| 30> end
| 31>
| 32>
| 33>                          ****END OF INPUT****

CARTESIAN COORDINATES (ANGSTROEM)
---------------------------------
  C      3.488280    1.600920   -1.522040
  C      4.342970    1.313420   -2.756830
  N      2.810290    0.428780   -1.014200
  H      5.132030    0.604990   -2.484470
  C      3.535900    0.749250   -3.924600
  H      4.841250    2.242140   -3.054080
  H      2.714550    2.331450   -1.760300
  H      4.090990    2.063150   -0.733380
  C      3.290980   -0.418020   -0.129080
  N      2.517540   -1.432020    0.239360
  N      4.535490   -0.284410    0.395800
  H      5.043630    0.571890    0.222900
  H      4.723350   -0.733270    1.281800
  H      1.934790    0.102300   -1.403790
  H      1.674640   -1.505620   -0.316100
  H      2.928500   -2.218500    0.725490
  H      4.187040    0.569900   -4.754510
  H      2.780960    1.452170   -4.208980
  H      3.074360   -0.169490   -3.628320

 Total Charge           Charge          ....    1
 Multiplicity           Mult            ....    1
 Number of Electrons    NEL             ....   56
 Basis Dimension        Dim             ....  236

ORBITAL ENERGIES
----------------

  NO   OCC          E(Eh)            E(eV)
   0   2.0000     -14.665375      -399.0651
   1   2.0000     -14.661384      -398.9565
   2   2.0000     -14.658669      -398.8827
   3   2.0000     -10.627426      -289.1870
   4   2.0000     -10.495851      -285.6066
   5   2.0000     -10.432881      -283.8931
   6   2.0000     -10.404377      -283.1175
   7   2.0000      -1.331149       -36.2224
   8   2.0000      -1.215881       -33.0858
   9   2.0000      -1.201653       -32.6986
  10   2.0000      -1.053615       -28.6703
  11   2.0000      -0.972022       -26.4501
  12   2.0000      -0.931371       -25.3439
  13   2.0000      -0.887886       -24.1606
  14   2.0000      -0.873409       -23.7667
  15   2.0000      -0.834997       -22.7214
  16   2.0000      -0.793099       -21.5813
  17   2.0000      -0.782801       -21.3011
  18   2.0000      -0.756915       -20.5967
  19   2.0000      -0.741631       -20.1808
  20   2.0000      -0.699320       -19.0295
  21   2.0000      -0.682581       -18.5740
  22   2.0000      -0.649964       -17.6864
  23   2.0000      -0.600562       -16.3421
  24   2.0000      -0.585751       -15.9391
  25   2.0000      -0.579377       -15.7657
  26   2.0000      -0.570493       -15.5239
  27   2.0000      -0.540310       -14.7026
  28   0.0000      -0.090511        -2.4629
  29   0.0000      -0.077180        -2.1002
  30   0.0000      -0.046845        -1.2747
  31   0.0000      -0.030136        -0.8200
  32   0.0000      -0.004261        -0.1160

MULLIKEN ATOMIC CHARGES
-----------------------
   0 C :    0.728924
   1 C :   -0.370852
   2 N :   -0.563694
   3 H :    0.001163
   4 C :    0.626258
   5 H :   -0.043039
   6 H :   -0.194629
   7 H :   -0.062533
   8 C :    1.322659
   9 N :   -0.060275
  10 N :   -0.023349
  11 H :   -0.019275
  12 H :   -0.103787
  13 H :   -0.168498
  14 H :    0.039202
  15 H :   -0.037002
  16 H :   -0.019156
  17 H :    0.040607
  18 H :   -0.092723
Sum of atomic charges:    1.0000000

LOEWDIN ATOMIC CHARGES
----------------------
   0 C :    0.074036
   1 C :   -0.053797
   2 N :    0.040069
   3 H :    0.022582
   4 C :    0.132278
   5 H :    0.038903
   6 H :    0.045495
   7 H :    0.029101
   8 C :   -0.019717
   9 N :    0.256565
  10 N :    0.276180
  11 H :    0.010795
  12 H :    0.037340
  13 H :    0.057093
  14 H :    0.035807
  15 H :    0.048179
  16 H :   -0.000562
  17 H :   -0.004953
  18 H :   -0.025393

  Mayer bond orders larger than 0.100000
B(  0-C ,  1-C ) :   1.0831 B(  0-C ,  2-N ) :   0.8760 B(  0-C ,  6-H ) :   0.8438
B(  0-C ,  7-H ) :   0.8823 B(  0-C , 13-H ) :  -0.2107 B(  1-C ,  3-H ) :   0.9362
B(  1-C ,  4-C ) :   1.2913 B(  1-C ,  5-H ) :   1.0022 B(  1-C ,  6-H ) :   0.1204
B(  1-C , 16-H ) :   0.1895 B(  1-C , 17-H ) :   0.1800 B(  1-C , 18-H ) :   0.1794
B(  2-N ,  6-H ) :   0.2072 B(  2-N ,  7-H ) :   0.1147 B(  2-N ,  8-C ) :   1.0060
B(  2-N ,  9-N ) :   0.2645 B(  2-N , 10-N ) :   0.1954 B(  2-N , 13-H ) :   1.3207
B(  4-C , 16-H ) :   0.8389 B(  4-C , 17-H ) :   0.7961 B(  4-C , 18-H ) :   0.8464
B(  8-C ,  9-N ) :   0.9152 B(  8-C , 10-N ) :   0.9477 B(  8-C , 12-H ) :  -0.1014
B(  8-C , 13-H ) :  -0.2455 B(  9-N , 10-N ) :   0.1201 B(  9-N , 14-H ) :   1.0502
B(  9-N , 15-H ) :   1.1740 B( 10-N , 11-H ) :   1.0262 B( 10-N , 12-H ) :   1.2309
B( 11-H , 12-H ) :  -0.1521 B( 14-H , 15-H ) :  -0.1323

Dispersion correction           -0.005309187
FINAL SINGLE POINT ENERGY      -323.414945816925

DIPOLE MOMENT
-------------
                                X             Y             Z
Electronic contribution:     -1.34710      -2.89164       6.37609
Nuclear contribution   :      1.03951       2.07316      -5.00363
                        -----------------------------------------
Total Dipole Moment    :     -0.30759      -0.81848       1.37246
                        -----------------------------------------
Magnitude (a.u.)       :      1.62732
Magnitude (Debye)      :      4.13632

Rotational constants in cm-1:     0.160664     0.048801     0.043832
Rotational constants in MHz :  4816.589604  1463.007061  1314.037102

                             ****ORCA TERMINATED NORMALLY****
TOTAL RUN TIME: 0 days 0 hours 0 minutes 16 seconds 361 msec
