                         Program Version 5.0.0 -  RELEASE  -
|  1> !wB97X-D3 RIJCOSX def2-SVPD def2/J TightSCF
|  2> *xyz 0 1
|  3> C         -0.15102        0.25496       -4.09426
|  4> C         -0.72184       -0.99951       -3.43931
|  5> H         -1.08340       -1.69755       -4.20566
|  6> H         -1.58106       -0.72385       -2.82049
|  7> C          0.28725       -1.71177       -2.52740
|  8> H          1.13178       -2.06738       -3.15940
|  9> H         -0.20414       -2.63733       -2.17048
| 10> F          0.71050       -0.92751       -1.48177
| 11> H         -0.89787        0.70479       -4.71455
| 12> H          0.69695       -0.00870       -4.69119
| 13> H          0.14812        0.94842       -3.33628
| 14> *
| 15> %MaxCore 64000
| 16>
| 17> %pal nprocs 18
| 18> end
| 19>
| 20> %scf
| 21>   MaxIter 150
| 22> end
| 23>
| 24>
| 25>                          ****END OF INPUT****

CARTESIAN COORDINATES (ANGSTROEM)
---------------------------------
  C     -0.151020    0.254960   -4.094260
  C     -0.721840   -0.999510   -3.439310
  H     -1.083400   -1.697550   -4.205660
  H     -1.581060   -0.723850   -2.820490
  C      0.287250   -1.711770   -2.527400
  H      1.131780   -2.067380   -3.159400
  H     -0.204140   -2.637330   -2.170480
  F      0.710500   -0.927510   -1.481770
  H     -0.897870    0.704790   -4.714550
  H      0.696950   -0.008700   -4.691190
  H      0.148120    0.948420   -3.336280

 Total Charge           Charge          ....    0
 Multiplicity           Mult            ....    1
 Number of Electrons    NEL             ....   34
 Basis Dimension        Dim             ....  139

ORBITAL ENERGIES
----------------

  NO   OCC          E(Eh)            E(eV)
   0   2.0000     -24.790391      -674.5808
   1   2.0000     -10.369082      -282.1571
   2   2.0000     -10.296630      -280.1855
   3   2.0000     -10.276160      -279.6285
   4   2.0000      -1.298659       -35.3383
   5   2.0000      -0.901557       -24.5326
   6   2.0000      -0.798621       -21.7316
   7   2.0000      -0.703166       -19.1341
   8   2.0000      -0.614717       -16.7273
   9   2.0000      -0.597875       -16.2690
  10   2.0000      -0.573026       -15.5928
  11   2.0000      -0.537625       -14.6295
  12   2.0000      -0.501436       -13.6448
  13   2.0000      -0.474875       -12.9220
  14   2.0000      -0.448974       -12.2172
  15   2.0000      -0.422833       -11.5059
  16   2.0000      -0.422082       -11.4854
  17   0.0000       0.093103         2.5335
  18   0.0000       0.118317         3.2196
  19   0.0000       0.127866         3.4794
  20   0.0000       0.146064         3.9746
  21   0.0000       0.169888         4.6229

MULLIKEN ATOMIC CHARGES
-----------------------
   0 C :    0.548049
   1 C :   -0.548619
   2 H :   -0.038080
   3 H :   -0.041837
   4 C :    0.690460
   5 H :   -0.010203
   6 H :   -0.045418
   7 F :   -0.462383
   8 H :   -0.036794
   9 H :   -0.040893
  10 H :   -0.014281
Sum of atomic charges:    0.0000000

LOEWDIN ATOMIC CHARGES
----------------------
   0 C :    0.116508
   1 C :   -0.071590
   2 H :    0.028710
   3 H :    0.024377
   4 C :    0.099739
   5 H :    0.036849
   6 H :    0.030149
   7 F :   -0.217836
   8 H :   -0.017391
   9 H :   -0.015662
  10 H :   -0.013853

  Mayer bond orders larger than 0.100000
B(  0-C ,  1-C ) :   1.2659 B(  0-C ,  8-H ) :   0.8388 B(  0-C ,  9-H ) :   0.8432
B(  0-C , 10-H ) :   0.8465 B(  1-C ,  2-H ) :   0.9859 B(  1-C ,  3-H ) :   0.9795
B(  1-C ,  4-C ) :   1.1636 B(  1-C ,  6-H ) :   0.1044 B(  1-C ,  8-H ) :   0.1684
B(  1-C ,  9-H ) :   0.1603 B(  1-C , 10-H ) :   0.1721 B(  4-C ,  5-H ) :   0.9278
B(  4-C ,  6-H ) :   0.9275 B(  4-C ,  7-F ) :   0.7116

Dispersion correction           -0.001918117
FINAL SINGLE POINT ENERGY      -218.166889051423

DIPOLE MOMENT
-------------
                                X             Y             Z
Electronic contribution:      2.46921      -0.82836       5.74745
Nuclear contribution   :     -2.76068       0.49992      -6.33880
                        -----------------------------------------
Total Dipole Moment    :     -0.29147      -0.32844      -0.59135
                        -----------------------------------------
Magnitude (a.u.)       :      0.73656
Magnitude (Debye)      :      1.87220

Rotational constants in cm-1:     0.493380     0.165620     0.140427
Rotational constants in MHz : 14791.174622  4965.163858  4209.902284

                             ****ORCA TERMINATED NORMALLY****
TOTAL RUN TIME: 0 days 0 hours 0 minutes 6 seconds 359 msec
