                         Program Version 5.0.0 -  RELEASE  -
|  1> !wB97X-D3 RIJCOSX def2-SVPD def2/J TightSCF
|  2> *xyz 0 1
|  3> C          3.48828        1.60092       -1.52204
|  4> C          4.34297        1.31342       -2.75683
|  5> C          2.81029        0.42878       -1.01420
|  6> H          5.13203        0.60499       -2.48447
|  7> C          3.53590        0.74925       -3.92460
|  8> H          4.84125        2.24214       -3.05408
|  9> H          2.71455        2.33145       -1.76030
| 10> H          4.09099        2.06315       -0.73338
| 11> C          3.29098       -0.41802       -0.12908
| 12> N          2.51754       -1.43202        0.23936
| 13> N          4.53549       -0.28441        0.39580
| 14> H          5.04363        0.57189        0.22290
| 15> H          4.72335       -0.73327        1.28180
| 16> H          1.93479        0.10230       -1.40379
| 17> H          1.67464       -1.50562       -0.31610
| 18> H          2.92850       -2.21850        0.72549
| 19> H          4.18704        0.56990       -4.75451
| 20> H          2.78096        1.45217       -4.20898
| 21> H          3.07436       -0.16949       -3.62832
| 22> *
| 23> %MaxCore 64000
| 24>
| 25> %pal nprocs 18
| 26> end
| 27>
| 28> %scf
| 29>   MaxIter 150
| 30> end
| 31>
| 32>
| 33>                          ****END OF INPUT****

CARTESIAN COORDINATES (ANGSTROEM)
---------------------------------
  C      3.488280    1.600920   -1.522040
  C      4.342970    1.313420   -2.756830
  C      2.810290    0.428780   -1.014200
  H      5.132030    0.604990   -2.484470
  C      3.535900    0.749250   -3.924600
  H      4.841250    2.242140   -3.054080
  H      2.714550    2.331450   -1.760300
  H      4.090990    2.063150   -0.733380
  C      3.290980   -0.418020   -0.129080
  N      2.517540   -1.432020    0.239360
  N      4.535490   -0.284410    0.395800
  H      5.043630    0.571890    0.222900
  H      4.723350   -0.733270    1.281800
  H      1.934790    0.102300   -1.403790
  H      1.674640   -1.505620   -0.316100
  H      2.928500   -2.218500    0.725490
  H      4.187040    0.569900   -4.754510
  H      2.780960    1.452170   -4.208980
  H      3.074360   -0.169490   -3.628320

 Total Charge           Charge          ....    0
 Multiplicity           Mult            ....    1
 Number of Electrons    NEL             ....   56
 Basis Dimension        Dim             ....  236

ORBITAL ENERGIES
----------------

  NO   OCC          E(Eh)            E(eV)
   0   2.0000     -14.439260      -392.9122
   1   2.0000     -14.434695      -392.7880
   2   2.0000     -10.332455      -281.1604
   3   2.0000     -10.267453      -279.3916
   4   2.0000     -10.265833      -279.3475
   5   2.0000     -10.256939      -279.1055
   6   2.0000     -10.213036      -277.9108
   7   2.0000      -1.070458       -29.1286
   8   2.0000      -0.979028       -26.6407
   9   2.0000      -0.899246       -24.4697
  10   2.0000      -0.831851       -22.6358
  11   2.0000      -0.766451       -20.8562
  12   2.0000      -0.699419       -19.0322
  13   2.0000      -0.676726       -18.4147
  14   2.0000      -0.642656       -17.4876
  15   2.0000      -0.609660       -16.5897
  16   2.0000      -0.566875       -15.4254
  17   2.0000      -0.543755       -14.7963
  18   2.0000      -0.541513       -14.7353
  19   2.0000      -0.506676       -13.7874
  20   2.0000      -0.494631       -13.4596
  21   2.0000      -0.472254       -12.8507
  22   2.0000      -0.457380       -12.4459
  23   2.0000      -0.424850       -11.5608
  24   2.0000      -0.409000       -11.1295
  25   2.0000      -0.406622       -11.0647
  26   2.0000      -0.362721        -9.8701
  27   2.0000      -0.250962        -6.8290
  28   0.0000       0.088419         2.4060
  29   0.0000       0.112798         3.0694
  30   0.0000       0.114894         3.1264
  31   0.0000       0.130413         3.5487
  32   0.0000       0.141801         3.8586

MULLIKEN ATOMIC CHARGES
-----------------------
   0 C :    0.260884
   1 C :   -0.314660
   2 C :   -0.193325
   3 H :   -0.067130
   4 C :    0.643421
   5 H :   -0.056841
   6 H :   -0.020798
   7 H :   -0.068534
   8 C :    0.634706
   9 N :   -0.061225
  10 N :   -0.068814
  11 H :   -0.009182
  12 H :   -0.211331
  13 H :   -0.295221
  14 H :    0.091578
  15 H :   -0.164804
  16 H :   -0.033361
  17 H :    0.015280
  18 H :   -0.080642
Sum of atomic charges:   -0.0000000

LOEWDIN ATOMIC CHARGES
----------------------
   0 C :   -0.063323
   1 C :   -0.079669
   2 C :   -0.042494
   3 H :    0.016758
   4 C :    0.114892
   5 H :    0.014410
   6 H :    0.018755
   7 H :    0.007157
   8 C :   -0.215830
   9 N :    0.167925
  10 N :    0.198483
  11 H :   -0.019189
  12 H :   -0.010556
  13 H :   -0.046709
  14 H :    0.003758
  15 H :   -0.002124
  16 H :   -0.020869
  17 H :   -0.016254
  18 H :   -0.025120

  Mayer bond orders larger than 0.100000
B(  0-C ,  1-C ) :   1.0894 B(  0-C ,  2-C ) :   1.1410 B(  0-C ,  3-H ) :   0.1341
B(  0-C ,  5-H ) :   0.1076 B(  0-C ,  6-H ) :   0.8191 B(  0-C ,  7-H ) :   0.8541
B(  0-C , 13-H ) :   0.2281 B(  1-C ,  3-H ) :   0.9698 B(  1-C ,  4-C ) :   1.2959
B(  1-C ,  5-H ) :   0.9396 B(  1-C , 16-H ) :   0.2111 B(  1-C , 17-H ) :   0.2002
B(  1-C , 18-H ) :   0.2118 B(  2-C ,  6-H ) :   0.2023 B(  2-C ,  7-H ) :   0.2543
B(  2-C ,  8-C ) :   1.7950 B(  2-C ,  9-N ) :   0.3111 B(  2-C , 10-N ) :   0.1698
B(  2-C , 11-H ) :  -0.1055 B(  2-C , 13-H ) :   0.8554 B(  4-C , 16-H ) :   0.7825
B(  4-C , 17-H ) :   0.7955 B(  4-C , 18-H ) :   0.8298 B(  8-C ,  9-N ) :   0.8727
B(  8-C , 10-N ) :   0.9111 B(  8-C , 13-H ) :   0.2195 B(  9-N , 10-N ) :   0.1032
B(  9-N , 14-H ) :   1.0079 B(  9-N , 15-H ) :   1.1924 B( 10-N , 11-H ) :   0.9940
B( 10-N , 12-H ) :   1.2454 B( 11-H , 12-H ) :  -0.1315 B( 14-H , 15-H ) :  -0.1295

Dispersion correction           -0.005285915
FINAL SINGLE POINT ENERGY      -306.947606005401

DIPOLE MOMENT
-------------
                                X             Y             Z
Electronic contribution:     -0.68155      -2.65428       5.55097
Nuclear contribution   :      0.88816       2.11069      -4.95634
                        -----------------------------------------
Total Dipole Moment    :      0.20661      -0.54359       0.59464
                        -----------------------------------------
Magnitude (a.u.)       :      0.83173
Magnitude (Debye)      :      2.11408

Rotational constants in cm-1:     0.162296     0.048922     0.043870
Rotational constants in MHz :  4865.524396  1466.649652  1315.198467

                             ****ORCA TERMINATED NORMALLY****
TOTAL RUN TIME: 0 days 0 hours 0 minutes 16 seconds 616 msec
