                         Program Version 5.0.0 -  RELEASE  -
|  1> !wB97X-D3 RIJCOSX def2-SVPD def2/J TightSCF
|  2> *xyz 0 1
|  3> C          3.48828        1.60092       -1.52204
|  4> C          4.34297        1.31342       -2.75683
|  5> N          2.81029        0.42878       -1.01420
|  6> H          5.13203        0.60499       -2.48447
|  7> C          3.53590        0.74925       -3.92460
|  8> H          4.84125        2.24214       -3.05408
|  9> H          2.71455        2.33145       -1.76030
| 10> H          4.09099        2.06315       -0.73338
| 11> C          3.29098       -0.41802       -0.12908
| 12> N          2.51754       -1.43202        0.23936
| 13> C          4.53549       -0.28441        0.39580
| 14> H          5.04363        0.57189        0.22290
| 15> H          4.72335       -0.73327        1.28180
| 16> H          1.93479        0.10230       -1.40379
| 17> H          1.67464       -1.50562       -0.31610
| 18> H          2.92850       -2.21850        0.72549
| 19> H          4.18704        0.56990       -4.75451
| 20> H          2.78096        1.45217       -4.20898
| 21> H          3.07436       -0.16949       -3.62832
| 22> *
| 23> %MaxCore 64000
| 24>
| 25> %pal nprocs 18
| 26> end
| 27>
| 28> %scf
| 29>   MaxIter 150
| 30> end
| 31>
| 32>
| 33>                          ****END OF INPUT****

CARTESIAN COORDINATES (ANGSTROEM)
---------------------------------
  C      3.488280    1.600920   -1.522040
  C      4.342970    1.313420   -2.756830
  N      2.810290    0.428780   -1.014200
  H      5.132030    0.604990   -2.484470
  C      3.535900    0.749250   -3.924600
  H      4.841250    2.242140   -3.054080
  H      2.714550    2.331450   -1.760300
  H      4.090990    2.063150   -0.733380
  C      3.290980   -0.418020   -0.129080
  N      2.517540   -1.432020    0.239360
  C      4.535490   -0.284410    0.395800
  H      5.043630    0.571890    0.222900
  H      4.723350   -0.733270    1.281800
  H      1.934790    0.102300   -1.403790
  H      1.674640   -1.505620   -0.316100
  H      2.928500   -2.218500    0.725490
  H      4.187040    0.569900   -4.754510
  H      2.780960    1.452170   -4.208980
  H      3.074360   -0.169490   -3.628320

 Total Charge           Charge          ....    0
 Multiplicity           Mult            ....    1
 Number of Electrons    NEL             ....   56
 Basis Dimension        Dim             ....  236

ORBITAL ENERGIES
----------------

  NO   OCC          E(Eh)            E(eV)
   0   2.0000     -14.445173      -393.0731
   1   2.0000     -14.441006      -392.9598
   2   2.0000     -10.339546      -281.3534
   3   2.0000     -10.323951      -280.9290
   4   2.0000     -10.284122      -279.8452
   5   2.0000     -10.274635      -279.5870
   6   2.0000     -10.199304      -277.5372
   7   2.0000      -1.090850       -29.6835
   8   2.0000      -0.999123       -27.1875
   9   2.0000      -0.891240       -24.2519
  10   2.0000      -0.818108       -22.2619
  11   2.0000      -0.803388       -21.8613
  12   2.0000      -0.715575       -19.4718
  13   2.0000      -0.660367       -17.9695
  14   2.0000      -0.649373       -17.6703
  15   2.0000      -0.632741       -17.2177
  16   2.0000      -0.576392       -15.6844
  17   2.0000      -0.554308       -15.0835
  18   2.0000      -0.540306       -14.7025
  19   2.0000      -0.502383       -13.6705
  20   2.0000      -0.502239       -13.6666
  21   2.0000      -0.478189       -13.0122
  22   2.0000      -0.466196       -12.6858
  23   2.0000      -0.445079       -12.1112
  24   2.0000      -0.438484       -11.9318
  25   2.0000      -0.429688       -11.6924
  26   2.0000      -0.346912        -9.4400
  27   2.0000      -0.253321        -6.8932
  28   0.0000       0.080277         2.1844
  29   0.0000       0.107124         2.9150
  30   0.0000       0.115125         3.1327
  31   0.0000       0.120295         3.2734
  32   0.0000       0.140248         3.8164

MULLIKEN ATOMIC CHARGES
-----------------------
   0 C :    0.723015
   1 C :   -0.345334
   2 N :   -0.559641
   3 H :   -0.021876
   4 C :    0.633156
   5 H :   -0.090342
   6 H :   -0.270644
   7 H :    0.030577
   8 C :    0.622708
   9 N :    0.024996
  10 C :    0.478415
  11 H :   -0.135945
  12 H :   -0.532480
  13 H :   -0.286388
  14 H :   -0.099675
  15 H :   -0.049427
  16 H :   -0.051984
  17 H :    0.017907
  18 H :   -0.087038
Sum of atomic charges:    0.0000000

LOEWDIN ATOMIC CHARGES
----------------------
   0 C :    0.054911
   1 C :   -0.062987
   2 N :   -0.023640
   3 H :    0.020585
   4 C :    0.113080
   5 H :    0.021593
   6 H :    0.022703
   7 H :    0.020263
   8 C :   -0.231720
   9 N :    0.180387
  10 C :    0.150832
  11 H :   -0.125498
  12 H :   -0.106292
  13 H :    0.021508
  14 H :   -0.009936
  15 H :    0.016937
  16 H :   -0.017354
  17 H :   -0.018128
  18 H :   -0.027243

  Mayer bond orders larger than 0.100000
B(  0-C ,  1-C ) :   1.0686 B(  0-C ,  2-N ) :   0.8762 B(  0-C ,  3-H ) :   0.1244
B(  0-C ,  6-H ) :   0.8781 B(  0-C ,  7-H ) :   0.8575 B(  0-C , 13-H ) :  -0.2142
B(  1-C ,  3-H ) :   0.9488 B(  1-C ,  4-C ) :   1.2658 B(  1-C ,  5-H ) :   1.0104
B(  1-C ,  6-H ) :   0.1146 B(  1-C , 16-H ) :   0.1961 B(  1-C , 17-H ) :   0.1850
B(  1-C , 18-H ) :   0.1892 B(  2-N ,  6-H ) :   0.1801 B(  2-N ,  7-H ) :   0.1059
B(  2-N ,  8-C ) :   0.8437 B(  2-N ,  9-N ) :   0.1757 B(  2-N , 10-C ) :   0.3654
B(  2-N , 13-H ) :   1.3808 B(  4-C , 16-H ) :   0.8266 B(  4-C , 17-H ) :   0.7937
B(  4-C , 18-H ) :   0.8527 B(  6-H ,  7-H ) :  -0.1242 B(  8-C ,  9-N ) :   0.8752
B(  8-C , 10-C ) :   1.7889 B(  8-C , 11-H ) :   0.2914 B(  8-C , 12-H ) :   0.2084
B(  8-C , 13-H ) :  -0.2653 B(  9-N , 10-C ) :   0.2456 B(  9-N , 14-H ) :   1.0533
B(  9-N , 15-H ) :   1.1657 B( 10-C , 11-H ) :   0.6642 B( 10-C , 12-H ) :   0.7582
B( 14-H , 15-H ) :  -0.1245

Dispersion correction           -0.005315348
FINAL SINGLE POINT ENERGY      -306.935063597902

DIPOLE MOMENT
-------------
                                X             Y             Z
Electronic contribution:     -2.22143      -2.02231       4.05799
Nuclear contribution   :      1.26608       1.95446      -4.64747
                        -----------------------------------------
Total Dipole Moment    :     -0.95536      -0.06784      -0.58948
                        -----------------------------------------
Magnitude (a.u.)       :      1.12463
Magnitude (Debye)      :      2.85858

Rotational constants in cm-1:     0.166109     0.049557     0.044716
Rotational constants in MHz :  4979.835529  1485.675017  1340.540851

                             ****ORCA TERMINATED NORMALLY****
TOTAL RUN TIME: 0 days 0 hours 0 minutes 17 seconds 788 msec
