                         Program Version 5.0.0 -  RELEASE  -
|  1> !wB97X-D3 RIJCOSX def2-SVPD def2/J TightSCF xyzfile
|  2>
|  3> *xyzfile 0 1 D2.xyz
|  4>
|  5> %MaxCore 64000
|  6>
|  7> %pal nprocs 18
|  8> end
|  9>
| 10> %scf
| 11>   MaxIter 150
| 12> end
| 13>
| 14>
| 15>                          ****END OF INPUT****

CARTESIAN COORDINATES (ANGSTROEM)
---------------------------------
  C      3.488276    1.600919   -1.522040
  C      4.342970    1.313419   -2.756826
  N      2.810285    0.428783   -1.014196
  H      5.132033    0.604994   -2.484466
  C      3.535896    0.749253   -3.924604
  H      4.841247    2.242136   -3.054083
  H      2.991617   -0.132199   -3.574137
  H      4.225505    0.392784   -4.695962
  C      2.564776    1.750890   -4.544523
  H      1.918749    2.171679   -3.769419
  C      1.686235    1.161657   -5.650111
  H      3.132494    2.594775   -4.951604
  C      0.839616   -0.037582   -5.220473
  H      2.323886    0.866395   -6.490796
  H      1.029518    1.951850   -6.029329
  C     -0.151019    0.254955   -4.094256
  H      1.499442   -0.857141   -4.922958
  H      0.290097   -0.410143   -6.091131
  H      0.328265    0.833022   -3.299125
  C     -0.721843   -0.999513   -3.439309
  H     -0.957367    0.884951   -4.485450
  H     -1.083403   -1.697555   -4.205656
  H     -1.581056   -0.723848   -2.820490
  C      0.287250   -1.711771   -2.527405
  H      1.131780   -2.067380   -3.159396
  H     -0.204137   -2.637326   -2.170480
  F      0.710505   -0.927506   -1.481767
  H      2.714548    2.331455   -1.760302
  H      4.090991    2.063151   -0.733382
  C      3.290978   -0.418021   -0.129083
  C      2.517536   -1.432017    0.239360
  N      4.535490   -0.284410    0.395800
  H      5.043627    0.571888    0.222899
  H      4.723346   -0.733273    1.281800
  H      1.934787    0.102305   -1.403788
  H      1.674638   -1.505616   -0.316095
  H      2.928503   -2.218502    0.725494

 Total Charge           Charge          ....    0
 Multiplicity           Mult            ....    1
 Number of Electrons    NEL             ....  112
 Basis Dimension        Dim             ....  467

ORBITAL ENERGIES
----------------

  NO   OCC          E(Eh)            E(eV)
   0   2.0000     -24.817600      -675.3212
   1   2.0000     -14.422277      -392.4501
   2   2.0000     -14.410164      -392.1205
   3   2.0000     -10.381922      -282.5065
   4   2.0000     -10.317255      -280.7468
   5   2.0000     -10.316178      -280.7175
   6   2.0000     -10.304486      -280.3993
   7   2.0000     -10.294396      -280.1248
   8   2.0000     -10.290827      -280.0276
   9   2.0000     -10.288515      -279.9647
  10   2.0000     -10.285501      -279.8827
  11   2.0000     -10.283309      -279.8231
  12   2.0000     -10.282038      -279.7885
  13   2.0000     -10.168961      -276.7115
  14   2.0000      -1.334771       -36.3210
  15   2.0000      -1.061807       -28.8932
  16   2.0000      -0.976084       -26.5606
  17   2.0000      -0.939799       -25.5732
  18   2.0000      -0.911474       -24.8025
  19   2.0000      -0.884179       -24.0597
  20   2.0000      -0.837420       -22.7874
  21   2.0000      -0.813588       -22.1389
  22   2.0000      -0.777976       -21.1698
  23   2.0000      -0.751197       -20.4411
  24   2.0000      -0.718253       -19.5447
  25   2.0000      -0.703966       -19.1559
  26   2.0000      -0.682297       -18.5662
  27   2.0000      -0.664764       -18.0892
  28   2.0000      -0.641855       -17.4658
  29   2.0000      -0.627838       -17.0843
  30   2.0000      -0.615322       -16.7438
  31   2.0000      -0.601421       -16.3655
  32   2.0000      -0.587642       -15.9906
  33   2.0000      -0.576662       -15.6918
  34   2.0000      -0.570050       -15.5119
  35   2.0000      -0.555171       -15.1070
  36   2.0000      -0.539353       -14.6766
  37   2.0000      -0.531995       -14.4763
  38   2.0000      -0.529173       -14.3995
  39   2.0000      -0.513047       -13.9607
  40   2.0000      -0.495167       -13.4742
  41   2.0000      -0.480020       -13.0620
  42   2.0000      -0.471917       -12.8415
  43   2.0000      -0.468249       -12.7417
  44   2.0000      -0.463630       -12.6160
  45   2.0000      -0.456926       -12.4336
  46   2.0000      -0.442419       -12.0388
  47   2.0000      -0.437848       -11.9144
  48   2.0000      -0.432639       -11.7727
  49   2.0000      -0.422659       -11.5011
  50   2.0000      -0.415163       -11.2971
  51   2.0000      -0.409960       -11.1556
  52   2.0000      -0.406585       -11.0637
  53   2.0000      -0.403053       -10.9676
  54   2.0000      -0.335118        -9.1190
  55   2.0000      -0.229735        -6.2514
  56   0.0000       0.088322         2.4034
  57   0.0000       0.092178         2.5083
  58   0.0000       0.099322         2.7027
  59   0.0000       0.102699         2.7946
  60   0.0000       0.118059         3.2125

MULLIKEN ATOMIC CHARGES
-----------------------
   0 C :    1.144460
   1 C :    0.287514
   2 N :    0.255965
   3 H :   -0.041919
   4 C :    0.322742
   5 H :   -0.123295
   6 H :   -0.343607
   7 H :   -0.138284
   8 C :   -0.080139
   9 H :    0.037707
  10 C :    0.593895
  11 H :   -0.202524
  12 C :   -0.002812
  13 H :   -0.011682
  14 H :   -0.118688
  15 C :    0.191383
  16 H :   -0.048461
  17 H :   -0.200021
  18 H :   -0.303297
  19 C :    0.215874
  20 H :   -0.083566
  21 H :   -0.036791
  22 H :   -0.022989
  23 C :    0.808207
  24 H :   -0.071075
  25 H :   -0.175931
  26 F :   -0.635861
  27 H :   -0.306133
  28 H :   -0.280381
  29 C :    0.515739
  30 C :    0.812536
  31 N :    0.089525
  32 H :   -0.133718
  33 H :   -0.131107
  34 H :   -0.917708
  35 H :   -0.543445
  36 H :   -0.322111
Sum of atomic charges:    0.0000000

LOEWDIN ATOMIC CHARGES
----------------------
   0 C :    0.062216
   1 C :   -0.021528
   2 N :    0.001965
   3 H :    0.020274
   4 C :   -0.029978
   5 H :    0.021904
   6 H :   -0.001011
   7 H :    0.028744
   8 C :   -0.035929
   9 H :   -0.002361
  10 C :   -0.030162
  11 H :    0.027198
  12 C :   -0.034406
  13 H :    0.024739
  14 H :    0.024058
  15 C :   -0.026009
  16 H :   -0.002027
  17 H :    0.025924
  18 H :    0.004560
  19 C :   -0.012413
  20 H :    0.030998
  21 H :    0.037126
  22 H :    0.030111
  23 C :    0.167900
  24 H :    0.036299
  25 H :    0.043841
  26 F :   -0.223366
  27 H :    0.011174
  28 H :    0.011485
  29 C :   -0.204465
  30 C :    0.154944
  31 N :    0.193550
  32 H :   -0.035817
  33 H :    0.002682
  34 H :   -0.049322
  35 H :   -0.156594
  36 H :   -0.096305

  Mayer bond orders larger than 0.100000
B(  0-C ,  1-C ) :   1.0518 B(  0-C ,  2-N ) :   0.9683 B(  0-C ,  5-H ) :   0.1125
B(  0-C , 27-H ) :   0.6791 B(  0-C , 28-H ) :   0.8119 B(  0-C , 34-H ) :  -0.6095
B(  1-C ,  3-H ) :   0.7643 B(  1-C ,  4-C ) :   1.2103 B(  1-C ,  5-H ) :   0.9148
B(  1-C ,  6-H ) :   0.1124 B(  1-C , 27-H ) :   0.1118 B(  1-C , 28-H ) :   0.1206
B(  2-N , 27-H ) :   0.1504 B(  2-N , 29-C ) :   1.0727 B(  2-N , 30-C ) :   0.2043
B(  2-N , 31-N ) :   0.1661 B(  2-N , 34-H ) :   0.9181 B(  3-H ,  4-C ) :   0.1934
B(  4-C ,  6-H ) :   0.8539 B(  4-C ,  7-H ) :   0.7830 B(  4-C ,  8-C ) :   1.1632
B(  4-C , 11-H ) :   0.1634 B(  6-H ,  8-C ) :   0.1537 B(  7-H ,  8-C ) :   0.1461
B(  8-C ,  9-H ) :   0.8489 B(  8-C , 10-C ) :   1.1647 B(  8-C , 11-H ) :   0.9376
B(  8-C , 13-H ) :   0.1159 B(  8-C , 14-H ) :   0.2797 B( 10-C , 12-C ) :   1.1896
B( 10-C , 13-H ) :   0.7251 B( 10-C , 14-H ) :   0.7040 B( 12-C , 13-H ) :   0.2232
B( 12-C , 14-H ) :   0.1246 B( 12-C , 15-C ) :   1.1864 B( 12-C , 16-H ) :   0.8886
B( 12-C , 17-H ) :   0.8791 B( 12-C , 18-H ) :   0.1425 B( 12-C , 20-H ) :   0.1933
B( 13-H , 14-H ) :  -0.1177 B( 15-C , 17-H ) :   0.2368 B( 15-C , 18-H ) :   0.8726
B( 15-C , 19-C ) :   1.1604 B( 15-C , 20-H ) :   0.8372 B( 15-C , 22-H ) :   0.1997
B( 18-H , 19-C ) :   0.1293 B( 19-C , 21-H ) :   0.8223 B( 19-C , 22-H ) :   0.7576
B( 19-C , 23-C ) :   1.2081 B( 19-C , 24-H ) :   0.1149 B( 19-C , 25-H ) :   0.1313
B( 21-H , 23-C ) :   0.1425 B( 22-H , 23-C ) :   0.1553 B( 23-C , 24-H ) :   0.8501
B( 23-C , 25-H ) :   0.9315 B( 23-C , 26-F ) :   0.5772 B( 24-H , 26-F ) :   0.1110
B( 26-F , 34-H ) :   0.1277 B( 26-F , 35-H ) :   0.1742 B( 27-H , 28-H ) :  -0.1040
B( 27-H , 34-H ) :   0.1872 B( 29-C , 30-C ) :   1.8205 B( 29-C , 31-N ) :   0.8589
B( 29-C , 34-H ) :  -0.5817 B( 29-C , 35-H ) :   0.2571 B( 29-C , 36-H ) :   0.3960
B( 30-C , 31-N ) :   0.2470 B( 30-C , 35-H ) :   0.3920 B( 30-C , 36-H ) :   0.4497
B( 31-N , 32-H ) :   0.9856 B( 31-N , 33-H ) :   1.1814 B( 32-H , 33-H ) :  -0.1391
B( 35-H , 36-H ) :   0.2243

Dispersion correction           -0.017724603
FINAL SINGLE POINT ENERGY      -641.724138929603

DIPOLE MOMENT
-------------
                                X             Y             Z
Electronic contribution:     -1.28338      -3.14030       9.41152
Nuclear contribution   :      1.09892       3.58083     -10.64472
                        -----------------------------------------
Total Dipole Moment    :     -0.18446       0.44053      -1.23319
                        -----------------------------------------
Magnitude (a.u.)       :      1.32244
Magnitude (Debye)      :      3.36139

Rotational constants in cm-1:     0.026768     0.016312     0.010954
Rotational constants in MHz :   802.489946   489.033275   328.388904

                             ****ORCA TERMINATED NORMALLY****
TOTAL RUN TIME: 0 days 0 hours 1 minutes 26 seconds 881 msec
