                         Program Version 5.0.0 -  RELEASE  -
|  1> !wB97X-D3 RIJCOSX def2-SVPD def2/J TightSCF xyzfile
|  2>
|  3> *xyzfile 0 1 D3.xyz
|  4>
|  5> %MaxCore 64000
|  6>
|  7> %pal nprocs 18
|  8> end
|  9>
| 10> %scf
| 11>   MaxIter 150
| 12> end
| 13>
| 14>
| 15>                          ****END OF INPUT****

CARTESIAN COORDINATES (ANGSTROEM)
---------------------------------
  C      3.488276    1.600919   -1.522040
  C      4.342970    1.313419   -2.756826
  N      2.810285    0.428783   -1.014196
  H      5.132033    0.604994   -2.484466
  C      3.535896    0.749253   -3.924604
  H      4.841247    2.242136   -3.054083
  H      2.991617   -0.132199   -3.574137
  H      4.225505    0.392784   -4.695962
  C      2.564776    1.750890   -4.544523
  H      1.918749    2.171679   -3.769419
  C      1.686235    1.161657   -5.650111
  H      3.132494    2.594775   -4.951604
  C      0.839616   -0.037582   -5.220473
  H      2.323886    0.866395   -6.490796
  H      1.029518    1.951850   -6.029329
  C     -0.151019    0.254955   -4.094256
  H      1.499442   -0.857141   -4.922958
  H      0.290097   -0.410143   -6.091131
  H      0.328265    0.833022   -3.299125
  C     -0.721843   -0.999513   -3.439309
  H     -0.957367    0.884951   -4.485450
  H     -1.083403   -1.697555   -4.205656
  H     -1.581056   -0.723848   -2.820490
  C      0.287250   -1.711771   -2.527405
  H      1.131780   -2.067380   -3.159396
  H     -0.204137   -2.637326   -2.170480
  F      0.710505   -0.927506   -1.481767
  H      2.714548    2.331455   -1.760302
  H      4.090991    2.063151   -0.733382
  C      3.290978   -0.418021   -0.129083
  N      2.517536   -1.432017    0.239360
  C      4.535490   -0.284410    0.395800
  H      5.043627    0.571888    0.222899
  H      4.723346   -0.733273    1.281800
  H      1.934787    0.102305   -1.403788
  H      1.674638   -1.505616   -0.316095
  H      2.928503   -2.218502    0.725494

 Total Charge           Charge          ....    0
 Multiplicity           Mult            ....    1
 Number of Electrons    NEL             ....  112
 Basis Dimension        Dim             ....  467

ORBITAL ENERGIES
----------------

  NO   OCC          E(Eh)            E(eV)
   0   2.0000     -24.847668      -676.1394
   1   2.0000     -14.414710      -392.2442
   2   2.0000     -14.410043      -392.1172
   3   2.0000     -10.400246      -283.0051
   4   2.0000     -10.319242      -280.8008
   5   2.0000     -10.316623      -280.7296
   6   2.0000     -10.309118      -280.5254
   7   2.0000     -10.301958      -280.3305
   8   2.0000     -10.295877      -280.1651
   9   2.0000     -10.290522      -280.0193
  10   2.0000     -10.285037      -279.8701
  11   2.0000     -10.281132      -279.7638
  12   2.0000     -10.274831      -279.5924
  13   2.0000     -10.180380      -277.0222
  14   2.0000      -1.363485       -37.1023
  15   2.0000      -1.067873       -29.0583
  16   2.0000      -0.977356       -26.5952
  17   2.0000      -0.945979       -25.7414
  18   2.0000      -0.915170       -24.9030
  19   2.0000      -0.880333       -23.9551
  20   2.0000      -0.837368       -22.7859
  21   2.0000      -0.804530       -21.8924
  22   2.0000      -0.796719       -21.6798
  23   2.0000      -0.762651       -20.7528
  24   2.0000      -0.728584       -19.8258
  25   2.0000      -0.701705       -19.0944
  26   2.0000      -0.681051       -18.5323
  27   2.0000      -0.667439       -18.1619
  28   2.0000      -0.662486       -18.0272
  29   2.0000      -0.631581       -17.1862
  30   2.0000      -0.626226       -17.0405
  31   2.0000      -0.614264       -16.7150
  32   2.0000      -0.596350       -16.2275
  33   2.0000      -0.581452       -15.8221
  34   2.0000      -0.566779       -15.4228
  35   2.0000      -0.556851       -15.1527
  36   2.0000      -0.542175       -14.7533
  37   2.0000      -0.538311       -14.6482
  38   2.0000      -0.530543       -14.4368
  39   2.0000      -0.509715       -13.8700
  40   2.0000      -0.501907       -13.6576
  41   2.0000      -0.483813       -13.1652
  42   2.0000      -0.477683       -12.9984
  43   2.0000      -0.470007       -12.7895
  44   2.0000      -0.468741       -12.7551
  45   2.0000      -0.457493       -12.4490
  46   2.0000      -0.447599       -12.1798
  47   2.0000      -0.445025       -12.1097
  48   2.0000      -0.435716       -11.8564
  49   2.0000      -0.431519       -11.7422
  50   2.0000      -0.424884       -11.5617
  51   2.0000      -0.410011       -11.1570
  52   2.0000      -0.408292       -11.1102
  53   2.0000      -0.401343       -10.9211
  54   2.0000      -0.324205        -8.8221
  55   2.0000      -0.234352        -6.3770
  56   0.0000       0.079353         2.1593
  57   0.0000       0.089842         2.4447
  58   0.0000       0.098788         2.6882
  59   0.0000       0.102240         2.7821
  60   0.0000       0.116782         3.1778

MULLIKEN ATOMIC CHARGES
-----------------------
   0 C :    1.108601
   1 C :    0.300247
   2 N :    0.281283
   3 H :   -0.062683
   4 C :    0.288136
   5 H :   -0.105195
   6 H :   -0.350783
   7 H :   -0.128559
   8 C :   -0.083530
   9 H :    0.038426
  10 C :    0.597687
  11 H :   -0.196905
  12 C :   -0.005957
  13 H :   -0.008796
  14 H :   -0.117001
  15 C :    0.184693
  16 H :   -0.046651
  17 H :   -0.204943
  18 H :   -0.307805
  19 C :    0.218194
  20 H :   -0.082700
  21 H :   -0.031835
  22 H :   -0.017608
  23 C :    0.805442
  24 H :   -0.058383
  25 H :   -0.161549
  26 F :   -0.692587
  27 H :   -0.297838
  28 H :   -0.166315
  29 C :    0.587090
  30 N :    0.386339
  31 C :    0.571691
  32 H :   -0.051249
  33 H :   -0.612596
  34 H :   -1.130483
  35 H :   -0.330122
  36 H :   -0.115758
Sum of atomic charges:    0.0000000

LOEWDIN ATOMIC CHARGES
----------------------
   0 C :    0.069951
   1 C :   -0.013319
   2 N :    0.002447
   3 H :    0.022667
   4 C :   -0.032237
   5 H :    0.023871
   6 H :   -0.004571
   7 H :    0.028531
   8 C :   -0.036086
   9 H :   -0.002756
  10 C :   -0.029860
  11 H :    0.028039
  12 C :   -0.034393
  13 H :    0.025303
  14 H :    0.024123
  15 C :   -0.024734
  16 H :   -0.002397
  17 H :    0.026101
  18 H :    0.005245
  19 C :   -0.009932
  20 H :    0.032521
  21 H :    0.039385
  22 H :    0.030950
  23 C :    0.167584
  24 H :    0.038512
  25 H :    0.043445
  26 F :   -0.212259
  27 H :    0.010690
  28 H :    0.018669
  29 C :   -0.212179
  30 N :    0.201580
  31 C :    0.143089
  32 H :   -0.131030
  33 H :   -0.111727
  34 H :   -0.057758
  35 H :   -0.081211
  36 H :    0.013742

  Mayer bond orders larger than 0.100000
B(  0-C ,  1-C ) :   1.0409 B(  0-C ,  2-N ) :   0.9834 B(  0-C , 27-H ) :   0.7217
B(  0-C , 28-H ) :   0.8191 B(  0-C , 34-H ) :  -0.6557 B(  1-C ,  3-H ) :   0.7892
B(  1-C ,  4-C ) :   1.2075 B(  1-C ,  5-H ) :   0.9089 B(  1-C ,  6-H ) :   0.1161
B(  1-C , 27-H ) :   0.1003 B(  1-C , 28-H ) :   0.1076 B(  2-N , 27-H ) :   0.1954
B(  2-N , 29-C ) :   1.0013 B(  2-N , 31-C ) :   0.4423 B(  2-N , 33-H ) :   0.1119
B(  2-N , 34-H ) :   0.6789 B(  3-H ,  4-C ) :   0.1990 B(  4-C ,  6-H ) :   0.8536
B(  4-C ,  7-H ) :   0.7936 B(  4-C ,  8-C ) :   1.1646 B(  4-C , 11-H ) :   0.1667
B(  6-H ,  8-C ) :   0.1537 B(  7-H ,  8-C ) :   0.1507 B(  8-C ,  9-H ) :   0.8526
B(  8-C , 10-C ) :   1.1672 B(  8-C , 11-H ) :   0.9341 B(  8-C , 13-H ) :   0.1181
B(  8-C , 14-H ) :   0.2840 B( 10-C , 12-C ) :   1.1880 B( 10-C , 13-H ) :   0.7244
B( 10-C , 14-H ) :   0.7023 B( 12-C , 13-H ) :   0.2222 B( 12-C , 14-H ) :   0.1209
B( 12-C , 15-C ) :   1.1861 B( 12-C , 16-H ) :   0.8864 B( 12-C , 17-H ) :   0.8871
B( 12-C , 18-H ) :   0.1421 B( 12-C , 20-H ) :   0.1924 B( 13-H , 14-H ) :  -0.1167
B( 15-C , 17-H ) :   0.2321 B( 15-C , 18-H ) :   0.8763 B( 15-C , 19-C ) :   1.1655
B( 15-C , 20-H ) :   0.8412 B( 15-C , 21-H ) :   0.1023 B( 15-C , 22-H ) :   0.1991
B( 18-H , 19-C ) :   0.1274 B( 19-C , 21-H ) :   0.8154 B( 19-C , 22-H ) :   0.7574
B( 19-C , 23-C ) :   1.2060 B( 19-C , 24-H ) :   0.1151 B( 19-C , 25-H ) :   0.1325
B( 19-C , 26-F ) :   0.1051 B( 21-H , 23-C ) :   0.1491 B( 22-H , 23-C ) :   0.1428
B( 23-C , 24-H ) :   0.8478 B( 23-C , 25-H ) :   0.9174 B( 23-C , 26-F ) :   0.5486
B( 24-H , 26-F ) :   0.1215 B( 26-F , 34-H ) :   0.1928 B( 26-F , 35-H ) :   0.1835
B( 27-H , 28-H ) :  -0.1387 B( 27-H , 34-H ) :   0.1192 B( 29-C , 30-N ) :   0.8437
B( 29-C , 31-C ) :   1.7263 B( 29-C , 32-H ) :   0.3686 B( 29-C , 33-H ) :   0.3450
B( 29-C , 34-H ) :  -0.6295 B( 30-N , 31-C ) :   0.2526 B( 30-N , 35-H ) :   0.9474
B( 30-N , 36-H ) :   1.1815 B( 31-C , 32-H ) :   0.5783 B( 31-C , 33-H ) :   0.6204
B( 35-H , 36-H ) :  -0.1388

Dispersion correction           -0.017696423
FINAL SINGLE POINT ENERGY      -641.736994994472

DIPOLE MOMENT
-------------
                                X             Y             Z
Electronic contribution:     -3.25502      -4.31049       9.05562
Nuclear contribution   :      1.49917       3.80845     -10.61369
                        -----------------------------------------
Total Dipole Moment    :     -1.75585      -0.50203      -1.55807
                        -----------------------------------------
Magnitude (a.u.)       :      2.40055
Magnitude (Debye)      :      6.10171

Rotational constants in cm-1:     0.026547     0.016542     0.011018
Rotational constants in MHz :   795.873737   495.912559   330.323979

                             ****ORCA TERMINATED NORMALLY****
TOTAL RUN TIME: 0 days 0 hours 1 minutes 40 seconds 29 msec
