                         Program Version 5.0.0 -  RELEASE  -
|  1> !BLYP D3BJ RIJCOSX def2-TZVPD def2/J TightSCF
|  2> *xyz -1 1
|  3> C          0.84888        2.66797       -4.30235
|  4> C          2.09343        1.86104       -4.65684
|  5> H          2.44481        2.04157       -5.67499
|  6> H          2.90175        2.13786       -3.98034
|  7> S          1.87964        0.07859       -4.46297
|  8> O          3.20757       -0.46611       -4.42026
|  9> O          1.07506       -0.05616       -3.26876
| 10> O          1.13166       -0.31996       -5.67903
| 11> H          0.05064        2.40112       -4.96303
| 12> H          1.06043        3.71210       -4.40203
| 13> H          0.56237        2.45684       -3.29327
| 14> *
| 15>
| 16> %MaxCore 64000
| 17>
| 18> %pal nprocs 4
| 19> end
| 20>
| 21> %scf
| 22>   MaxIter 150
| 23> end
| 24>
| 25>
| 26>                          ****END OF INPUT****

CARTESIAN COORDINATES (ANGSTROEM)
---------------------------------
  C      0.848880    2.667970   -4.302350
  C      2.093430    1.861040   -4.656840
  H      2.444810    2.041570   -5.674990
  H      2.901750    2.137860   -3.980340
  S      1.879640    0.078590   -4.462970
  O      3.207570   -0.466110   -4.420260
  O      1.075060   -0.056160   -3.268760
  O      1.131660   -0.319960   -5.679030
  H      0.050640    2.401120   -4.963030
  H      1.060430    3.712100   -4.402030
  H      0.562370    2.456840   -3.293270

 Total Charge           Charge          ....   -1
 Multiplicity           Mult            ....    1
 Number of Electrons    NEL             ....   58
 Basis Dimension        Dim             ....  285

ORBITAL ENERGIES
----------------

  NO   OCC          E(Eh)            E(eV)
   0   2.0000     -88.077996     -2396.7241
   1   2.0000     -18.555404      -504.9182
   2   2.0000     -18.552321      -504.8343
   3   2.0000     -18.540697      -504.5180
   4   2.0000      -9.759547      -265.5708
   5   2.0000      -9.754225      -265.4260
   6   2.0000      -7.609189      -207.0565
   7   2.0000      -5.637759      -153.4112
   8   2.0000      -5.636901      -153.3879
   9   2.0000      -5.636604      -153.3798
  10   2.0000      -0.828540       -22.5457
  11   2.0000      -0.705758       -19.2046
  12   2.0000      -0.681267       -18.5382
  13   2.0000      -0.548997       -14.9390
  14   2.0000      -0.431088       -11.7305
  15   2.0000      -0.316172        -8.6035
  16   2.0000      -0.260921        -7.1000
  17   2.0000      -0.256055        -6.9676
  18   2.0000      -0.217984        -5.9316
  19   2.0000      -0.203684        -5.5425
  20   2.0000      -0.198953        -5.4138
  21   2.0000      -0.178606        -4.8601
  22   2.0000      -0.164632        -4.4799
  23   2.0000      -0.101532        -2.7628
  24   2.0000      -0.099970        -2.7203
  25   2.0000      -0.069441        -1.8896
  26   2.0000      -0.064362        -1.7514
  27   2.0000      -0.052041        -1.4161
  28   2.0000      -0.017641        -0.4800
  29   0.0000       0.110834         3.0160
  30   0.0000       0.135468         3.6863
  31   0.0000       0.143665         3.9093
  32   0.0000       0.152029         4.1369
  33   0.0000       0.169307         4.6071

MULLIKEN ATOMIC CHARGES
-----------------------
   0 C :   -1.188062
   1 C :   -0.377977
   2 H :    0.264594
   3 H :    0.261320
   4 S :    1.236608
   5 O :   -0.683554
   6 O :   -0.707807
   7 O :   -0.748441
   8 H :    0.306219
   9 H :    0.337521
  10 H :    0.299578
Sum of atomic charges:   -1.0000000

LOEWDIN ATOMIC CHARGES
----------------------
   0 C :   -0.148151
   1 C :   -0.327394
   2 H :    0.078119
   3 H :    0.072355
   4 S :    0.315050
   5 O :   -0.369775
   6 O :   -0.369935
   7 O :   -0.402755
   8 H :    0.058004
   9 H :    0.043524
  10 H :    0.050958

  Mayer bond orders larger than 0.100000
B(  0-C ,  1-C ) :   0.6080 B(  0-C ,  8-H ) :   0.9681 B(  0-C ,  9-H ) :   0.9035
B(  0-C , 10-H ) :   0.9860 B(  1-C ,  2-H ) :   0.9484 B(  1-C ,  3-H ) :   0.9551
B(  1-C ,  4-S ) :   0.8799 B(  1-C ,  5-O ) :   0.1542 B(  1-C ,  6-O ) :   0.1117
B(  1-C ,  7-O ) :   0.1330 B(  4-S ,  5-O ) :   1.4754 B(  4-S ,  6-O ) :   1.4627
B(  4-S ,  7-O ) :   1.4329

Dispersion correction           -0.020613157
FINAL SINGLE POINT ENERGY      -703.248670002691

DIPOLE MOMENT
-------------
                                X             Y             Z
Electronic contribution:      1.60654      -7.77372       0.05988
Nuclear contribution   :     -1.55288       9.51857       0.00420
                        -----------------------------------------
Total Dipole Moment    :      0.05366       1.74485       0.06409
                        -----------------------------------------
Magnitude (a.u.)       :      1.74685
Magnitude (Debye)      :      4.44014

Rotational constants in cm-1:     0.163401     0.083833     0.082462
Rotational constants in MHz :  4898.624208  2513.264548  2472.149188

                             ****ORCA TERMINATED NORMALLY****
TOTAL RUN TIME: 0 days 0 hours 0 minutes 28 seconds 140 msec
