                         Program Version 5.0.0 -  RELEASE  -
|  1> !BLYP D3BJ RIJCOSX def2-TZVPD def2/J TightSCF
|  2> *xyz 1 1
|  3> C         -0.46129        2.23469       -4.98962
|  4> C          0.84888        2.66797       -4.30235
|  5> C         -0.42384        2.39877       -6.47432
|  6> N         -0.95947        3.49265       -7.00740
|  7> N          0.14558        1.48689       -7.20399
|  8> H          0.56537        0.69681       -6.72386
|  9> H          0.22068        1.58177       -8.20752
| 10> H         -1.40624        4.18151       -6.40326
| 11> H         -0.93421        3.68160       -7.99947
| 12> H         -1.28888        2.82674       -4.59500
| 13> H         -0.65170        1.18634       -4.75655
| 14> H          1.66208        2.08894       -4.68750
| 15> H          0.76716        2.51042       -3.24717
| 16> H          1.02677        3.70527       -4.49537
| 17> *
| 18>
| 19> %MaxCore 64000
| 20>
| 21> %pal nprocs 4
| 22> end
| 23>
| 24> %scf
| 25>   MaxIter 150
| 26> end
| 27>
| 28>
| 29>                          ****END OF INPUT****

CARTESIAN COORDINATES (ANGSTROEM)
---------------------------------
  C     -0.461290    2.234690   -4.989620
  C      0.848880    2.667970   -4.302350
  C     -0.423840    2.398770   -6.474320
  N     -0.959470    3.492650   -7.007400
  N      0.145580    1.486890   -7.203990
  H      0.565370    0.696810   -6.723860
  H      0.220680    1.581770   -8.207520
  H     -1.406240    4.181510   -6.403260
  H     -0.934210    3.681600   -7.999470
  H     -1.288880    2.826740   -4.595000
  H     -0.651700    1.186340   -4.756550
  H      1.662080    2.088940   -4.687500
  H      0.767160    2.510420   -3.247170
  H      1.026770    3.705270   -4.495370

 Total Charge           Charge          ....    1
 Multiplicity           Mult            ....    1
 Number of Electrons    NEL             ....   40
 Basis Dimension        Dim             ....  266

ORBITAL ENERGIES
----------------

  NO   OCC          E(Eh)            E(eV)
   0   2.0000     -14.251893      -387.8137
   1   2.0000     -14.248471      -387.7206
   2   2.0000     -10.217995      -278.0458
   3   2.0000     -10.102189      -274.8945
   4   2.0000     -10.059145      -273.7232
   5   2.0000      -1.113072       -30.2882
   6   2.0000      -1.025594       -27.9078
   7   2.0000      -0.890042       -24.2193
   8   2.0000      -0.793347       -21.5881
   9   2.0000      -0.751949       -20.4616
  10   2.0000      -0.720171       -19.5968
  11   2.0000      -0.692562       -18.8456
  12   2.0000      -0.649511       -17.6741
  13   2.0000      -0.596151       -16.2221
  14   2.0000      -0.572134       -15.5686
  15   2.0000      -0.563879       -15.3439
  16   2.0000      -0.499314       -13.5870
  17   2.0000      -0.490228       -13.3398
  18   2.0000      -0.483970       -13.1695
  19   2.0000      -0.450053       -12.2466
  20   0.0000      -0.239899        -6.5280
  21   0.0000      -0.191771        -5.2184
  22   0.0000      -0.149715        -4.0739
  23   0.0000      -0.144981        -3.9451
  24   0.0000      -0.119042        -3.2393

MULLIKEN ATOMIC CHARGES
-----------------------
   0 C :   -0.439824
   1 C :   -1.154232
   2 C :    0.710308
   3 N :   -0.263894
   4 N :   -0.231517
   5 H :    0.213792
   6 H :    0.183480
   7 H :    0.204525
   8 H :    0.172181
   9 H :    0.272190
  10 H :    0.288753
  11 H :    0.345618
  12 H :    0.339283
  13 H :    0.359337
Sum of atomic charges:    1.0000000

LOEWDIN ATOMIC CHARGES
----------------------
   0 C :   -0.143819
   1 C :   -0.042155
   2 C :   -0.372573
   3 N :    0.238329
   4 N :    0.247093
   5 H :    0.151695
   6 H :    0.147806
   7 H :    0.146879
   8 H :    0.138986
   9 H :    0.123805
  10 H :    0.128373
  11 H :    0.073515
  12 H :    0.083603
  13 H :    0.078463

  Mayer bond orders larger than 0.100000
B(  0-C ,  1-C ) :   0.6004 B(  0-C ,  2-C ) :   0.7494 B(  0-C ,  9-H ) :   0.9746
B(  0-C , 10-H ) :   0.9520 B(  1-C , 11-H ) :   0.9211 B(  1-C , 12-H ) :   0.9567
B(  1-C , 13-H ) :   0.9403 B(  2-C ,  3-N ) :   1.1225 B(  2-C ,  4-N ) :   1.2108
B(  3-N ,  4-N ) :   0.1259 B(  3-N ,  7-H ) :   0.9600 B(  3-N ,  8-H ) :   1.0321
B(  4-N ,  5-H ) :   0.9483 B(  4-N ,  6-H ) :   1.0094

Dispersion correction           -0.020511596
FINAL SINGLE POINT ENERGY      -229.034912329048

DIPOLE MOMENT
-------------
                                X             Y             Z
Electronic contribution:     -1.55063      -0.26446      -3.86676
Nuclear contribution   :      1.33202       0.27544       2.83701
                        -----------------------------------------
Total Dipole Moment    :     -0.21861       0.01098      -1.02975
                        -----------------------------------------
Magnitude (a.u.)       :      1.05276
Magnitude (Debye)      :      2.67590

Rotational constants in cm-1:     0.258570     0.126296     0.098869
Rotational constants in MHz :  7751.748523  3786.267300  2964.011691

                             ****ORCA TERMINATED NORMALLY****
TOTAL RUN TIME: 0 days 0 hours 0 minutes 17 seconds 342 msec
