                         Program Version 5.0.0 -  RELEASE  -
|  1> !BLYP D3BJ RIJCOSX def2-TZVPD def2/J TightSCF xyzfile
|  2>
|  3> *xyzfile 0 1 B.xyz
|  4>
|  5> %MaxCore 64000
|  6>
|  7> %pal nprocs 4
|  8> end
|  9>
| 10> %scf
| 11>   MaxIter 150
| 12> end
| 13>
| 14>
| 15>                          ****END OF INPUT****

CARTESIAN COORDINATES (ANGSTROEM)
---------------------------------
  C     -0.461293    2.234686   -4.989619
  C      0.848883    2.667967   -4.302351
  C      2.093434    1.861037   -4.656845
  H      2.444814    2.041567   -5.674990
  H      2.901748    2.137864   -3.980338
  S      1.879644    0.078594   -4.462965
  C     -0.423841    2.398772   -6.474317
  N     -0.959467    3.492647   -7.007401
  N      0.145585    1.486891   -7.203987
  H      0.565371    0.696807   -6.723858
  H      0.220682    1.581768   -8.207520
  H     -1.406243    4.181507   -6.403261
  H     -0.934215    3.681601   -7.999468
  O      3.207574   -0.466111   -4.420259
  O      1.075064   -0.056160   -3.268758
  O      1.131661   -0.319960   -5.679031
  H      0.668432    2.559427   -3.232850
  H      1.034074    3.729426   -4.497081
  H     -1.288884    2.826737   -4.594997
  H     -0.651696    1.186343   -4.756552

 Total Charge           Charge          ....    0
 Multiplicity           Mult            ....    1
 Number of Electrons    NEL             ....   88
 Basis Dimension        Dim             ....  478

ORBITAL ENERGIES
----------------

  NO   OCC          E(Eh)            E(eV)
   0   2.0000     -88.230586     -2400.8763
   1   2.0000     -18.711302      -509.1604
   2   2.0000     -18.697824      -508.7936
   3   2.0000     -18.696182      -508.7490
   4   2.0000     -14.112404      -384.0180
   5   2.0000     -14.080038      -383.1373
   6   2.0000     -10.068821      -273.9866
   7   2.0000      -9.953721      -270.8545
   8   2.0000      -9.933124      -270.2941
   9   2.0000      -9.908993      -269.6374
  10   2.0000      -7.761892      -211.2118
  11   2.0000      -5.790833      -157.5766
  12   2.0000      -5.789900      -157.5512
  13   2.0000      -5.788599      -157.5158
  14   2.0000      -0.981544       -26.7092
  15   2.0000      -0.964636       -26.2491
  16   2.0000      -0.878540       -23.9063
  17   2.0000      -0.849318       -23.1111
  18   2.0000      -0.847759       -23.0687
  19   2.0000      -0.753299       -20.4983
  20   2.0000      -0.680661       -18.5217
  21   2.0000      -0.626826       -17.0568
  22   2.0000      -0.584359       -15.9012
  23   2.0000      -0.573844       -15.6151
  24   2.0000      -0.542934       -14.7740
  25   2.0000      -0.506071       -13.7709
  26   2.0000      -0.461091       -12.5469
  27   2.0000      -0.458252       -12.4697
  28   2.0000      -0.429086       -11.6760
  29   2.0000      -0.419595       -11.4177
  30   2.0000      -0.394096       -10.7239
  31   2.0000      -0.381692       -10.3864
  32   2.0000      -0.358328        -9.7506
  33   2.0000      -0.350137        -9.5277
  34   2.0000      -0.343364        -9.3434
  35   2.0000      -0.328146        -8.9293
  36   2.0000      -0.314371        -8.5545
  37   2.0000      -0.303096        -8.2477
  38   2.0000      -0.254588        -6.9277
  39   2.0000      -0.248860        -6.7718
  40   2.0000      -0.223548        -6.0831
  41   2.0000      -0.212112        -5.7719
  42   2.0000      -0.209776        -5.7083
  43   2.0000      -0.172835        -4.7031
  44   0.0000      -0.094337        -2.5670
  45   0.0000      -0.071573        -1.9476
  46   0.0000      -0.033504        -0.9117
  47   0.0000      -0.014655        -0.3988
  48   0.0000      -0.001185        -0.0322

MULLIKEN ATOMIC CHARGES
-----------------------
   0 C :   -0.570600
   1 C :   -0.482664
   2 C :   -0.771550
   3 H :    0.314816
   4 H :    0.271076
   5 S :    1.363172
   6 C :    0.456055
   7 N :   -0.284770
   8 N :   -0.242346
   9 H :    0.423778
  10 H :    0.124215
  11 H :    0.189053
  12 H :    0.144913
  13 O :   -0.653774
  14 O :   -0.695756
  15 O :   -0.835347
  16 H :    0.303695
  17 H :    0.242389
  18 H :    0.281588
  19 H :    0.422058
Sum of atomic charges:   -0.0000000

LOEWDIN ATOMIC CHARGES
----------------------
   0 C :   -0.109662
   1 C :   -0.199722
   2 C :   -0.247863
   3 H :    0.089704
   4 H :    0.097419
   5 S :    0.398897
   6 C :   -0.368392
   7 N :    0.201833
   8 N :    0.240375
   9 H :    0.031240
  10 H :    0.138700
  11 H :    0.129863
  12 H :    0.122418
  13 O :   -0.307617
  14 O :   -0.314680
  15 O :   -0.361779
  16 H :    0.112909
  17 H :    0.109045
  18 H :    0.119404
  19 H :    0.117907

  Mayer bond orders larger than 0.100000
B(  0-C ,  1-C ) :   0.7589 B(  0-C ,  6-C ) :   0.7218 B(  0-C , 18-H ) :   0.9313
B(  0-C , 19-H ) :   0.8995 B(  1-C ,  2-C ) :   0.8936 B(  1-C ,  6-C ) :   0.1817
B(  1-C , 16-H ) :   0.8734 B(  1-C , 17-H ) :   0.9590 B(  2-C ,  3-H ) :   0.8698
B(  2-C ,  4-H ) :   0.9825 B(  2-C ,  5-S ) :   0.8747 B(  2-C , 13-O ) :   0.1838
B(  2-C , 15-O ) :   0.1651 B(  5-S , 13-O ) :   1.4461 B(  5-S , 14-O ) :   1.4682
B(  5-S , 15-O ) :   1.2599 B(  6-C ,  7-N ) :   1.0329 B(  6-C ,  8-N ) :   1.3114
B(  7-N ,  8-N ) :   0.1245 B(  7-N , 11-H ) :   0.9830 B(  7-N , 12-H ) :   1.0366
B(  8-N ,  9-H ) :   0.6966 B(  8-N , 10-H ) :   1.0392

Dispersion correction           -0.047115121
FINAL SINGLE POINT ENERGY      -891.932573725231

DIPOLE MOMENT
-------------
                                X             Y             Z
Electronic contribution:      3.15419      -7.79131       1.15936
Nuclear contribution   :     -5.91573      12.15027      -4.18945
                        -----------------------------------------
Total Dipole Moment    :     -2.76153       4.35897      -3.03009
                        -----------------------------------------
Magnitude (a.u.)       :      5.98399
Magnitude (Debye)      :     15.21009

Rotational constants in cm-1:     0.082044     0.024757     0.022371
Rotational constants in MHz :  2459.631375   742.181961   670.660570

                             ****ORCA TERMINATED NORMALLY****
TOTAL RUN TIME: 0 days 0 hours 0 minutes 41 seconds 0 msec
