                         Program Version 5.0.0 -  RELEASE  -
|  1> !BLYP D3BJ RIJCOSX def2-TZVPD def2/J TightSCF
|  2> *xyz 0 1
|  3> C          0.84888        2.66797       -4.30235
|  4> C          2.09343        1.86104       -4.65684
|  5> H          2.44481        2.04157       -5.67499
|  6> H          2.90175        2.13786       -3.98034
|  7> S          1.87964        0.07859       -4.46297
|  8> F          3.20757       -0.46611       -4.42026
|  9> O          1.07506       -0.05616       -3.26876
| 10> O          1.13166       -0.31996       -5.67903
| 11> H          0.05064        2.40112       -4.96303
| 12> H          1.06043        3.71210       -4.40203
| 13> H          0.56237        2.45684       -3.29327
| 14> *
| 15>
| 16> %MaxCore 64000
| 17>
| 18> %pal nprocs 4
| 19> end
| 20>
| 21> %scf
| 22>   MaxIter 150
| 23> end
| 24>
| 25>
| 26>                          ****END OF INPUT****

CARTESIAN COORDINATES (ANGSTROEM)
---------------------------------
  C      0.848880    2.667970   -4.302350
  C      2.093430    1.861040   -4.656840
  H      2.444810    2.041570   -5.674990
  H      2.901750    2.137860   -3.980340
  S      1.879640    0.078590   -4.462970
  F      3.207570   -0.466110   -4.420260
  O      1.075060   -0.056160   -3.268760
  O      1.131660   -0.319960   -5.679030
  H      0.050640    2.401120   -4.963030
  H      1.060430    3.712100   -4.402030
  H      0.562370    2.456840   -3.293270

 Total Charge           Charge          ....    0
 Multiplicity           Mult            ....    1
 Number of Electrons    NEL             ....   58
 Basis Dimension        Dim             ....  285

ORBITAL ENERGIES
----------------

  NO   OCC          E(Eh)            E(eV)
   0   2.0000     -88.336463     -2403.7574
   1   2.0000     -24.404709      -664.0859
   2   2.0000     -18.784110      -511.1416
   3   2.0000     -18.772591      -510.8282
   4   2.0000      -9.960102      -271.0282
   5   2.0000      -9.918366      -269.8925
   6   2.0000      -7.868155      -214.1034
   7   2.0000      -5.900264      -160.5543
   8   2.0000      -5.893676      -160.3751
   9   2.0000      -5.893500      -160.3703
  10   2.0000      -1.276907       -34.7464
  11   2.0000      -1.007611       -27.4185
  12   2.0000      -0.912402       -24.8277
  13   2.0000      -0.738369       -20.0920
  14   2.0000      -0.664677       -18.0868
  15   2.0000      -0.604711       -16.4550
  16   2.0000      -0.522906       -14.2290
  17   2.0000      -0.521004       -14.1772
  18   2.0000      -0.492739       -13.4081
  19   2.0000      -0.437825       -11.9138
  20   2.0000      -0.426057       -11.5936
  21   2.0000      -0.388990       -10.5850
  22   2.0000      -0.378119       -10.2891
  23   2.0000      -0.358389        -9.7523
  24   2.0000      -0.340690        -9.2707
  25   2.0000      -0.332095        -9.0368
  26   2.0000      -0.286488        -7.7957
  27   2.0000      -0.273479        -7.4417
  28   2.0000      -0.256725        -6.9858
  29   0.0000      -0.031262        -0.8507
  30   0.0000      -0.009686        -0.2636
  31   0.0000       0.006426         0.1749
  32   0.0000       0.013893         0.3780
  33   0.0000       0.023678         0.6443

MULLIKEN ATOMIC CHARGES
-----------------------
   0 C :   -1.205771
   1 C :   -0.379514
   2 H :    0.321939
   3 H :    0.320133
   4 S :    1.175091
   5 F :   -0.112650
   6 O :   -0.558674
   7 O :   -0.584924
   8 H :    0.346206
   9 H :    0.337244
  10 H :    0.340920
Sum of atomic charges:    0.0000000

LOEWDIN ATOMIC CHARGES
----------------------
   0 C :   -0.100498
   1 C :   -0.284305
   2 H :    0.097901
   3 H :    0.090474
   4 S :    0.560676
   5 F :   -0.037445
   6 O :   -0.257992
   7 O :   -0.283383
   8 H :    0.075077
   9 H :    0.072027
  10 H :    0.067468

  Mayer bond orders larger than 0.100000
B(  0-C ,  1-C ) :   0.6755 B(  0-C ,  8-H ) :   0.9314 B(  0-C ,  9-H ) :   0.9097
B(  0-C , 10-H ) :   0.9481 B(  1-C ,  2-H ) :   0.9048 B(  1-C ,  3-H ) :   0.8808
B(  1-C ,  4-S ) :   0.8703 B(  1-C ,  7-O ) :   0.1028 B(  4-S ,  5-F ) :   1.0185
B(  4-S ,  6-O ) :   1.6659 B(  4-S ,  7-O ) :   1.6351 B(  6-O ,  7-O ) :   0.1187

Dispersion correction           -0.019708302
FINAL SINGLE POINT ENERGY      -727.770288288945

DIPOLE MOMENT
-------------
                                X             Y             Z
Electronic contribution:      4.11330      -9.37019       0.10336
Nuclear contribution   :     -3.08754      10.54185      -0.04092
                        -----------------------------------------
Total Dipole Moment    :      1.02576       1.17166       0.06244
                        -----------------------------------------
Magnitude (a.u.)       :      1.55848
Magnitude (Debye)      :      3.96135

Rotational constants in cm-1:     0.158925     0.081210     0.079022
Rotational constants in MHz :  4764.450166  2434.603461  2369.014434

                             ****ORCA TERMINATED NORMALLY****
TOTAL RUN TIME: 0 days 0 hours 0 minutes 20 seconds 400 msec
