                         Program Version 5.0.0 -  RELEASE  -
|  1> !BLYP D3BJ RIJCOSX def2-TZVPD def2/J TightSCF
|  2> *xyz 0 1
|  3> C         -0.46129        2.23469       -4.98962
|  4> C          0.84888        2.66797       -4.30235
|  5> C         -0.42384        2.39877       -6.47432
|  6> C         -0.95947        3.49265       -7.00740
|  7> N          0.14558        1.48689       -7.20399
|  8> H          0.56537        0.69681       -6.72386
|  9> H          0.22068        1.58177       -8.20752
| 10> H         -1.40624        4.18151       -6.40326
| 11> H         -0.93421        3.68160       -7.99947
| 12> H         -1.28888        2.82674       -4.59500
| 13> H         -0.65170        1.18634       -4.75655
| 14> H          1.66208        2.08894       -4.68750
| 15> H          0.76716        2.51042       -3.24717
| 16> H          1.02677        3.70527       -4.49537
| 17> *
| 18>
| 19> %MaxCore 64000
| 20>
| 21> %pal nprocs 4
| 22> end
| 23>
| 24> %scf
| 25>   MaxIter 150
| 26> end
| 27>
| 28>
| 29>                          ****END OF INPUT****

CARTESIAN COORDINATES (ANGSTROEM)
---------------------------------
  C     -0.461290    2.234690   -4.989620
  C      0.848880    2.667970   -4.302350
  C     -0.423840    2.398770   -6.474320
  C     -0.959470    3.492650   -7.007400
  N      0.145580    1.486890   -7.203990
  H      0.565370    0.696810   -6.723860
  H      0.220680    1.581770   -8.207520
  H     -1.406240    4.181510   -6.403260
  H     -0.934210    3.681600   -7.999470
  H     -1.288880    2.826740   -4.595000
  H     -0.651700    1.186340   -4.756550
  H      1.662080    2.088940   -4.687500
  H      0.767160    2.510420   -3.247170
  H      1.026770    3.705270   -4.495370

 Total Charge           Charge          ....    0
 Multiplicity           Mult            ....    1
 Number of Electrons    NEL             ....   40
 Basis Dimension        Dim             ....  266

ORBITAL ENERGIES
----------------

  NO   OCC          E(Eh)            E(eV)
   0   2.0000     -14.010174      -381.2362
   1   2.0000      -9.919616      -269.9265
   2   2.0000      -9.902992      -269.4741
   3   2.0000      -9.888851      -269.0893
   4   2.0000      -9.835992      -267.6509
   5   2.0000      -0.849077       -23.1046
   6   2.0000      -0.699243       -19.0274
   7   2.0000      -0.637939       -17.3592
   8   2.0000      -0.567741       -15.4490
   9   2.0000      -0.510394       -13.8885
  10   2.0000      -0.475452       -12.9377
  11   2.0000      -0.425337       -11.5740
  12   2.0000      -0.387074       -10.5328
  13   2.0000      -0.369252       -10.0479
  14   2.0000      -0.343253        -9.3404
  15   2.0000      -0.333729        -9.0812
  16   2.0000      -0.307957        -8.3799
  17   2.0000      -0.290903        -7.9159
  18   2.0000      -0.285625        -7.7723
  19   2.0000      -0.152812        -4.1582
  20   0.0000      -0.017165        -0.4671
  21   0.0000       0.008322         0.2265
  22   0.0000       0.018719         0.5094
  23   0.0000       0.024222         0.6591
  24   0.0000       0.032251         0.8776

MULLIKEN ATOMIC CHARGES
-----------------------
   0 C :   -0.479244
   1 C :   -1.134112
   2 C :    0.836043
   3 C :   -1.258525
   4 N :   -0.297353
   5 H :    0.146998
   6 H :    0.132970
   7 H :    0.279630
   8 H :    0.310492
   9 H :    0.213064
  10 H :    0.287588
  11 H :    0.317120
  12 H :    0.310645
  13 H :    0.334686
Sum of atomic charges:   -0.0000000

LOEWDIN ATOMIC CHARGES
----------------------
   0 C :   -0.197357
   1 C :   -0.082383
   2 C :   -0.508171
   3 C :    0.027008
   4 N :    0.121068
   5 H :    0.106901
   6 H :    0.112344
   7 H :    0.017750
   8 H :    0.011150
   9 H :    0.105976
  10 H :    0.103446
  11 H :    0.057882
  12 H :    0.058165
  13 H :    0.066221

  Mayer bond orders larger than 0.100000
B(  0-C ,  1-C ) :   0.5782 B(  0-C ,  2-C ) :   0.6541 B(  0-C ,  9-H ) :   1.0007
B(  0-C , 10-H ) :   0.9738 B(  1-C , 11-H ) :   0.9409 B(  1-C , 12-H ) :   0.9547
B(  1-C , 13-H ) :   0.9731 B(  2-C ,  3-C ) :   1.0791 B(  2-C ,  4-N ) :   0.9764
B(  3-C ,  4-N ) :   0.1176 B(  3-C ,  7-H ) :   0.9845 B(  3-C ,  8-H ) :   1.0144
B(  4-N ,  5-H ) :   1.0227 B(  4-N ,  6-H ) :   1.0267

Dispersion correction           -0.021406550
FINAL SINGLE POINT ENERGY      -212.553189288401

DIPOLE MOMENT
-------------
                                X             Y             Z
Electronic contribution:     -0.72736      -1.16613      -2.59867
Nuclear contribution   :      1.14741       0.51394       2.60761
                        -----------------------------------------
Total Dipole Moment    :      0.42005      -0.65218       0.00894
                        -----------------------------------------
Magnitude (a.u.)       :      0.77580
Magnitude (Debye)      :      1.97193

Rotational constants in cm-1:     0.269157     0.129188     0.102123
Rotational constants in MHz :  8069.118715  3872.945231  3061.580645

                             ****ORCA TERMINATED NORMALLY****
TOTAL RUN TIME: 0 days 0 hours 0 minutes 16 seconds 61 msec
