                         Program Version 5.0.0 -  RELEASE  -
|  1> !BLYP D3BJ RIJCOSX def2-TZVPD def2/J TightSCF
|  2> *xyz 0 1
|  3> C          0.84888        2.66797       -4.30235
|  4> C          2.09343        1.86104       -4.65684
|  5> H          2.44481        2.04157       -5.67499
|  6> H          2.90175        2.13786       -3.98034
|  7> S          1.87964        0.07859       -4.46297
|  8> O          3.20757       -0.46611       -4.42026
|  9> F          1.07506       -0.05616       -3.26876
| 10> O          1.13166       -0.31996       -5.67903
| 11> H          0.05064        2.40112       -4.96303
| 12> H          1.06043        3.71210       -4.40203
| 13> H          0.56237        2.45684       -3.29327
| 14> *
| 15>
| 16> %MaxCore 64000
| 17>
| 18> %pal nprocs 4
| 19> end
| 20>
| 21> %scf
| 22>   MaxIter 150
| 23> end
| 24>
| 25>
| 26>                          ****END OF INPUT****

CARTESIAN COORDINATES (ANGSTROEM)
---------------------------------
  C      0.848880    2.667970   -4.302350
  C      2.093430    1.861040   -4.656840
  H      2.444810    2.041570   -5.674990
  H      2.901750    2.137860   -3.980340
  S      1.879640    0.078590   -4.462970
  O      3.207570   -0.466110   -4.420260
  F      1.075060   -0.056160   -3.268760
  O      1.131660   -0.319960   -5.679030
  H      0.050640    2.401120   -4.963030
  H      1.060430    3.712100   -4.402030
  H      0.562370    2.456840   -3.293270

 Total Charge           Charge          ....    0
 Multiplicity           Mult            ....    1
 Number of Electrons    NEL             ....   58
 Basis Dimension        Dim             ....  285

ORBITAL ENERGIES
----------------

  NO   OCC          E(Eh)            E(eV)
   0   2.0000     -88.335895     -2403.7419
   1   2.0000     -24.399449      -663.9427
   2   2.0000     -18.787542      -511.2350
   3   2.0000     -18.772688      -510.8308
   4   2.0000      -9.959995      -271.0252
   5   2.0000      -9.924458      -270.0582
   6   2.0000      -7.867597      -214.0882
   7   2.0000      -5.899899      -160.5444
   8   2.0000      -5.893053      -160.3581
   9   2.0000      -5.892868      -160.3531
  10   2.0000      -1.268738       -34.5241
  11   2.0000      -1.011520       -27.5249
  12   2.0000      -0.915360       -24.9082
  13   2.0000      -0.743207       -20.2237
  14   2.0000      -0.658727       -17.9249
  15   2.0000      -0.607453       -16.5296
  16   2.0000      -0.530204       -14.4276
  17   2.0000      -0.514758       -14.0073
  18   2.0000      -0.484394       -13.1810
  19   2.0000      -0.439975       -11.9723
  20   2.0000      -0.419910       -11.4263
  21   2.0000      -0.396938       -10.8012
  22   2.0000      -0.386343       -10.5129
  23   2.0000      -0.363654        -9.8955
  24   2.0000      -0.348696        -9.4885
  25   2.0000      -0.333178        -9.0662
  26   2.0000      -0.288328        -7.8458
  27   2.0000      -0.273853        -7.4519
  28   2.0000      -0.259622        -7.0647
  29   0.0000      -0.035627        -0.9695
  30   0.0000      -0.004003        -0.1089
  31   0.0000       0.007331         0.1995
  32   0.0000       0.012035         0.3275
  33   0.0000       0.020788         0.5657

MULLIKEN ATOMIC CHARGES
-----------------------
   0 C :   -1.233866
   1 C :   -0.326429
   2 H :    0.308371
   3 H :    0.313045
   4 S :    1.170479
   5 O :   -0.534063
   6 F :   -0.147196
   7 O :   -0.587016
   8 H :    0.353010
   9 H :    0.333350
  10 H :    0.350316
Sum of atomic charges:    0.0000000

LOEWDIN ATOMIC CHARGES
----------------------
   0 C :   -0.111069
   1 C :   -0.275021
   2 H :    0.107832
   3 H :    0.093790
   4 S :    0.557657
   5 O :   -0.251776
   6 F :   -0.044255
   7 O :   -0.282585
   8 H :    0.071704
   9 H :    0.070761
  10 H :    0.062962

  Mayer bond orders larger than 0.100000
B(  0-C ,  1-C ) :   0.5966 B(  0-C ,  8-H ) :   0.9476 B(  0-C ,  9-H ) :   0.9314
B(  0-C , 10-H ) :   0.9199 B(  1-C ,  2-H ) :   0.9165 B(  1-C ,  3-H ) :   0.9205
B(  1-C ,  4-S ) :   0.8625 B(  1-C ,  5-O ) :   0.1206 B(  4-S ,  5-O ) :   1.6806
B(  4-S ,  6-F ) :   1.0182 B(  4-S ,  7-O ) :   1.6362 B(  5-O ,  7-O ) :   0.1109

Dispersion correction           -0.019569843
FINAL SINGLE POINT ENERGY      -727.774413226362

DIPOLE MOMENT
-------------
                                X             Y             Z
Electronic contribution:      0.57377      -8.66558       1.99924
Nuclear contribution   :     -0.86540      10.11467      -1.24082
                        -----------------------------------------
Total Dipole Moment    :     -0.29163       1.44909       0.75842
                        -----------------------------------------
Magnitude (a.u.)       :      1.66136
Magnitude (Debye)      :      4.22284

Rotational constants in cm-1:     0.154065     0.083345     0.080357
Rotational constants in MHz :  4618.752213  2498.631937  2409.037217

                             ****ORCA TERMINATED NORMALLY****
TOTAL RUN TIME: 0 days 0 hours 0 minutes 25 seconds 465 msec
