                         Program Version 5.0.0 -  RELEASE  -
|  1> !BLYP D3BJ RIJCOSX def2-TZVPD def2/J TightSCF
|  2> *xyz 0 1
|  3> C         -0.46129        2.23469       -4.98962
|  4> C          0.84888        2.66797       -4.30235
|  5> C         -0.42384        2.39877       -6.47432
|  6> N         -0.95947        3.49265       -7.00740
|  7> C          0.14558        1.48689       -7.20399
|  8> H          0.56537        0.69681       -6.72386
|  9> H          0.22068        1.58177       -8.20752
| 10> H         -1.40624        4.18151       -6.40326
| 11> H         -0.93421        3.68160       -7.99947
| 12> H         -1.28888        2.82674       -4.59500
| 13> H         -0.65170        1.18634       -4.75655
| 14> H          1.66208        2.08894       -4.68750
| 15> H          0.76716        2.51042       -3.24717
| 16> H          1.02677        3.70527       -4.49537
| 17> *
| 18>
| 19> %MaxCore 64000
| 20>
| 21> %pal nprocs 4
| 22> end
| 23>
| 24> %scf
| 25>   MaxIter 150
| 26> end
| 27>
| 28>
| 29>                          ****END OF INPUT****

CARTESIAN COORDINATES (ANGSTROEM)
---------------------------------
  C     -0.461290    2.234690   -4.989620
  C      0.848880    2.667970   -4.302350
  C     -0.423840    2.398770   -6.474320
  N     -0.959470    3.492650   -7.007400
  C      0.145580    1.486890   -7.203990
  H      0.565370    0.696810   -6.723860
  H      0.220680    1.581770   -8.207520
  H     -1.406240    4.181510   -6.403260
  H     -0.934210    3.681600   -7.999470
  H     -1.288880    2.826740   -4.595000
  H     -0.651700    1.186340   -4.756550
  H      1.662080    2.088940   -4.687500
  H      0.767160    2.510420   -3.247170
  H      1.026770    3.705270   -4.495370

 Total Charge           Charge          ....    0
 Multiplicity           Mult            ....    1
 Number of Electrons    NEL             ....   40
 Basis Dimension        Dim             ....  266

ORBITAL ENERGIES
----------------

  NO   OCC          E(Eh)            E(eV)
   0   2.0000     -14.007170      -381.1545
   1   2.0000      -9.917646      -269.8729
   2   2.0000      -9.902867      -269.4707
   3   2.0000      -9.887526      -269.0533
   4   2.0000      -9.834398      -267.6076
   5   2.0000      -0.837203       -22.7815
   6   2.0000      -0.700832       -19.0706
   7   2.0000      -0.641461       -17.4550
   8   2.0000      -0.568483       -15.4692
   9   2.0000      -0.505245       -13.7484
  10   2.0000      -0.466171       -12.6852
  11   2.0000      -0.427464       -11.6319
  12   2.0000      -0.388308       -10.5664
  13   2.0000      -0.364858        -9.9283
  14   2.0000      -0.344270        -9.3681
  15   2.0000      -0.334523        -9.1028
  16   2.0000      -0.305707        -8.3187
  17   2.0000      -0.293626        -7.9900
  18   2.0000      -0.281609        -7.6630
  19   2.0000      -0.156029        -4.2458
  20   0.0000      -0.015789        -0.4296
  21   0.0000       0.008332         0.2267
  22   0.0000       0.018782         0.5111
  23   0.0000       0.024509         0.6669
  24   0.0000       0.033476         0.9109

MULLIKEN ATOMIC CHARGES
-----------------------
   0 C :   -0.460462
   1 C :   -1.147336
   2 C :    0.859180
   3 N :   -0.320632
   4 C :   -1.263568
   5 H :    0.297988
   6 H :    0.320947
   7 H :    0.141801
   8 H :    0.117700
   9 H :    0.257427
  10 H :    0.236582
  11 H :    0.333493
  12 H :    0.306555
  13 H :    0.320326
Sum of atomic charges:   -0.0000000

LOEWDIN ATOMIC CHARGES
----------------------
   0 C :   -0.196045
   1 C :   -0.081382
   2 C :   -0.498758
   3 N :    0.114374
   4 C :    0.019552
   5 H :    0.026608
   6 H :    0.020671
   7 H :    0.099919
   8 H :    0.102524
   9 H :    0.100198
  10 H :    0.108265
  11 H :    0.063117
  12 H :    0.057804
  13 H :    0.063154

  Mayer bond orders larger than 0.100000
B(  0-C ,  1-C ) :   0.5730 B(  0-C ,  2-C ) :   0.6284 B(  0-C ,  9-H ) :   1.0271
B(  0-C , 10-H ) :   0.9707 B(  1-C , 11-H ) :   0.9551 B(  1-C , 12-H ) :   0.9526
B(  1-C , 13-H ) :   0.9509 B(  2-C ,  3-N ) :   0.8819 B(  2-C ,  4-C ) :   1.1589
B(  3-N ,  4-C ) :   0.1224 B(  3-N ,  7-H ) :   1.0358 B(  3-N ,  8-H ) :   1.0557
B(  4-C ,  5-H ) :   0.9679 B(  4-C ,  6-H ) :   0.9902

Dispersion correction           -0.021425091
FINAL SINGLE POINT ENERGY      -212.553281502433

DIPOLE MOMENT
-------------
                                X             Y             Z
Electronic contribution:     -1.70079       0.57527      -2.42351
Nuclear contribution   :      1.40335       0.04939       2.56207
                        -----------------------------------------
Total Dipole Moment    :     -0.29744       0.62465       0.13857
                        -----------------------------------------
Magnitude (a.u.)       :      0.70559
Magnitude (Debye)      :      1.79348

Rotational constants in cm-1:     0.271383     0.128194     0.101873
Rotational constants in MHz :  8135.853259  3843.152748  3054.074278

                             ****ORCA TERMINATED NORMALLY****
TOTAL RUN TIME: 0 days 0 hours 0 minutes 20 seconds 451 msec
