                         Program Version 5.0.0 -  RELEASE  -
|  1> !BLYP D3BJ RIJCOSX def2-TZVPD def2/J TightSCF
|  2> *xyz 0 1
|  3> C          0.84888        2.66797       -4.30235
|  4> C          2.09343        1.86104       -4.65684
|  5> H          2.44481        2.04157       -5.67499
|  6> H          2.90175        2.13786       -3.98034
|  7> S          1.87964        0.07859       -4.46297
|  8> O          3.20757       -0.46611       -4.42026
|  9> O          1.07506       -0.05616       -3.26876
| 10> F          1.13166       -0.31996       -5.67903
| 11> H          0.05064        2.40112       -4.96303
| 12> H          1.06043        3.71210       -4.40203
| 13> H          0.56237        2.45684       -3.29327
| 14> *
| 15>
| 16> %MaxCore 64000
| 17>
| 18> %pal nprocs 4
| 19> end
| 20>
| 21> %scf
| 22>   MaxIter 150
| 23> end
| 24>
| 25>
| 26>                          ****END OF INPUT****

CARTESIAN COORDINATES (ANGSTROEM)
---------------------------------
  C      0.848880    2.667970   -4.302350
  C      2.093430    1.861040   -4.656840
  H      2.444810    2.041570   -5.674990
  H      2.901750    2.137860   -3.980340
  S      1.879640    0.078590   -4.462970
  O      3.207570   -0.466110   -4.420260
  O      1.075060   -0.056160   -3.268760
  F      1.131660   -0.319960   -5.679030
  H      0.050640    2.401120   -4.963030
  H      1.060430    3.712100   -4.402030
  H      0.562370    2.456840   -3.293270

 Total Charge           Charge          ....    0
 Multiplicity           Mult            ....    1
 Number of Electrons    NEL             ....   58
 Basis Dimension        Dim             ....  285

ORBITAL ENERGIES
----------------

  NO   OCC          E(Eh)            E(eV)
   0   2.0000     -88.333781     -2403.6844
   1   2.0000     -24.381563      -663.4561
   2   2.0000     -18.787180      -511.2252
   3   2.0000     -18.784011      -511.1389
   4   2.0000      -9.959181      -271.0031
   5   2.0000      -9.919134      -269.9134
   6   2.0000      -7.865606      -214.0340
   7   2.0000      -5.897885      -160.4896
   8   2.0000      -5.891192      -160.3075
   9   2.0000      -5.890844      -160.2980
  10   2.0000      -1.239412       -33.7261
  11   2.0000      -1.019540       -27.7431
  12   2.0000      -0.933464       -25.4008
  13   2.0000      -0.739409       -20.1204
  14   2.0000      -0.648145       -17.6369
  15   2.0000      -0.599809       -16.3216
  16   2.0000      -0.512452       -13.9445
  17   2.0000      -0.494101       -13.4452
  18   2.0000      -0.484726       -13.1901
  19   2.0000      -0.438557       -11.9337
  20   2.0000      -0.422098       -11.4859
  21   2.0000      -0.400626       -10.9016
  22   2.0000      -0.380753       -10.3608
  23   2.0000      -0.355752        -9.6805
  24   2.0000      -0.352512        -9.5923
  25   2.0000      -0.333583        -9.0772
  26   2.0000      -0.291919        -7.9435
  27   2.0000      -0.286786        -7.8039
  28   2.0000      -0.272898        -7.4259
  29   0.0000      -0.032139        -0.8746
  30   0.0000      -0.003962        -0.1078
  31   0.0000       0.008196         0.2230
  32   0.0000       0.010685         0.2908
  33   0.0000       0.022146         0.6026

MULLIKEN ATOMIC CHARGES
-----------------------
   0 C :   -1.177175
   1 C :   -0.380669
   2 H :    0.333911
   3 H :    0.301948
   4 S :    1.176409
   5 O :   -0.540978
   6 O :   -0.558656
   7 F :   -0.173607
   8 H :    0.342671
   9 H :    0.338368
  10 H :    0.337779
Sum of atomic charges:   -0.0000000

LOEWDIN ATOMIC CHARGES
----------------------
   0 C :   -0.110497
   1 C :   -0.275745
   2 H :    0.096816
   3 H :    0.102042
   4 S :    0.561460
   5 O :   -0.252743
   6 O :   -0.255681
   7 F :   -0.071429
   8 H :    0.069150
   9 H :    0.070007
  10 H :    0.066620

  Mayer bond orders larger than 0.100000
B(  0-C ,  1-C ) :   0.6366 B(  0-C ,  8-H ) :   0.9168 B(  0-C ,  9-H ) :   0.9220
B(  0-C , 10-H ) :   0.9731 B(  1-C ,  2-H ) :   0.8873 B(  1-C ,  3-H ) :   0.9253
B(  1-C ,  4-S ) :   0.8715 B(  1-C ,  5-O ) :   0.1281 B(  4-S ,  5-O ) :   1.6735
B(  4-S ,  6-O ) :   1.6656 B(  4-S ,  7-F ) :   0.9728 B(  5-O ,  6-O ) :   0.1145

Dispersion correction           -0.019632730
FINAL SINGLE POINT ENERGY      -727.789355021994

DIPOLE MOMENT
-------------
                                X             Y             Z
Electronic contribution:      0.65178      -9.13177      -2.01283
Nuclear contribution   :     -0.92438      10.38956       1.27076
                        -----------------------------------------
Total Dipole Moment    :     -0.27260       1.25779      -0.74207
                        -----------------------------------------
Magnitude (a.u.)       :      1.48560
Magnitude (Debye)      :      3.77610

Rotational constants in cm-1:     0.154243     0.082247     0.080562
Rotational constants in MHz :  4624.087322  2465.703680  2415.175852

                             ****ORCA TERMINATED NORMALLY****
TOTAL RUN TIME: 0 days 0 hours 0 minutes 30 seconds 120 msec
