                         Program Version 5.0.0 -  RELEASE  -
|  1> !BLYP D3BJ RIJCOSX def2-TZVPD def2/J TightSCF xyzfile
|  2>
|  3> *xyzfile 0 1 D1.xyz
|  4>
|  5> %MaxCore 64000
|  6>
|  7> %pal nprocs 4
|  8> end
|  9>
| 10> %scf
| 11>   MaxIter 150
| 12> end
| 13>
| 14>
| 15>                          ****END OF INPUT****

CARTESIAN COORDINATES (ANGSTROEM)
---------------------------------
  C     -0.461293    2.234686   -4.989619
  C      0.848883    2.667967   -4.302351
  C      2.093434    1.861037   -4.656845
  H      2.444814    2.041567   -5.674990
  H      2.901748    2.137864   -3.980338
  S      1.879644    0.078594   -4.462965
  C     -0.423841    2.398772   -6.474317
  C     -0.959467    3.492647   -7.007401
  N      0.145585    1.486891   -7.203987
  H      0.565371    0.696807   -6.723858
  H      0.220682    1.581768   -8.207520
  H     -1.406243    4.181507   -6.403261
  H     -0.934215    3.681601   -7.999468
  F      3.207574   -0.466111   -4.420259
  O      1.075064   -0.056160   -3.268758
  O      1.131661   -0.319960   -5.679031
  H      0.668432    2.559427   -3.232850
  H      1.034074    3.729426   -4.497081
  H     -1.288884    2.826737   -4.594997
  H     -0.651696    1.186343   -4.756552

 Total Charge           Charge          ....    0
 Multiplicity           Mult            ....    1
 Number of Electrons    NEL             ....   88
 Basis Dimension        Dim             ....  478

ORBITAL ENERGIES
----------------

  NO   OCC          E(Eh)            E(eV)
   0   2.0000     -88.355186     -2404.2668
   1   2.0000     -24.419482      -664.4879
   2   2.0000     -18.800302      -511.5822
   3   2.0000     -18.796979      -511.4918
   4   2.0000     -13.982024      -380.4702
   5   2.0000      -9.966384      -271.1991
   6   2.0000      -9.930788      -270.2305
   7   2.0000      -9.912706      -269.7384
   8   2.0000      -9.904810      -269.5236
   9   2.0000      -9.829196      -267.4660
  10   2.0000      -7.887075      -214.6182
  11   2.0000      -5.919064      -161.0659
  12   2.0000      -5.912908      -160.8984
  13   2.0000      -5.912205      -160.8793
  14   2.0000      -1.291839       -35.1527
  15   2.0000      -1.028895       -27.9977
  16   2.0000      -0.938778       -25.5454
  17   2.0000      -0.833467       -22.6798
  18   2.0000      -0.753023       -20.4908
  19   2.0000      -0.693338       -18.8667
  20   2.0000      -0.663431       -18.0529
  21   2.0000      -0.621194       -16.9036
  22   2.0000      -0.577071       -15.7029
  23   2.0000      -0.539317       -14.6756
  24   2.0000      -0.531527       -14.4636
  25   2.0000      -0.516446       -14.0532
  26   2.0000      -0.497492       -13.5374
  27   2.0000      -0.468623       -12.7519
  28   2.0000      -0.446222       -12.1423
  29   2.0000      -0.435132       -11.8405
  30   2.0000      -0.417455       -11.3595
  31   2.0000      -0.403726       -10.9860
  32   2.0000      -0.395789       -10.7700
  33   2.0000      -0.362511        -9.8644
  34   2.0000      -0.349563        -9.5121
  35   2.0000      -0.344632        -9.3779
  36   2.0000      -0.332041        -9.0353
  37   2.0000      -0.320122        -8.7110
  38   2.0000      -0.303150        -8.2491
  39   2.0000      -0.297834        -8.1045
  40   2.0000      -0.284453        -7.7404
  41   2.0000      -0.281022        -7.6470
  42   2.0000      -0.274480        -7.4690
  43   2.0000      -0.143523        -3.9055
  44   0.0000      -0.041215        -1.1215
  45   0.0000      -0.015726        -0.4279
  46   0.0000      -0.002632        -0.0716
  47   0.0000       0.003967         0.1079
  48   0.0000       0.010716         0.2916

MULLIKEN ATOMIC CHARGES
-----------------------
   0 C :   -0.647693
   1 C :   -0.471056
   2 C :   -0.744064
   3 H :    0.377432
   4 H :    0.329781
   5 S :    1.239600
   6 C :    0.614814
   7 C :   -1.288519
   8 N :   -0.330478
   9 H :    0.376059
  10 H :    0.068533
  11 H :    0.299079
  12 H :    0.322643
  13 F :   -0.104225
  14 O :   -0.576624
  15 O :   -0.679735
  16 H :    0.251893
  17 H :    0.303448
  18 H :    0.242205
  19 H :    0.416910
Sum of atomic charges:   -0.0000000

LOEWDIN ATOMIC CHARGES
----------------------
   0 C :   -0.141127
   1 C :   -0.189839
   2 C :   -0.219875
   3 H :    0.104352
   4 H :    0.097936
   5 S :    0.612357
   6 C :   -0.486997
   7 C :    0.024216
   8 N :    0.129909
   9 H :    0.018109
  10 H :    0.117424
  11 H :    0.013530
  12 H :    0.010044
  13 F :   -0.024732
  14 O :   -0.234685
  15 O :   -0.282432
  16 H :    0.106663
  17 H :    0.123823
  18 H :    0.118211
  19 H :    0.103115

  Mayer bond orders larger than 0.100000
B(  0-C ,  1-C ) :   0.7890 B(  0-C ,  6-C ) :   0.6866 B(  0-C , 18-H ) :   1.0090
B(  0-C , 19-H ) :   0.8365 B(  1-C ,  2-C ) :   0.9465 B(  1-C ,  6-C ) :   0.1237
B(  1-C , 16-H ) :   0.8914 B(  1-C , 17-H ) :   0.9022 B(  2-C ,  3-H ) :   0.8255
B(  2-C ,  4-H ) :   0.8870 B(  2-C ,  5-S ) :   0.8667 B(  2-C ,  8-N ) :   0.1350
B(  2-C , 15-O ) :   0.1222 B(  5-S , 13-F ) :   0.9789 B(  5-S , 14-O ) :   1.6754
B(  5-S , 15-O ) :   1.5541 B(  6-C ,  7-C ) :   1.1093 B(  6-C ,  8-N ) :   0.9828
B(  7-C ,  8-N ) :   0.1465 B(  7-C , 11-H ) :   1.0161 B(  7-C , 12-H ) :   0.9882
B(  8-N ,  9-H ) :   0.7883 B(  8-N , 10-H ) :   1.0727

Dispersion correction           -0.047125866
FINAL SINGLE POINT ENERGY      -899.823216052579

DIPOLE MOMENT
-------------
                                X             Y             Z
Electronic contribution:     10.10646     -13.97635       5.44858
Nuclear contribution   :     -8.53047      14.15581      -5.17613
                        -----------------------------------------
Total Dipole Moment    :      1.57599       0.17946       0.27245
                        -----------------------------------------
Magnitude (a.u.)       :      1.60940
Magnitude (Debye)      :      4.09078

Rotational constants in cm-1:     0.081196     0.024861     0.022477
Rotational constants in MHz :  2434.181666   745.320670   673.846846

                             ****ORCA TERMINATED NORMALLY****
TOTAL RUN TIME: 0 days 0 hours 0 minutes 39 seconds 322 msec
