                         Program Version 5.0.0 -  RELEASE  -
|  1> !BLYP D3BJ RIJCOSX def2-TZVPD def2/J TightSCF xyzfile
|  2>
|  3> *xyzfile 0 1 D2.xyz
|  4>
|  5> %MaxCore 64000
|  6>
|  7> %pal nprocs 4
|  8> end
|  9>
| 10> %scf
| 11>   MaxIter 150
| 12> end
| 13>
| 14>
| 15>                          ****END OF INPUT****

CARTESIAN COORDINATES (ANGSTROEM)
---------------------------------
  C     -0.461293    2.234686   -4.989619
  C      0.848883    2.667967   -4.302351
  C      2.093434    1.861037   -4.656845
  H      2.444814    2.041567   -5.674990
  H      2.901748    2.137864   -3.980338
  S      1.879644    0.078594   -4.462965
  C     -0.423841    2.398772   -6.474317
  N     -0.959467    3.492647   -7.007401
  C      0.145585    1.486891   -7.203987
  H      0.565371    0.696807   -6.723858
  H      0.220682    1.581768   -8.207520
  H     -1.406243    4.181507   -6.403261
  H     -0.934215    3.681601   -7.999468
  F      3.207574   -0.466111   -4.420259
  O      1.075064   -0.056160   -3.268758
  O      1.131661   -0.319960   -5.679031
  H      0.668432    2.559427   -3.232850
  H      1.034074    3.729426   -4.497081
  H     -1.288884    2.826737   -4.594997
  H     -0.651696    1.186343   -4.756552

 Total Charge           Charge          ....    0
 Multiplicity           Mult            ....    1
 Number of Electrons    NEL             ....   88
 Basis Dimension        Dim             ....  478

ORBITAL ENERGIES
----------------

  NO   OCC          E(Eh)            E(eV)
   0   2.0000     -88.337087     -2403.7743
   1   2.0000     -24.403893      -664.0637
   2   2.0000     -18.784646      -511.1562
   3   2.0000     -18.774645      -510.8841
   4   2.0000     -14.002168      -381.0184
   5   2.0000      -9.955418      -270.9007
   6   2.0000      -9.928435      -270.1665
   7   2.0000      -9.910433      -269.6766
   8   2.0000      -9.905300      -269.5369
   9   2.0000      -9.813612      -267.0420
  10   2.0000      -7.869074      -214.1284
  11   2.0000      -5.901179      -160.5792
  12   2.0000      -5.894821      -160.4062
  13   2.0000      -5.894169      -160.3885
  14   2.0000      -1.276367       -34.7317
  15   2.0000      -1.011189       -27.5159
  16   2.0000      -0.919064       -25.0090
  17   2.0000      -0.832839       -22.6627
  18   2.0000      -0.745802       -20.2943
  19   2.0000      -0.690224       -18.7820
  20   2.0000      -0.650727       -17.7072
  21   2.0000      -0.627080       -17.0637
  22   2.0000      -0.569968       -15.5096
  23   2.0000      -0.525093       -14.2885
  24   2.0000      -0.520013       -14.1503
  25   2.0000      -0.500629       -13.6228
  26   2.0000      -0.498554       -13.5663
  27   2.0000      -0.459276       -12.4975
  28   2.0000      -0.438991       -11.9456
  29   2.0000      -0.429917       -11.6986
  30   2.0000      -0.417512       -11.3611
  31   2.0000      -0.402110       -10.9420
  32   2.0000      -0.387610       -10.5474
  33   2.0000      -0.355130        -9.6636
  34   2.0000      -0.350902        -9.5485
  35   2.0000      -0.337458        -9.1827
  36   2.0000      -0.323050        -8.7906
  37   2.0000      -0.316018        -8.5993
  38   2.0000      -0.292552        -7.9607
  39   2.0000      -0.289925        -7.8893
  40   2.0000      -0.275990        -7.5101
  41   2.0000      -0.265743        -7.2312
  42   2.0000      -0.248869        -6.7721
  43   2.0000      -0.149148        -4.0585
  44   0.0000      -0.027926        -0.7599
  45   0.0000      -0.016875        -0.4592
  46   0.0000      -0.002140        -0.0582
  47   0.0000       0.002529         0.0688
  48   0.0000       0.020462         0.5568

MULLIKEN ATOMIC CHARGES
-----------------------
   0 C :   -0.694014
   1 C :   -0.484012
   2 C :   -0.750701
   3 H :    0.435784
   4 H :    0.320883
   5 S :    1.175417
   6 C :    0.758593
   7 N :   -0.334412
   8 C :   -1.685553
   9 H :    0.846520
  10 H :    0.256997
  11 H :    0.141665
  12 H :    0.114566
  13 F :   -0.112179
  14 O :   -0.590206
  15 O :   -0.586894
  16 H :    0.262235
  17 H :    0.263655
  18 H :    0.302365
  19 H :    0.359288
Sum of atomic charges:   -0.0000000

LOEWDIN ATOMIC CHARGES
----------------------
   0 C :   -0.138480
   1 C :   -0.192120
   2 C :   -0.220510
   3 H :    0.103318
   4 H :    0.096373
   5 S :    0.603612
   6 C :   -0.469731
   7 N :    0.111336
   8 C :    0.030480
   9 H :   -0.038811
  10 H :    0.033152
  11 H :    0.096490
  12 H :    0.101463
  13 F :   -0.030498
  14 O :   -0.245633
  15 O :   -0.285669
  16 H :    0.105851
  17 H :    0.120227
  18 H :    0.112420
  19 H :    0.106729

  Mayer bond orders larger than 0.100000
B(  0-C ,  1-C ) :   0.8067 B(  0-C ,  6-C ) :   0.6194 B(  0-C , 18-H ) :   0.9821
B(  0-C , 19-H ) :   0.9191 B(  1-C ,  2-C ) :   0.9587 B(  1-C , 16-H ) :   0.8903
B(  1-C , 17-H ) :   0.9253 B(  2-C ,  3-H ) :   0.8107 B(  2-C ,  4-H ) :   0.8926
B(  2-C ,  5-S ) :   0.8440 B(  2-C ,  8-C ) :   0.1368 B(  2-C , 15-O ) :   0.1335
B(  5-S , 13-F ) :   0.9702 B(  5-S , 14-O ) :   1.6560 B(  5-S , 15-O ) :   1.6436
B(  6-C ,  7-N ) :   0.8214 B(  6-C ,  8-C ) :   0.9678 B(  6-C , 10-H ) :  -0.1384
B(  6-C , 18-H ) :  -0.1027 B(  7-N ,  8-C ) :   0.1174 B(  7-N , 11-H ) :   1.0475
B(  7-N , 12-H ) :   1.0582 B(  8-C ,  9-H ) :   0.3897 B(  8-C , 10-H ) :   1.1785
B(  8-C , 15-O ) :   0.1385 B(  9-H , 15-O ) :  -0.3085

Dispersion correction           -0.047485365
FINAL SINGLE POINT ENERGY      -899.804349732750

DIPOLE MOMENT
-------------
                                X             Y             Z
Electronic contribution:      9.19245     -12.49602       5.36870
Nuclear contribution   :     -8.42493      13.96425      -5.19491
                        -----------------------------------------
Total Dipole Moment    :      0.76751       1.46823       0.17379
                        -----------------------------------------
Magnitude (a.u.)       :      1.66583
Magnitude (Debye)      :      4.23420

Rotational constants in cm-1:     0.082815     0.024151     0.022015
Rotational constants in MHz :  2482.732265   724.035221   660.002136

                             ****ORCA TERMINATED NORMALLY****
TOTAL RUN TIME: 0 days 0 hours 0 minutes 38 seconds 340 msec
