                         Program Version 5.0.0 -  RELEASE  -
|  1> !BLYP D3BJ RIJCOSX def2-TZVPD def2/J TightSCF xyzfile
|  2>
|  3> *xyzfile 0 1 D3.xyz
|  4>
|  5> %MaxCore 64000
|  6>
|  7> %pal nprocs 4
|  8> end
|  9>
| 10> %scf
| 11>   MaxIter 150
| 12> end
| 13>
| 14>
| 15>                          ****END OF INPUT****

CARTESIAN COORDINATES (ANGSTROEM)
---------------------------------
  C     -0.461293    2.234686   -4.989619
  C      0.848883    2.667967   -4.302351
  C      2.093434    1.861037   -4.656845
  H      2.444814    2.041567   -5.674990
  H      2.901748    2.137864   -3.980338
  S      1.879644    0.078594   -4.462965
  C     -0.423841    2.398772   -6.474317
  C     -0.959467    3.492647   -7.007401
  N      0.145585    1.486891   -7.203987
  H      0.565371    0.696807   -6.723858
  H      0.220682    1.581768   -8.207520
  H     -1.406243    4.181507   -6.403261
  H     -0.934215    3.681601   -7.999468
  O      3.207574   -0.466111   -4.420259
  F      1.075064   -0.056160   -3.268758
  O      1.131661   -0.319960   -5.679031
  H      0.668432    2.559427   -3.232850
  H      1.034074    3.729426   -4.497081
  H     -1.288884    2.826737   -4.594997
  H     -0.651696    1.186343   -4.756552

 Total Charge           Charge          ....    0
 Multiplicity           Mult            ....    1
 Number of Electrons    NEL             ....   88
 Basis Dimension        Dim             ....  478

ORBITAL ENERGIES
----------------

  NO   OCC          E(Eh)            E(eV)
   0   2.0000     -88.354521     -2404.2488
   1   2.0000     -24.414060      -664.3403
   2   2.0000     -18.803185      -511.6607
   3   2.0000     -18.795900      -511.4624
   4   2.0000     -13.984546      -380.5389
   5   2.0000      -9.966013      -271.1890
   6   2.0000      -9.935773      -270.3661
   7   2.0000      -9.917962      -269.8815
   8   2.0000      -9.914707      -269.7929
   9   2.0000      -9.833691      -267.5883
  10   2.0000      -7.886379      -214.5993
  11   2.0000      -5.918612      -161.0536
  12   2.0000      -5.912233      -160.8800
  13   2.0000      -5.911287      -160.8543
  14   2.0000      -1.283656       -34.9301
  15   2.0000      -1.031369       -28.0650
  16   2.0000      -0.941776       -25.6270
  17   2.0000      -0.836969       -22.7751
  18   2.0000      -0.758582       -20.6421
  19   2.0000      -0.692093       -18.8328
  20   2.0000      -0.663318       -18.0498
  21   2.0000      -0.625535       -17.0217
  22   2.0000      -0.578762       -15.7489
  23   2.0000      -0.540032       -14.6950
  24   2.0000      -0.534679       -14.5494
  25   2.0000      -0.511583       -13.9209
  26   2.0000      -0.502944       -13.6858
  27   2.0000      -0.463360       -12.6087
  28   2.0000      -0.445767       -12.1299
  29   2.0000      -0.437743       -11.9116
  30   2.0000      -0.419325       -11.4104
  31   2.0000      -0.407101       -11.0778
  32   2.0000      -0.401337       -10.9209
  33   2.0000      -0.370207       -10.0738
  34   2.0000      -0.354630        -9.6500
  35   2.0000      -0.350016        -9.5244
  36   2.0000      -0.335714        -9.1352
  37   2.0000      -0.332806        -9.0561
  38   2.0000      -0.300997        -8.1905
  39   2.0000      -0.299337        -8.1454
  40   2.0000      -0.294177        -8.0050
  41   2.0000      -0.282180        -7.6785
  42   2.0000      -0.276114        -7.5134
  43   2.0000      -0.147327        -4.0090
  44   0.0000      -0.042805        -1.1648
  45   0.0000      -0.011602        -0.3157
  46   0.0000      -0.004264        -0.1160
  47   0.0000       0.004070         0.1108
  48   0.0000       0.006416         0.1746

MULLIKEN ATOMIC CHARGES
-----------------------
   0 C :   -0.511486
   1 C :   -0.487881
   2 C :   -0.670750
   3 H :    0.358924
   4 H :    0.295822
   5 S :    1.248998
   6 C :    0.570665
   7 C :   -1.291570
   8 N :   -0.330277
   9 H :    0.391481
  10 H :    0.067149
  11 H :    0.297899
  12 H :    0.324178
  13 O :   -0.548864
  14 F :   -0.160670
  15 O :   -0.680073
  16 H :    0.245256
  17 H :    0.302838
  18 H :    0.223158
  19 H :    0.355203
Sum of atomic charges:   -0.0000000

LOEWDIN ATOMIC CHARGES
----------------------
   0 C :   -0.147535
   1 C :   -0.200207
   2 C :   -0.209801
   3 H :    0.114110
   4 H :    0.101186
   5 S :    0.608785
   6 C :   -0.486874
   7 C :    0.026134
   8 N :    0.131432
   9 H :    0.019308
  10 H :    0.118708
  11 H :    0.014026
  12 H :    0.011581
  13 O :   -0.233883
  14 F :   -0.026745
  15 O :   -0.280885
  16 H :    0.102545
  17 H :    0.122258
  18 H :    0.117309
  19 H :    0.098547

  Mayer bond orders larger than 0.100000
B(  0-C ,  1-C ) :   0.7384 B(  0-C ,  6-C ) :   0.7406 B(  0-C , 18-H ) :   1.0462
B(  0-C , 19-H ) :   0.8217 B(  1-C ,  2-C ) :   0.8798 B(  1-C ,  6-C ) :   0.1207
B(  1-C , 16-H ) :   0.9232 B(  1-C , 17-H ) :   0.8986 B(  2-C ,  3-H ) :   0.8458
B(  2-C ,  4-H ) :   0.9699 B(  2-C ,  5-S ) :   0.8592 B(  2-C ,  8-N ) :   0.1342
B(  2-C , 13-O ) :   0.1251 B(  2-C , 15-O ) :   0.1127 B(  5-S , 13-O ) :   1.6095
B(  5-S , 14-F ) :   1.0107 B(  5-S , 15-O ) :   1.5541 B(  6-C ,  7-C ) :   1.1167
B(  6-C ,  8-N ) :   1.0007 B(  7-C ,  8-N ) :   0.1500 B(  7-C , 11-H ) :   1.0194
B(  7-C , 12-H ) :   0.9826 B(  8-N ,  9-H ) :   0.7751 B(  8-N , 10-H ) :   1.0687

Dispersion correction           -0.046844075
FINAL SINGLE POINT ENERGY      -899.827042491499

DIPOLE MOMENT
-------------
                                X             Y             Z
Electronic contribution:      6.47297     -13.22593       7.33093
Nuclear contribution   :     -6.19944      13.70770      -6.43483
                        -----------------------------------------
Total Dipole Moment    :      0.27353       0.48176       0.89610
                        -----------------------------------------
Magnitude (a.u.)       :      1.05352
Magnitude (Debye)      :      2.67785

Rotational constants in cm-1:     0.079903     0.025241     0.022805
Rotational constants in MHz :  2395.439281   756.708181   683.680583

                             ****ORCA TERMINATED NORMALLY****
TOTAL RUN TIME: 0 days 0 hours 0 minutes 37 seconds 43 msec
