                         Program Version 5.0.0 -  RELEASE  -
|  1> !BLYP D3BJ RIJCOSX def2-TZVPD def2/J TightSCF xyzfile
|  2>
|  3> *xyzfile 0 1 D4.xyz
|  4>
|  5> %MaxCore 64000
|  6>
|  7> %pal nprocs 4
|  8> end
|  9>
| 10> %scf
| 11>   MaxIter 150
| 12> end
| 13>
| 14>
| 15>                          ****END OF INPUT****

CARTESIAN COORDINATES (ANGSTROEM)
---------------------------------
  C     -0.461293    2.234686   -4.989619
  C      0.848883    2.667967   -4.302351
  C      2.093434    1.861037   -4.656845
  H      2.444814    2.041567   -5.674990
  H      2.901748    2.137864   -3.980338
  S      1.879644    0.078594   -4.462965
  C     -0.423841    2.398772   -6.474317
  N     -0.959467    3.492647   -7.007401
  C      0.145585    1.486891   -7.203987
  H      0.565371    0.696807   -6.723858
  H      0.220682    1.581768   -8.207520
  H     -1.406243    4.181507   -6.403261
  H     -0.934215    3.681601   -7.999468
  O      3.207574   -0.466111   -4.420259
  F      1.075064   -0.056160   -3.268758
  O      1.131661   -0.319960   -5.679031
  H      0.668432    2.559427   -3.232850
  H      1.034074    3.729426   -4.497081
  H     -1.288884    2.826737   -4.594997
  H     -0.651696    1.186343   -4.756552

 Total Charge           Charge          ....    0
 Multiplicity           Mult            ....    1
 Number of Electrons    NEL             ....   88
 Basis Dimension        Dim             ....  478

ORBITAL ENERGIES
----------------

  NO   OCC          E(Eh)            E(eV)
   0   2.0000     -88.336143     -2403.7487
   1   2.0000     -24.399455      -663.9429
   2   2.0000     -18.786688      -511.2118
   3   2.0000     -18.773541      -510.8540
   4   2.0000     -14.005862      -381.1189
   5   2.0000      -9.955092      -270.8918
   6   2.0000      -9.933545      -270.3055
   7   2.0000      -9.915273      -269.8083
   8   2.0000      -9.915118      -269.8041
   9   2.0000      -9.817174      -267.1389
  10   2.0000      -7.868133      -214.1028
  11   2.0000      -5.900519      -160.5613
  12   2.0000      -5.893748      -160.3770
  13   2.0000      -5.893103      -160.3595
  14   2.0000      -1.269216       -34.5371
  15   2.0000      -1.013346       -27.5745
  16   2.0000      -0.921483       -25.0748
  17   2.0000      -0.837055       -22.7774
  18   2.0000      -0.752036       -20.4640
  19   2.0000      -0.690242       -18.7824
  20   2.0000      -0.649895       -17.6845
  21   2.0000      -0.631087       -17.1727
  22   2.0000      -0.572199       -15.5703
  23   2.0000      -0.531016       -14.4497
  24   2.0000      -0.518705       -14.1147
  25   2.0000      -0.506559       -13.7842
  26   2.0000      -0.491488       -13.3741
  27   2.0000      -0.461596       -12.5607
  28   2.0000      -0.440815       -11.9952
  29   2.0000      -0.425503       -11.5785
  30   2.0000      -0.421264       -11.4632
  31   2.0000      -0.406626       -11.0648
  32   2.0000      -0.390990       -10.6394
  33   2.0000      -0.362724        -9.8702
  34   2.0000      -0.353255        -9.6125
  35   2.0000      -0.342323        -9.3151
  36   2.0000      -0.329805        -8.9744
  37   2.0000      -0.325640        -8.8611
  38   2.0000      -0.298826        -8.1315
  39   2.0000      -0.286937        -7.8080
  40   2.0000      -0.281423        -7.6579
  41   2.0000      -0.271351        -7.3838
  42   2.0000      -0.245741        -6.6870
  43   2.0000      -0.152956        -4.1621
  44   0.0000      -0.032374        -0.8809
  45   0.0000      -0.014938        -0.4065
  46   0.0000      -0.001711        -0.0466
  47   0.0000      -0.000622        -0.0169
  48   0.0000       0.016468         0.4481

MULLIKEN ATOMIC CHARGES
-----------------------
   0 C :   -0.570118
   1 C :   -0.484112
   2 C :   -0.676769
   3 H :    0.409557
   4 H :    0.292129
   5 S :    1.178833
   6 C :    0.724974
   7 N :   -0.334720
   8 C :   -1.684078
   9 H :    0.844594
  10 H :    0.265286
  11 H :    0.140189
  12 H :    0.115947
  13 O :   -0.566896
  14 F :   -0.163424
  15 O :   -0.587206
  16 H :    0.250817
  17 H :    0.263375
  18 H :    0.283625
  19 H :    0.297997
Sum of atomic charges:    0.0000000

LOEWDIN ATOMIC CHARGES
----------------------
   0 C :   -0.144737
   1 C :   -0.202125
   2 C :   -0.210563
   3 H :    0.113039
   4 H :    0.099513
   5 S :    0.599379
   6 C :   -0.469924
   7 N :    0.111594
   8 C :    0.034175
   9 H :   -0.037632
  10 H :    0.035003
  11 H :    0.096565
  12 H :    0.102483
  13 O :   -0.242750
  14 F :   -0.034131
  15 O :   -0.284262
  16 H :    0.101832
  17 H :    0.118769
  18 H :    0.111584
  19 H :    0.102188

  Mayer bond orders larger than 0.100000
B(  0-C ,  1-C ) :   0.7506 B(  0-C ,  6-C ) :   0.6741 B(  0-C , 18-H ) :   1.0232
B(  0-C , 19-H ) :   0.8976 B(  1-C ,  2-C ) :   0.8799 B(  1-C , 16-H ) :   0.9174
B(  1-C , 17-H ) :   0.9257 B(  2-C ,  3-H ) :   0.8360 B(  2-C ,  4-H ) :   0.9702
B(  2-C ,  5-S ) :   0.8376 B(  2-C ,  8-C ) :   0.1423 B(  2-C , 13-O ) :   0.1316
B(  2-C , 15-O ) :   0.1219 B(  5-S , 13-O ) :   1.5959 B(  5-S , 14-F ) :   0.9995
B(  5-S , 15-O ) :   1.6420 B(  6-C ,  7-N ) :   0.8196 B(  6-C ,  8-C ) :   0.9670
B(  6-C , 10-H ) :  -0.1401 B(  6-C , 18-H ) :  -0.1067 B(  7-N ,  8-C ) :   0.1179
B(  7-N , 11-H ) :   1.0487 B(  7-N , 12-H ) :   1.0564 B(  8-C ,  9-H ) :   0.4237
B(  8-C , 10-H ) :   1.1650 B(  8-C , 15-O ) :   0.1393 B(  9-H , 15-O ) :  -0.3237

Dispersion correction           -0.047202217
FINAL SINGLE POINT ENERGY      -899.807173176988

DIPOLE MOMENT
-------------
                                X             Y             Z
Electronic contribution:      5.54631     -11.75437       7.25932
Nuclear contribution   :     -6.09390      13.51614      -6.45360
                        -----------------------------------------
Total Dipole Moment    :     -0.54759       1.76176       0.80572
                        -----------------------------------------
Magnitude (a.u.)       :      2.01317
Magnitude (Debye)      :      5.11707

Rotational constants in cm-1:     0.081469     0.024519     0.022336
Rotational constants in MHz :  2442.393231   735.066768   669.628729

                             ****ORCA TERMINATED NORMALLY****
TOTAL RUN TIME: 0 days 0 hours 0 minutes 38 seconds 444 msec
