                         Program Version 5.0.0 -  RELEASE  -
|  1> !BLYP D3BJ RIJCOSX def2-TZVPD def2/J TightSCF xyzfile
|  2>
|  3> *xyzfile 0 1 D5.xyz
|  4>
|  5> %MaxCore 64000
|  6>
|  7> %pal nprocs 4
|  8> end
|  9>
| 10> %scf
| 11>   MaxIter 150
| 12> end
| 13>
| 14>
| 15>                          ****END OF INPUT****

CARTESIAN COORDINATES (ANGSTROEM)
---------------------------------
  C     -0.461293    2.234686   -4.989619
  C      0.848883    2.667967   -4.302351
  C      2.093434    1.861037   -4.656845
  H      2.444814    2.041567   -5.674990
  H      2.901748    2.137864   -3.980338
  S      1.879644    0.078594   -4.462965
  C     -0.423841    2.398772   -6.474317
  C     -0.959467    3.492647   -7.007401
  N      0.145585    1.486891   -7.203987
  H      0.565371    0.696807   -6.723858
  H      0.220682    1.581768   -8.207520
  H     -1.406243    4.181507   -6.403261
  H     -0.934215    3.681601   -7.999468
  O      3.207574   -0.466111   -4.420259
  O      1.075064   -0.056160   -3.268758
  F      1.131661   -0.319960   -5.679031
  H      0.668432    2.559427   -3.232850
  H      1.034074    3.729426   -4.497081
  H     -1.288884    2.826737   -4.594997
  H     -0.651696    1.186343   -4.756552

 Total Charge           Charge          ....    0
 Multiplicity           Mult            ....    1
 Number of Electrons    NEL             ....   88
 Basis Dimension        Dim             ....  478

ORBITAL ENERGIES
----------------

  NO   OCC          E(Eh)            E(eV)
   0   2.0000     -88.345250     -2403.9965
   1   2.0000     -24.405644      -664.1113
   2   2.0000     -18.798314      -511.5281
   3   2.0000     -18.794623      -511.4277
   4   2.0000     -14.011068      -381.2605
   5   2.0000      -9.963090      -271.1095
   6   2.0000      -9.931157      -270.2405
   7   2.0000      -9.929322      -270.1906
   8   2.0000      -9.917947      -269.8811
   9   2.0000      -9.845314      -267.9046
  10   2.0000      -7.877620      -214.3609
  11   2.0000      -5.910256      -160.8263
  12   2.0000      -5.902923      -160.6267
  13   2.0000      -5.902556      -160.6167
  14   2.0000      -1.267847       -34.4999
  15   2.0000      -1.032136       -28.0859
  16   2.0000      -0.944416       -25.6989
  17   2.0000      -0.858442       -23.3594
  18   2.0000      -0.754984       -20.5442
  19   2.0000      -0.694049       -18.8860
  20   2.0000      -0.673531       -18.3277
  21   2.0000      -0.627078       -17.0637
  22   2.0000      -0.588597       -16.0165
  23   2.0000      -0.539989       -14.6938
  24   2.0000      -0.521083       -14.1794
  25   2.0000      -0.512436       -13.9441
  26   2.0000      -0.495965       -13.4959
  27   2.0000      -0.477355       -12.9895
  28   2.0000      -0.446557       -12.1514
  29   2.0000      -0.435317       -11.8456
  30   2.0000      -0.419847       -11.4246
  31   2.0000      -0.412821       -11.2334
  32   2.0000      -0.397498       -10.8165
  33   2.0000      -0.372700       -10.1417
  34   2.0000      -0.356481        -9.7003
  35   2.0000      -0.348561        -9.4848
  36   2.0000      -0.340506        -9.2657
  37   2.0000      -0.332326        -9.0430
  38   2.0000      -0.305110        -8.3025
  39   2.0000      -0.303791        -8.2666
  40   2.0000      -0.296444        -8.0667
  41   2.0000      -0.290261        -7.8984
  42   2.0000      -0.282263        -7.6808
  43   2.0000      -0.161959        -4.4071
  44   0.0000      -0.036946        -1.0054
  45   0.0000      -0.010006        -0.2723
  46   0.0000      -0.007397        -0.2013
  47   0.0000      -0.002978        -0.0810
  48   0.0000       0.007660         0.2084

MULLIKEN ATOMIC CHARGES
-----------------------
   0 C :   -0.691744
   1 C :   -0.398349
   2 C :   -0.727689
   3 H :    0.374430
   4 H :    0.298443
   5 S :    1.195964
   6 C :    0.714522
   7 C :   -1.286251
   8 N :   -0.371338
   9 H :    0.410456
  10 H :    0.065350
  11 H :    0.300196
  12 H :    0.319242
  13 O :   -0.556620
  14 O :   -0.572906
  15 F :   -0.260335
  16 H :    0.265968
  17 H :    0.316839
  18 H :    0.236470
  19 H :    0.367354
Sum of atomic charges:   -0.0000000

LOEWDIN ATOMIC CHARGES
----------------------
   0 C :   -0.143500
   1 C :   -0.196647
   2 C :   -0.216215
   3 H :    0.102569
   4 H :    0.108789
   5 S :    0.584272
   6 C :   -0.485635
   7 C :    0.034512
   8 N :    0.131526
   9 H :    0.047781
  10 H :    0.121354
  11 H :    0.019136
  12 H :    0.013817
  13 O :   -0.239068
  14 O :   -0.237871
  15 F :   -0.093895
  16 H :    0.107582
  17 H :    0.121748
  18 H :    0.119893
  19 H :    0.099852

  Mayer bond orders larger than 0.100000
B(  0-C ,  1-C ) :   0.7664 B(  0-C ,  6-C ) :   0.6574 B(  0-C , 18-H ) :   1.0121
B(  0-C , 19-H ) :   0.8667 B(  1-C ,  2-C ) :   0.8682 B(  1-C ,  6-C ) :   0.1087
B(  1-C , 16-H ) :   0.9027 B(  1-C , 17-H ) :   0.9117 B(  2-C ,  3-H ) :   0.8333
B(  2-C ,  4-H ) :   0.9288 B(  2-C ,  5-S ) :   0.8600 B(  2-C ,  8-N ) :   0.1373
B(  2-C , 13-O ) :   0.1305 B(  5-S , 13-O ) :   1.5941 B(  5-S , 14-O ) :   1.6670
B(  5-S , 15-F ) :   0.9579 B(  6-C ,  7-C ) :   1.0645 B(  6-C ,  8-N ) :   0.9282
B(  7-C ,  8-N ) :   0.1440 B(  7-C , 11-H ) :   1.0105 B(  7-C , 12-H ) :   0.9935
B(  8-N ,  9-H ) :   0.8070 B(  8-N , 10-H ) :   1.0856 B( 13-O , 14-O ) :   0.1162

Dispersion correction           -0.046605108
FINAL SINGLE POINT ENERGY      -899.830072190964

DIPOLE MOMENT
-------------
                                X             Y             Z
Electronic contribution:      6.42487     -13.48065       3.18847
Nuclear contribution   :     -6.26130      13.99605      -3.80018
                        -----------------------------------------
Total Dipole Moment    :      0.16357       0.51540      -0.61171
                        -----------------------------------------
Magnitude (a.u.)       :      0.81644
Magnitude (Debye)      :      2.07523

Rotational constants in cm-1:     0.079895     0.025630     0.022948
Rotational constants in MHz :  2395.188639   768.373696   687.955250

                             ****ORCA TERMINATED NORMALLY****
TOTAL RUN TIME: 0 days 0 hours 0 minutes 40 seconds 113 msec
