                         Program Version 5.0.0 -  RELEASE  -
|  1> !BLYP D3BJ RIJCOSX def2-TZVPD def2/J TightSCF xyzfile
|  2>
|  3> *xyzfile 0 1 D6.xyz
|  4>
|  5> %MaxCore 64000
|  6>
|  7> %pal nprocs 4
|  8> end
|  9>
| 10> %scf
| 11>   MaxIter 150
| 12> end
| 13>
| 14>
| 15>                          ****END OF INPUT****

CARTESIAN COORDINATES (ANGSTROEM)
---------------------------------
  C     -0.461293    2.234686   -4.989619
  C      0.848883    2.667967   -4.302351
  C      2.093434    1.861037   -4.656845
  H      2.444814    2.041567   -5.674990
  H      2.901748    2.137864   -3.980338
  S      1.879644    0.078594   -4.462965
  C     -0.423841    2.398772   -6.474317
  N     -0.959467    3.492647   -7.007401
  C      0.145585    1.486891   -7.203987
  H      0.565371    0.696807   -6.723858
  H      0.220682    1.581768   -8.207520
  H     -1.406243    4.181507   -6.403261
  H     -0.934215    3.681601   -7.999468
  O      3.207574   -0.466111   -4.420259
  O      1.075064   -0.056160   -3.268758
  F      1.131661   -0.319960   -5.679031
  H      0.668432    2.559427   -3.232850
  H      1.034074    3.729426   -4.497081
  H     -1.288884    2.826737   -4.594997
  H     -0.651696    1.186343   -4.756552

 Total Charge           Charge          ....    0
 Multiplicity           Mult            ....    1
 Number of Electrons    NEL             ....   88
 Basis Dimension        Dim             ....  478

ORBITAL ENERGIES
----------------

  NO   OCC          E(Eh)            E(eV)
   0   2.0000     -88.332188     -2403.6410
   1   2.0000     -24.380634      -663.4308
   2   2.0000     -18.785310      -511.1743
   3   2.0000     -18.782557      -511.0994
   4   2.0000     -14.017317      -381.4306
   5   2.0000      -9.952913      -270.8325
   6   2.0000      -9.929707      -270.2011
   7   2.0000      -9.929153      -270.1860
   8   2.0000      -9.918522      -269.8967
   9   2.0000      -9.837977      -267.7050
  10   2.0000      -7.864262      -213.9975
  11   2.0000      -5.896617      -160.4551
  12   2.0000      -5.889810      -160.2699
  13   2.0000      -5.889380      -160.2582
  14   2.0000      -1.244348       -33.8604
  15   2.0000      -1.018892       -27.7255
  16   2.0000      -0.932255       -25.3680
  17   2.0000      -0.848325       -23.0841
  18   2.0000      -0.750079       -20.4107
  19   2.0000      -0.694406       -18.8957
  20   2.0000      -0.649178       -17.6650
  21   2.0000      -0.639675       -17.4064
  22   2.0000      -0.571031       -15.5385
  23   2.0000      -0.536507       -14.5991
  24   2.0000      -0.499357       -13.5882
  25   2.0000      -0.495718       -13.4892
  26   2.0000      -0.487419       -13.2633
  27   2.0000      -0.475705       -12.9446
  28   2.0000      -0.443722       -12.0743
  29   2.0000      -0.432296       -11.7634
  30   2.0000      -0.416223       -11.3260
  31   2.0000      -0.401699       -10.9308
  32   2.0000      -0.394758       -10.7419
  33   2.0000      -0.362219        -9.8565
  34   2.0000      -0.353176        -9.6104
  35   2.0000      -0.346093        -9.4177
  36   2.0000      -0.334088        -9.0910
  37   2.0000      -0.324732        -8.8364
  38   2.0000      -0.300819        -8.1857
  39   2.0000      -0.295600        -8.0437
  40   2.0000      -0.288640        -7.8543
  41   2.0000      -0.281896        -7.6708
  42   2.0000      -0.271546        -7.3891
  43   2.0000      -0.167718        -4.5638
  44   0.0000      -0.027548        -0.7496
  45   0.0000      -0.015429        -0.4199
  46   0.0000      -0.004874        -0.1326
  47   0.0000       0.000215         0.0058
  48   0.0000       0.014977         0.4075

MULLIKEN ATOMIC CHARGES
-----------------------
   0 C :   -0.704965
   1 C :   -0.413830
   2 C :   -0.729646
   3 H :    0.423787
   4 H :    0.295300
   5 S :    1.165130
   6 C :    0.828884
   7 N :   -0.326992
   8 C :   -1.741808
   9 H :    0.839777
  10 H :    0.265202
  11 H :    0.147148
  12 H :    0.118011
  13 O :   -0.571994
  14 O :   -0.581142
  15 F :   -0.175648
  16 H :    0.277210
  17 H :    0.274173
  18 H :    0.293925
  19 H :    0.317479
Sum of atomic charges:    0.0000000

LOEWDIN ATOMIC CHARGES
----------------------
   0 C :   -0.140595
   1 C :   -0.198278
   2 C :   -0.215928
   3 H :    0.102257
   4 H :    0.107292
   5 S :    0.582561
   6 C :   -0.468210
   7 N :    0.120357
   8 C :    0.031022
   9 H :   -0.014944
  10 H :    0.034902
  11 H :    0.101350
  12 H :    0.104767
  13 O :   -0.244157
  14 O :   -0.244960
  15 F :   -0.100611
  16 H :    0.107041
  17 H :    0.118229
  18 H :    0.114284
  19 H :    0.103621

  Mayer bond orders larger than 0.100000
B(  0-C ,  1-C ) :   0.7950 B(  0-C ,  6-C ) :   0.5876 B(  0-C , 18-H ) :   0.9932
B(  0-C , 19-H ) :   0.9366 B(  1-C ,  2-C ) :   0.8840 B(  1-C , 16-H ) :   0.8979
B(  1-C , 17-H ) :   0.9352 B(  2-C ,  3-H ) :   0.8207 B(  2-C ,  4-H ) :   0.9337
B(  2-C ,  5-S ) :   0.8531 B(  2-C ,  8-C ) :   0.1524 B(  2-C , 13-O ) :   0.1361
B(  5-S , 13-O ) :   1.5785 B(  5-S , 14-O ) :   1.6523 B(  5-S , 15-F ) :   1.0195
B(  6-C ,  7-N ) :   0.8307 B(  6-C ,  8-C ) :   0.9796 B(  6-C , 10-H ) :  -0.1106
B(  6-C , 18-H ) :  -0.1019 B(  7-N ,  8-C ) :   0.1144 B(  7-N , 11-H ) :   1.0394
B(  7-N , 12-H ) :   1.0544 B(  8-C ,  9-H ) :   0.3498 B(  8-C , 10-H ) :   1.1457
B(  8-C , 15-F ) :   0.1647 B(  9-H , 15-F ) :  -0.2743 B( 13-O , 14-O ) :   0.1092

Dispersion correction           -0.046944170
FINAL SINGLE POINT ENERGY      -899.822559585838

DIPOLE MOMENT
-------------
                                X             Y             Z
Electronic contribution:      5.54457     -12.03010       3.19217
Nuclear contribution   :     -6.15577      13.80449      -3.81895
                        -----------------------------------------
Total Dipole Moment    :     -0.61120       1.77439      -0.62679
                        -----------------------------------------
Magnitude (a.u.)       :      1.97861
Magnitude (Debye)      :      5.02922

Rotational constants in cm-1:     0.081431     0.024887     0.022470
Rotational constants in MHz :  2441.231544   746.086417   673.646914

                             ****ORCA TERMINATED NORMALLY****
TOTAL RUN TIME: 0 days 0 hours 0 minutes 36 seconds 346 msec
