                         Program Version 5.0.0 -  RELEASE  -
|  1> !B3LYP D3BJ RIJCOSX def2-SVPD def2/J TightSCF
|  2> *xyz -1 1
|  3> C         -0.77455        2.78833       -0.54394
|  4> C          0.69721        3.22791       -0.52513
|  5> O          1.48929        2.37470        0.19919
|  6> H          0.71600        4.26403       -0.13077
|  7> H          1.03615        3.33092       -1.58367
|  8> H         -1.34746        3.48478       -1.11982
|  9> H         -1.15078        2.75876        0.45729
| 10> H         -0.85058        1.81526       -0.98241
| 11> *
| 12>
| 13> %MaxCore 64000
| 14> %pal nprocs 4
| 15> end
| 16>
| 17> %scf
| 18>   MaxIter 150
| 19> end
| 20>
| 21>
| 22>                          ****END OF INPUT****

CARTESIAN COORDINATES (ANGSTROEM)
---------------------------------
  C     -0.774550    2.788330   -0.543940
  C      0.697210    3.227910   -0.525130
  O      1.489290    2.374700    0.199190
  H      0.716000    4.264030   -0.130770
  H      1.036150    3.330920   -1.583670
  H     -1.347460    3.484780   -1.119820
  H     -1.150780    2.758760    0.457290
  H     -0.850580    1.815260   -0.982410

 Total Charge           Charge          ....   -1
 Multiplicity           Mult            ....    1
 Number of Electrons    NEL             ....   26
 Basis Dimension        Dim             ....  103

ORBITAL ENERGIES
----------------

  NO   OCC          E(Eh)            E(eV)
   0   2.0000     -18.809383      -511.8293
   1   2.0000      -9.998848      -272.0825
   2   2.0000      -9.975530      -271.4480
   3   2.0000      -0.669587       -18.2204
   4   2.0000      -0.518819       -14.1178
   5   2.0000      -0.366988        -9.9863
   6   2.0000      -0.249931        -6.8010
   7   2.0000      -0.227655        -6.1948
   8   2.0000      -0.174954        -4.7607
   9   2.0000      -0.156926        -4.2702
  10   2.0000      -0.113080        -3.0771
  11   2.0000       0.029050         0.7905
  12   2.0000       0.031117         0.8467
  13   0.0000       0.178091         4.8461
  14   0.0000       0.208328         5.6689
  15   0.0000       0.241624         6.5749
  16   0.0000       0.254222         6.9177
  17   0.0000       0.273507         7.4425

MULLIKEN ATOMIC CHARGES
-----------------------
   0 C :    0.486229
   1 C :    0.284303
   2 O :   -0.889935
   3 H :   -0.230808
   4 H :   -0.218158
   5 H :   -0.122632
   6 H :   -0.153929
   7 H :   -0.155071
Sum of atomic charges:   -1.0000000

LOEWDIN ATOMIC CHARGES
----------------------
   0 C :    0.068728
   1 C :   -0.255813
   2 O :   -0.576097
   3 H :   -0.040436
   4 H :   -0.036562
   5 H :   -0.066270
   6 H :   -0.046476
   7 H :   -0.047074

  Mayer bond orders larger than 0.100000
B(  0-C ,  1-C ) :   1.1709 B(  0-C ,  2-O ) :   0.2018 B(  0-C ,  3-H ) :   0.1515
B(  0-C ,  4-H ) :   0.1422 B(  0-C ,  5-H ) :   0.8836 B(  0-C ,  6-H ) :   0.8715
B(  0-C ,  7-H ) :   0.8756 B(  1-C ,  2-O ) :   1.1300 B(  1-C ,  3-H ) :   0.9432
B(  1-C ,  4-H ) :   0.9537 B(  1-C ,  5-H ) :   0.1476 B(  1-C ,  6-H ) :   0.1993
B(  1-C ,  7-H ) :   0.1979

Dispersion correction           -0.006237633
FINAL SINGLE POINT ENERGY      -154.236773967463

DIPOLE MOMENT
-------------
                                X             Y             Z
Electronic contribution:      2.39076      -1.01013       1.16075
Nuclear contribution   :     -3.69910       1.55962      -1.78699
                        -----------------------------------------
Total Dipole Moment    :     -1.30834       0.54949      -0.62624
                        -----------------------------------------
Magnitude (a.u.)       :      1.55109
Magnitude (Debye)      :      3.94255

Rotational constants in cm-1:     1.268893     0.327436     0.287754
Rotational constants in MHz : 38040.440181  9816.269339  8626.646564

                             ****ORCA TERMINATED NORMALLY****
TOTAL RUN TIME: 0 days 0 hours 0 minutes 10 seconds 447 msec
