                         Program Version 5.0.0 -  RELEASE  -
|  1> !B3LYP D3BJ RIJCOSX def2-SVPD def2/J TightSCF
|  2> *xyz 1 1
|  3> C          3.95643        0.50147       -0.37910
|  4> H          3.16840        0.02920        0.20738
|  5> N          3.80389        1.96157       -0.15675
|  6> C          3.84232        0.14849       -1.85406
|  7> H          4.92323        0.17798        0.00937
|  8> H          4.20643        2.24441        0.74536
|  9> H          2.80827        2.21132       -0.09610
| 10> H          4.28076        2.50155       -0.89104
| 11> H          4.62951        0.62800       -2.39748
| 12> H          2.89665        0.48102       -2.22825
| 13> H          3.92053       -0.91187       -1.97413
| 14> *
| 15>
| 16> %MaxCore 64000
| 17> %pal nprocs 4
| 18> end
| 19>
| 20> %scf
| 21>   MaxIter 150
| 22> end
| 23>
| 24>
| 25>                          ****END OF INPUT****

CARTESIAN COORDINATES (ANGSTROEM)
---------------------------------
  C      3.956430    0.501470   -0.379100
  H      3.168400    0.029200    0.207380
  N      3.803890    1.961570   -0.156750
  C      3.842320    0.148490   -1.854060
  H      4.923230    0.177980    0.009370
  H      4.206430    2.244410    0.745360
  H      2.808270    2.211320   -0.096100
  H      4.280760    2.501550   -0.891040
  H      4.629510    0.628000   -2.397480
  H      2.896650    0.481020   -2.228250
  H      3.920530   -0.911870   -1.974130

 Total Charge           Charge          ....    1
 Multiplicity           Mult            ....    1
 Number of Electrons    NEL             ....   26
 Basis Dimension        Dim             ....  124

ORBITAL ENERGIES
----------------

  NO   OCC          E(Eh)            E(eV)
   0   2.0000     -14.666599      -399.0984
   1   2.0000     -10.438032      -284.0333
   2   2.0000     -10.360102      -281.9127
   3   2.0000      -1.209499       -32.9121
   4   2.0000      -0.961013       -26.1505
   5   2.0000      -0.842066       -22.9138
   6   2.0000      -0.805655       -21.9230
   7   2.0000      -0.787276       -21.4229
   8   2.0000      -0.699051       -19.0222
   9   2.0000      -0.644464       -17.5368
  10   2.0000      -0.584817       -15.9137
  11   2.0000      -0.570534       -15.5250
  12   2.0000      -0.553094       -15.0505
  13   0.0000      -0.197527        -5.3750
  14   0.0000      -0.140128        -3.8131
  15   0.0000      -0.135149        -3.6776
  16   0.0000      -0.125725        -3.4211
  17   0.0000      -0.094373        -2.5680

MULLIKEN ATOMIC CHARGES
-----------------------
   0 C :    0.382422
   1 H :   -0.155928
   2 N :   -0.754891
   3 C :    0.816410
   4 H :   -0.137435
   5 H :    0.337132
   6 H :    0.384134
   7 H :    0.390882
   8 H :   -0.098474
   9 H :   -0.062084
  10 H :   -0.102168
Sum of atomic charges:    1.0000000

LOEWDIN ATOMIC CHARGES
----------------------
   0 C :    0.055783
   1 H :    0.051002
   2 N :    0.331512
   3 C :    0.179626
   4 H :    0.051993
   5 H :    0.105439
   6 H :    0.109186
   7 H :    0.105315
   8 H :   -0.001909
   9 H :   -0.001083
  10 H :    0.013135

  Mayer bond orders larger than 0.100000
B(  0-C ,  1-H ) :   0.8741 B(  0-C ,  2-N ) :   0.7640 B(  0-C ,  3-C ) :   1.3214
B(  0-C ,  4-H ) :   0.8949 B(  0-C ,  8-H ) :   0.1828 B(  0-C ,  9-H ) :   0.1651
B(  0-C , 10-H ) :   0.2067 B(  1-H ,  2-N ) :   0.1364 B(  2-N ,  5-H ) :   0.7902
B(  2-N ,  6-H ) :   0.7350 B(  2-N ,  7-H ) :   0.7106 B(  3-C ,  8-H ) :   0.8018
B(  3-C ,  9-H ) :   0.7914 B(  3-C , 10-H ) :   0.7886

Dispersion correction           -0.010039132
FINAL SINGLE POINT ENERGY      -135.359789228949

DIPOLE MOMENT
-------------
                                X             Y             Z
Electronic contribution:     -0.01233       1.33278       1.25019
Nuclear contribution   :     -0.06214      -0.04120      -0.39947
                        -----------------------------------------
Total Dipole Moment    :     -0.07447       1.29158       0.85072
                        -----------------------------------------
Magnitude (a.u.)       :      1.54837
Magnitude (Debye)      :      3.93564

Rotational constants in cm-1:     1.011771     0.281435     0.249812
Rotational constants in MHz : 30332.138762  8437.210602  7489.166323

                             ****ORCA TERMINATED NORMALLY****
TOTAL RUN TIME: 0 days 0 hours 0 minutes 12 seconds 351 msec
