                         Program Version 5.0.0 -  RELEASE  -
|  1> !B3LYP D3BJ RIJCOSX def2-SVPD def2/J TightSCF
|  2> *xyz 0 1
|  3> C         -0.77455        2.78833       -0.54394
|  4> C          0.69721        3.22791       -0.52513
|  5> F          1.48929        2.37470        0.19919
|  6> H          0.71600        4.26403       -0.13077
|  7> H          1.03615        3.33092       -1.58367
|  8> H         -1.34746        3.48478       -1.11982
|  9> H         -1.15078        2.75876        0.45729
| 10> H         -0.85058        1.81526       -0.98241
| 11> *
| 12>
| 13> %MaxCore 64000
| 14> %pal nprocs 4
| 15> end
| 16>
| 17> %scf
| 18>   MaxIter 150
| 19> end
| 20>
| 21>
| 22>                          ****END OF INPUT****

CARTESIAN COORDINATES (ANGSTROEM)
---------------------------------
  C     -0.774550    2.788330   -0.543940
  C      0.697210    3.227910   -0.525130
  F      1.489290    2.374700    0.199190
  H      0.716000    4.264030   -0.130770
  H      1.036150    3.330920   -1.583670
  H     -1.347460    3.484780   -1.119820
  H     -1.150780    2.758760    0.457290
  H     -0.850580    1.815260   -0.982410

 Total Charge           Charge          ....    0
 Multiplicity           Mult            ....    1
 Number of Electrons    NEL             ....   26
 Basis Dimension        Dim             ....  103

ORBITAL ENERGIES
----------------

  NO   OCC          E(Eh)            E(eV)
   0   2.0000     -24.686643      -671.7577
   1   2.0000     -10.265878      -279.3488
   2   2.0000     -10.181433      -277.0509
   3   2.0000      -1.184348       -32.2277
   4   2.0000      -0.759010       -20.6537
   5   2.0000      -0.627433       -17.0733
   6   2.0000      -0.512399       -13.9431
   7   2.0000      -0.497177       -13.5289
   8   2.0000      -0.461352       -12.5540
   9   2.0000      -0.407602       -11.0914
  10   2.0000      -0.403491       -10.9796
  11   2.0000      -0.340667        -9.2700
  12   2.0000      -0.334192        -9.0938
  13   0.0000       0.020720         0.5638
  14   0.0000       0.052167         1.4195
  15   0.0000       0.072317         1.9679
  16   0.0000       0.079020         2.1502
  17   0.0000       0.104903         2.8545

MULLIKEN ATOMIC CHARGES
-----------------------
   0 C :    0.552404
   1 C :    0.550491
   2 F :   -0.446564
   3 H :   -0.139876
   4 H :   -0.127010
   5 H :   -0.115192
   6 H :   -0.136078
   7 H :   -0.138175
Sum of atomic charges:   -0.0000000

LOEWDIN ATOMIC CHARGES
----------------------
   0 C :    0.143955
   1 C :    0.066391
   2 F :   -0.215746
   3 H :    0.026058
   4 H :    0.030937
   5 H :   -0.016393
   6 H :   -0.017344
   7 H :   -0.017857

  Mayer bond orders larger than 0.100000
B(  0-C ,  1-C ) :   1.3294 B(  0-C ,  5-H ) :   0.8261 B(  0-C ,  6-H ) :   0.8519
B(  0-C ,  7-H ) :   0.8555 B(  1-C ,  2-F ) :   0.7492 B(  1-C ,  3-H ) :   0.9096
B(  1-C ,  4-H ) :   0.9153 B(  1-C ,  5-H ) :   0.1369 B(  1-C ,  6-H ) :   0.1587
B(  1-C ,  7-H ) :   0.1566

Dispersion correction           -0.005743213
FINAL SINGLE POINT ENERGY      -178.848071340132

DIPOLE MOMENT
-------------
                                X             Y             Z
Electronic contribution:      4.39892      -1.63947       1.98842
Nuclear contribution   :     -4.89513       2.05627      -2.36166
                        -----------------------------------------
Total Dipole Moment    :     -0.49622       0.41680      -0.37325
                        -----------------------------------------
Magnitude (a.u.)       :      0.74784
Magnitude (Debye)      :      1.90085

Rotational constants in cm-1:     1.247826     0.304622     0.269019
Rotational constants in MHz : 37408.889506  9132.346906  8064.979146

                             ****ORCA TERMINATED NORMALLY****
TOTAL RUN TIME: 0 days 0 hours 0 minutes 10 seconds 489 msec
