                         Program Version 5.0.0 -  RELEASE  -
|  1> !LC-BLYP RIJCOSX def2-SVP def2/J TightSCF
|  2> *xyz -1 1
|  3> C         -0.72184       -0.99951       -3.43931
|  4> C          0.28725       -1.71177       -2.52740
|  5> H          1.13178       -2.06738       -3.15940
|  6> H         -0.20414       -2.63733       -2.17048
|  7> O          0.71050       -0.92751       -1.48177
|  8> H         -1.01315       -1.65739       -4.23129
|  9> H         -0.27123       -0.12142       -3.85259
| 10> H         -1.58442       -0.72333       -2.86958
| 11> *
| 12> %MaxCore 64000
| 13>
| 14> %pal nprocs 4
| 15> end
| 16>
| 17> %scf
| 18>   MaxIter 150
| 19> end
| 20>
| 21>
| 22>                          ****END OF INPUT****

CARTESIAN COORDINATES (ANGSTROEM)
---------------------------------
  C     -0.721840   -0.999510   -3.439310
  C      0.287250   -1.711770   -2.527400
  H      1.131780   -2.067380   -3.159400
  H     -0.204140   -2.637330   -2.170480
  O      0.710500   -0.927510   -1.481770
  H     -1.013150   -1.657390   -4.231290
  H     -0.271230   -0.121420   -3.852590
  H     -1.584420   -0.723330   -2.869580

 Total Charge           Charge          ....   -1
 Multiplicity           Mult            ....    1
 Number of Electrons    NEL             ....   26
 Basis Dimension        Dim             ....   67

ORBITAL ENERGIES
----------------

  NO   OCC          E(Eh)            E(eV)
   0   2.0000     -18.552818      -504.8478
   1   2.0000      -9.870649      -268.5940
   2   2.0000      -9.860214      -268.3101
   3   2.0000      -0.716852       -19.5065
   4   2.0000      -0.602688       -16.4000
   5   2.0000      -0.448261       -12.1978
   6   2.0000      -0.336869        -9.1667
   7   2.0000      -0.311571        -8.4783
   8   2.0000      -0.253207        -6.8901
   9   2.0000      -0.232910        -6.3378
  10   2.0000      -0.159459        -4.3391
  11   2.0000      -0.011387        -0.3098
  12   2.0000      -0.008201        -0.2232
  13   0.0000       0.325110         8.8467
  14   0.0000       0.371698        10.1144
  15   0.0000       0.385265        10.4836
  16   0.0000       0.393296        10.7021
  17   0.0000       0.438754        11.9391

MULLIKEN ATOMIC CHARGES
-----------------------
   0 C :    0.065539
   1 C :    0.222880
   2 H :   -0.182211
   3 H :   -0.182279
   4 O :   -0.664396
   5 H :   -0.120828
   6 H :   -0.070223
   7 H :   -0.068483
Sum of atomic charges:   -1.0000000

LOEWDIN ATOMIC CHARGES
----------------------
   0 C :   -0.121833
   1 C :   -0.010261
   2 H :   -0.080546
   3 H :   -0.079491
   4 O :   -0.656190
   5 H :   -0.029797
   6 H :   -0.011429
   7 H :   -0.010454

  Mayer bond orders larger than 0.100000
B(  0-C ,  1-C ) :   1.0050 B(  0-C ,  5-H ) :   0.9175 B(  0-C ,  6-H ) :   0.9524
B(  0-C ,  7-H ) :   0.9538 B(  1-C ,  2-H ) :   0.8649 B(  1-C ,  3-H ) :   0.8658
B(  1-C ,  4-O ) :   1.5681

FINAL SINGLE POINT ENERGY      -153.885014786174

DIPOLE MOMENT
-------------
                                X             Y             Z
Electronic contribution:      1.54750       0.91146       2.60192
Nuclear contribution   :     -2.24828      -1.06600      -3.62481
                        -----------------------------------------
Total Dipole Moment    :     -0.70078      -0.15454      -1.02289
                        -----------------------------------------
Magnitude (a.u.)       :      1.24951
Magnitude (Debye)      :      3.17601

Rotational constants in cm-1:     1.278116     0.325414     0.286672
Rotational constants in MHz : 38316.964654  9755.653004  8594.216906

                             ****ORCA TERMINATED NORMALLY****
TOTAL RUN TIME: 0 days 0 hours 0 minutes 8 seconds 520 msec
