                         Program Version 5.0.0 -  RELEASE  -
|  1> !LC-BLYP RIJCOSX def2-SVP def2/J TightSCF
|  2> *xyz 1 1
|  3> C          3.48828        1.60092       -1.52204
|  4> C          4.34297        1.31342       -2.75683
|  5> N          2.81029        0.42878       -1.01420
|  6> H          2.71455        2.33145       -1.76030
|  7> H          4.09099        2.06315       -0.73338
|  8> C          3.29098       -0.41802       -0.12908
|  9> N          2.51754       -1.43202        0.23936
| 10> N          4.53549       -0.28441        0.39580
| 11> H          5.04363        0.57189        0.22290
| 12> H          4.72335       -0.73327        1.28180
| 13> H          1.93479        0.10230       -1.40379
| 14> H          1.67464       -1.50562       -0.31610
| 15> H          2.92850       -2.21850        0.72549
| 16> H          3.73575        0.86277       -3.51385
| 17> H          5.13754        0.64699       -2.49333
| 18> H          4.75374        2.22930       -3.12740
| 19> *
| 20> %MaxCore 64000
| 21>
| 22> %pal nprocs 4
| 23> end
| 24>
| 25> %scf
| 26>   MaxIter 150
| 27> end
| 28>
| 29>
| 30>                          ****END OF INPUT****

CARTESIAN COORDINATES (ANGSTROEM)
---------------------------------
  C      3.488280    1.600920   -1.522040
  C      4.342970    1.313420   -2.756830
  N      2.810290    0.428780   -1.014200
  H      2.714550    2.331450   -1.760300
  H      4.090990    2.063150   -0.733380
  C      3.290980   -0.418020   -0.129080
  N      2.517540   -1.432020    0.239360
  N      4.535490   -0.284410    0.395800
  H      5.043630    0.571890    0.222900
  H      4.723350   -0.733270    1.281800
  H      1.934790    0.102300   -1.403790
  H      1.674640   -1.505620   -0.316100
  H      2.928500   -2.218500    0.725490
  H      3.735750    0.862770   -3.513850
  H      5.137540    0.646990   -2.493330
  H      4.753740    2.229300   -3.127400

 Total Charge           Charge          ....    1
 Multiplicity           Mult            ....    1
 Number of Electrons    NEL             ....   48
 Basis Dimension        Dim             ....  134

ORBITAL ENERGIES
----------------

  NO   OCC          E(Eh)            E(eV)
   0   2.0000     -14.412926      -392.1957
   1   2.0000     -14.409146      -392.0928
   2   2.0000     -14.406033      -392.0081
   3   2.0000     -10.419421      -283.5269
   4   2.0000     -10.292718      -280.0791
   5   2.0000     -10.219904      -278.0977
   6   2.0000      -1.311564       -35.6895
   7   2.0000      -1.198512       -32.6132
   8   2.0000      -1.183972       -32.2175
   9   2.0000      -1.034369       -28.1466
  10   2.0000      -0.937251       -25.5039
  11   2.0000      -0.909884       -24.7592
  12   2.0000      -0.884488       -24.0681
  13   2.0000      -0.848275       -23.0827
  14   2.0000      -0.792697       -21.5704
  15   2.0000      -0.781162       -21.2565
  16   2.0000      -0.757258       -20.6061
  17   2.0000      -0.746200       -20.3051
  18   2.0000      -0.703781       -19.1509
  19   2.0000      -0.662404       -18.0249
  20   2.0000      -0.629329       -17.1249
  21   2.0000      -0.608473       -16.5574
  22   2.0000      -0.573669       -15.6103
  23   2.0000      -0.545827       -14.8527
  24   0.0000      -0.077617        -2.1121
  25   0.0000      -0.067643        -1.8407
  26   0.0000      -0.037148        -1.0108
  27   0.0000      -0.019966        -0.5433
  28   0.0000       0.007162         0.1949

MULLIKEN ATOMIC CHARGES
-----------------------
   0 C :   -0.019784
   1 C :    0.021812
   2 N :   -0.025126
   3 H :    0.074634
   4 H :    0.055991
   5 C :   -0.107472
   6 N :    0.031364
   7 N :   -0.005181
   8 H :    0.160458
   9 H :    0.172592
  10 H :    0.158483
  11 H :    0.163488
  12 H :    0.179106
  13 H :    0.043817
  14 H :    0.027922
  15 H :    0.067895
Sum of atomic charges:    1.0000000

LOEWDIN ATOMIC CHARGES
----------------------
   0 C :    0.022100
   1 C :   -0.060326
   2 N :    0.049516
   3 H :    0.055559
   4 H :    0.039326
   5 C :    0.134119
   6 N :    0.050143
   7 N :    0.032989
   8 H :    0.105454
   9 H :    0.113057
  10 H :    0.107301
  11 H :    0.109566
  12 H :    0.116985
  13 H :    0.039560
  14 H :    0.031450
  15 H :    0.053199

  Mayer bond orders larger than 0.100000
B(  0-C ,  1-C ) :   1.1008 B(  0-C ,  2-N ) :   0.9451 B(  0-C ,  3-H ) :   0.9442
B(  0-C ,  4-H ) :   0.9497 B(  1-C , 13-H ) :   0.9660 B(  1-C , 14-H ) :   0.9658
B(  1-C , 15-H ) :   0.9618 B(  2-N ,  5-C ) :   1.4096 B(  2-N , 10-H ) :   0.9043
B(  5-C ,  6-N ) :   1.4051 B(  5-C ,  7-N ) :   1.3877 B(  6-N , 11-H ) :   0.9202
B(  6-N , 12-H ) :   0.9228 B(  7-N ,  8-H ) :   0.9247 B(  7-N ,  9-H ) :   0.9250

FINAL SINGLE POINT ENERGY      -283.451732474544

DIPOLE MOMENT
-------------
                                X             Y             Z
Electronic contribution:     -1.95874      -3.07612       3.81360
Nuclear contribution   :      1.59382       2.33278      -3.02574
                        -----------------------------------------
Total Dipole Moment    :     -0.36492      -0.74335       0.78786
                        -----------------------------------------
Magnitude (a.u.)       :      1.14300
Magnitude (Debye)      :      2.90528

Rotational constants in cm-1:     0.232230     0.073139     0.063030
Rotational constants in MHz :  6962.079716  2192.649203  1889.578947

                             ****ORCA TERMINATED NORMALLY****
TOTAL RUN TIME: 0 days 0 hours 0 minutes 18 seconds 697 msec
