                         Program Version 5.0.0 -  RELEASE  -
|  1> !LC-BLYP RIJCOSX def2-TZVP def2/J TightSCF xyzfile
|  2>
|  3> *xyzfile 0 1 B.xyz
|  4>
|  5> %MaxCore 64000
|  6>
|  7> %pal nprocs 18
|  8> end
|  9>
| 10> %scf
| 11>   MaxIter 150
| 12> end
| 13>
| 14>
| 15>                          ****END OF INPUT****

CARTESIAN COORDINATES (ANGSTROEM)
---------------------------------
  C      3.488276    1.600919   -1.522040
  C      4.342970    1.313419   -2.756826
  N      2.810285    0.428783   -1.014196
  H      5.132033    0.604994   -2.484466
  C      3.535896    0.749253   -3.924604
  H      4.841247    2.242136   -3.054083
  H      2.991617   -0.132199   -3.574137
  H      4.225505    0.392784   -4.695962
  C      2.564776    1.750890   -4.544523
  H      1.918749    2.171679   -3.769419
  C      1.686235    1.161657   -5.650111
  H      3.132494    2.594775   -4.951604
  C      0.839616   -0.037582   -5.220473
  H      2.323886    0.866395   -6.490796
  H      1.029518    1.951850   -6.029329
  C     -0.151019    0.254955   -4.094256
  H      1.499442   -0.857141   -4.922958
  H      0.290097   -0.410143   -6.091131
  H      0.328265    0.833022   -3.299125
  C     -0.721843   -0.999513   -3.439309
  H     -0.957367    0.884951   -4.485450
  H     -1.083403   -1.697555   -4.205656
  H     -1.581056   -0.723848   -2.820490
  C      0.287250   -1.711771   -2.527405
  H      1.131780   -2.067380   -3.159396
  H     -0.204137   -2.637326   -2.170480
  O      0.710505   -0.927506   -1.481767
  H      2.714548    2.331455   -1.760302
  H      4.090991    2.063151   -0.733382
  C      3.290978   -0.418021   -0.129083
  N      2.517536   -1.432017    0.239360
  N      4.535490   -0.284410    0.395800
  H      5.043627    0.571888    0.222899
  H      4.723346   -0.733273    1.281800
  H      1.934787    0.102305   -1.403788
  H      1.674638   -1.505616   -0.316095
  H      2.928503   -2.218502    0.725494

 Total Charge           Charge          ....    0
 Multiplicity           Mult            ....    1
 Number of Electrons    NEL             ....  112
 Basis Dimension        Dim             ....  572

ORBITAL ENERGIES
----------------

  NO   OCC          E(Eh)            E(eV)
   0   2.0000     -18.801941      -511.6268
   1   2.0000     -14.227960      -387.1625
   2   2.0000     -14.189419      -386.1137
   3   2.0000     -14.181344      -385.8940
   4   2.0000     -10.218299      -278.0541
   5   2.0000     -10.121214      -275.4122
   6   2.0000     -10.076844      -274.2049
   7   2.0000     -10.059439      -273.7313
   8   2.0000     -10.053947      -273.5818
   9   2.0000     -10.047394      -273.4035
  10   2.0000     -10.044820      -273.3334
  11   2.0000     -10.035298      -273.0743
  12   2.0000     -10.024534      -272.7814
  13   2.0000     -10.012836      -272.4631
  14   2.0000      -1.134329       -30.8667
  15   2.0000      -1.029903       -28.0251
  16   2.0000      -1.010653       -27.5013
  17   2.0000      -0.975648       -26.5487
  18   2.0000      -0.921625       -25.0787
  19   2.0000      -0.886965       -24.1356
  20   2.0000      -0.848165       -23.0798
  21   2.0000      -0.810374       -22.0514
  22   2.0000      -0.769115       -20.9287
  23   2.0000      -0.755645       -20.5621
  24   2.0000      -0.718819       -19.5600
  25   2.0000      -0.707126       -19.2419
  26   2.0000      -0.702621       -19.1193
  27   2.0000      -0.670757       -18.2522
  28   2.0000      -0.650985       -17.7142
  29   2.0000      -0.625019       -17.0076
  30   2.0000      -0.615782       -16.7563
  31   2.0000      -0.597791       -16.2667
  32   2.0000      -0.588817       -16.0225
  33   2.0000      -0.576271       -15.6811
  34   2.0000      -0.568009       -15.4563
  35   2.0000      -0.561657       -15.2835
  36   2.0000      -0.539139       -14.6707
  37   2.0000      -0.525547       -14.3009
  38   2.0000      -0.517757       -14.0889
  39   2.0000      -0.496175       -13.5016
  40   2.0000      -0.490590       -13.3496
  41   2.0000      -0.479831       -13.0569
  42   2.0000      -0.458570       -12.4783
  43   2.0000      -0.451998       -12.2995
  44   2.0000      -0.444860       -12.1053
  45   2.0000      -0.431831       -11.7507
  46   2.0000      -0.418441       -11.3864
  47   2.0000      -0.409525       -11.1437
  48   2.0000      -0.408018       -11.1027
  49   2.0000      -0.402753       -10.9595
  50   2.0000      -0.384930       -10.4745
  51   2.0000      -0.381549       -10.3825
  52   2.0000      -0.375135       -10.2079
  53   2.0000      -0.361061        -9.8250
  54   2.0000      -0.273469        -7.4415
  55   2.0000      -0.266300        -7.2464
  56   0.0000       0.057701         1.5701
  57   0.0000       0.086483         2.3533
  58   0.0000       0.094795         2.5795
  59   0.0000       0.112861         3.0711
  60   0.0000       0.116108         3.1595

MULLIKEN ATOMIC CHARGES
-----------------------
   0 C :   -0.357893
   1 C :   -0.169687
   2 N :   -0.167051
   3 H :    0.127270
   4 C :   -0.278378
   5 H :    0.128342
   6 H :    0.161883
   7 H :    0.130706
   8 C :   -0.286987
   9 H :    0.134129
  10 C :   -0.202523
  11 H :    0.120863
  12 C :   -0.312859
  13 H :    0.121252
  14 H :    0.122486
  15 C :   -0.223305
  16 H :    0.138062
  17 H :    0.121102
  18 H :    0.113301
  19 C :   -0.163108
  20 H :    0.108878
  21 H :    0.082543
  22 H :    0.096585
  23 C :   -0.050058
  24 H :    0.040034
  25 H :    0.066221
  26 O :   -0.719569
  27 H :    0.190688
  28 H :    0.139498
  29 C :    0.311535
  30 N :   -0.370092
  31 N :   -0.427113
  32 H :    0.248611
  33 H :    0.246082
  34 H :    0.274393
  35 H :    0.279801
  36 H :    0.224356
Sum of atomic charges:    0.0000000

LOEWDIN ATOMIC CHARGES
----------------------
   0 C :   -0.295090
   1 C :   -0.279673
   2 N :    0.182238
   3 H :    0.138786
   4 C :   -0.274404
   5 H :    0.143787
   6 H :    0.148159
   7 H :    0.142404
   8 C :   -0.280536
   9 H :    0.136102
  10 C :   -0.279166
  11 H :    0.138158
  12 C :   -0.281331
  13 H :    0.138037
  14 H :    0.139966
  15 C :   -0.283950
  16 H :    0.135693
  17 H :    0.137945
  18 H :    0.136222
  19 C :   -0.292181
  20 H :    0.133551
  21 H :    0.130556
  22 H :    0.134894
  23 C :   -0.485372
  24 H :    0.091230
  25 H :    0.104335
  26 O :   -0.290583
  27 H :    0.147411
  28 H :    0.130358
  29 C :   -0.425237
  30 N :    0.041175
  31 N :   -0.002173
  32 H :    0.176038
  33 H :    0.179127
  34 H :    0.162421
  35 H :    0.150093
  36 H :    0.171009

  Mayer bond orders larger than 0.100000
B(  0-C ,  1-C ) :   0.8698 B(  0-C ,  2-N ) :   0.8751 B(  0-C , 27-H ) :   0.9904
B(  0-C , 28-H ) :   0.9989 B(  1-C ,  3-H ) :   0.9823 B(  1-C ,  4-C ) :   0.9347
B(  1-C ,  5-H ) :   0.9837 B(  2-N , 29-C ) :   1.4601 B(  2-N , 34-H ) :   0.7325
B(  4-C ,  6-H ) :   0.9777 B(  4-C ,  7-H ) :   0.9820 B(  4-C ,  8-C ) :   0.8837
B(  8-C ,  9-H ) :   0.9888 B(  8-C , 10-C ) :   0.9402 B(  8-C , 11-H ) :   0.9789
B( 10-C , 12-C ) :   0.9230 B( 10-C , 13-H ) :   0.9895 B( 10-C , 14-H ) :   0.9904
B( 12-C , 15-C ) :   0.8938 B( 12-C , 16-H ) :   0.9941 B( 12-C , 17-H ) :   0.9820
B( 15-C , 18-H ) :   0.9795 B( 15-C , 19-C ) :   0.9580 B( 15-C , 20-H ) :   0.9766
B( 19-C , 21-H ) :   0.9709 B( 19-C , 22-H ) :   0.9745 B( 19-C , 23-C ) :   0.9346
B( 23-C , 24-H ) :   0.9730 B( 23-C , 25-H ) :   0.9645 B( 23-C , 26-O ) :   1.1401
B( 26-O , 34-H ) :   0.2725 B( 26-O , 35-H ) :   0.2564 B( 29-C , 30-N ) :   1.4071
B( 29-C , 31-N ) :   1.2042 B( 30-N , 35-H ) :   0.7391 B( 30-N , 36-H ) :   0.9225
B( 31-N , 32-H ) :   0.9142 B( 31-N , 33-H ) :   0.9189

FINAL SINGLE POINT ENERGY      -632.967781816287

DIPOLE MOMENT
-------------
                                X             Y             Z
Electronic contribution:      3.62505      -2.07056      11.38564
Nuclear contribution   :     -0.74583       2.62534      -9.91488
                        -----------------------------------------
Total Dipole Moment    :      2.87922       0.55479       1.47076
                        -----------------------------------------
Magnitude (a.u.)       :      3.28037
Magnitude (Debye)      :      8.33804

Rotational constants in cm-1:     0.027028     0.016098     0.010898
Rotational constants in MHz :   810.278072   482.590922   326.703462

                             ****ORCA TERMINATED NORMALLY****
TOTAL RUN TIME: 0 days 0 hours 1 minutes 12 seconds 230 msec
