                         Program Version 5.0.0 -  RELEASE  -
|  1> !LC-BLYP RIJCOSX def2-SVP def2/J TightSCF
|  2> *xyz 0 1
|  3> C         -0.72184       -0.99951       -3.43931
|  4> C          0.28725       -1.71177       -2.52740
|  5> H          1.13178       -2.06738       -3.15940
|  6> H         -0.20414       -2.63733       -2.17048
|  7> F          0.71050       -0.92751       -1.48177
|  8> H         -1.01315       -1.65739       -4.23129
|  9> H         -0.27123       -0.12142       -3.85259
| 10> H         -1.58442       -0.72333       -2.86958
| 11> *
| 12> %MaxCore 64000
| 13>
| 14> %pal nprocs 4
| 15> end
| 16>
| 17> %scf
| 18>   MaxIter 150
| 19> end
| 20>
| 21>
| 22>                          ****END OF INPUT****

CARTESIAN COORDINATES (ANGSTROEM)
---------------------------------
  C     -0.721840   -0.999510   -3.439310
  C      0.287250   -1.711770   -2.527400
  H      1.131780   -2.067380   -3.159400
  H     -0.204140   -2.637330   -2.170480
  F      0.710500   -0.927510   -1.481770
  H     -1.013150   -1.657390   -4.231290
  H     -0.271230   -0.121420   -3.852590
  H     -1.584420   -0.723330   -2.869580

 Total Charge           Charge          ....    0
 Multiplicity           Mult            ....    1
 Number of Electrons    NEL             ....   26
 Basis Dimension        Dim             ....   67

ORBITAL ENERGIES
----------------

  NO   OCC          E(Eh)            E(eV)
   0   2.0000     -24.434296      -664.8910
   1   2.0000     -10.156809      -276.3808
   2   2.0000     -10.078600      -274.2526
   3   2.0000      -1.241214       -33.7752
   4   2.0000      -0.862202       -23.4617
   5   2.0000      -0.725047       -19.7295
   6   2.0000      -0.598800       -16.2942
   7   2.0000      -0.592719       -16.1287
   8   2.0000      -0.548447       -14.9240
   9   2.0000      -0.496076       -13.4989
  10   2.0000      -0.495865       -13.4932
  11   2.0000      -0.423476       -11.5234
  12   2.0000      -0.416883       -11.3440
  13   0.0000       0.135831         3.6961
  14   0.0000       0.183108         4.9826
  15   0.0000       0.192202         5.2301
  16   0.0000       0.210818         5.7366
  17   0.0000       0.230124         6.2620

MULLIKEN ATOMIC CHARGES
-----------------------
   0 C :   -0.039518
   1 C :    0.181294
   2 H :    0.010154
   3 H :    0.007898
   4 F :   -0.228445
   5 H :    0.015824
   6 H :    0.026254
   7 H :    0.026538
Sum of atomic charges:    0.0000000

LOEWDIN ATOMIC CHARGES
----------------------
   0 C :   -0.087090
   1 C :    0.087198
   2 H :    0.014381
   3 H :    0.013364
   4 F :   -0.121395
   5 H :    0.034231
   6 H :    0.029484
   7 H :    0.029828

  Mayer bond orders larger than 0.100000
B(  0-C ,  1-C ) :   1.0998 B(  0-C ,  5-H ) :   0.9583 B(  0-C ,  6-H ) :   0.9693
B(  0-C ,  7-H ) :   0.9693 B(  1-C ,  2-H ) :   0.9569 B(  1-C ,  3-H ) :   0.9573
B(  1-C ,  4-F ) :   1.0556

FINAL SINGLE POINT ENERGY      -178.518449067923

DIPOLE MOMENT
-------------
                                X             Y             Z
Electronic contribution:      2.72625       1.07023       4.26920
Nuclear contribution   :     -2.97459      -1.40206      -4.79987
                        -----------------------------------------
Total Dipole Moment    :     -0.24834      -0.33183      -0.53067
                        -----------------------------------------
Magnitude (a.u.)       :      0.67334
Magnitude (Debye)      :      1.71150

Rotational constants in cm-1:     1.257024     0.302702     0.267953
Rotational constants in MHz : 37684.643733  9074.792567  8033.038070

                             ****ORCA TERMINATED NORMALLY****
TOTAL RUN TIME: 0 days 0 hours 0 minutes 8 seconds 734 msec
