                         Program Version 5.0.0 -  RELEASE  -
|  1> !LC-BLYP RIJCOSX def2-SVP def2/J TightSCF
|  2> *xyz 0 1
|  3> C          3.48828        1.60092       -1.52204
|  4> C          4.34297        1.31342       -2.75683
|  5> C          2.81029        0.42878       -1.01420
|  6> H          2.71455        2.33145       -1.76030
|  7> H          4.09099        2.06315       -0.73338
|  8> C          3.29098       -0.41802       -0.12908
|  9> N          2.51754       -1.43202        0.23936
| 10> N          4.53549       -0.28441        0.39580
| 11> H          5.04363        0.57189        0.22290
| 12> H          4.72335       -0.73327        1.28180
| 13> H          1.93479        0.10230       -1.40379
| 14> H          1.67464       -1.50562       -0.31610
| 15> H          2.92850       -2.21850        0.72549
| 16> H          3.73575        0.86277       -3.51385
| 17> H          5.13754        0.64699       -2.49333
| 18> H          4.75374        2.22930       -3.12740
| 19> *
| 20> %MaxCore 64000
| 21>
| 22> %pal nprocs 4
| 23> end
| 24>
| 25> %scf
| 26>   MaxIter 150
| 27> end
| 28>
| 29>
| 30>                          ****END OF INPUT****

CARTESIAN COORDINATES (ANGSTROEM)
---------------------------------
  C      3.488280    1.600920   -1.522040
  C      4.342970    1.313420   -2.756830
  C      2.810290    0.428780   -1.014200
  H      2.714550    2.331450   -1.760300
  H      4.090990    2.063150   -0.733380
  C      3.290980   -0.418020   -0.129080
  N      2.517540   -1.432020    0.239360
  N      4.535490   -0.284410    0.395800
  H      5.043630    0.571890    0.222900
  H      4.723350   -0.733270    1.281800
  H      1.934790    0.102300   -1.403790
  H      1.674640   -1.505620   -0.316100
  H      2.928500   -2.218500    0.725490
  H      3.735750    0.862770   -3.513850
  H      5.137540    0.646990   -2.493330
  H      4.753740    2.229300   -3.127400

 Total Charge           Charge          ....    0
 Multiplicity           Mult            ....    1
 Number of Electrons    NEL             ....   48
 Basis Dimension        Dim             ....  134

ORBITAL ENERGIES
----------------

  NO   OCC          E(Eh)            E(eV)
   0   2.0000     -14.177608      -385.7923
   1   2.0000     -14.173022      -385.6675
   2   2.0000     -10.118048      -275.3261
   3   2.0000     -10.055438      -273.6224
   4   2.0000     -10.046392      -273.3762
   5   2.0000      -9.998519      -272.0735
   6   2.0000      -1.042074       -28.3563
   7   2.0000      -0.952760       -25.9259
   8   2.0000      -0.869369       -23.6567
   9   2.0000      -0.788304       -21.4508
  10   2.0000      -0.708567       -19.2811
  11   2.0000      -0.675393       -18.3784
  12   2.0000      -0.633552       -17.2398
  13   2.0000      -0.604334       -16.4448
  14   2.0000      -0.557622       -15.1737
  15   2.0000      -0.534692       -14.5497
  16   2.0000      -0.515389       -14.0244
  17   2.0000      -0.495085       -13.4720
  18   2.0000      -0.474634       -12.9155
  19   2.0000      -0.447575       -12.1791
  20   2.0000      -0.423236       -11.5168
  21   2.0000      -0.409965       -11.1557
  22   2.0000      -0.353672        -9.6239
  23   2.0000      -0.243880        -6.6363
  24   0.0000       0.118764         3.2317
  25   0.0000       0.149421         4.0660
  26   0.0000       0.160380         4.3642
  27   0.0000       0.178959         4.8697
  28   0.0000       0.188817         5.1380

MULLIKEN ATOMIC CHARGES
-----------------------
   0 C :    0.056944
   1 C :    0.063739
   2 C :   -0.123407
   3 H :   -0.018323
   4 H :   -0.030989
   5 C :   -0.176950
   6 N :   -0.002359
   7 N :   -0.032423
   8 H :    0.106261
   9 H :    0.098176
  10 H :   -0.126185
  11 H :    0.112682
  12 H :    0.097706
  13 H :   -0.006193
  14 H :   -0.010069
  15 H :   -0.008610
Sum of atomic charges:    0.0000000

LOEWDIN ATOMIC CHARGES
----------------------
   0 C :   -0.047666
   1 C :   -0.066481
   2 C :   -0.219246
   3 H :    0.026570
   4 H :    0.011815
   5 C :    0.020532
   6 N :   -0.025372
   7 N :   -0.035794
   8 H :    0.075518
   9 H :    0.065274
  10 H :   -0.010021
  11 H :    0.083733
  12 H :    0.066789
  13 H :    0.021685
  14 H :    0.017333
  15 H :    0.015330

  Mayer bond orders larger than 0.100000
B(  0-C ,  1-C ) :   1.0981 B(  0-C ,  2-C ) :   1.0541 B(  0-C ,  3-H ) :   0.9113
B(  0-C ,  4-H ) :   0.9352 B(  1-C , 13-H ) :   0.9645 B(  1-C , 14-H ) :   0.9686
B(  1-C , 15-H ) :   0.9635 B(  2-C ,  5-C ) :   1.7231 B(  2-C , 10-H ) :   0.9157
B(  5-C ,  6-N ) :   1.2594 B(  5-C ,  7-N ) :   1.2523 B(  6-N , 11-H ) :   0.9327
B(  6-N , 12-H ) :   0.9447 B(  7-N ,  8-H ) :   0.9408 B(  7-N ,  9-H ) :   0.9460

FINAL SINGLE POINT ENERGY      -266.984206675357

DIPOLE MOMENT
-------------
                                X             Y             Z
Electronic contribution:     -1.22923      -3.04241       3.78646
Nuclear contribution   :      1.44676       2.38443      -3.07370
                        -----------------------------------------
Total Dipole Moment    :      0.21753      -0.65798       0.71276
                        -----------------------------------------
Magnitude (a.u.)       :      0.99413
Magnitude (Debye)      :      2.52687

Rotational constants in cm-1:     0.235977     0.073199     0.063283
Rotational constants in MHz :  7074.404583  2194.453291  1897.179599

                             ****ORCA TERMINATED NORMALLY****
TOTAL RUN TIME: 0 days 0 hours 0 minutes 18 seconds 830 msec
