                         Program Version 5.0.0 -  RELEASE  -
|  1> !LC-BLYP RIJCOSX def2-SVP def2/J TightSCF
|  2> *xyz 0 1
|  3> C          3.48828        1.60092       -1.52204
|  4> C          4.34297        1.31342       -2.75683
|  5> N          2.81029        0.42878       -1.01420
|  6> H          2.71455        2.33145       -1.76030
|  7> H          4.09099        2.06315       -0.73338
|  8> C          3.29098       -0.41802       -0.12908
|  9> C          2.51754       -1.43202        0.23936
| 10> N          4.53549       -0.28441        0.39580
| 11> H          5.04363        0.57189        0.22290
| 12> H          4.72335       -0.73327        1.28180
| 13> H          1.93479        0.10230       -1.40379
| 14> H          1.67464       -1.50562       -0.31610
| 15> H          2.92850       -2.21850        0.72549
| 16> H          3.73575        0.86277       -3.51385
| 17> H          5.13754        0.64699       -2.49333
| 18> H          4.75374        2.22930       -3.12740
| 19> *
| 20> %MaxCore 64000
| 21>
| 22> %pal nprocs 4
| 23> end
| 24>
| 25> %scf
| 26>   MaxIter 150
| 27> end
| 28>
| 29>
| 30>                          ****END OF INPUT****

CARTESIAN COORDINATES (ANGSTROEM)
---------------------------------
  C      3.488280    1.600920   -1.522040
  C      4.342970    1.313420   -2.756830
  N      2.810290    0.428780   -1.014200
  H      2.714550    2.331450   -1.760300
  H      4.090990    2.063150   -0.733380
  C      3.290980   -0.418020   -0.129080
  C      2.517540   -1.432020    0.239360
  N      4.535490   -0.284410    0.395800
  H      5.043630    0.571890    0.222900
  H      4.723350   -0.733270    1.281800
  H      1.934790    0.102300   -1.403790
  H      1.674640   -1.505620   -0.316100
  H      2.928500   -2.218500    0.725490
  H      3.735750    0.862770   -3.513850
  H      5.137540    0.646990   -2.493330
  H      4.753740    2.229300   -3.127400

 Total Charge           Charge          ....    0
 Multiplicity           Mult            ....    1
 Number of Electrons    NEL             ....   48
 Basis Dimension        Dim             ....  134

ORBITAL ENERGIES
----------------

  NO   OCC          E(Eh)            E(eV)
   0   2.0000     -14.179412      -385.8414
   1   2.0000     -14.178176      -385.8078
   2   2.0000     -10.124435      -275.4999
   3   2.0000     -10.122781      -275.4549
   4   2.0000     -10.074795      -274.1491
   5   2.0000      -9.987750      -271.7805
   6   2.0000      -1.055623       -28.7250
   7   2.0000      -0.968217       -26.3465
   8   2.0000      -0.873896       -23.7799
   9   2.0000      -0.796384       -21.6707
  10   2.0000      -0.726781       -19.7767
  11   2.0000      -0.695034       -18.9128
  12   2.0000      -0.634129       -17.2555
  13   2.0000      -0.598032       -16.2733
  14   2.0000      -0.573605       -15.6086
  15   2.0000      -0.538492       -14.6531
  16   2.0000      -0.531047       -14.4505
  17   2.0000      -0.500618       -13.6225
  18   2.0000      -0.469540       -12.7768
  19   2.0000      -0.466215       -12.6863
  20   2.0000      -0.460456       -12.5296
  21   2.0000      -0.451510       -12.2862
  22   2.0000      -0.346834        -9.4378
  23   2.0000      -0.245919        -6.6918
  24   0.0000       0.114735         3.1221
  25   0.0000       0.143846         3.9142
  26   0.0000       0.155839         4.2406
  27   0.0000       0.179776         4.8919
  28   0.0000       0.184592         5.0230

MULLIKEN ATOMIC CHARGES
-----------------------
   0 C :    0.025843
   1 C :    0.040358
   2 N :   -0.051210
   3 H :    0.011133
   4 H :    0.008628
   5 C :   -0.129917
   6 C :   -0.053280
   7 N :   -0.050586
   8 H :    0.090027
   9 H :    0.120970
  10 H :    0.117209
  11 H :   -0.088525
  12 H :   -0.070433
  13 H :    0.011078
  14 H :    0.011030
  15 H :    0.007676
Sum of atomic charges:    0.0000000

LOEWDIN ATOMIC CHARGES
----------------------
   0 C :    0.014586
   1 C :   -0.076750
   2 N :   -0.013598
   3 H :    0.027860
   4 H :    0.020690
   5 C :    0.036476
   6 C :   -0.267489
   7 N :   -0.031737
   8 H :    0.060832
   9 H :    0.084044
  10 H :    0.087060
  11 H :   -0.011282
  12 H :   -0.008181
  13 H :    0.026283
  14 H :    0.025160
  15 H :    0.026048

  Mayer bond orders larger than 0.100000
B(  0-C ,  1-C ) :   1.0924 B(  0-C ,  2-N ) :   1.0319 B(  0-C ,  3-H ) :   0.9505
B(  0-C ,  4-H ) :   0.9489 B(  1-C , 13-H ) :   0.9652 B(  1-C , 14-H ) :   0.9640
B(  1-C , 15-H ) :   0.9604 B(  2-N ,  5-C ) :   1.2275 B(  2-N , 10-H ) :   0.9189
B(  5-C ,  6-C ) :   1.7637 B(  5-C ,  7-N ) :   1.2282 B(  6-C , 11-H ) :   0.9121
B(  6-C , 12-H ) :   0.9407 B(  7-N ,  8-H ) :   0.9525 B(  7-N ,  9-H ) :   0.9475

FINAL SINGLE POINT ENERGY      -266.973732199249

DIPOLE MOMENT
-------------
                                X             Y             Z
Electronic contribution:     -0.83331      -1.02605       2.47845
Nuclear contribution   :      1.38466       1.98967      -2.80776
                        -----------------------------------------
Total Dipole Moment    :      0.55135       0.96362      -0.32932
                        -----------------------------------------
Magnitude (a.u.)       :      1.15801
Magnitude (Debye)      :      2.94344

Rotational constants in cm-1:     0.235618     0.075969     0.065309
Rotational constants in MHz :  7063.646698  2277.495424  1957.925383

                             ****ORCA TERMINATED NORMALLY****
TOTAL RUN TIME: 0 days 0 hours 0 minutes 18 seconds 946 msec
