                         Program Version 5.0.0 -  RELEASE  -
|  1> !LC-BLYP RIJCOSX def2-SVP def2/J TightSCF
|  2> *xyz 0 1
|  3> C          3.48828        1.60092       -1.52204
|  4> C          4.34297        1.31342       -2.75683
|  5> N          2.81029        0.42878       -1.01420
|  6> H          2.71455        2.33145       -1.76030
|  7> H          4.09099        2.06315       -0.73338
|  8> C          3.29098       -0.41802       -0.12908
|  9> N          2.51754       -1.43202        0.23936
| 10> C          4.53549       -0.28441        0.39580
| 11> H          5.04363        0.57189        0.22290
| 12> H          4.72335       -0.73327        1.28180
| 13> H          1.93479        0.10230       -1.40379
| 14> H          1.67464       -1.50562       -0.31610
| 15> H          2.92850       -2.21850        0.72549
| 16> H          3.73575        0.86277       -3.51385
| 17> H          5.13754        0.64699       -2.49333
| 18> H          4.75374        2.22930       -3.12740
| 19> *
| 20> %MaxCore 64000
| 21>
| 22> %pal nprocs 4
| 23> end
| 24>
| 25> %scf
| 26>   MaxIter 150
| 27> end
| 28>
| 29>
| 30>                          ****END OF INPUT****

CARTESIAN COORDINATES (ANGSTROEM)
---------------------------------
  C      3.488280    1.600920   -1.522040
  C      4.342970    1.313420   -2.756830
  N      2.810290    0.428780   -1.014200
  H      2.714550    2.331450   -1.760300
  H      4.090990    2.063150   -0.733380
  C      3.290980   -0.418020   -0.129080
  N      2.517540   -1.432020    0.239360
  C      4.535490   -0.284410    0.395800
  H      5.043630    0.571890    0.222900
  H      4.723350   -0.733270    1.281800
  H      1.934790    0.102300   -1.403790
  H      1.674640   -1.505620   -0.316100
  H      2.928500   -2.218500    0.725490
  H      3.735750    0.862770   -3.513850
  H      5.137540    0.646990   -2.493330
  H      4.753740    2.229300   -3.127400

 Total Charge           Charge          ....    0
 Multiplicity           Mult            ....    1
 Number of Electrons    NEL             ....   48
 Basis Dimension        Dim             ....  134

ORBITAL ENERGIES
----------------

  NO   OCC          E(Eh)            E(eV)
   0   2.0000     -14.185410      -386.0046
   1   2.0000     -14.180818      -385.8797
   2   2.0000     -10.125982      -275.5420
   3   2.0000     -10.115092      -275.2457
   4   2.0000     -10.065741      -273.9027
   5   2.0000      -9.986898      -271.7573
   6   2.0000      -1.064118       -28.9561
   7   2.0000      -0.974277       -26.5114
   8   2.0000      -0.852709       -23.2034
   9   2.0000      -0.798779       -21.7359
  10   2.0000      -0.742191       -20.1960
  11   2.0000      -0.658428       -17.9167
  12   2.0000      -0.640737       -17.4353
  13   2.0000      -0.623827       -16.9752
  14   2.0000      -0.565399       -15.3853
  15   2.0000      -0.539142       -14.6708
  16   2.0000      -0.526968       -14.3395
  17   2.0000      -0.488458       -13.2916
  18   2.0000      -0.472867       -12.8674
  19   2.0000      -0.462796       -12.5933
  20   2.0000      -0.452522       -12.3138
  21   2.0000      -0.439401       -11.9567
  22   2.0000      -0.341635        -9.2964
  23   2.0000      -0.247167        -6.7258
  24   0.0000       0.111013         3.0208
  25   0.0000       0.146557         3.9880
  26   0.0000       0.160473         4.3667
  27   0.0000       0.180051         4.8994
  28   0.0000       0.193660         5.2698

MULLIKEN ATOMIC CHARGES
-----------------------
   0 C :    0.052735
   1 C :    0.031709
   2 N :   -0.069792
   3 H :    0.002329
   4 H :    0.033369
   5 C :   -0.121323
   6 N :   -0.023585
   7 C :   -0.095156
   8 H :   -0.076056
   9 H :   -0.071406
  10 H :    0.089212
  11 H :    0.090085
  12 H :    0.125971
  13 H :   -0.002425
  14 H :    0.027020
  15 H :    0.007312
Sum of atomic charges:   -0.0000000

LOEWDIN ATOMIC CHARGES
----------------------
   0 C :    0.027007
   1 C :   -0.073847
   2 N :   -0.011857
   3 H :    0.023516
   4 H :    0.033998
   5 C :    0.033350
   6 N :   -0.016747
   7 C :   -0.290477
   8 H :   -0.011571
   9 H :   -0.009482
  10 H :    0.065246
  11 H :    0.063198
  12 H :    0.088001
  13 H :    0.020507
  14 H :    0.032456
  15 H :    0.026702

  Mayer bond orders larger than 0.100000
B(  0-C ,  1-C ) :   1.1089 B(  0-C ,  2-N ) :   1.0110 B(  0-C ,  3-H ) :   0.9538
B(  0-C ,  4-H ) :   0.9414 B(  1-C , 13-H ) :   0.9647 B(  1-C , 14-H ) :   0.9646
B(  1-C , 15-H ) :   0.9624 B(  2-N ,  5-C ) :   1.2162 B(  2-N , 10-H ) :   0.9308
B(  5-C ,  6-N ) :   1.2528 B(  5-C ,  7-C ) :   1.7461 B(  6-N , 11-H ) :   0.9497
B(  6-N , 12-H ) :   0.9437 B(  7-C ,  8-H ) :   0.9288 B(  7-C ,  9-H ) :   0.9358

FINAL SINGLE POINT ENERGY      -266.972993409777

DIPOLE MOMENT
-------------
                                X             Y             Z
Electronic contribution:     -2.92878      -2.38194       2.19223
Nuclear contribution   :      1.81275       2.23313      -2.77458
                        -----------------------------------------
Total Dipole Moment    :     -1.11603      -0.14881      -0.58234
                        -----------------------------------------
Magnitude (a.u.)       :      1.26759
Magnitude (Debye)      :      3.22196

Rotational constants in cm-1:     0.245202     0.073668     0.064348
Rotational constants in MHz :  7350.977980  2208.513334  1929.108541

                             ****ORCA TERMINATED NORMALLY****
TOTAL RUN TIME: 0 days 0 hours 0 minutes 18 seconds 639 msec
