                         Program Version 5.0.0 -  RELEASE  -
|  1> !LC-BLYP RIJCOSX def2-TZVP def2/J TightSCF xyzfile
|  2>
|  3> *xyzfile 0 1 D1.xyz
|  4>
|  5> %MaxCore 64000
|  6>
|  7> %pal nprocs 18
|  8> end
|  9>
| 10> %scf
| 11>   MaxIter 150
| 12> end
| 13>
| 14>
| 15>                          ****END OF INPUT****

CARTESIAN COORDINATES (ANGSTROEM)
---------------------------------
  C      3.488276    1.600919   -1.522040
  C      4.342970    1.313419   -2.756826
  C      2.810285    0.428783   -1.014196
  H      5.132033    0.604994   -2.484466
  C      3.535896    0.749253   -3.924604
  H      4.841247    2.242136   -3.054083
  H      2.991617   -0.132199   -3.574137
  H      4.225505    0.392784   -4.695962
  C      2.564776    1.750890   -4.544523
  H      1.918749    2.171679   -3.769419
  C      1.686235    1.161657   -5.650111
  H      3.132494    2.594775   -4.951604
  C      0.839616   -0.037582   -5.220473
  H      2.323886    0.866395   -6.490796
  H      1.029518    1.951850   -6.029329
  C     -0.151019    0.254955   -4.094256
  H      1.499442   -0.857141   -4.922958
  H      0.290097   -0.410143   -6.091131
  H      0.328265    0.833022   -3.299125
  C     -0.721843   -0.999513   -3.439309
  H     -0.957367    0.884951   -4.485450
  H     -1.083403   -1.697555   -4.205656
  H     -1.581056   -0.723848   -2.820490
  C      0.287250   -1.711771   -2.527405
  H      1.131780   -2.067380   -3.159396
  H     -0.204137   -2.637326   -2.170480
  F      0.710505   -0.927506   -1.481767
  H      2.714548    2.331455   -1.760302
  H      4.090991    2.063151   -0.733382
  C      3.290978   -0.418021   -0.129083
  N      2.517536   -1.432017    0.239360
  N      4.535490   -0.284410    0.395800
  H      5.043627    0.571888    0.222899
  H      4.723346   -0.733273    1.281800
  H      1.934787    0.102305   -1.403788
  H      1.674638   -1.505616   -0.316095
  H      2.928503   -2.218502    0.725494

 Total Charge           Charge          ....    0
 Multiplicity           Mult            ....    1
 Number of Electrons    NEL             ....  112
 Basis Dimension        Dim             ....  572

ORBITAL ENERGIES
----------------

  NO   OCC          E(Eh)            E(eV)
   0   2.0000     -24.469035      -665.8363
   1   2.0000     -14.153098      -385.1254
   2   2.0000     -14.136306      -384.6684
   3   2.0000     -10.158051      -276.4146
   4   2.0000     -10.091182      -274.5950
   5   2.0000     -10.080018      -274.2912
   6   2.0000     -10.064372      -273.8655
   7   2.0000     -10.060322      -273.7553
   8   2.0000     -10.055758      -273.6311
   9   2.0000     -10.047702      -273.4119
  10   2.0000     -10.042013      -273.2571
  11   2.0000     -10.036872      -273.1172
  12   2.0000     -10.029957      -272.9290
  13   2.0000      -9.962655      -271.0976
  14   2.0000      -1.315151       -35.7871
  15   2.0000      -1.041524       -28.3413
  16   2.0000      -0.953855       -25.9557
  17   2.0000      -0.930031       -25.3074
  18   2.0000      -0.904529       -24.6135
  19   2.0000      -0.874441       -23.7947
  20   2.0000      -0.839552       -22.8454
  21   2.0000      -0.800513       -21.7831
  22   2.0000      -0.775173       -21.0935
  23   2.0000      -0.741369       -20.1737
  24   2.0000      -0.711843       -19.3702
  25   2.0000      -0.696503       -18.9528
  26   2.0000      -0.672376       -18.2963
  27   2.0000      -0.655088       -17.8259
  28   2.0000      -0.641576       -17.4582
  29   2.0000      -0.626024       -17.0350
  30   2.0000      -0.617062       -16.7911
  31   2.0000      -0.601113       -16.3571
  32   2.0000      -0.591495       -16.0954
  33   2.0000      -0.570336       -15.5196
  34   2.0000      -0.560350       -15.2479
  35   2.0000      -0.547207       -14.8903
  36   2.0000      -0.539597       -14.6832
  37   2.0000      -0.526621       -14.3301
  38   2.0000      -0.516245       -14.0477
  39   2.0000      -0.503964       -13.7136
  40   2.0000      -0.496874       -13.5206
  41   2.0000      -0.481208       -13.0943
  42   2.0000      -0.472587       -12.8597
  43   2.0000      -0.465659       -12.6712
  44   2.0000      -0.460182       -12.5222
  45   2.0000      -0.457238       -12.4421
  46   2.0000      -0.435481       -11.8500
  47   2.0000      -0.427536       -11.6338
  48   2.0000      -0.417640       -11.3646
  49   2.0000      -0.414575       -11.2812
  50   2.0000      -0.411405       -11.1949
  51   2.0000      -0.395768       -10.7694
  52   2.0000      -0.389023       -10.5859
  53   2.0000      -0.382739       -10.4149
  54   2.0000      -0.347372        -9.4525
  55   2.0000      -0.237260        -6.4562
  56   0.0000       0.092716         2.5229
  57   0.0000       0.101418         2.7597
  58   0.0000       0.109190         2.9712
  59   0.0000       0.115504         3.1430
  60   0.0000       0.126804         3.4505

MULLIKEN ATOMIC CHARGES
-----------------------
   0 C :   -0.438463
   1 C :   -0.142265
   2 C :   -0.382967
   3 H :    0.114146
   4 C :   -0.246699
   5 H :    0.103528
   6 H :    0.129109
   7 H :    0.119811
   8 C :   -0.297915
   9 H :    0.139017
  10 C :   -0.207155
  11 H :    0.124506
  12 C :   -0.310596
  13 H :    0.126659
  14 H :    0.125072
  15 C :   -0.254807
  16 H :    0.134685
  17 H :    0.130458
  18 H :    0.149531
  19 C :   -0.237204
  20 H :    0.132573
  21 H :    0.134153
  22 H :    0.140798
  23 C :   -0.080444
  24 H :    0.135004
  25 H :    0.144375
  26 F :   -0.214928
  27 H :    0.137196
  28 H :    0.109643
  29 C :    0.304715
  30 N :   -0.440543
  31 N :   -0.452637
  32 H :    0.228173
  33 H :    0.209039
  34 H :    0.195493
  35 H :    0.235536
  36 H :    0.203405
Sum of atomic charges:   -0.0000000

LOEWDIN ATOMIC CHARGES
----------------------
   0 C :   -0.297165
   1 C :   -0.272436
   2 C :   -0.291234
   3 H :    0.138110
   4 C :   -0.275485
   5 H :    0.132788
   6 H :    0.138696
   7 H :    0.137509
   8 C :   -0.278217
   9 H :    0.136761
  10 C :   -0.278044
  11 H :    0.140335
  12 C :   -0.280698
  13 H :    0.140557
  14 H :    0.139994
  15 C :   -0.276504
  16 H :    0.135636
  17 H :    0.139389
  18 H :    0.146795
  19 C :   -0.282675
  20 H :    0.142225
  21 H :    0.149250
  22 H :    0.145143
  23 C :   -0.360640
  24 H :    0.130459
  25 H :    0.131215
  26 F :    0.159375
  27 H :    0.142202
  28 H :    0.132850
  29 C :   -0.459841
  30 N :   -0.030101
  31 N :   -0.036732
  32 H :    0.168736
  33 H :    0.158533
  34 H :    0.118034
  35 H :    0.158174
  36 H :    0.157005

  Mayer bond orders larger than 0.100000
B(  0-C ,  1-C ) :   0.8816 B(  0-C ,  2-C ) :   0.9002 B(  0-C , 27-H ) :   1.0351
B(  0-C , 28-H ) :   1.0140 B(  1-C ,  3-H ) :   0.9798 B(  1-C ,  4-C ) :   0.9582
B(  1-C ,  5-H ) :   0.9919 B(  2-C , 29-C ) :   1.6071 B(  2-C , 34-H ) :   0.9686
B(  4-C ,  6-H ) :   0.9794 B(  4-C ,  7-H ) :   0.9846 B(  4-C ,  8-C ) :   0.8833
B(  8-C ,  9-H ) :   0.9953 B(  8-C , 10-C ) :   0.9283 B(  8-C , 11-H ) :   0.9806
B( 10-C , 12-C ) :   0.9316 B( 10-C , 13-H ) :   0.9864 B( 10-C , 14-H ) :   0.9921
B( 12-C , 15-C ) :   0.8801 B( 12-C , 16-H ) :   0.9950 B( 12-C , 17-H ) :   0.9795
B( 15-C , 18-H ) :   0.9878 B( 15-C , 19-C ) :   0.9348 B( 15-C , 20-H ) :   0.9750
B( 19-C , 21-H ) :   0.9656 B( 19-C , 22-H ) :   0.9792 B( 19-C , 23-C ) :   0.9558
B( 23-C , 24-H ) :   0.9773 B( 23-C , 25-H ) :   0.9695 B( 23-C , 26-F ) :   0.9033
B( 29-C , 30-N ) :   1.1930 B( 29-C , 31-N ) :   1.1308 B( 30-N , 35-H ) :   0.8975
B( 30-N , 36-H ) :   0.9344 B( 31-N , 32-H ) :   0.9292 B( 31-N , 33-H ) :   0.9318

FINAL SINGLE POINT ENERGY      -640.887403014987

DIPOLE MOMENT
-------------
                                X             Y             Z
Electronic contribution:     -1.56903      -4.89652      10.74111
Nuclear contribution   :      1.15699       3.94991     -10.89335
                        -----------------------------------------
Total Dipole Moment    :     -0.41204      -0.94660      -0.15224
                        -----------------------------------------
Magnitude (a.u.)       :      1.04356
Magnitude (Debye)      :      2.65252

Rotational constants in cm-1:     0.026548     0.016177     0.010851
Rotational constants in MHz :   795.884848   484.988695   325.313537

                             ****ORCA TERMINATED NORMALLY****
TOTAL RUN TIME: 0 days 0 hours 1 minutes 27 seconds 795 msec
