                         Program Version 5.0.0 -  RELEASE  -
|  1> !LC-BLYP RIJCOSX def2-TZVP def2/J TightSCF xyzfile
|  2>
|  3> *xyzfile 0 1 D2.xyz
|  4>
|  5> %MaxCore 64000
|  6>
|  7> %pal nprocs 18
|  8> end
|  9>
| 10> %scf
| 11>   MaxIter 150
| 12> end
| 13>
| 14>
| 15>                          ****END OF INPUT****

CARTESIAN COORDINATES (ANGSTROEM)
---------------------------------
  C      3.488276    1.600919   -1.522040
  C      4.342970    1.313419   -2.756826
  N      2.810285    0.428783   -1.014196
  H      5.132033    0.604994   -2.484466
  C      3.535896    0.749253   -3.924604
  H      4.841247    2.242136   -3.054083
  H      2.991617   -0.132199   -3.574137
  H      4.225505    0.392784   -4.695962
  C      2.564776    1.750890   -4.544523
  H      1.918749    2.171679   -3.769419
  C      1.686235    1.161657   -5.650111
  H      3.132494    2.594775   -4.951604
  C      0.839616   -0.037582   -5.220473
  H      2.323886    0.866395   -6.490796
  H      1.029518    1.951850   -6.029329
  C     -0.151019    0.254955   -4.094256
  H      1.499442   -0.857141   -4.922958
  H      0.290097   -0.410143   -6.091131
  H      0.328265    0.833022   -3.299125
  C     -0.721843   -0.999513   -3.439309
  H     -0.957367    0.884951   -4.485450
  H     -1.083403   -1.697555   -4.205656
  H     -1.581056   -0.723848   -2.820490
  C      0.287250   -1.711771   -2.527405
  H      1.131780   -2.067380   -3.159396
  H     -0.204137   -2.637326   -2.170480
  F      0.710505   -0.927506   -1.481767
  H      2.714548    2.331455   -1.760302
  H      4.090991    2.063151   -0.733382
  C      3.290978   -0.418021   -0.129083
  C      2.517536   -1.432017    0.239360
  N      4.535490   -0.284410    0.395800
  H      5.043627    0.571888    0.222899
  H      4.723346   -0.733273    1.281800
  H      1.934787    0.102305   -1.403788
  H      1.674638   -1.505616   -0.316095
  H      2.928503   -2.218502    0.725494

 Total Charge           Charge          ....    0
 Multiplicity           Mult            ....    1
 Number of Electrons    NEL             ....  112
 Basis Dimension        Dim             ....  572

ORBITAL ENERGIES
----------------

  NO   OCC          E(Eh)            E(eV)
   0   2.0000     -24.467114      -665.7840
   1   2.0000     -14.152082      -385.0977
   2   2.0000     -14.142782      -384.8447
   3   2.0000     -10.157039      -276.3871
   4   2.0000     -10.094731      -274.6916
   5   2.0000     -10.094678      -274.6901
   6   2.0000     -10.082097      -274.3478
   7   2.0000     -10.071701      -274.0649
   8   2.0000     -10.068106      -273.9671
   9   2.0000     -10.066107      -273.9127
  10   2.0000     -10.062787      -273.8224
  11   2.0000     -10.060625      -273.7635
  12   2.0000     -10.059970      -273.7457
  13   2.0000      -9.947940      -270.6972
  14   2.0000      -1.313212       -35.7343
  15   2.0000      -1.052673       -28.6447
  16   2.0000      -0.969316       -26.3764
  17   2.0000      -0.938185       -25.5293
  18   2.0000      -0.909656       -24.7530
  19   2.0000      -0.882878       -24.0243
  20   2.0000      -0.836320       -22.7574
  21   2.0000      -0.813064       -22.1246
  22   2.0000      -0.777892       -21.1675
  23   2.0000      -0.752171       -20.4676
  24   2.0000      -0.719754       -19.5855
  25   2.0000      -0.705556       -19.1992
  26   2.0000      -0.684072       -18.6145
  27   2.0000      -0.667361       -18.1598
  28   2.0000      -0.642557       -17.4849
  29   2.0000      -0.628394       -17.0995
  30   2.0000      -0.616107       -16.7651
  31   2.0000      -0.602996       -16.4084
  32   2.0000      -0.590888       -16.0789
  33   2.0000      -0.579502       -15.7690
  34   2.0000      -0.571456       -15.5501
  35   2.0000      -0.557287       -15.1646
  36   2.0000      -0.541848       -14.7444
  37   2.0000      -0.535046       -14.5593
  38   2.0000      -0.530818       -14.4443
  39   2.0000      -0.515972       -14.0403
  40   2.0000      -0.498605       -13.5677
  41   2.0000      -0.482211       -13.1216
  42   2.0000      -0.475114       -12.9285
  43   2.0000      -0.470934       -12.8148
  44   2.0000      -0.467607       -12.7242
  45   2.0000      -0.458915       -12.4877
  46   2.0000      -0.444745       -12.1021
  47   2.0000      -0.440329       -11.9820
  48   2.0000      -0.435731       -11.8568
  49   2.0000      -0.425127       -11.5683
  50   2.0000      -0.416214       -11.3257
  51   2.0000      -0.413296       -11.2464
  52   2.0000      -0.409318       -11.1381
  53   2.0000      -0.405700       -11.0397
  54   2.0000      -0.338781        -9.2187
  55   2.0000      -0.235896        -6.4191
  56   0.0000       0.091888         2.5004
  57   0.0000       0.098171         2.6714
  58   0.0000       0.104649         2.8477
  59   0.0000       0.109709         2.9853
  60   0.0000       0.122490         3.3331

MULLIKEN ATOMIC CHARGES
-----------------------
   0 C :   -0.363406
   1 C :   -0.127444
   2 N :   -0.235800
   3 H :    0.129709
   4 C :   -0.290721
   5 H :    0.113924
   6 H :    0.135662
   7 H :    0.131542
   8 C :   -0.291803
   9 H :    0.133966
  10 C :   -0.209906
  11 H :    0.129708
  12 C :   -0.315513
  13 H :    0.131356
  14 H :    0.129581
  15 C :   -0.257212
  16 H :    0.139345
  17 H :    0.135527
  18 H :    0.135698
  19 C :   -0.239758
  20 H :    0.135992
  21 H :    0.135097
  22 H :    0.143831
  23 C :   -0.064072
  24 H :    0.132281
  25 H :    0.150997
  26 F :   -0.216820
  27 H :    0.165566
  28 H :    0.142038
  29 C :    0.320665
  30 C :   -0.570884
  31 N :   -0.461882
  32 H :    0.210695
  33 H :    0.236548
  34 H :    0.240541
  35 H :    0.092498
  36 H :    0.092454
Sum of atomic charges:   -0.0000000

LOEWDIN ATOMIC CHARGES
----------------------
   0 C :   -0.310924
   1 C :   -0.280785
   2 N :    0.127078
   3 H :    0.141681
   4 C :   -0.277889
   5 H :    0.139290
   6 H :    0.138693
   7 H :    0.142049
   8 C :   -0.279975
   9 H :    0.134905
  10 C :   -0.276809
  11 H :    0.141646
  12 C :   -0.280244
  13 H :    0.141941
  14 H :    0.141446
  15 C :   -0.278173
  16 H :    0.136242
  17 H :    0.141255
  18 H :    0.141165
  19 C :   -0.283342
  20 H :    0.143086
  21 H :    0.149559
  22 H :    0.145825
  23 C :   -0.354668
  24 H :    0.130028
  25 H :    0.135577
  26 F :    0.159067
  27 H :    0.135854
  28 H :    0.132482
  29 C :   -0.461962
  30 C :   -0.372381
  31 N :   -0.032652
  32 H :    0.155583
  33 H :    0.174521
  34 H :    0.172536
  35 H :    0.093931
  36 H :    0.094365

  Mayer bond orders larger than 0.100000
B(  0-C ,  1-C ) :   0.8578 B(  0-C ,  2-N ) :   0.9195 B(  0-C , 27-H ) :   1.0032
B(  0-C , 28-H ) :   1.0027 B(  1-C ,  3-H ) :   0.9762 B(  1-C ,  4-C ) :   0.9369
B(  1-C ,  5-H ) :   0.9812 B(  2-N , 29-C ) :   1.2027 B(  2-N , 34-H ) :   0.8888
B(  4-C ,  6-H ) :   0.9834 B(  4-C ,  7-H ) :   0.9810 B(  4-C ,  8-C ) :   0.8778
B(  8-C ,  9-H ) :   0.9941 B(  8-C , 10-C ) :   0.9305 B(  8-C , 11-H ) :   0.9800
B( 10-C , 12-C ) :   0.9266 B( 10-C , 13-H ) :   0.9867 B( 10-C , 14-H ) :   0.9920
B( 12-C , 15-C ) :   0.8751 B( 12-C , 16-H ) :   0.9965 B( 12-C , 17-H ) :   0.9791
B( 15-C , 18-H ) :   0.9932 B( 15-C , 19-C ) :   0.9309 B( 15-C , 20-H ) :   0.9743
B( 19-C , 21-H ) :   0.9653 B( 19-C , 22-H ) :   0.9800 B( 19-C , 23-C ) :   0.9501
B( 23-C , 24-H ) :   0.9757 B( 23-C , 25-H ) :   0.9748 B( 23-C , 26-F ) :   0.8906
B( 29-C , 30-C ) :   1.6346 B( 29-C , 31-N ) :   1.1068 B( 30-C , 35-H ) :   1.0277
B( 30-C , 36-H ) :   0.9983 B( 31-N , 32-H ) :   0.9336 B( 31-N , 33-H ) :   0.9301

FINAL SINGLE POINT ENERGY      -640.875846437866

DIPOLE MOMENT
-------------
                                X             Y             Z
Electronic contribution:     -1.25612      -3.12574       9.43693
Nuclear contribution   :      1.09892       3.58083     -10.64472
                        -----------------------------------------
Total Dipole Moment    :     -0.15720       0.45509      -1.20778
                        -----------------------------------------
Magnitude (a.u.)       :      1.30022
Magnitude (Debye)      :      3.30489

Rotational constants in cm-1:     0.026768     0.016312     0.010954
Rotational constants in MHz :   802.489946   489.033275   328.388904

                             ****ORCA TERMINATED NORMALLY****
TOTAL RUN TIME: 0 days 0 hours 1 minutes 29 seconds 725 msec
