                         Program Version 5.0.0 -  RELEASE  -
|  1> !TPSS D3BJ RIJCOSX def2-TZVPD def2/J TightSCF
|  2> *xyz -1 1
|  3> C         -0.90349       -0.87394       -1.98739
|  4> C         -0.96015       -0.52236       -0.48987
|  5> H         -1.69039       -1.20813       -0.02168
|  6> H         -1.41449        0.48633       -0.40668
|  7> O          0.26170       -0.58031        0.13861
|  8> H         -1.88568       -0.80774       -2.40670
|  9> H         -0.53143       -1.87013       -2.10605
| 10> H         -0.25399       -0.18836       -2.49039
| 11> *
| 12>
| 13> %MaxCore 64000
| 14>
| 15> %pal nprocs 4
| 16> end
| 17>
| 18> %scf
| 19>   MaxIter 150
| 20> end
| 21>
| 22>
| 23>                          ****END OF INPUT****

CARTESIAN COORDINATES (ANGSTROEM)
---------------------------------
  C     -0.903490   -0.873940   -1.987390
  C     -0.960150   -0.522360   -0.489870
  H     -1.690390   -1.208130   -0.021680
  H     -1.414490    0.486330   -0.406680
  O      0.261700   -0.580310    0.138610
  H     -1.885680   -0.807740   -2.406700
  H     -0.531430   -1.870130   -2.106050
  H     -0.253990   -0.188360   -2.490390

 Total Charge           Charge          ....   -1
 Multiplicity           Mult            ....    1
 Number of Electrons    NEL             ....   26
 Basis Dimension        Dim             ....  159

ORBITAL ENERGIES
----------------

  NO   OCC          E(Eh)            E(eV)
   0   2.0000     -18.560826      -505.0657
   1   2.0000      -9.800898      -266.6960
   2   2.0000      -9.778047      -266.0742
   3   2.0000      -0.618825       -16.8391
   4   2.0000      -0.474932       -12.9236
   5   2.0000      -0.328840        -8.9482
   6   2.0000      -0.211570        -5.7571
   7   2.0000      -0.190134        -5.1738
   8   2.0000      -0.135896        -3.6979
   9   2.0000      -0.123572        -3.3626
  10   2.0000      -0.074905        -2.0383
  11   2.0000       0.062551         1.7021
  12   2.0000       0.066116         1.7991
  13   0.0000       0.145978         3.9723
  14   0.0000       0.168923         4.5966
  15   0.0000       0.194033         5.2799
  16   0.0000       0.197519         5.3748
  17   0.0000       0.218040         5.9332

MULLIKEN ATOMIC CHARGES
-----------------------
   0 C :   -1.055953
   1 C :   -0.052719
   2 H :    0.142824
   3 H :    0.142496
   4 O :   -1.017081
   5 H :    0.344295
   6 H :    0.248248
   7 H :    0.247889
Sum of atomic charges:   -1.0000000

LOEWDIN ATOMIC CHARGES
----------------------
   0 C :   -0.172545
   1 C :   -0.605469
   2 H :    0.046090
   3 H :    0.047261
   4 O :   -0.401939
   5 H :    0.018959
   6 H :    0.033849
   7 H :    0.033793

  Mayer bond orders larger than 0.100000
B(  0-C ,  1-C ) :   0.9257 B(  0-C ,  4-O ) :   0.6489 B(  0-C ,  5-H ) :   0.9240
B(  0-C ,  6-H ) :   0.9757 B(  0-C ,  7-H ) :   0.9763 B(  1-C ,  2-H ) :   1.0471
B(  1-C ,  3-H ) :   1.0455 B(  1-C ,  4-O ) :   0.6459 B(  4-O ,  5-H ) :  -0.1013

Dispersion correction           -0.004550408
FINAL SINGLE POINT ENERGY      -154.514899322358

DIPOLE MOMENT
-------------
                                X             Y             Z
Electronic contribution:      1.99802       0.19192       2.30243
Nuclear contribution   :     -2.90669      -0.27617      -3.31210
                        -----------------------------------------
Total Dipole Moment    :     -0.90868      -0.08424      -1.00968
                        -----------------------------------------
Magnitude (a.u.)       :      1.36097
Magnitude (Debye)      :      3.45930

Rotational constants in cm-1:     1.291883     0.321656     0.284469
Rotational constants in MHz : 38729.676116  9643.011620  8528.167295

                             ****ORCA TERMINATED NORMALLY****
TOTAL RUN TIME: 0 days 0 hours 0 minutes 12 seconds 124 msec
