                         Program Version 5.0.0 -  RELEASE  -
|  1> !TPSS D3BJ RIJCOSX def2-TZVPD def2/J TightSCF
|  2> *xyz 1 1
|  3> C          4.36645       -0.13321       -1.41606
|  4> C          4.50829       -0.93187       -2.72425
|  5> C          3.05650       -0.32080       -0.70738
|  6> N          2.38983        0.71129       -0.24391
|  7> N          2.51600       -1.50772       -0.55023
|  8> H          2.96768       -2.32291       -0.95631
|  9> H          1.54987       -1.49063       -0.24988
| 10> H          2.74307        1.64947       -0.41280
| 11> H          1.44036        0.50278        0.03703
| 12> H          4.48784        0.93300       -1.61157
| 13> H          5.16967       -0.41443       -0.72982
| 14> H          5.46700       -0.73824       -3.15818
| 15> H          3.74074       -0.63528       -3.40821
| 16> H          4.41574       -1.97727       -2.51573
| 17> *
| 18>
| 19> %MaxCore 64000
| 20>
| 21> %pal nprocs 4
| 22> end
| 23>
| 24> %scf
| 25>   MaxIter 150
| 26> end
| 27>
| 28>
| 29>                          ****END OF INPUT****

CARTESIAN COORDINATES (ANGSTROEM)
---------------------------------
  C      4.366450   -0.133210   -1.416060
  C      4.508290   -0.931870   -2.724250
  C      3.056500   -0.320800   -0.707380
  N      2.389830    0.711290   -0.243910
  N      2.516000   -1.507720   -0.550230
  H      2.967680   -2.322910   -0.956310
  H      1.549870   -1.490630   -0.249880
  H      2.743070    1.649470   -0.412800
  H      1.440360    0.502780    0.037030
  H      4.487840    0.933000   -1.611570
  H      5.169670   -0.414430   -0.729820
  H      5.467000   -0.738240   -3.158180
  H      3.740740   -0.635280   -3.408210
  H      4.415740   -1.977270   -2.515730

 Total Charge           Charge          ....    1
 Multiplicity           Mult            ....    1
 Number of Electrons    NEL             ....   40
 Basis Dimension        Dim             ....  266

ORBITAL ENERGIES
----------------

  NO   OCC          E(Eh)            E(eV)
   0   2.0000     -14.347591      -390.4178
   1   2.0000     -14.346202      -390.3800
   2   2.0000     -10.295904      -280.1658
   3   2.0000     -10.187152      -277.2065
   4   2.0000     -10.145311      -276.0679
   5   2.0000      -1.146351       -31.1938
   6   2.0000      -1.047687       -28.5090
   7   2.0000      -0.914368       -24.8812
   8   2.0000      -0.810352       -22.0508
   9   2.0000      -0.770444       -20.9648
  10   2.0000      -0.723368       -19.6839
  11   2.0000      -0.710546       -19.3350
  12   2.0000      -0.660760       -17.9802
  13   2.0000      -0.616840       -16.7851
  14   2.0000      -0.587784       -15.9944
  15   2.0000      -0.561126       -15.2690
  16   2.0000      -0.517060       -14.0699
  17   2.0000      -0.505413       -13.7530
  18   2.0000      -0.492866       -13.4116
  19   2.0000      -0.456488       -12.4217
  20   0.0000      -0.241364        -6.5678
  21   0.0000      -0.184539        -5.0216
  22   0.0000      -0.141100        -3.8395
  23   0.0000      -0.137738        -3.7480
  24   0.0000      -0.108274        -2.9463

MULLIKEN ATOMIC CHARGES
-----------------------
   0 C :   -0.194842
   1 C :   -1.007750
   2 C :    0.793283
   3 N :   -0.308339
   4 N :   -0.319494
   5 H :    0.198750
   6 H :    0.174058
   7 H :    0.223767
   8 H :    0.169681
   9 H :    0.218781
  10 H :    0.204648
  11 H :    0.193501
  12 H :    0.294678
  13 H :    0.359278
Sum of atomic charges:    1.0000000

LOEWDIN ATOMIC CHARGES
----------------------
   0 C :   -0.131039
   1 C :   -0.048223
   2 C :   -0.361851
   3 N :    0.228820
   4 N :    0.232942
   5 H :    0.146188
   6 H :    0.144639
   7 H :    0.153168
   8 H :    0.143215
   9 H :    0.120723
  10 H :    0.137745
  11 H :    0.085210
  12 H :    0.082955
  13 H :    0.065509

  Mayer bond orders larger than 0.100000
B(  0-C ,  1-C ) :   0.9068 B(  0-C ,  2-C ) :   0.9669 B(  0-C ,  9-H ) :   0.8849
B(  0-C , 10-H ) :   0.8995 B(  1-C , 11-H ) :   1.0177 B(  1-C , 12-H ) :   0.9253
B(  1-C , 13-H ) :   0.8619 B(  2-C ,  3-N ) :   1.1812 B(  2-C ,  4-N ) :   1.1497
B(  3-N ,  4-N ) :   0.1372 B(  3-N ,  7-H ) :   0.9538 B(  3-N ,  8-H ) :   1.0232
B(  4-N ,  5-H ) :   0.9581 B(  4-N ,  6-H ) :   1.0207

Dispersion correction           -0.012436551
FINAL SINGLE POINT ENERGY      -229.157774421150

DIPOLE MOMENT
-------------
                                X             Y             Z
Electronic contribution:     -2.66319       0.62117       3.11096
Nuclear contribution   :      1.78847      -0.48174      -2.67127
                        -----------------------------------------
Total Dipole Moment    :     -0.87472       0.13943       0.43969
                        -----------------------------------------
Magnitude (a.u.)       :      0.98889
Magnitude (Debye)      :      2.51355

Rotational constants in cm-1:     0.286883     0.123210     0.094446
Rotational constants in MHz :  8600.540572  3693.747366  2831.415242

                             ****ORCA TERMINATED NORMALLY****
TOTAL RUN TIME: 0 days 0 hours 0 minutes 22 seconds 564 msec
