                         Program Version 5.0.0 -  RELEASE  -
|  1> !TPSS D3BJ RIJCOSX def2-TZVPD def2/J TightSCF xyzfile
|  2>
|  3> *xyzfile 0 1 B.xyz
|  4>
|  5> %MaxCore 64000
|  6>
|  7> %pal nprocs 4
|  8> end
|  9>
| 10> %scf
| 11>   MaxIter 150
| 12> end
| 13>
| 14>
| 15>                          ****END OF INPUT****

CARTESIAN COORDINATES (ANGSTROEM)
---------------------------------
  C      4.366454   -0.133215   -1.416062
  C      4.508292   -0.931872   -2.724249
  H      4.753716   -1.972051   -2.488408
  C      3.294164   -0.918214   -3.656570
  H      5.385637   -0.536236   -3.242640
  H      2.483463   -1.477378   -3.185764
  H      3.553092   -1.478495   -4.560331
  C      2.772335    0.460100   -4.051448
  H      2.608762    1.065107   -3.155194
  C      1.465354    0.410537   -4.853644
  H      3.532940    0.988848   -4.635671
  C      0.326171   -0.375613   -4.192580
  H      1.666704   -0.022269   -5.839323
  H      1.138198    1.439246   -5.035449
  C     -0.017405    0.080588   -2.778406
  H      0.585573   -1.439385   -4.168057
  H     -0.560005   -0.311425   -4.831461
  H      0.902090    0.201296   -2.206729
  C     -0.903495   -0.873945   -1.987388
  H     -0.479549    1.074657   -2.811915
  H     -0.502554   -1.892096   -2.081204
  H     -1.917039   -0.895427   -2.406277
  C     -0.960148   -0.522365   -0.489867
  H     -1.690392   -1.208130   -0.021677
  H     -1.414490    0.486329   -0.406677
  O      0.261703   -0.580307    0.138611
  C      3.056503   -0.320797   -0.707384
  N      2.389825    0.711285   -0.243909
  N      2.515999   -1.507721   -0.550229
  H      2.967683   -2.322915   -0.956305
  H      1.549872   -1.490634   -0.249876
  H      2.743071    1.649471   -0.412802
  H      1.440364    0.502778    0.037031
  H      4.487835    0.932997   -1.611569
  H      5.169672   -0.414432   -0.729817

 Total Charge           Charge          ....    0
 Multiplicity           Mult            ....    1
 Number of Electrons    NEL             ....  104
 Basis Dimension        Dim             ....  682

ORBITAL ENERGIES
----------------

  NO   OCC          E(Eh)            E(eV)
   0   2.0000     -18.763919      -510.5922
   1   2.0000     -14.128938      -384.4680
   2   2.0000     -14.128615      -384.4592
   3   2.0000     -10.096391      -274.7368
   4   2.0000     -10.028431      -272.8875
   5   2.0000     -10.013716      -272.4871
   6   2.0000      -9.993599      -271.9397
   7   2.0000      -9.987436      -271.7719
   8   2.0000      -9.979106      -271.5453
   9   2.0000      -9.969017      -271.2707
  10   2.0000      -9.968974      -271.2696
  11   2.0000      -9.956119      -270.9198
  12   2.0000      -9.943805      -270.5847
  13   2.0000      -0.940595       -25.5949
  14   2.0000      -0.840711       -22.8769
  15   2.0000      -0.827742       -22.5240
  16   2.0000      -0.774754       -21.0821
  17   2.0000      -0.740392       -20.1471
  18   2.0000      -0.703039       -19.1307
  19   2.0000      -0.665591       -18.1116
  20   2.0000      -0.629460       -17.1285
  21   2.0000      -0.590280       -16.0623
  22   2.0000      -0.573549       -15.6070
  23   2.0000      -0.561669       -15.2838
  24   2.0000      -0.521880       -14.2011
  25   2.0000      -0.507397       -13.8070
  26   2.0000      -0.502667       -13.6783
  27   2.0000      -0.482195       -13.1212
  28   2.0000      -0.459194       -12.4953
  29   2.0000      -0.457673       -12.4539
  30   2.0000      -0.441348       -12.0097
  31   2.0000      -0.421274       -11.4635
  32   2.0000      -0.406518       -11.0619
  33   2.0000      -0.388775       -10.5791
  34   2.0000      -0.378573       -10.3015
  35   2.0000      -0.373223       -10.1559
  36   2.0000      -0.367356        -9.9963
  37   2.0000      -0.361415        -9.8346
  38   2.0000      -0.343430        -9.3452
  39   2.0000      -0.333492        -9.0748
  40   2.0000      -0.325465        -8.8564
  41   2.0000      -0.316370        -8.6089
  42   2.0000      -0.307307        -8.3623
  43   2.0000      -0.302379        -8.2282
  44   2.0000      -0.284826        -7.7505
  45   2.0000      -0.278582        -7.5806
  46   2.0000      -0.269461        -7.3324
  47   2.0000      -0.263596        -7.1728
  48   2.0000      -0.262012        -7.1297
  49   2.0000      -0.249872        -6.7994
  50   2.0000      -0.147478        -4.0131
  51   2.0000      -0.141735        -3.8568
  52   0.0000      -0.050729        -1.3804
  53   0.0000      -0.023902        -0.6504
  54   0.0000      -0.010544        -0.2869
  55   0.0000       0.003644         0.0991
  56   0.0000       0.009789         0.2664

MULLIKEN ATOMIC CHARGES
-----------------------
   0 C :   -0.264970
   1 C :   -0.457748
   2 H :    0.266249
   3 C :   -0.228430
   4 H :    0.079352
   5 H :    0.377713
   6 H :    0.057405
   7 C :   -0.588718
   8 H :    0.418502
   9 C :   -0.313502
  10 H :    0.093975
  11 C :   -0.449744
  12 H :    0.156920
  13 H :    0.166903
  14 C :    0.091994
  15 H :    0.273508
  16 H :    0.152838
  17 H :   -0.220627
  18 C :   -0.385366
  19 H :    0.255376
  20 H :    0.207881
  21 H :    0.178927
  22 C :   -0.249440
  23 H :    0.145562
  24 H :    0.220893
  25 O :   -1.171928
  26 C :    0.353548
  27 N :   -0.296099
  28 N :   -0.286987
  29 H :    0.167597
  30 H :    0.357778
  31 H :    0.151179
  32 H :    0.388938
  33 H :    0.339360
  34 H :    0.011160
Sum of atomic charges:   -0.0000000

LOEWDIN ATOMIC CHARGES
----------------------
   0 C :   -0.111258
   1 C :   -0.185598
   2 H :    0.103275
   3 C :   -0.204325
   4 H :    0.109803
   5 H :    0.089956
   6 H :    0.117556
   7 C :   -0.205978
   8 H :    0.092009
   9 C :   -0.199673
  10 H :    0.111363
  11 C :   -0.212652
  12 H :    0.104152
  13 H :    0.105739
  14 C :   -0.216003
  15 H :    0.098849
  16 H :    0.108196
  17 H :    0.069490
  18 C :   -0.197676
  19 H :    0.120292
  20 H :    0.103034
  21 H :    0.103649
  22 C :   -0.389908
  23 H :    0.091734
  24 H :    0.096269
  25 O :   -0.310142
  26 C :   -0.400614
  27 N :    0.198272
  28 N :    0.214351
  29 H :    0.131121
  30 H :    0.053247
  31 H :    0.131560
  32 H :    0.047259
  33 H :    0.110318
  34 H :    0.122333

  Mayer bond orders larger than 0.100000
B(  0-C ,  1-C ) :   0.9384 B(  0-C ,  7-C ) :   0.1505 B(  0-C , 26-C ) :   1.0385
B(  0-C , 33-H ) :   0.8232 B(  0-C , 34-H ) :   0.9590 B(  1-C ,  2-H ) :   0.8475
B(  1-C ,  3-C ) :   1.1059 B(  1-C ,  4-H ) :   0.8658 B(  1-C ,  7-C ) :   0.2010
B(  1-C , 26-C ) :   0.1587 B(  3-C ,  5-H ) :   0.8484 B(  3-C ,  6-H ) :   0.9044
B(  3-C ,  7-C ) :   0.7597 B(  3-C ,  9-C ) :   0.1045 B(  3-C , 11-C ) :   0.2138
B(  3-C , 26-C ) :   0.1139 B(  7-C ,  8-H ) :   0.8118 B(  7-C ,  9-C ) :   1.1057
B(  7-C , 10-H ) :   0.9096 B(  9-C , 11-C ) :   1.0469 B(  9-C , 12-H ) :   0.8885
B(  9-C , 13-H ) :   0.9048 B(  9-C , 14-C ) :   0.1610 B( 11-C , 14-C ) :   0.6677
B( 11-C , 15-H ) :   0.8031 B( 11-C , 16-H ) :   0.9129 B( 11-C , 17-H ) :  -0.1131
B( 11-C , 18-C ) :   0.3871 B( 14-C , 17-H ) :   2.1256 B( 14-C , 18-C ) :   0.9028
B( 14-C , 19-H ) :   0.6324 B( 14-C , 22-C ) :   0.2605 B( 14-C , 25-O ) :   0.2310
B( 17-H , 18-C ) :   0.1383 B( 17-H , 19-H ) :   0.1994 B( 17-H , 25-O ) :  -0.1769
B( 18-C , 20-H ) :   0.8165 B( 18-C , 21-H ) :   0.9417 B( 18-C , 22-C ) :   1.0051
B( 22-C , 23-H ) :   0.9472 B( 22-C , 24-H ) :   0.9160 B( 22-C , 25-O ) :   0.9138
B( 25-O , 30-H ) :   0.1847 B( 26-C , 27-N ) :   1.3895 B( 26-C , 28-N ) :   1.2722
B( 27-N , 31-H ) :   0.9861 B( 27-N , 32-H ) :   0.7529 B( 28-N , 29-H ) :   0.9575
B( 28-N , 30-H ) :   0.7616

Dispersion correction           -0.049345625
FINAL SINGLE POINT ENERGY      -579.373487230004

DIPOLE MOMENT
-------------
                                X             Y             Z
Electronic contribution:      2.67434      -0.28009       7.61550
Nuclear contribution   :     -0.17996       0.53390      -8.68067
                        -----------------------------------------
Total Dipole Moment    :      2.49438       0.25381      -1.06516
                        -----------------------------------------
Magnitude (a.u.)       :      2.72414
Magnitude (Debye)      :      6.92420

Rotational constants in cm-1:     0.028240     0.022734     0.014600
Rotational constants in MHz :   846.611263   681.554306   437.693928

                             ****ORCA TERMINATED NORMALLY****
TOTAL RUN TIME: 0 days 0 hours 2 minutes 46 seconds 79 msec
