                         Program Version 5.0.0 -  RELEASE  -
|  1> !TPSS D3BJ RIJCOSX def2-TZVPD def2/J TightSCF
|  2> *xyz 0 1
|  3> C         -0.90349       -0.87394       -1.98739
|  4> C         -0.96015       -0.52236       -0.48987
|  5> H         -1.69039       -1.20813       -0.02168
|  6> H         -1.41449        0.48633       -0.40668
|  7> F          0.26170       -0.58031        0.13861
|  8> H         -1.88568       -0.80774       -2.40670
|  9> H         -0.53143       -1.87013       -2.10605
| 10> H         -0.25399       -0.18836       -2.49039
| 11> *
| 12>
| 13> %MaxCore 64000
| 14>
| 15> %pal nprocs 4
| 16> end
| 17>
| 18> %scf
| 19>   MaxIter 150
| 20> end
| 21>
| 22>
| 23>                          ****END OF INPUT****

CARTESIAN COORDINATES (ANGSTROEM)
---------------------------------
  C     -0.903490   -0.873940   -1.987390
  C     -0.960150   -0.522360   -0.489870
  H     -1.690390   -1.208130   -0.021680
  H     -1.414490    0.486330   -0.406680
  F      0.261700   -0.580310    0.138610
  H     -1.885680   -0.807740   -2.406700
  H     -0.531430   -1.870130   -2.106050
  H     -0.253990   -0.188360   -2.490390

 Total Charge           Charge          ....    0
 Multiplicity           Mult            ....    1
 Number of Electrons    NEL             ....   26
 Basis Dimension        Dim             ....  159

ORBITAL ENERGIES
----------------

  NO   OCC          E(Eh)            E(eV)
   0   2.0000     -24.396814      -663.8711
   1   2.0000     -10.061968      -273.8001
   2   2.0000      -9.981601      -271.6132
   3   2.0000      -1.120108       -30.4797
   4   2.0000      -0.709825       -19.3153
   5   2.0000      -0.582334       -15.8461
   6   2.0000      -0.458096       -12.4654
   7   2.0000      -0.446734       -12.1562
   8   2.0000      -0.406238       -11.0543
   9   2.0000      -0.363578        -9.8935
  10   2.0000      -0.361355        -9.8330
  11   2.0000      -0.291547        -7.9334
  12   2.0000      -0.289900        -7.8886
  13   0.0000       0.000512         0.0139
  14   0.0000       0.028100         0.7646
  15   0.0000       0.041250         1.1225
  16   0.0000       0.047273         1.2864
  17   0.0000       0.071269         1.9393

MULLIKEN ATOMIC CHARGES
-----------------------
   0 C :   -0.727777
   1 C :    0.033857
   2 H :    0.158613
   3 H :    0.158871
   4 F :   -0.303397
   5 H :    0.260185
   6 H :    0.209989
   7 H :    0.209660
Sum of atomic charges:   -0.0000000

LOEWDIN ATOMIC CHARGES
----------------------
   0 C :   -0.076558
   1 C :   -0.284471
   2 H :    0.105924
   3 H :    0.107619
   4 F :   -0.038829
   5 H :    0.064204
   6 H :    0.061079
   7 H :    0.061032

  Mayer bond orders larger than 0.100000
B(  0-C ,  1-C ) :   0.9982 B(  0-C ,  4-F ) :   0.1059 B(  0-C ,  5-H ) :   0.9244
B(  0-C ,  6-H ) :   0.9585 B(  0-C ,  7-H ) :   0.9587 B(  1-C ,  2-H ) :   0.9619
B(  1-C ,  3-H ) :   0.9603 B(  1-C ,  4-F ) :   0.7757

Dispersion correction           -0.004197706
FINAL SINGLE POINT ENERGY      -179.159362715623

DIPOLE MOMENT
-------------
                                X             Y             Z
Electronic contribution:      3.25375       0.37449       3.99784
Nuclear contribution   :     -3.84149      -0.36812      -4.38946
                        -----------------------------------------
Total Dipole Moment    :     -0.58774       0.00638      -0.39162
                        -----------------------------------------
Magnitude (a.u.)       :      0.70629
Magnitude (Debye)      :      1.79525

Rotational constants in cm-1:     1.270659     0.299196     0.265842
Rotational constants in MHz : 38093.410361  8969.665806  7969.741481

                             ****ORCA TERMINATED NORMALLY****
TOTAL RUN TIME: 0 days 0 hours 0 minutes 9 seconds 862 msec
