                         Program Version 5.0.0 -  RELEASE  -
|  1> !TPSS D3BJ RIJCOSX def2-TZVPD def2/J TightSCF
|  2> *xyz 0 1
|  3> C          4.36645       -0.13321       -1.41606
|  4> C          4.50829       -0.93187       -2.72425
|  5> C          3.05650       -0.32080       -0.70738
|  6> C          2.38983        0.71129       -0.24391
|  7> N          2.51600       -1.50772       -0.55023
|  8> H          2.96768       -2.32291       -0.95631
|  9> H          1.54987       -1.49063       -0.24988
| 10> H          2.74307        1.64947       -0.41280
| 11> H          1.44036        0.50278        0.03703
| 12> H          4.48784        0.93300       -1.61157
| 13> H          5.16967       -0.41443       -0.72982
| 14> H          5.46700       -0.73824       -3.15818
| 15> H          3.74074       -0.63528       -3.40821
| 16> H          4.41574       -1.97727       -2.51573
| 17> *
| 18>
| 19> %MaxCore 64000
| 20>
| 21> %pal nprocs 4
| 22> end
| 23>
| 24> %scf
| 25>   MaxIter 150
| 26> end
| 27>
| 28>
| 29>                          ****END OF INPUT****

CARTESIAN COORDINATES (ANGSTROEM)
---------------------------------
  C      4.366450   -0.133210   -1.416060
  C      4.508290   -0.931870   -2.724250
  C      3.056500   -0.320800   -0.707380
  C      2.389830    0.711290   -0.243910
  N      2.516000   -1.507720   -0.550230
  H      2.967680   -2.322910   -0.956310
  H      1.549870   -1.490630   -0.249880
  H      2.743070    1.649470   -0.412800
  H      1.440360    0.502780    0.037030
  H      4.487840    0.933000   -1.611570
  H      5.169670   -0.414430   -0.729820
  H      5.467000   -0.738240   -3.158180
  H      3.740740   -0.635280   -3.408210
  H      4.415740   -1.977270   -2.515730

 Total Charge           Charge          ....    0
 Multiplicity           Mult            ....    1
 Number of Electrons    NEL             ....   40
 Basis Dimension        Dim             ....  266

ORBITAL ENERGIES
----------------

  NO   OCC          E(Eh)            E(eV)
   0   2.0000     -14.101500      -383.7213
   1   2.0000      -9.995689      -271.9965
   2   2.0000      -9.986561      -271.7481
   3   2.0000      -9.977485      -271.5012
   4   2.0000      -9.915136      -269.8046
   5   2.0000      -0.870273       -23.6813
   6   2.0000      -0.721839       -19.6422
   7   2.0000      -0.667485       -18.1632
   8   2.0000      -0.587003       -15.9732
   9   2.0000      -0.515309       -14.0223
  10   2.0000      -0.490456       -13.3460
  11   2.0000      -0.427460       -11.6318
  12   2.0000      -0.400013       -10.8849
  13   2.0000      -0.389517       -10.5993
  14   2.0000      -0.353805        -9.6275
  15   2.0000      -0.342007        -9.3065
  16   2.0000      -0.322018        -8.7626
  17   2.0000      -0.305116        -8.3026
  18   2.0000      -0.288111        -7.8399
  19   2.0000      -0.158670        -4.3176
  20   0.0000      -0.008771        -0.2387
  21   0.0000       0.011167         0.3039
  22   0.0000       0.023911         0.6506
  23   0.0000       0.027989         0.7616
  24   0.0000       0.042642         1.1604

MULLIKEN ATOMIC CHARGES
-----------------------
   0 C :   -0.101816
   1 C :   -0.985575
   2 C :    0.740993
   3 C :   -1.121601
   4 N :   -0.461271
   5 H :    0.161136
   6 H :    0.133959
   7 H :    0.256679
   8 H :    0.255292
   9 H :    0.189044
  10 H :    0.156041
  11 H :    0.204049
  12 H :    0.268689
  13 H :    0.304381
Sum of atomic charges:   -0.0000000

LOEWDIN ATOMIC CHARGES
----------------------
   0 C :   -0.184128
   1 C :   -0.088018
   2 C :   -0.497416
   3 C :    0.016577
   4 N :    0.102794
   5 H :    0.102827
   6 H :    0.110020
   7 H :    0.022300
   8 H :    0.020175
   9 H :    0.104935
  10 H :    0.109864
  11 H :    0.061119
  12 H :    0.069295
  13 H :    0.049656

  Mayer bond orders larger than 0.100000
B(  0-C ,  1-C ) :   0.8236 B(  0-C ,  2-C ) :   0.9804 B(  0-C ,  9-H ) :   0.8757
B(  0-C , 10-H ) :   0.8922 B(  1-C , 11-H ) :   1.0014 B(  1-C , 12-H ) :   0.9671
B(  1-C , 13-H ) :   0.9081 B(  2-C ,  3-C ) :   1.2892 B(  2-C ,  4-N ) :   0.9044
B(  2-C ,  8-H ) :  -0.1037 B(  3-C ,  4-N ) :   0.1458 B(  3-C ,  7-H ) :   0.9612
B(  3-C ,  8-H ) :   1.0127 B(  4-N ,  5-H ) :   1.0186 B(  4-N ,  6-H ) :   1.0280

Dispersion correction           -0.012915332
FINAL SINGLE POINT ENERGY      -212.681074456079

DIPOLE MOMENT
-------------
                                X             Y             Z
Electronic contribution:     -1.49898      -0.43220       2.07874
Nuclear contribution   :      1.56827      -0.21459      -2.46657
                        -----------------------------------------
Total Dipole Moment    :      0.06929      -0.64679      -0.38784
                        -----------------------------------------
Magnitude (a.u.)       :      0.75734
Magnitude (Debye)      :      1.92500

Rotational constants in cm-1:     0.294070     0.127722     0.097792
Rotational constants in MHz :  8815.983970  3829.010547  2931.715816

                             ****ORCA TERMINATED NORMALLY****
TOTAL RUN TIME: 0 days 0 hours 0 minutes 23 seconds 311 msec
