                         Program Version 5.0.0 -  RELEASE  -
|  1> !TPSS D3BJ RIJCOSX def2-TZVPD def2/J TightSCF
|  2> *xyz 0 1
|  3> C          4.36645       -0.13321       -1.41606
|  4> C          4.50829       -0.93187       -2.72425
|  5> C          3.05650       -0.32080       -0.70738
|  6> N          2.38983        0.71129       -0.24391
|  7> C          2.51600       -1.50772       -0.55023
|  8> H          2.96768       -2.32291       -0.95631
|  9> H          1.54987       -1.49063       -0.24988
| 10> H          2.74307        1.64947       -0.41280
| 11> H          1.44036        0.50278        0.03703
| 12> H          4.48784        0.93300       -1.61157
| 13> H          5.16967       -0.41443       -0.72982
| 14> H          5.46700       -0.73824       -3.15818
| 15> H          3.74074       -0.63528       -3.40821
| 16> H          4.41574       -1.97727       -2.51573
| 17> *
| 18>
| 19> %MaxCore 64000
| 20>
| 21> %pal nprocs 4
| 22> end
| 23>
| 24> %scf
| 25>   MaxIter 150
| 26> end
| 27>
| 28>
| 29>                          ****END OF INPUT****

CARTESIAN COORDINATES (ANGSTROEM)
---------------------------------
  C      4.366450   -0.133210   -1.416060
  C      4.508290   -0.931870   -2.724250
  C      3.056500   -0.320800   -0.707380
  N      2.389830    0.711290   -0.243910
  C      2.516000   -1.507720   -0.550230
  H      2.967680   -2.322910   -0.956310
  H      1.549870   -1.490630   -0.249880
  H      2.743070    1.649470   -0.412800
  H      1.440360    0.502780    0.037030
  H      4.487840    0.933000   -1.611570
  H      5.169670   -0.414430   -0.729820
  H      5.467000   -0.738240   -3.158180
  H      3.740740   -0.635280   -3.408210
  H      4.415740   -1.977270   -2.515730

 Total Charge           Charge          ....    0
 Multiplicity           Mult            ....    1
 Number of Electrons    NEL             ....   40
 Basis Dimension        Dim             ....  266

ORBITAL ENERGIES
----------------

  NO   OCC          E(Eh)            E(eV)
   0   2.0000     -14.102400      -383.7458
   1   2.0000      -9.995818      -272.0000
   2   2.0000      -9.987875      -271.7839
   3   2.0000      -9.971416      -271.3360
   4   2.0000      -9.913520      -269.7606
   5   2.0000      -0.870669       -23.6921
   6   2.0000      -0.722985       -19.6734
   7   2.0000      -0.657359       -17.8876
   8   2.0000      -0.595729       -16.2106
   9   2.0000      -0.506657       -13.7868
  10   2.0000      -0.488256       -13.2861
  11   2.0000      -0.435168       -11.8415
  12   2.0000      -0.409150       -11.1335
  13   2.0000      -0.366679        -9.9778
  14   2.0000      -0.352638        -9.5958
  15   2.0000      -0.341501        -9.2927
  16   2.0000      -0.320703        -8.7268
  17   2.0000      -0.305339        -8.3087
  18   2.0000      -0.289214        -7.8699
  19   2.0000      -0.157153        -4.2764
  20   0.0000      -0.005664        -0.1541
  21   0.0000       0.008444         0.2298
  22   0.0000       0.023179         0.6307
  23   0.0000       0.027680         0.7532
  24   0.0000       0.045324         1.2333

MULLIKEN ATOMIC CHARGES
-----------------------
   0 C :   -0.145075
   1 C :   -0.932504
   2 C :    0.774765
   3 N :   -0.441857
   4 C :   -1.162789
   5 H :    0.257244
   6 H :    0.245392
   7 H :    0.179247
   8 H :    0.131242
   9 H :    0.186417
  10 H :    0.153667
  11 H :    0.205719
  12 H :    0.258572
  13 H :    0.289959
Sum of atomic charges:   -0.0000000

LOEWDIN ATOMIC CHARGES
----------------------
   0 C :   -0.184468
   1 C :   -0.085340
   2 C :   -0.494274
   3 N :    0.097114
   4 C :    0.016382
   5 H :    0.019283
   6 H :    0.021759
   7 H :    0.106645
   8 H :    0.108552
   9 H :    0.096780
  10 H :    0.112102
  11 H :    0.059433
  12 H :    0.069740
  13 H :    0.056293

  Mayer bond orders larger than 0.100000
B(  0-C ,  1-C ) :   0.8254 B(  0-C ,  2-C ) :   0.8341 B(  0-C ,  9-H ) :   0.9710
B(  0-C , 10-H ) :   0.9160 B(  1-C ,  2-C ) :   0.1224 B(  1-C , 11-H ) :   0.9877
B(  1-C , 12-H ) :   0.9566 B(  1-C , 13-H ) :   0.9330 B(  2-C ,  3-N ) :   0.9672
B(  2-C ,  4-C ) :   1.1906 B(  2-C ,  6-H ) :  -0.1094 B(  3-N ,  4-C ) :   0.1617
B(  3-N ,  7-H ) :   1.0238 B(  3-N ,  8-H ) :   1.0274 B(  4-C ,  5-H ) :   0.9688
B(  4-C ,  6-H ) :   1.0308

Dispersion correction           -0.012957825
FINAL SINGLE POINT ENERGY      -212.679971829690

DIPOLE MOMENT
-------------
                                X             Y             Z
Electronic contribution:     -1.61192       1.45492       2.35652
Nuclear contribution   :      1.59749      -0.72853      -2.53752
                        -----------------------------------------
Total Dipole Moment    :     -0.01443       0.72639      -0.18100
                        -----------------------------------------
Magnitude (a.u.)       :      0.74874
Magnitude (Debye)      :      1.90315

Rotational constants in cm-1:     0.304597     0.124127     0.096828
Rotational constants in MHz :  9131.600925  3721.227051  2902.830760

                             ****ORCA TERMINATED NORMALLY****
TOTAL RUN TIME: 0 days 0 hours 0 minutes 23 seconds 665 msec
