                         Program Version 5.0.0 -  RELEASE  -
|  1> !TPSS D3BJ RIJCOSX def2-TZVPD def2/J TightSCF xyzfile
|  2>
|  3> *xyzfile 0 1 D1.xyz
|  4>
|  5> %MaxCore 64000
|  6>
|  7> %pal nprocs 4
|  8> end
|  9>
| 10> %scf
| 11>   MaxIter 150
| 12> end
| 13>
| 14>
| 15>                          ****END OF INPUT****

CARTESIAN COORDINATES (ANGSTROEM)
---------------------------------
  C      4.366454   -0.133215   -1.416062
  C      4.508292   -0.931872   -2.724249
  H      4.753716   -1.972051   -2.488408
  C      3.294164   -0.918214   -3.656570
  H      5.385637   -0.536236   -3.242640
  H      2.483463   -1.477378   -3.185764
  H      3.553092   -1.478495   -4.560331
  C      2.772335    0.460100   -4.051448
  H      2.608762    1.065107   -3.155194
  C      1.465354    0.410537   -4.853644
  H      3.532940    0.988848   -4.635671
  C      0.326171   -0.375613   -4.192580
  H      1.666704   -0.022269   -5.839323
  H      1.138198    1.439246   -5.035449
  C     -0.017405    0.080588   -2.778406
  H      0.585573   -1.439385   -4.168057
  H     -0.560005   -0.311425   -4.831461
  H      0.902090    0.201296   -2.206729
  C     -0.903495   -0.873945   -1.987388
  H     -0.479549    1.074657   -2.811915
  H     -0.502554   -1.892096   -2.081204
  H     -1.917039   -0.895427   -2.406277
  C     -0.960148   -0.522365   -0.489867
  H     -1.690392   -1.208130   -0.021677
  H     -1.414490    0.486329   -0.406677
  F      0.261703   -0.580307    0.138611
  C      3.056503   -0.320797   -0.707384
  C      2.389825    0.711285   -0.243909
  N      2.515999   -1.507721   -0.550229
  H      2.967683   -2.322915   -0.956305
  H      1.549872   -1.490634   -0.249876
  H      2.743071    1.649471   -0.412802
  H      1.440364    0.502778    0.037031
  H      4.487835    0.932997   -1.611569
  H      5.169672   -0.414432   -0.729817

 Total Charge           Charge          ....    0
 Multiplicity           Mult            ....    1
 Number of Electrons    NEL             ....  104
 Basis Dimension        Dim             ....  682

ORBITAL ENERGIES
----------------

  NO   OCC          E(Eh)            E(eV)
   0   2.0000     -24.428070      -664.7216
   1   2.0000     -14.078342      -383.0912
   2   2.0000     -10.074416      -274.1388
   3   2.0000      -9.997100      -272.0349
   4   2.0000      -9.980194      -271.5749
   5   2.0000      -9.978253      -271.5221
   6   2.0000      -9.978059      -271.5168
   7   2.0000      -9.975824      -271.4560
   8   2.0000      -9.975701      -271.4526
   9   2.0000      -9.973737      -271.3992
  10   2.0000      -9.971614      -271.3414
  11   2.0000      -9.969529      -271.2847
  12   2.0000      -9.891849      -269.1709
  13   2.0000      -1.160702       -31.5843
  14   2.0000      -0.853878       -23.2352
  15   2.0000      -0.759693       -20.6723
  16   2.0000      -0.738854       -20.1052
  17   2.0000      -0.713656       -19.4196
  18   2.0000      -0.678012       -18.4497
  19   2.0000      -0.651603       -17.7310
  20   2.0000      -0.631882       -17.1944
  21   2.0000      -0.587635       -15.9904
  22   2.0000      -0.566287       -15.4095
  23   2.0000      -0.538495       -14.6532
  24   2.0000      -0.511050       -13.9064
  25   2.0000      -0.496188       -13.5020
  26   2.0000      -0.486126       -13.2282
  27   2.0000      -0.479608       -13.0508
  28   2.0000      -0.463398       -12.6097
  29   2.0000      -0.441942       -12.0259
  30   2.0000      -0.425693       -11.5837
  31   2.0000      -0.416554       -11.3350
  32   2.0000      -0.402072       -10.9409
  33   2.0000      -0.396945       -10.8014
  34   2.0000      -0.386608       -10.5201
  35   2.0000      -0.381731       -10.3874
  36   2.0000      -0.355002        -9.6601
  37   2.0000      -0.348599        -9.4859
  38   2.0000      -0.341640        -9.2965
  39   2.0000      -0.333645        -9.0790
  40   2.0000      -0.327580        -8.9139
  41   2.0000      -0.317206        -8.6316
  42   2.0000      -0.310450        -8.4478
  43   2.0000      -0.305758        -8.3201
  44   2.0000      -0.302094        -8.2204
  45   2.0000      -0.295653        -8.0451
  46   2.0000      -0.277590        -7.5536
  47   2.0000      -0.274748        -7.4763
  48   2.0000      -0.271211        -7.3800
  49   2.0000      -0.268205        -7.2982
  50   2.0000      -0.262078        -7.1315
  51   2.0000      -0.143382        -3.9016
  52   0.0000      -0.007617        -0.2073
  53   0.0000       0.000288         0.0078
  54   0.0000       0.006869         0.1869
  55   0.0000       0.010377         0.2824
  56   0.0000       0.021826         0.5939

MULLIKEN ATOMIC CHARGES
-----------------------
   0 C :   -0.226275
   1 C :   -0.465256
   2 H :    0.246740
   3 C :   -0.206131
   4 H :    0.069092
   5 H :    0.354383
   6 H :    0.041820
   7 C :   -0.614262
   8 H :    0.437338
   9 C :   -0.293913
  10 H :    0.097890
  11 C :   -0.555833
  12 H :    0.164905
  13 H :    0.174238
  14 C :   -0.042876
  15 H :    0.321958
  16 H :    0.142418
  17 H :   -0.039611
  18 C :   -0.417087
  19 H :    0.201183
  20 H :    0.213005
  21 H :    0.173215
  22 C :   -0.034599
  23 H :    0.126068
  24 H :    0.245578
  25 F :   -0.486185
  26 C :    0.340961
  27 C :   -1.439545
  28 N :   -0.438906
  29 H :    0.144853
  30 H :    0.385784
  31 H :    0.262604
  32 H :    0.782282
  33 H :    0.290351
  34 H :    0.043813
Sum of atomic charges:    0.0000000

LOEWDIN ATOMIC CHARGES
----------------------
   0 C :   -0.137415
   1 C :   -0.192383
   2 H :    0.098393
   3 C :   -0.207151
   4 H :    0.103732
   5 H :    0.086031
   6 H :    0.112184
   7 C :   -0.201825
   8 H :    0.097163
   9 C :   -0.198450
  10 H :    0.111390
  11 C :   -0.209447
  12 H :    0.104262
  13 H :    0.105111
  14 C :   -0.208873
  15 H :    0.100565
  16 H :    0.106982
  17 H :    0.073386
  18 C :   -0.173180
  19 H :    0.123484
  20 H :    0.111229
  21 H :    0.116416
  22 C :   -0.188389
  23 H :    0.116450
  24 H :    0.125276
  25 F :   -0.074466
  26 C :   -0.484975
  27 C :    0.018259
  28 N :    0.125465
  29 H :    0.112023
  30 H :    0.074841
  31 H :    0.033187
  32 H :    0.000997
  33 H :    0.107776
  34 H :    0.111953

  Mayer bond orders larger than 0.100000
B(  0-C ,  1-C ) :   0.9648 B(  0-C ,  3-C ) :  -0.1008 B(  0-C ,  7-C ) :   0.1771
B(  0-C , 26-C ) :   1.0267 B(  0-C , 33-H ) :   0.8189 B(  0-C , 34-H ) :   0.9117
B(  1-C ,  2-H ) :   0.8492 B(  1-C ,  3-C ) :   1.1138 B(  1-C ,  4-H ) :   0.8694
B(  1-C ,  7-C ) :   0.2146 B(  1-C , 26-C ) :   0.1353 B(  3-C ,  5-H ) :   0.8389
B(  3-C ,  6-H ) :   0.9127 B(  3-C ,  7-C ) :   0.7559 B(  3-C ,  9-C ) :   0.1058
B(  3-C , 11-C ) :   0.2475 B(  7-C ,  8-H ) :   0.8732 B(  7-C ,  9-C ) :   1.0292
B(  7-C , 10-H ) :   0.8640 B(  9-C , 11-C ) :   1.1203 B(  9-C , 12-H ) :   0.8824
B(  9-C , 13-H ) :   0.8960 B(  9-C , 14-C ) :   0.1368 B( 11-C , 14-C ) :   0.6524
B( 11-C , 15-H ) :   0.7740 B( 11-C , 16-H ) :   0.9146 B( 11-C , 18-C ) :   0.4017
B( 14-C , 17-H ) :   1.9498 B( 14-C , 18-C ) :   0.8498 B( 14-C , 19-H ) :   0.6140
B( 14-C , 22-C ) :   0.2697 B( 14-C , 26-C ) :  -0.1846 B( 14-C , 27-C ) :   0.2747
B( 14-C , 32-H ) :  -0.1104 B( 17-H , 19-H ) :   0.2584 B( 17-H , 27-C ) :  -0.1055
B( 18-C , 19-H ) :  -0.1139 B( 18-C , 20-H ) :   0.8144 B( 18-C , 21-H ) :   0.9261
B( 18-C , 22-C ) :   1.0815 B( 18-C , 25-F ) :   0.1109 B( 22-C , 23-H ) :   0.9338
B( 22-C , 24-H ) :   0.8693 B( 22-C , 25-F ) :   0.7849 B( 25-F , 27-C ) :   0.1256
B( 25-F , 32-H ) :  -0.1565 B( 26-C , 27-C ) :   1.7293 B( 26-C , 28-N ) :   0.8245
B( 27-C , 31-H ) :   0.9352 B( 27-C , 32-H ) :   0.5976 B( 28-N , 29-H ) :   0.9719
B( 28-N , 30-H ) :   0.8034

Dispersion correction           -0.049299355
FINAL SINGLE POINT ENERGY      -587.298915295808

DIPOLE MOMENT
-------------
                                X             Y             Z
Electronic contribution:     -2.67645      -1.59869      10.48627
Nuclear contribution   :      1.82572       1.04089     -11.09065
                        -----------------------------------------
Total Dipole Moment    :     -0.85073      -0.55779      -0.60438
                        -----------------------------------------
Magnitude (a.u.)       :      1.18328
Magnitude (Debye)      :      3.00766

Rotational constants in cm-1:     0.028436     0.022359     0.014416
Rotational constants in MHz :   852.496561   670.291843   432.183951

                             ****ORCA TERMINATED NORMALLY****
TOTAL RUN TIME: 0 days 0 hours 2 minutes 34 seconds 356 msec
