                         Program Version 5.0.0 -  RELEASE  -
|  1> !TPSS D3BJ RIJCOSX def2-TZVPD def2/J TightSCF xyzfile
|  2>
|  3> *xyzfile 0 1 D2.xyz
|  4>
|  5> %MaxCore 64000
|  6>
|  7> %pal nprocs 4
|  8> end
|  9>
| 10> %scf
| 11>   MaxIter 150
| 12> end
| 13>
| 14>
| 15>                          ****END OF INPUT****

CARTESIAN COORDINATES (ANGSTROEM)
---------------------------------
  C      4.366454   -0.133215   -1.416062
  C      4.508292   -0.931872   -2.724249
  H      4.753716   -1.972051   -2.488408
  C      3.294164   -0.918214   -3.656570
  H      5.385637   -0.536236   -3.242640
  H      2.483463   -1.477378   -3.185764
  H      3.553092   -1.478495   -4.560331
  C      2.772335    0.460100   -4.051448
  H      2.608762    1.065107   -3.155194
  C      1.465354    0.410537   -4.853644
  H      3.532940    0.988848   -4.635671
  C      0.326171   -0.375613   -4.192580
  H      1.666704   -0.022269   -5.839323
  H      1.138198    1.439246   -5.035449
  C     -0.017405    0.080588   -2.778406
  H      0.585573   -1.439385   -4.168057
  H     -0.560005   -0.311425   -4.831461
  H      0.902090    0.201296   -2.206729
  C     -0.903495   -0.873945   -1.987388
  H     -0.479549    1.074657   -2.811915
  H     -0.502554   -1.892096   -2.081204
  H     -1.917039   -0.895427   -2.406277
  C     -0.960148   -0.522365   -0.489867
  H     -1.690392   -1.208130   -0.021677
  H     -1.414490    0.486329   -0.406677
  F      0.261703   -0.580307    0.138611
  C      3.056503   -0.320797   -0.707384
  N      2.389825    0.711285   -0.243909
  C      2.515999   -1.507721   -0.550229
  H      2.967683   -2.322915   -0.956305
  H      1.549872   -1.490634   -0.249876
  H      2.743071    1.649471   -0.412802
  H      1.440364    0.502778    0.037031
  H      4.487835    0.932997   -1.611569
  H      5.169672   -0.414432   -0.729817

 Total Charge           Charge          ....    0
 Multiplicity           Mult            ....    1
 Number of Electrons    NEL             ....  104
 Basis Dimension        Dim             ....  682

ORBITAL ENERGIES
----------------

  NO   OCC          E(Eh)            E(eV)
   0   2.0000     -24.428254      -664.7266
   1   2.0000     -14.078336      -383.0910
   2   2.0000     -10.074671      -274.1457
   3   2.0000      -9.995573      -271.9934
   4   2.0000      -9.979558      -271.5576
   5   2.0000      -9.978339      -271.5244
   6   2.0000      -9.977914      -271.5128
   7   2.0000      -9.976215      -271.4666
   8   2.0000      -9.975114      -271.4367
   9   2.0000      -9.973913      -271.4040
  10   2.0000      -9.971224      -271.3308
  11   2.0000      -9.965649      -271.1791
  12   2.0000      -9.890009      -269.1208
  13   2.0000      -1.160837       -31.5880
  14   2.0000      -0.853725       -23.2310
  15   2.0000      -0.759548       -20.6683
  16   2.0000      -0.738224       -20.0881
  17   2.0000      -0.714264       -19.4361
  18   2.0000      -0.674796       -18.3621
  19   2.0000      -0.645124       -17.5547
  20   2.0000      -0.633089       -17.2272
  21   2.0000      -0.591029       -16.0827
  22   2.0000      -0.567529       -15.4433
  23   2.0000      -0.539505       -14.6807
  24   2.0000      -0.508328       -13.8323
  25   2.0000      -0.497803       -13.5459
  26   2.0000      -0.485341       -13.2068
  27   2.0000      -0.472715       -12.8632
  28   2.0000      -0.460107       -12.5201
  29   2.0000      -0.438289       -11.9265
  30   2.0000      -0.432198       -11.7607
  31   2.0000      -0.419305       -11.4099
  32   2.0000      -0.406325       -11.0567
  33   2.0000      -0.395025       -10.7492
  34   2.0000      -0.386829       -10.5261
  35   2.0000      -0.373440       -10.1618
  36   2.0000      -0.354780        -9.6540
  37   2.0000      -0.348143        -9.4735
  38   2.0000      -0.341158        -9.2834
  39   2.0000      -0.329111        -8.9556
  40   2.0000      -0.325211        -8.8494
  41   2.0000      -0.319428        -8.6921
  42   2.0000      -0.313936        -8.5426
  43   2.0000      -0.309335        -8.4174
  44   2.0000      -0.296221        -8.0606
  45   2.0000      -0.291374        -7.9287
  46   2.0000      -0.278533        -7.5793
  47   2.0000      -0.273825        -7.4512
  48   2.0000      -0.271802        -7.3961
  49   2.0000      -0.265520        -7.2252
  50   2.0000      -0.263622        -7.1735
  51   2.0000      -0.141493        -3.8502
  52   0.0000      -0.006475        -0.1762
  53   0.0000       0.001687         0.0459
  54   0.0000       0.006461         0.1758
  55   0.0000       0.009923         0.2700
  56   0.0000       0.019662         0.5350

MULLIKEN ATOMIC CHARGES
-----------------------
   0 C :   -0.316688
   1 C :   -0.410018
   2 H :    0.244292
   3 C :   -0.189321
   4 H :    0.087853
   5 H :    0.323905
   6 H :    0.070953
   7 C :   -0.575940
   8 H :    0.408532
   9 C :   -0.338225
  10 H :    0.089744
  11 C :   -0.547491
  12 H :    0.157262
  13 H :    0.162739
  14 C :    0.096572
  15 H :    0.340791
  16 H :    0.152436
  17 H :   -0.144049
  18 C :   -0.414361
  19 H :    0.208732
  20 H :    0.268501
  21 H :    0.161158
  22 C :   -0.052489
  23 H :    0.128023
  24 H :    0.241220
  25 F :   -0.503671
  26 C :    0.216652
  27 N :   -0.460560
  28 C :   -1.404861
  29 H :    0.349668
  30 H :    0.815522
  31 H :    0.137657
  32 H :    0.371984
  33 H :    0.321559
  34 H :    0.001922
Sum of atomic charges:   -0.0000000

LOEWDIN ATOMIC CHARGES
----------------------
   0 C :   -0.137532
   1 C :   -0.188084
   2 H :    0.103976
   3 C :   -0.206502
   4 H :    0.102962
   5 H :    0.086869
   6 H :    0.112756
   7 C :   -0.204030
   8 H :    0.093247
   9 C :   -0.198923
  10 H :    0.110744
  11 C :   -0.207529
  12 H :    0.105020
  13 H :    0.104080
  14 C :   -0.211417
  15 H :    0.103054
  16 H :    0.107370
  17 H :    0.074602
  18 C :   -0.171129
  19 H :    0.121032
  20 H :    0.115016
  21 H :    0.116792
  22 C :   -0.188522
  23 H :    0.118034
  24 H :    0.122040
  25 F :   -0.073802
  26 C :   -0.483168
  27 N :    0.109848
  28 C :    0.027252
  29 H :    0.035287
  30 H :    0.004712
  31 H :    0.111047
  32 H :    0.070249
  33 H :    0.100365
  34 H :    0.114284

  Mayer bond orders larger than 0.100000
B(  0-C ,  1-C ) :   0.9203 B(  0-C ,  7-C ) :   0.1787 B(  0-C , 26-C ) :   0.9829
B(  0-C , 28-C ) :  -0.2210 B(  0-C , 33-H ) :   0.8169 B(  0-C , 34-H ) :   0.9703
B(  1-C ,  2-H ) :   0.8043 B(  1-C ,  3-C ) :   1.2061 B(  1-C ,  4-H ) :   0.8825
B(  1-C ,  5-H ) :   0.1228 B(  1-C ,  7-C ) :   0.1834 B(  1-C , 28-C ) :   0.2381
B(  3-C ,  5-H ) :   0.8757 B(  3-C ,  6-H ) :   0.8792 B(  3-C ,  7-C ) :   0.7425
B(  3-C , 11-C ) :   0.2307 B(  3-C , 26-C ) :   0.1511 B(  3-C , 28-C ) :  -0.1246
B(  7-C ,  8-H ) :   0.8146 B(  7-C ,  9-C ) :   1.0755 B(  7-C , 10-H ) :   0.9140
B(  9-C , 11-C ) :   1.0780 B(  9-C , 12-H ) :   0.8989 B(  9-C , 13-H ) :   0.9056
B(  9-C , 14-C ) :   0.1572 B( 11-C , 14-C ) :   0.6379 B( 11-C , 15-H ) :   0.7690
B( 11-C , 16-H ) :   0.9142 B( 11-C , 18-C ) :   0.4160 B( 14-C , 17-H ) :   1.9464
B( 14-C , 18-C ) :   0.9162 B( 14-C , 19-H ) :   0.6175 B( 14-C , 22-C ) :   0.2554
B( 14-C , 25-F ) :   0.1007 B( 14-C , 26-C ) :  -0.1025 B( 14-C , 27-N ) :  -0.1581
B( 17-H , 19-H ) :   0.2291 B( 18-C , 19-H ) :  -0.1037 B( 18-C , 20-H ) :   0.7834
B( 18-C , 21-H ) :   0.9555 B( 18-C , 22-C ) :   1.0657 B( 22-C , 23-H ) :   0.9251
B( 22-C , 24-H ) :   0.8593 B( 22-C , 25-F ) :   0.8166 B( 25-F , 30-H ) :  -0.1615
B( 26-C , 27-N ) :   0.9603 B( 26-C , 28-C ) :   1.6413 B( 27-N , 31-H ) :   0.9968
B( 27-N , 32-H ) :   0.8259 B( 28-C , 29-H ) :   0.8861 B( 28-C , 30-H ) :   0.5625

Dispersion correction           -0.049359949
FINAL SINGLE POINT ENERGY      -587.298175487107

DIPOLE MOMENT
-------------
                                X             Y             Z
Electronic contribution:     -2.77468       0.00126      10.71333
Nuclear contribution   :      1.85154       0.58682     -11.15333
                        -----------------------------------------
Total Dipole Moment    :     -0.92315       0.58809      -0.44000
                        -----------------------------------------
Magnitude (a.u.)       :      1.17968
Magnitude (Debye)      :      2.99851

Rotational constants in cm-1:     0.028379     0.022321     0.014415
Rotational constants in MHz :   850.785777   669.176075   432.155504

                             ****ORCA TERMINATED NORMALLY****
TOTAL RUN TIME: 0 days 0 hours 2 minutes 31 seconds 210 msec
