                         Program Version 5.0.0 -  RELEASE  -
|  1> !PBE0 D3BJ RIJCOSX def2-SVPD def2/J TightSCF
|  2> *xyz -1 1
|  3> C          0.70466        1.44313       -4.50363
|  4> C          1.72854        1.42432       -5.63944
|  5> H          2.64672        1.95379       -5.38105
|  6> H          1.29992        1.93061       -6.50361
|  7> S          2.25263       -0.18811       -6.27184
|  8> O          3.56261       -0.44446       -5.63155
|  9> O          2.34494       -0.03374       -7.69650
| 10> C          1.05255        0.69566       -3.21491
| 11> H         -0.23248        1.03293       -4.88445
| 12> H          0.51170        2.49579       -4.26797
| 13> O          1.26606       -1.15918       -5.80536
| 14> H          1.24200       -0.33323       -3.43942
| 15> H          0.23391        0.76629       -2.52954
| 16> H          1.92506        1.13113       -2.77446
| 17> *
| 18>
| 19> %MaxCore 64000
| 20>
| 21> %pal nprocs 8
| 22> end
| 23>
| 24> %scf
| 25>   MaxIter 150
| 26> end
| 27>
| 28>
| 29>                          ****END OF INPUT****

CARTESIAN COORDINATES (ANGSTROEM)
---------------------------------
  C      0.704660    1.443130   -4.503630
  C      1.728540    1.424320   -5.639440
  H      2.646720    1.953790   -5.381050
  H      1.299920    1.930610   -6.503610
  S      2.252630   -0.188110   -6.271840
  O      3.562610   -0.444460   -5.631550
  O      2.344940   -0.033740   -7.696500
  C      1.052550    0.695660   -3.214910
  H     -0.232480    1.032930   -4.884450
  H      0.511700    2.495790   -4.267970
  O      1.266060   -1.159180   -5.805360
  H      1.242000   -0.333230   -3.439420
  H      0.233910    0.766290   -2.529540
  H      1.925060    1.131130   -2.774460

 Total Charge           Charge          ....   -1
 Multiplicity           Mult            ....    1
 Number of Electrons    NEL             ....   66
 Basis Dimension        Dim             ....  212

ORBITAL ENERGIES
----------------

  NO   OCC          E(Eh)            E(eV)
   0   2.0000     -89.039086     -2422.8767
   1   2.0000     -19.002052      -517.0721
   2   2.0000     -18.996015      -516.9079
   3   2.0000     -18.986765      -516.6561
   4   2.0000     -10.107088      -275.0278
   5   2.0000     -10.097583      -274.7692
   6   2.0000     -10.086592      -274.4701
   7   2.0000      -7.998453      -217.6490
   8   2.0000      -5.940697      -161.6546
   9   2.0000      -5.940561      -161.6509
  10   2.0000      -5.940148      -161.6396
  11   2.0000      -0.959565       -26.1111
  12   2.0000      -0.819497       -22.2996
  13   2.0000      -0.795530       -21.6475
  14   2.0000      -0.674960       -18.3666
  15   2.0000      -0.585414       -15.9299
  16   2.0000      -0.488046       -13.2804
  17   2.0000      -0.398185       -10.8352
  18   2.0000      -0.348594        -9.4857
  19   2.0000      -0.333569        -9.0769
  20   2.0000      -0.311164        -8.4672
  21   2.0000      -0.297198        -8.0872
  22   2.0000      -0.281573        -7.6620
  23   2.0000      -0.269912        -7.3447
  24   2.0000      -0.236489        -6.4352
  25   2.0000      -0.232845        -6.3360
  26   2.0000      -0.217116        -5.9080
  27   2.0000      -0.167677        -4.5627
  28   2.0000      -0.165651        -4.5076
  29   2.0000      -0.131281        -3.5723
  30   2.0000      -0.122670        -3.3380
  31   2.0000      -0.113876        -3.0987
  32   2.0000      -0.079641        -2.1672
  33   0.0000       0.141650         3.8545
  34   0.0000       0.166845         4.5401
  35   0.0000       0.173373         4.7177
  36   0.0000       0.181364         4.9352
  37   0.0000       0.200664         5.4603

MULLIKEN ATOMIC CHARGES
-----------------------
   0 C :   -0.422318
   1 C :   -0.096541
   2 H :    0.060097
   3 H :    0.074387
   4 S :    1.417561
   5 O :   -0.848002
   6 O :   -0.844065
   7 C :    0.606919
   8 H :    0.047797
   9 H :   -0.082519
  10 O :   -0.852285
  11 H :   -0.075005
  12 H :    0.005955
  13 H :    0.008017
Sum of atomic charges:   -1.0000000

LOEWDIN ATOMIC CHARGES
----------------------
   0 C :   -0.102640
   1 C :   -0.084834
   2 H :    0.004908
   3 H :   -0.003426
   4 S :    0.876162
   5 O :   -0.603042
   6 O :   -0.575149
   7 C :    0.118174
   8 H :    0.018174
   9 H :    0.007795
  10 O :   -0.579058
  11 H :   -0.027530
  12 H :   -0.029755
  13 H :   -0.019779

  Mayer bond orders larger than 0.100000
B(  0-C ,  1-C ) :   1.2914 B(  0-C ,  2-H ) :   0.1186 B(  0-C ,  3-H ) :   0.1278
B(  0-C ,  7-C ) :   1.2878 B(  0-C ,  8-H ) :   0.9109 B(  0-C ,  9-H ) :   0.9182
B(  0-C , 11-H ) :   0.1995 B(  0-C , 12-H ) :   0.1926 B(  0-C , 13-H ) :   0.1979
B(  1-C ,  2-H ) :   0.9340 B(  1-C ,  3-H ) :   0.8971 B(  1-C ,  4-S ) :   0.8939
B(  1-C ,  6-O ) :   0.1031 B(  1-C ,  8-H ) :   0.1319 B(  1-C ,  9-H ) :   0.1325
B(  4-S ,  5-O ) :   1.2345 B(  4-S ,  6-O ) :   1.3096 B(  4-S , 10-O ) :   1.2379
B(  7-C , 11-H ) :   0.8664 B(  7-C , 12-H ) :   0.7661 B(  7-C , 13-H ) :   0.7999

Dispersion correction           -0.011362926
FINAL SINGLE POINT ENERGY      -741.558919621031

DIPOLE MOMENT
-------------
                                X             Y             Z
Electronic contribution:      4.39370      -5.63800      -8.02902
Nuclear contribution   :     -5.44810       7.35485       9.25157
                        -----------------------------------------
Total Dipole Moment    :     -1.05440       1.71684       1.22254
                        -----------------------------------------
Magnitude (a.u.)       :      2.35668
Magnitude (Debye)      :      5.99020

Rotational constants in cm-1:     0.135801     0.054229     0.051056
Rotational constants in MHz :  4071.225075  1625.746654  1530.611411

                             ****ORCA TERMINATED NORMALLY****
TOTAL RUN TIME: 0 days 0 hours 0 minutes 14 seconds 257 msec
