                         Program Version 5.0.0 -  RELEASE  -
|  1> !PBE0 D3BJ RIJCOSX def2-SVPD def2/J TightSCF
|  2> *xyz 1 1
|  3> C          2.91632       -1.24259       -1.54313
|  4> C          3.46659       -1.59097       -2.88908
|  5> N          4.65227       -1.14316       -3.25969
|  6> N          2.75226       -2.29204       -3.72803
|  7> H          1.77836       -2.48960       -3.51274
|  8> H          2.94861       -2.20854       -4.71681
|  9> H          5.14672       -0.51251       -2.63385
| 10> H          4.78303       -1.00720       -4.25350
| 11> C          2.80408        0.29070       -1.35924
| 12> C          2.38838        1.09367       -2.59711
| 13> H          3.76342        0.67472       -0.99989
| 14> H          2.09479        0.46122       -0.54576
| 15> H          1.94047       -1.71653       -1.44116
| 16> H          3.55857       -1.66343       -0.76637
| 17> H          3.08894        0.91965       -3.38694
| 18> H          2.37301        2.13633       -2.35728
| 19> H          1.41303        0.78551       -2.91115
| 20> *
| 21>
| 22> %MaxCore 64000
| 23>
| 24> %pal nprocs 8
| 25> end
| 26>
| 27> %scf
| 28>   MaxIter 150
| 29> end
| 30>
| 31>
| 32>                          ****END OF INPUT****

CARTESIAN COORDINATES (ANGSTROEM)
---------------------------------
  C      2.916320   -1.242590   -1.543130
  C      3.466590   -1.590970   -2.889080
  N      4.652270   -1.143160   -3.259690
  N      2.752260   -2.292040   -3.728030
  H      1.778360   -2.489600   -3.512740
  H      2.948610   -2.208540   -4.716810
  H      5.146720   -0.512510   -2.633850
  H      4.783030   -1.007200   -4.253500
  C      2.804080    0.290700   -1.359240
  C      2.388380    1.093670   -2.597110
  H      3.763420    0.674720   -0.999890
  H      2.094790    0.461220   -0.545760
  H      1.940470   -1.716530   -1.441160
  H      3.558570   -1.663430   -0.766370
  H      3.088940    0.919650   -3.386940
  H      2.373010    2.136330   -2.357280
  H      1.413030    0.785510   -2.911150

 Total Charge           Charge          ....    1
 Multiplicity           Mult            ....    1
 Number of Electrons    NEL             ....   48
 Basis Dimension        Dim             ....  208

ORBITAL ENERGIES
----------------

  NO   OCC          E(Eh)            E(eV)
   0   2.0000     -14.643730      -398.4762
   1   2.0000     -14.637967      -398.3193
   2   2.0000     -10.555298      -287.2243
   3   2.0000     -10.431049      -283.8433
   4   2.0000     -10.401955      -283.0516
   5   2.0000     -10.368870      -282.1513
   6   2.0000      -1.228835       -33.4383
   7   2.0000      -1.127232       -30.6736
   8   2.0000      -0.993774       -27.0420
   9   2.0000      -0.908777       -24.7291
  10   2.0000      -0.852907       -23.2088
  11   2.0000      -0.801427       -21.8079
  12   2.0000      -0.785406       -21.3720
  13   2.0000      -0.748544       -20.3689
  14   2.0000      -0.712583       -19.3904
  15   2.0000      -0.679653       -18.4943
  16   2.0000      -0.645465       -17.5640
  17   2.0000      -0.608213       -16.5503
  18   2.0000      -0.591588       -16.0979
  19   2.0000      -0.579080       -15.7576
  20   2.0000      -0.526344       -14.3226
  21   2.0000      -0.520916       -14.1748
  22   2.0000      -0.512325       -13.9411
  23   2.0000      -0.503744       -13.7076
  24   0.0000      -0.216110        -5.8807
  25   0.0000      -0.149927        -4.0797
  26   0.0000      -0.111197        -3.0258
  27   0.0000      -0.108398        -2.9497
  28   0.0000      -0.078118        -2.1257

MULLIKEN ATOMIC CHARGES
-----------------------
   0 C :    0.187854
   1 C :    0.569725
   2 N :   -0.025171
   3 N :   -0.049237
   4 H :    0.065789
   5 H :   -0.072916
   6 H :    0.075070
   7 H :   -0.012283
   8 C :   -0.485745
   9 C :    0.623532
  10 H :    0.061599
  11 H :   -0.103272
  12 H :    0.137634
  13 H :    0.063270
  14 H :   -0.029194
  15 H :   -0.035478
  16 H :    0.028823
Sum of atomic charges:    1.0000000

LOEWDIN ATOMIC CHARGES
----------------------
   0 C :    0.053411
   1 C :   -0.060745
   2 N :    0.284612
   3 N :    0.286322
   4 H :    0.057052
   5 H :    0.050294
   6 H :    0.054950
   7 H :    0.047997
   8 C :   -0.039051
   9 C :    0.139267
  10 H :    0.027796
  11 H :    0.040478
  12 H :    0.037515
  13 H :    0.055428
  14 H :   -0.035245
  15 H :    0.004399
  16 H :   -0.004479

  Mayer bond orders larger than 0.100000
B(  0-C ,  1-C ) :   1.2100 B(  0-C ,  8-C ) :   1.2123 B(  0-C , 11-H ) :   0.1021
B(  0-C , 12-H ) :   0.7888 B(  0-C , 13-H ) :   0.7791 B(  1-C ,  2-N ) :   1.0770
B(  1-C ,  3-N ) :   1.0036 B(  1-C ,  5-H ) :  -0.1118 B(  1-C , 12-H ) :   0.1199
B(  1-C , 13-H ) :   0.1721 B(  2-N ,  3-N ) :   0.1785 B(  2-N ,  6-H ) :   0.9767
B(  2-N ,  7-H ) :   1.1282 B(  3-N ,  4-H ) :   1.0330 B(  3-N ,  5-H ) :   1.1897
B(  4-H ,  5-H ) :  -0.1309 B(  6-H ,  7-H ) :  -0.1142 B(  8-C ,  9-C ) :   1.3416
B(  8-C , 10-H ) :   0.9119 B(  8-C , 11-H ) :   1.0105 B(  8-C , 12-H ) :   0.1325
B(  8-C , 14-H ) :   0.1948 B(  8-C , 15-H ) :   0.1985 B(  8-C , 16-H ) :   0.1745
B(  9-C , 14-H ) :   0.8485 B(  9-C , 15-H ) :   0.7870 B(  9-C , 16-H ) :   0.8046

Dispersion correction           -0.011973633
FINAL SINGLE POINT ENERGY      -267.853749203084

DIPOLE MOMENT
-------------
                                X             Y             Z
Electronic contribution:      2.03398      -4.55447      -1.88257
Nuclear contribution   :     -1.81078       3.96608       0.97433
                        -----------------------------------------
Total Dipole Moment    :      0.22320      -0.58840      -0.90824
                        -----------------------------------------
Magnitude (a.u.)       :      1.10496
Magnitude (Debye)      :      2.80858

Rotational constants in cm-1:     0.170042     0.080945     0.078209
Rotational constants in MHz :  5097.737821  2426.678005  2344.636232

                             ****ORCA TERMINATED NORMALLY****
TOTAL RUN TIME: 0 days 0 hours 0 minutes 13 seconds 616 msec
