                         Program Version 5.0.0 -  RELEASE  -
|  1> !PBE0 D3BJ RIJCOSX def2-SVPD def2/J TightSCF
|  2> *xyz 0 1
|  3> C          0.70466        1.44313       -4.50363
|  4> C          1.72854        1.42432       -5.63944
|  5> H          2.64672        1.95379       -5.38105
|  6> H          1.29992        1.93061       -6.50361
|  7> S          2.25263       -0.18811       -6.27184
|  8> F          3.56261       -0.44446       -5.63155
|  9> O          2.34494       -0.03374       -7.69650
| 10> C          1.05255        0.69566       -3.21491
| 11> H         -0.23248        1.03293       -4.88445
| 12> H          0.51170        2.49579       -4.26797
| 13> O          1.26606       -1.15918       -5.80536
| 14> H          1.24200       -0.33323       -3.43942
| 15> H          0.23391        0.76629       -2.52954
| 16> H          1.92506        1.13113       -2.77446
| 17> *
| 18>
| 19> %MaxCore 64000
| 20>
| 21> %pal nprocs 8
| 22> end
| 23>
| 24> %scf
| 25>   MaxIter 150
| 26> end
| 27>
| 28>
| 29>                          ****END OF INPUT****

CARTESIAN COORDINATES (ANGSTROEM)
---------------------------------
  C      0.704660    1.443130   -4.503630
  C      1.728540    1.424320   -5.639440
  H      2.646720    1.953790   -5.381050
  H      1.299920    1.930610   -6.503610
  S      2.252630   -0.188110   -6.271840
  F      3.562610   -0.444460   -5.631550
  O      2.344940   -0.033740   -7.696500
  C      1.052550    0.695660   -3.214910
  H     -0.232480    1.032930   -4.884450
  H      0.511700    2.495790   -4.267970
  O      1.266060   -1.159180   -5.805360
  H      1.242000   -0.333230   -3.439420
  H      0.233910    0.766290   -2.529540
  H      1.925060    1.131130   -2.774460

 Total Charge           Charge          ....    0
 Multiplicity           Mult            ....    1
 Number of Electrons    NEL             ....   66
 Basis Dimension        Dim             ....  212

ORBITAL ENERGIES
----------------

  NO   OCC          E(Eh)            E(eV)
   0   2.0000     -89.295248     -2429.8472
   1   2.0000     -24.884301      -677.1362
   2   2.0000     -19.234850      -523.4069
   3   2.0000     -19.227472      -523.2061
   4   2.0000     -10.296587      -280.1844
   5   2.0000     -10.263829      -279.2930
   6   2.0000     -10.231578      -278.4154
   7   2.0000      -8.255438      -224.6419
   8   2.0000      -6.201519      -168.7519
   9   2.0000      -6.195499      -168.5881
  10   2.0000      -6.194276      -168.5548
  11   2.0000      -1.377330       -37.4790
  12   2.0000      -1.144380       -31.1402
  13   2.0000      -1.046505       -28.4769
  14   2.0000      -0.850363       -23.1396
  15   2.0000      -0.771673       -20.9983
  16   2.0000      -0.721176       -19.6242
  17   2.0000      -0.652308       -17.7502
  18   2.0000      -0.589168       -16.0321
  19   2.0000      -0.584540       -15.9061
  20   2.0000      -0.571538       -15.5523
  21   2.0000      -0.514842       -14.0096
  22   2.0000      -0.497598       -13.5403
  23   2.0000      -0.473410       -12.8822
  24   2.0000      -0.466371       -12.6906
  25   2.0000      -0.452463       -12.3121
  26   2.0000      -0.411206       -11.1895
  27   2.0000      -0.397254       -10.8098
  28   2.0000      -0.387778       -10.5520
  29   2.0000      -0.373977       -10.1764
  30   2.0000      -0.352253        -9.5853
  31   2.0000      -0.342739        -9.3264
  32   2.0000      -0.332617        -9.0510
  33   0.0000       0.005274         0.1435
  34   0.0000       0.023904         0.6505
  35   0.0000       0.036444         0.9917
  36   0.0000       0.041114         1.1188
  37   0.0000       0.051682         1.4064

MULLIKEN ATOMIC CHARGES
-----------------------
   0 C :   -0.384034
   1 C :   -0.116435
   2 H :    0.106322
   3 H :    0.111409
   4 S :    1.563165
   5 F :   -0.422897
   6 O :   -0.711143
   7 C :    0.616896
   8 H :    0.067430
   9 H :   -0.051907
  10 O :   -0.728879
  11 H :   -0.099361
  12 H :    0.027942
  13 H :    0.021493
Sum of atomic charges:    0.0000000

LOEWDIN ATOMIC CHARGES
----------------------
   0 C :   -0.079032
   1 C :   -0.044269
   2 H :    0.021769
   3 H :    0.025634
   4 S :    1.135755
   5 F :   -0.278399
   6 O :   -0.462280
   7 C :    0.134343
   8 H :    0.032463
   9 H :    0.032871
  10 O :   -0.470982
  11 H :   -0.028030
  12 H :   -0.008326
  13 H :   -0.011517

  Mayer bond orders larger than 0.100000
B(  0-C ,  1-C ) :   1.3310 B(  0-C ,  2-H ) :   0.1206 B(  0-C ,  3-H ) :   0.1205
B(  0-C ,  7-C ) :   1.3071 B(  0-C ,  8-H ) :   0.9070 B(  0-C ,  9-H ) :   0.9037
B(  0-C , 11-H ) :   0.1843 B(  0-C , 12-H ) :   0.1846 B(  0-C , 13-H ) :   0.1893
B(  1-C ,  2-H ) :   0.9087 B(  1-C ,  3-H ) :   0.8914 B(  1-C ,  4-S ) :   0.9621
B(  1-C ,  8-H ) :   0.1313 B(  1-C ,  9-H ) :   0.1259 B(  4-S ,  5-F ) :   0.5953
B(  4-S ,  6-O ) :   1.5287 B(  4-S , 10-O ) :   1.4624 B(  7-C , 11-H ) :   0.8713
B(  7-C , 12-H ) :   0.7700 B(  7-C , 13-H ) :   0.8027

Dispersion correction           -0.010934580
FINAL SINGLE POINT ENERGY      -766.047545147031

DIPOLE MOMENT
-------------
                                X             Y             Z
Electronic contribution:      7.35626      -6.69223      -8.21251
Nuclear contribution   :     -7.21372       8.00417       9.21533
                        -----------------------------------------
Total Dipole Moment    :      0.14254       1.31194       1.00282
                        -----------------------------------------
Magnitude (a.u.)       :      1.65745
Magnitude (Debye)      :      4.21290

Rotational constants in cm-1:     0.129205     0.053290     0.050128
Rotational constants in MHz :  3873.458819  1597.595736  1502.810344

                             ****ORCA TERMINATED NORMALLY****
TOTAL RUN TIME: 0 days 0 hours 0 minutes 13 seconds 516 msec
