                         Program Version 5.0.0 -  RELEASE  -
|  1> !PBE0 D3BJ RIJCOSX def2-SVPD def2/J TightSCF
|  2> *xyz 0 1
|  3> C          2.91632       -1.24259       -1.54313
|  4> C          3.46659       -1.59097       -2.88908
|  5> C          4.65227       -1.14316       -3.25969
|  6> N          2.75226       -2.29204       -3.72803
|  7> H          1.77836       -2.48960       -3.51274
|  8> H          2.94861       -2.20854       -4.71681
|  9> H          5.14672       -0.51251       -2.63385
| 10> H          4.78303       -1.00720       -4.25350
| 11> C          2.80408        0.29070       -1.35924
| 12> C          2.38838        1.09367       -2.59711
| 13> H          3.76342        0.67472       -0.99989
| 14> H          2.09479        0.46122       -0.54576
| 15> H          1.94047       -1.71653       -1.44116
| 16> H          3.55857       -1.66343       -0.76637
| 17> H          3.08894        0.91965       -3.38694
| 18> H          2.37301        2.13633       -2.35728
| 19> H          1.41303        0.78551       -2.91115
| 20> *
| 21>
| 22> %MaxCore 64000
| 23>
| 24> %pal nprocs 8
| 25> end
| 26>
| 27> %scf
| 28>   MaxIter 150
| 29> end
| 30>
| 31>
| 32>                          ****END OF INPUT****

CARTESIAN COORDINATES (ANGSTROEM)
---------------------------------
  C      2.916320   -1.242590   -1.543130
  C      3.466590   -1.590970   -2.889080
  C      4.652270   -1.143160   -3.259690
  N      2.752260   -2.292040   -3.728030
  H      1.778360   -2.489600   -3.512740
  H      2.948610   -2.208540   -4.716810
  H      5.146720   -0.512510   -2.633850
  H      4.783030   -1.007200   -4.253500
  C      2.804080    0.290700   -1.359240
  C      2.388380    1.093670   -2.597110
  H      3.763420    0.674720   -0.999890
  H      2.094790    0.461220   -0.545760
  H      1.940470   -1.716530   -1.441160
  H      3.558570   -1.663430   -0.766370
  H      3.088940    0.919650   -3.386940
  H      2.373010    2.136330   -2.357280
  H      1.413030    0.785510   -2.911150

 Total Charge           Charge          ....    0
 Multiplicity           Mult            ....    1
 Number of Electrons    NEL             ....   48
 Basis Dimension        Dim             ....  208

ORBITAL ENERGIES
----------------

  NO   OCC          E(Eh)            E(eV)
   0   2.0000     -14.401586      -391.8871
   1   2.0000     -10.254351      -279.0351
   2   2.0000     -10.235033      -278.5094
   3   2.0000     -10.232085      -278.4292
   4   2.0000     -10.210827      -277.8507
   5   2.0000     -10.162248      -276.5288
   6   2.0000      -0.957471       -26.0541
   7   2.0000      -0.812342       -22.1050
   8   2.0000      -0.745008       -20.2727
   9   2.0000      -0.704351       -19.1664
  10   2.0000      -0.622567       -16.9409
  11   2.0000      -0.576027       -15.6745
  12   2.0000      -0.535092       -14.5606
  13   2.0000      -0.497739       -13.5442
  14   2.0000      -0.469603       -12.7786
  15   2.0000      -0.449323       -12.2267
  16   2.0000      -0.415545       -11.3076
  17   2.0000      -0.402622       -10.9559
  18   2.0000      -0.379938       -10.3386
  19   2.0000      -0.376858       -10.2548
  20   2.0000      -0.349658        -9.5147
  21   2.0000      -0.337939        -9.1958
  22   2.0000      -0.336195        -9.1483
  23   2.0000      -0.201463        -5.4821
  24   0.0000       0.022629         0.6158
  25   0.0000       0.030163         0.8208
  26   0.0000       0.052422         1.4265
  27   0.0000       0.061142         1.6638
  28   0.0000       0.068781         1.8716

MULLIKEN ATOMIC CHARGES
-----------------------
   0 C :    0.377473
   1 C :   -0.306501
   2 C :    0.399429
   3 N :   -0.002347
   4 H :   -0.052148
   5 H :   -0.096079
   6 H :   -0.042058
   7 H :   -0.289829
   8 C :   -0.529268
   9 C :    0.629734
  10 H :    0.056976
  11 H :   -0.131951
  12 H :    0.042757
  13 H :    0.014308
  14 H :   -0.007085
  15 H :   -0.084397
  16 H :    0.020987
Sum of atomic charges:   -0.0000000

LOEWDIN ATOMIC CHARGES
----------------------
   0 C :    0.013894
   1 C :   -0.271831
   2 C :    0.159209
   3 N :    0.170996
   4 H :    0.003041
   5 H :    0.010495
   6 H :   -0.073663
   7 H :   -0.080865
   8 C :   -0.061731
   9 C :    0.123056
  10 H :    0.017947
  11 H :    0.014889
  12 H :    0.011236
  13 H :    0.030536
  14 H :   -0.032214
  15 H :   -0.018027
  16 H :   -0.016967

  Mayer bond orders larger than 0.100000
B(  0-C ,  1-C ) :   1.1785 B(  0-C ,  8-C ) :   1.2147 B(  0-C , 11-H ) :   0.1613
B(  0-C , 12-H ) :   0.6930 B(  0-C , 13-H ) :   0.7951 B(  1-C ,  2-C ) :   2.1201
B(  1-C ,  3-N ) :   0.9175 B(  1-C ,  6-H ) :   0.1946 B(  1-C ,  7-H ) :   0.2591
B(  1-C , 12-H ) :   0.2006 B(  1-C , 13-H ) :   0.1608 B(  2-C ,  3-N ) :   0.2389
B(  2-C ,  6-H ) :   0.6869 B(  2-C ,  7-H ) :   0.7890 B(  3-N ,  4-H ) :   1.0476
B(  3-N ,  5-H ) :   1.0921 B(  4-H ,  5-H ) :  -0.1196 B(  8-C ,  9-C ) :   1.3172
B(  8-C , 10-H ) :   0.9049 B(  8-C , 11-H ) :   0.9853 B(  8-C , 12-H ) :   0.1377
B(  8-C , 13-H ) :   0.1030 B(  8-C , 14-H ) :   0.2266 B(  8-C , 15-H ) :   0.2138
B(  8-C , 16-H ) :   0.1866 B(  9-C , 14-H ) :   0.8495 B(  9-C , 15-H ) :   0.7821
B(  9-C , 16-H ) :   0.7963

Dispersion correction           -0.012392864
FINAL SINGLE POINT ENERGY      -251.401226730622

DIPOLE MOMENT
-------------
                                X             Y             Z
Electronic contribution:      0.59070      -3.82737      -0.94639
Nuclear contribution   :     -1.45921       3.88617       0.81775
                        -----------------------------------------
Total Dipole Moment    :     -0.86852       0.05879      -0.12865
                        -----------------------------------------
Magnitude (a.u.)       :      0.87996
Magnitude (Debye)      :      2.23668

Rotational constants in cm-1:     0.176264     0.082132     0.079980
Rotational constants in MHz :  5284.261828  2462.256672  2397.741351

                             ****ORCA TERMINATED NORMALLY****
TOTAL RUN TIME: 0 days 0 hours 0 minutes 13 seconds 329 msec
