                         Program Version 5.0.0 -  RELEASE  -
|  1> !PBE0 D3BJ RIJCOSX def2-SVPD def2/J TightSCF
|  2> *xyz 0 1
|  3> C          0.70466        1.44313       -4.50363
|  4> C          1.72854        1.42432       -5.63944
|  5> H          2.64672        1.95379       -5.38105
|  6> H          1.29992        1.93061       -6.50361
|  7> S          2.25263       -0.18811       -6.27184
|  8> O          3.56261       -0.44446       -5.63155
|  9> F          2.34494       -0.03374       -7.69650
| 10> C          1.05255        0.69566       -3.21491
| 11> H         -0.23248        1.03293       -4.88445
| 12> H          0.51170        2.49579       -4.26797
| 13> O          1.26606       -1.15918       -5.80536
| 14> H          1.24200       -0.33323       -3.43942
| 15> H          0.23391        0.76629       -2.52954
| 16> H          1.92506        1.13113       -2.77446
| 17> *
| 18>
| 19> %MaxCore 64000
| 20>
| 21> %pal nprocs 8
| 22> end
| 23>
| 24> %scf
| 25>   MaxIter 150
| 26> end
| 27>
| 28>
| 29>                          ****END OF INPUT****

CARTESIAN COORDINATES (ANGSTROEM)
---------------------------------
  C      0.704660    1.443130   -4.503630
  C      1.728540    1.424320   -5.639440
  H      2.646720    1.953790   -5.381050
  H      1.299920    1.930610   -6.503610
  S      2.252630   -0.188110   -6.271840
  O      3.562610   -0.444460   -5.631550
  F      2.344940   -0.033740   -7.696500
  C      1.052550    0.695660   -3.214910
  H     -0.232480    1.032930   -4.884450
  H      0.511700    2.495790   -4.267970
  O      1.266060   -1.159180   -5.805360
  H      1.242000   -0.333230   -3.439420
  H      0.233910    0.766290   -2.529540
  H      1.925060    1.131130   -2.774460

 Total Charge           Charge          ....    0
 Multiplicity           Mult            ....    1
 Number of Electrons    NEL             ....   66
 Basis Dimension        Dim             ....  212

ORBITAL ENERGIES
----------------

  NO   OCC          E(Eh)            E(eV)
   0   2.0000     -89.297331     -2429.9039
   1   2.0000     -24.907250      -677.7607
   2   2.0000     -19.228215      -523.2263
   3   2.0000     -19.219679      -522.9941
   4   2.0000     -10.297541      -280.2103
   5   2.0000     -10.264260      -279.3047
   6   2.0000     -10.225067      -278.2382
   7   2.0000      -8.257618      -224.7012
   8   2.0000      -6.203857      -168.8155
   9   2.0000      -6.197482      -168.6421
  10   2.0000      -6.196255      -168.6087
  11   2.0000      -1.415928       -38.5294
  12   2.0000      -1.130565       -30.7642
  13   2.0000      -1.026009       -27.9191
  14   2.0000      -0.849924       -23.1276
  15   2.0000      -0.779090       -21.2001
  16   2.0000      -0.731448       -19.9037
  17   2.0000      -0.656444       -17.8627
  18   2.0000      -0.613667       -16.6987
  19   2.0000      -0.602748       -16.4016
  20   2.0000      -0.571688       -15.5564
  21   2.0000      -0.509192       -13.8558
  22   2.0000      -0.500159       -13.6100
  23   2.0000      -0.475257       -12.9324
  24   2.0000      -0.462910       -12.5964
  25   2.0000      -0.439292       -11.9538
  26   2.0000      -0.404111       -10.9964
  27   2.0000      -0.391487       -10.6529
  28   2.0000      -0.384725       -10.4689
  29   2.0000      -0.369221       -10.0470
  30   2.0000      -0.344223        -9.3668
  31   2.0000      -0.334191        -9.0938
  32   2.0000      -0.318103        -8.6560
  33   0.0000       0.002535         0.0690
  34   0.0000       0.019817         0.5392
  35   0.0000       0.039915         1.0861
  36   0.0000       0.041624         1.1326
  37   0.0000       0.049121         1.3366

MULLIKEN ATOMIC CHARGES
-----------------------
   0 C :   -0.416876
   1 C :   -0.112221
   2 H :    0.100164
   3 H :    0.118733
   4 S :    1.595747
   5 O :   -0.712021
   6 F :   -0.442123
   7 C :    0.619788
   8 H :    0.066137
   9 H :   -0.052455
  10 O :   -0.724257
  11 H :   -0.092181
  12 H :    0.027912
  13 H :    0.023654
Sum of atomic charges:   -0.0000000

LOEWDIN ATOMIC CHARGES
----------------------
   0 C :   -0.074693
   1 C :   -0.050012
   2 H :    0.026625
   3 H :    0.013249
   4 S :    1.140482
   5 O :   -0.487956
   6 F :   -0.258674
   7 C :    0.139786
   8 H :    0.030238
   9 H :    0.033864
  10 O :   -0.473319
  11 H :   -0.022646
  12 H :   -0.009181
  13 H :   -0.007762

  Mayer bond orders larger than 0.100000
B(  0-C ,  1-C ) :   1.3388 B(  0-C ,  2-H ) :   0.1151 B(  0-C ,  3-H ) :   0.1379
B(  0-C ,  7-C ) :   1.3108 B(  0-C ,  8-H ) :   0.9037 B(  0-C ,  9-H ) :   0.9084
B(  0-C , 11-H ) :   0.1856 B(  0-C , 12-H ) :   0.1858 B(  0-C , 13-H ) :   0.1934
B(  1-C ,  2-H ) :   0.9351 B(  1-C ,  3-H ) :   0.8447 B(  1-C ,  4-S ) :   0.9474
B(  1-C ,  8-H ) :   0.1276 B(  1-C ,  9-H ) :   0.1234 B(  4-S ,  5-O ) :   1.4490
B(  4-S ,  6-F ) :   0.6466 B(  4-S , 10-O ) :   1.4358 B(  7-C , 11-H ) :   0.8731
B(  7-C , 12-H ) :   0.7643 B(  7-C , 13-H ) :   0.7987

Dispersion correction           -0.010984844
FINAL SINGLE POINT ENERGY      -766.027673861661

DIPOLE MOMENT
-------------
                                X             Y             Z
Electronic contribution:      5.25438      -5.99438     -11.77736
Nuclear contribution   :     -5.90419       7.56246      11.43606
                        -----------------------------------------
Total Dipole Moment    :     -0.64981       1.56808      -0.34129
                        -----------------------------------------
Magnitude (a.u.)       :      1.73136
Magnitude (Debye)      :      4.40076

Rotational constants in cm-1:     0.133686     0.052402     0.049175
Rotational constants in MHz :  4007.807944  1570.986792  1474.216272

                             ****ORCA TERMINATED NORMALLY****
TOTAL RUN TIME: 0 days 0 hours 0 minutes 13 seconds 733 msec
