                         Program Version 5.0.0 -  RELEASE  -
|  1> !PBE0 D3BJ RIJCOSX def2-SVPD def2/J TightSCF
|  2> *xyz 0 1
|  3> C          2.91632       -1.24259       -1.54313
|  4> C          3.46659       -1.59097       -2.88908
|  5> N          4.65227       -1.14316       -3.25969
|  6> C          2.75226       -2.29204       -3.72803
|  7> H          1.77836       -2.48960       -3.51274
|  8> H          2.94861       -2.20854       -4.71681
|  9> H          5.14672       -0.51251       -2.63385
| 10> H          4.78303       -1.00720       -4.25350
| 11> C          2.80408        0.29070       -1.35924
| 12> C          2.38838        1.09367       -2.59711
| 13> H          3.76342        0.67472       -0.99989
| 14> H          2.09479        0.46122       -0.54576
| 15> H          1.94047       -1.71653       -1.44116
| 16> H          3.55857       -1.66343       -0.76637
| 17> H          3.08894        0.91965       -3.38694
| 18> H          2.37301        2.13633       -2.35728
| 19> H          1.41303        0.78551       -2.91115
| 20> *
| 21>
| 22> %MaxCore 64000
| 23>
| 24> %pal nprocs 8
| 25> end
| 26>
| 27> %scf
| 28>   MaxIter 150
| 29> end
| 30>
| 31>
| 32>                          ****END OF INPUT****

CARTESIAN COORDINATES (ANGSTROEM)
---------------------------------
  C      2.916320   -1.242590   -1.543130
  C      3.466590   -1.590970   -2.889080
  N      4.652270   -1.143160   -3.259690
  C      2.752260   -2.292040   -3.728030
  H      1.778360   -2.489600   -3.512740
  H      2.948610   -2.208540   -4.716810
  H      5.146720   -0.512510   -2.633850
  H      4.783030   -1.007200   -4.253500
  C      2.804080    0.290700   -1.359240
  C      2.388380    1.093670   -2.597110
  H      3.763420    0.674720   -0.999890
  H      2.094790    0.461220   -0.545760
  H      1.940470   -1.716530   -1.441160
  H      3.558570   -1.663430   -0.766370
  H      3.088940    0.919650   -3.386940
  H      2.373010    2.136330   -2.357280
  H      1.413030    0.785510   -2.911150

 Total Charge           Charge          ....    0
 Multiplicity           Mult            ....    1
 Number of Electrons    NEL             ....   48
 Basis Dimension        Dim             ....  208

ORBITAL ENERGIES
----------------

  NO   OCC          E(Eh)            E(eV)
   0   2.0000     -14.397708      -391.7815
   1   2.0000     -10.252821      -278.9934
   2   2.0000     -10.236254      -278.5426
   3   2.0000     -10.232925      -278.4520
   4   2.0000     -10.215456      -277.9767
   5   2.0000     -10.166173      -276.6356
   6   2.0000      -0.952607       -25.9218
   7   2.0000      -0.810198       -22.0466
   8   2.0000      -0.755087       -20.5470
   9   2.0000      -0.702493       -19.1158
  10   2.0000      -0.616587       -16.7782
  11   2.0000      -0.578029       -15.7290
  12   2.0000      -0.541438       -14.7333
  13   2.0000      -0.483353       -13.1527
  14   2.0000      -0.472860       -12.8672
  15   2.0000      -0.466076       -12.6826
  16   2.0000      -0.409403       -11.1404
  17   2.0000      -0.404312       -11.0019
  18   2.0000      -0.388814       -10.5802
  19   2.0000      -0.377405       -10.2697
  20   2.0000      -0.347305        -9.4506
  21   2.0000      -0.342649        -9.3239
  22   2.0000      -0.330177        -8.9846
  23   2.0000      -0.209129        -5.6907
  24   0.0000       0.018876         0.5136
  25   0.0000       0.032359         0.8805
  26   0.0000       0.058604         1.5947
  27   0.0000       0.060155         1.6369
  28   0.0000       0.067028         1.8239

MULLIKEN ATOMIC CHARGES
-----------------------
   0 C :    0.237882
   1 C :   -0.323623
   2 N :    0.057068
   3 C :    0.246712
   4 H :    0.012467
   5 H :   -0.336097
   6 H :   -0.020403
   7 H :   -0.044475
   8 C :   -0.504961
   9 C :    0.651389
  10 H :    0.042460
  11 H :   -0.123178
  12 H :    0.212807
  13 H :   -0.003527
  14 H :   -0.065612
  15 H :   -0.014885
  16 H :   -0.024027
Sum of atomic charges:   -0.0000000

LOEWDIN ATOMIC CHARGES
----------------------
   0 C :    0.011659
   1 C :   -0.280698
   2 N :    0.172152
   3 C :    0.170430
   4 H :   -0.075843
   5 H :   -0.079493
   6 H :    0.005411
   7 H :    0.009719
   8 C :   -0.065496
   9 C :    0.122096
  10 H :    0.010788
  11 H :    0.016728
  12 H :    0.023064
  13 H :    0.024347
  14 H :   -0.034909
  15 H :   -0.017836
  16 H :   -0.012118

  Mayer bond orders larger than 0.100000
B(  0-C ,  1-C ) :   1.3096 B(  0-C ,  8-C ) :   1.2117 B(  0-C , 10-H ) :   0.1084
B(  0-C , 11-H ) :   0.1507 B(  0-C , 12-H ) :   0.7917 B(  0-C , 13-H ) :   0.7496
B(  1-C ,  2-N ) :   0.9276 B(  1-C ,  3-C ) :   2.0760 B(  1-C ,  4-H ) :   0.1180
B(  1-C ,  5-H ) :   0.3340 B(  1-C , 13-H ) :   0.2407 B(  2-N ,  3-C ) :   0.3372
B(  2-N ,  6-H ) :   0.9645 B(  2-N ,  7-H ) :   0.9995 B(  3-C ,  4-H ) :   0.8502
B(  3-C ,  5-H ) :   0.7242 B(  4-H ,  5-H ) :   0.1111 B(  6-H ,  7-H ) :  -0.1072
B(  8-C ,  9-C ) :   1.3145 B(  8-C , 10-H ) :   0.8978 B(  8-C , 11-H ) :   0.9953
B(  8-C , 12-H ) :   0.1322 B(  8-C , 14-H ) :   0.2117 B(  8-C , 15-H ) :   0.2013
B(  8-C , 16-H ) :   0.1815 B(  9-C , 14-H ) :   0.8582 B(  9-C , 15-H ) :   0.7475
B(  9-C , 16-H ) :   0.8164 B( 14-H , 16-H ) :   0.1100

Dispersion correction           -0.012366681
FINAL SINGLE POINT ENERGY      -251.405067049827

DIPOLE MOMENT
-------------
                                X             Y             Z
Electronic contribution:      2.19974      -2.83582      -0.54846
Nuclear contribution   :     -1.90863       3.61442       0.70697
                        -----------------------------------------
Total Dipole Moment    :      0.29112       0.77860       0.15851
                        -----------------------------------------
Magnitude (a.u.)       :      0.84622
Magnitude (Debye)      :      2.15092

Rotational constants in cm-1:     0.173428     0.083686     0.080523
Rotational constants in MHz :  5199.232598  2508.829970  2414.016775

                             ****ORCA TERMINATED NORMALLY****
TOTAL RUN TIME: 0 days 0 hours 0 minutes 12 seconds 691 msec
