                         Program Version 5.0.0 -  RELEASE  -
|  1> !PBE0 D3BJ RIJCOSX def2-SVPD def2/J TightSCF
|  2> *xyz 0 1
|  3> C          0.70466        1.44313       -4.50363
|  4> C          1.72854        1.42432       -5.63944
|  5> H          2.64672        1.95379       -5.38105
|  6> H          1.29992        1.93061       -6.50361
|  7> S          2.25263       -0.18811       -6.27184
|  8> O          3.56261       -0.44446       -5.63155
|  9> O          2.34494       -0.03374       -7.69650
| 10> C          1.05255        0.69566       -3.21491
| 11> H         -0.23248        1.03293       -4.88445
| 12> H          0.51170        2.49579       -4.26797
| 13> F          1.26606       -1.15918       -5.80536
| 14> H          1.24200       -0.33323       -3.43942
| 15> H          0.23391        0.76629       -2.52954
| 16> H          1.92506        1.13113       -2.77446
| 17> *
| 18>
| 19> %MaxCore 64000
| 20>
| 21> %pal nprocs 8
| 22> end
| 23>
| 24> %scf
| 25>   MaxIter 150
| 26> end
| 27>
| 28>
| 29>                          ****END OF INPUT****

CARTESIAN COORDINATES (ANGSTROEM)
---------------------------------
  C      0.704660    1.443130   -4.503630
  C      1.728540    1.424320   -5.639440
  H      2.646720    1.953790   -5.381050
  H      1.299920    1.930610   -6.503610
  S      2.252630   -0.188110   -6.271840
  O      3.562610   -0.444460   -5.631550
  O      2.344940   -0.033740   -7.696500
  C      1.052550    0.695660   -3.214910
  H     -0.232480    1.032930   -4.884450
  H      0.511700    2.495790   -4.267970
  F      1.266060   -1.159180   -5.805360
  H      1.242000   -0.333230   -3.439420
  H      0.233910    0.766290   -2.529540
  H      1.925060    1.131130   -2.774460

 Total Charge           Charge          ....    0
 Multiplicity           Mult            ....    1
 Number of Electrons    NEL             ....   66
 Basis Dimension        Dim             ....  212

ORBITAL ENERGIES
----------------

  NO   OCC          E(Eh)            E(eV)
   0   2.0000     -89.295366     -2429.8504
   1   2.0000     -24.895054      -677.4289
   2   2.0000     -19.234460      -523.3963
   3   2.0000     -19.218330      -522.9573
   4   2.0000     -10.296236      -280.1748
   5   2.0000     -10.270947      -279.4867
   6   2.0000     -10.239561      -278.6326
   7   2.0000      -8.255610      -224.6466
   8   2.0000      -6.201872      -168.7615
   9   2.0000      -6.195555      -168.5896
  10   2.0000      -6.194276      -168.5548
  11   2.0000      -1.394292       -37.9406
  12   2.0000      -1.139736       -31.0138
  13   2.0000      -1.033542       -28.1241
  14   2.0000      -0.855255       -23.2727
  15   2.0000      -0.774650       -21.0793
  16   2.0000      -0.729708       -19.8564
  17   2.0000      -0.659287       -17.9401
  18   2.0000      -0.606691       -16.5089
  19   2.0000      -0.598606       -16.2889
  20   2.0000      -0.561917       -15.2906
  21   2.0000      -0.511623       -13.9220
  22   2.0000      -0.496061       -13.4985
  23   2.0000      -0.485358       -13.2073
  24   2.0000      -0.466327       -12.6894
  25   2.0000      -0.451174       -12.2771
  26   2.0000      -0.411031       -11.1847
  27   2.0000      -0.401397       -10.9226
  28   2.0000      -0.395536       -10.7631
  29   2.0000      -0.379732       -10.3330
  30   2.0000      -0.348212        -9.4753
  31   2.0000      -0.334835        -9.1113
  32   2.0000      -0.323534        -8.8038
  33   0.0000      -0.003432        -0.0934
  34   0.0000       0.030975         0.8429
  35   0.0000       0.037789         1.0283
  36   0.0000       0.040462         1.1010
  37   0.0000       0.046905         1.2763

MULLIKEN ATOMIC CHARGES
-----------------------
   0 C :   -0.403487
   1 C :   -0.083119
   2 H :    0.098425
   3 H :    0.117930
   4 S :    1.540814
   5 O :   -0.714457
   6 O :   -0.703878
   7 C :    0.630885
   8 H :    0.041058
   9 H :   -0.045388
  10 F :   -0.430497
  11 H :   -0.106174
  12 H :    0.032096
  13 H :    0.025792
Sum of atomic charges:   -0.0000000

LOEWDIN ATOMIC CHARGES
----------------------
   0 C :   -0.087044
   1 C :   -0.038600
   2 H :    0.034721
   3 H :    0.020501
   4 S :    1.132114
   5 O :   -0.489354
   6 O :   -0.462053
   7 C :    0.135710
   8 H :    0.026700
   9 H :    0.033313
  10 F :   -0.268017
  11 H :   -0.025339
  12 H :   -0.008295
  13 H :   -0.004358

  Mayer bond orders larger than 0.100000
B(  0-C ,  1-C ) :   1.2905 B(  0-C ,  2-H ) :   0.1195 B(  0-C ,  3-H ) :   0.1269
B(  0-C ,  7-C ) :   1.3073 B(  0-C ,  8-H ) :   0.9210 B(  0-C ,  9-H ) :   0.9057
B(  0-C , 11-H ) :   0.1830 B(  0-C , 12-H ) :   0.1859 B(  0-C , 13-H ) :   0.1963
B(  1-C ,  2-H ) :   0.9191 B(  1-C ,  3-H ) :   0.8871 B(  1-C ,  4-S ) :   0.9724
B(  1-C ,  8-H ) :   0.1196 B(  1-C ,  9-H ) :   0.1256 B(  4-S ,  5-O ) :   1.4592
B(  4-S ,  6-O ) :   1.5200 B(  4-S , 10-F ) :   0.6149 B(  7-C , 11-H ) :   0.8678
B(  7-C , 12-H ) :   0.7639 B(  7-C , 13-H ) :   0.8026

Dispersion correction           -0.010884399
FINAL SINGLE POINT ENERGY      -766.037211986421

DIPOLE MOMENT
-------------
                                X             Y             Z
Electronic contribution:      3.39624      -7.85977      -8.47810
Nuclear contribution   :     -4.74391       8.77281       9.40225
                        -----------------------------------------
Total Dipole Moment    :     -1.34767       0.91303       0.92416
                        -----------------------------------------
Magnitude (a.u.)       :      1.87187
Magnitude (Debye)      :      4.75793

Rotational constants in cm-1:     0.129476     0.053470     0.050698
Rotational constants in MHz :  3881.594668  1602.990831  1519.898630

                             ****ORCA TERMINATED NORMALLY****
TOTAL RUN TIME: 0 days 0 hours 0 minutes 13 seconds 746 msec
