                         Program Version 5.0.0 -  RELEASE  -
|  1> !PBE0 D3BJ RIJCOSX def2-SVPD def2/J TightSCF xyzfile
|  2>
|  3> *xyzfile 0 1 D2.xyz
|  4>
|  5> %MaxCore 64000
|  6>
|  7> %pal nprocs 4
|  8> end
|  9>
| 10> %scf
| 11>   MaxIter 150
| 12> end
| 13>
| 14>
| 15>                          ****END OF INPUT****

CARTESIAN COORDINATES (ANGSTROEM)
---------------------------------
  C      2.916324   -1.242589   -1.543125
  C      0.704661    1.443129   -4.503630
  C      1.728539    1.424320   -5.639443
  H      2.646718    1.953794   -5.381054
  H      1.299916    1.930613   -6.503614
  S      2.252625   -0.188115   -6.271840
  C      3.466585   -1.590971   -2.889082
  N      4.652275   -1.143164   -3.259692
  C      2.752264   -2.292043   -3.728029
  H      1.778364   -2.489604   -3.512738
  H      2.948612   -2.208544   -4.716813
  H      5.146723   -0.512508   -2.633852
  H      4.783030   -1.007203   -4.253498
  F      3.562607   -0.444464   -5.631552
  O      2.344944   -0.033742   -7.696501
  C      2.804084    0.290698   -1.359243
  C      1.052550    0.695659   -3.214915
  H     -0.232483    1.032925   -4.884449
  H      0.511700    2.495794   -4.267966
  C      2.388380    1.093669   -2.597108
  H      3.763425    0.674718   -0.999889
  H      2.094788    0.461222   -0.545756
  O      1.266058   -1.159177   -5.805365
  H      3.167316    1.013242   -3.359430
  H      2.357690    2.149375   -2.310997
  H      1.039284   -0.368429   -3.449329
  H      0.250787    0.865605   -2.488283
  H      1.940472   -1.716529   -1.441161
  H      3.558569   -1.663433   -0.766371

 Total Charge           Charge          ....    0
 Multiplicity           Mult            ....    1
 Number of Electrons    NEL             ....  112
 Basis Dimension        Dim             ....  404

ORBITAL ENERGIES
----------------

  NO   OCC          E(Eh)            E(eV)
   0   2.0000     -89.298877     -2429.9460
   1   2.0000     -24.892099      -677.3484
   2   2.0000     -19.237538      -523.4800
   3   2.0000     -19.227318      -523.2019
   4   2.0000     -14.395777      -391.7290
   5   2.0000     -10.297046      -280.1969
   6   2.0000     -10.261216      -279.2219
   7   2.0000     -10.249573      -278.9051
   8   2.0000     -10.242988      -278.7259
   9   2.0000     -10.241028      -278.6726
  10   2.0000     -10.236166      -278.5402
  11   2.0000     -10.235286      -278.5163
  12   2.0000     -10.162245      -276.5287
  13   2.0000      -8.257901      -224.7089
  14   2.0000      -6.204277      -168.8270
  15   2.0000      -6.197926      -168.6541
  16   2.0000      -6.196657      -168.6196
  17   2.0000      -1.386489       -37.7283
  18   2.0000      -1.146681       -31.2028
  19   2.0000      -1.047853       -28.5135
  20   2.0000      -0.952824       -25.9277
  21   2.0000      -0.858175       -23.3521
  22   2.0000      -0.821668       -22.3587
  23   2.0000      -0.781850       -21.2752
  24   2.0000      -0.753914       -20.5150
  25   2.0000      -0.731026       -19.8922
  26   2.0000      -0.699232       -19.0271
  27   2.0000      -0.647780       -17.6270
  28   2.0000      -0.614281       -16.7154
  29   2.0000      -0.596351       -16.2275
  30   2.0000      -0.590297       -16.0628
  31   2.0000      -0.577989       -15.7279
  32   2.0000      -0.566855       -15.4249
  33   2.0000      -0.540601       -14.7105
  34   2.0000      -0.512345       -13.9416
  35   2.0000      -0.508459       -13.8359
  36   2.0000      -0.496910       -13.5216
  37   2.0000      -0.484753       -13.1908
  38   2.0000      -0.470171       -12.7940
  39   2.0000      -0.461940       -12.5700
  40   2.0000      -0.453778       -12.3479
  41   2.0000      -0.434018       -11.8102
  42   2.0000      -0.420795       -11.4504
  43   2.0000      -0.407340       -11.0843
  44   2.0000      -0.401369       -10.9218
  45   2.0000      -0.397424       -10.8145
  46   2.0000      -0.382100       -10.3975
  47   2.0000      -0.372616       -10.1394
  48   2.0000      -0.362238        -9.8570
  49   2.0000      -0.350200        -9.5294
  50   2.0000      -0.348947        -9.4953
  51   2.0000      -0.340756        -9.2725
  52   2.0000      -0.336748        -9.1634
  53   2.0000      -0.329484        -8.9657
  54   2.0000      -0.327820        -8.9204
  55   2.0000      -0.205775        -5.5994
  56   0.0000       0.001792         0.0488
  57   0.0000       0.018675         0.5082
  58   0.0000       0.021748         0.5918
  59   0.0000       0.025464         0.6929
  60   0.0000       0.043370         1.1801

MULLIKEN ATOMIC CHARGES
-----------------------
   0 C :    0.311586
   1 C :    0.346518
   2 C :   -0.043256
   3 H :    0.242307
   4 H :   -0.135280
   5 S :    1.614338
   6 C :   -0.520607
   7 N :    0.203093
   8 C :    0.616866
   9 H :   -0.015784
  10 H :   -0.380430
  11 H :   -0.019774
  12 H :   -0.208364
  13 F :   -0.540945
  14 O :   -0.714798
  15 C :    0.324228
  16 C :    0.066170
  17 H :    0.087900
  18 H :    0.003930
  19 C :   -0.225554
  20 H :    0.038327
  21 H :   -0.059791
  22 O :   -0.797706
  23 H :    0.089781
  24 H :   -0.170033
  25 H :   -0.253917
  26 H :    0.003261
  27 H :    0.327101
  28 H :   -0.189166
Sum of atomic charges:   -0.0000000

LOEWDIN ATOMIC CHARGES
----------------------
   0 C :    0.024207
   1 C :   -0.027987
   2 C :   -0.033493
   3 H :    0.016122
   4 H :    0.024785
   5 S :    1.152322
   6 C :   -0.259284
   7 N :    0.184514
   8 C :    0.169406
   9 H :   -0.060288
  10 H :   -0.112195
  11 H :    0.007800
  12 H :   -0.033877
  13 F :   -0.292614
  14 O :   -0.451028
  15 C :   -0.015697
  16 C :   -0.016837
  17 H :    0.035185
  18 H :    0.035854
  19 C :   -0.030770
  20 H :    0.015006
  21 H :    0.021572
  22 O :   -0.450562
  23 H :   -0.006423
  24 H :    0.027712
  25 H :   -0.008723
  26 H :    0.035697
  27 H :    0.025443
  28 H :    0.024153

  Mayer bond orders larger than 0.100000
B(  0-C ,  6-C ) :   1.3240 B(  0-C , 15-C ) :   1.1786 B(  0-C , 20-H ) :   0.1194
B(  0-C , 21-H ) :   0.1810 B(  0-C , 27-H ) :   0.7763 B(  0-C , 28-H ) :   0.6684
B(  1-C ,  2-C ) :   1.2745 B(  1-C ,  4-H ) :   0.1968 B(  1-C , 16-C ) :   1.2906
B(  1-C , 17-H ) :   0.7036 B(  1-C , 18-H ) :   0.7767 B(  2-C ,  3-H ) :   0.8359
B(  2-C ,  4-H ) :   0.9313 B(  2-C ,  5-S ) :   0.9571 B(  2-C , 17-H ) :   0.1168
B(  2-C , 18-H ) :   0.1355 B(  5-S , 13-F ) :   0.5728 B(  5-S , 14-O ) :   1.4746
B(  5-S , 22-O ) :   1.4666 B(  6-C ,  7-N ) :   0.8559 B(  6-C ,  8-C ) :   2.0660
B(  6-C ,  9-H ) :   0.1321 B(  6-C , 10-H ) :   0.4707 B(  6-C , 15-C ) :   0.1349
B(  6-C , 28-H ) :   0.3670 B(  7-N ,  8-C ) :   0.4236 B(  7-N ,  9-H ) :   0.1054
B(  7-N , 11-H ) :   1.0009 B(  7-N , 12-H ) :   0.9356 B(  8-C ,  9-H ) :   0.6496
B(  8-C , 10-H ) :   0.2607 B(  9-H , 10-H ) :   0.1015 B( 10-H , 12-H ) :   0.1498
B( 11-H , 12-H ) :  -0.1453 B( 12-H , 13-F ) :   0.1540 B( 15-C , 19-C ) :   1.2506
B( 15-C , 20-H ) :   0.7096 B( 15-C , 21-H ) :   0.8370 B( 16-C , 17-H ) :   0.2312
B( 16-C , 19-C ) :   1.2780 B( 16-C , 23-H ) :   0.1082 B( 16-C , 24-H ) :   0.1552
B( 16-C , 25-H ) :   1.0113 B( 16-C , 26-H ) :   0.7083 B( 19-C , 20-H ) :   0.2393
B( 19-C , 21-H ) :   0.1674 B( 19-C , 23-H ) :   0.8581 B( 19-C , 24-H ) :   0.9210
B( 19-C , 25-H ) :   0.1209 B( 19-C , 26-H ) :   0.1899 B( 20-H , 21-H ) :  -0.1086

Dispersion correction           -0.032203873
FINAL SINGLE POINT ENERGY     -1016.258843192963

DIPOLE MOMENT
-------------
                                X             Y             Z
Electronic contribution:      3.44809      -4.22220     -18.21966
Nuclear contribution   :     -3.13969       6.14743      19.30799
                        -----------------------------------------
Total Dipole Moment    :      0.30840       1.92523       1.08833
                        -----------------------------------------
Magnitude (a.u.)       :      2.23296
Magnitude (Debye)      :      5.67573

Rotational constants in cm-1:     0.036460     0.018762     0.015014
Rotational constants in MHz :  1093.039020   562.475626   450.105862

                             ****ORCA TERMINATED NORMALLY****
TOTAL RUN TIME: 0 days 0 hours 2 minutes 20 seconds 720 msec
