                         Program Version 5.0.0 -  RELEASE  -
|  1> !PBE0 D3BJ RIJCOSX def2-SVPD def2/J TightSCF xyzfile
|  2>
|  3> *xyzfile 0 1 D3.xyz
|  4>
|  5> %MaxCore 64000
|  6>
|  7> %pal nprocs 4
|  8> end
|  9>
| 10> %scf
| 11>   MaxIter 150
| 12> end
| 13>
| 14>
| 15>                          ****END OF INPUT****

CARTESIAN COORDINATES (ANGSTROEM)
---------------------------------
  C      2.916324   -1.242589   -1.543125
  C      0.704661    1.443129   -4.503630
  C      1.728539    1.424320   -5.639443
  H      2.646718    1.953794   -5.381054
  H      1.299916    1.930613   -6.503614
  S      2.252625   -0.188115   -6.271840
  C      3.466585   -1.590971   -2.889082
  C      4.652275   -1.143164   -3.259692
  N      2.752264   -2.292043   -3.728029
  H      1.778364   -2.489604   -3.512738
  H      2.948612   -2.208544   -4.716813
  H      5.146723   -0.512508   -2.633852
  H      4.783030   -1.007203   -4.253498
  O      3.562607   -0.444464   -5.631552
  F      2.344944   -0.033742   -7.696501
  C      2.804084    0.290698   -1.359243
  C      1.052550    0.695659   -3.214915
  H     -0.232483    1.032925   -4.884449
  H      0.511700    2.495794   -4.267966
  C      2.388380    1.093669   -2.597108
  H      3.763425    0.674718   -0.999889
  H      2.094788    0.461222   -0.545756
  O      1.266058   -1.159177   -5.805365
  H      3.167316    1.013242   -3.359430
  H      2.357690    2.149375   -2.310997
  H      1.039284   -0.368429   -3.449329
  H      0.250787    0.865605   -2.488283
  H      1.940472   -1.716529   -1.441161
  H      3.558569   -1.663433   -0.766371

 Total Charge           Charge          ....    0
 Multiplicity           Mult            ....    1
 Number of Electrons    NEL             ....  112
 Basis Dimension        Dim             ....  404

ORBITAL ENERGIES
----------------

  NO   OCC          E(Eh)            E(eV)
   0   2.0000     -89.310973     -2430.2751
   1   2.0000     -24.917483      -678.0392
   2   2.0000     -19.242695      -523.6203
   3   2.0000     -19.234021      -523.3843
   4   2.0000     -14.369373      -391.0105
   5   2.0000     -10.304286      -280.3939
   6   2.0000     -10.266798      -279.3738
   7   2.0000     -10.235994      -278.5356
   8   2.0000     -10.230457      -278.3849
   9   2.0000     -10.227379      -278.3011
  10   2.0000     -10.225624      -278.2534
  11   2.0000     -10.222220      -278.1607
  12   2.0000     -10.134554      -275.7752
  13   2.0000      -8.270289      -225.0460
  14   2.0000      -6.216560      -169.1612
  15   2.0000      -6.210393      -168.9934
  16   2.0000      -6.208860      -168.9517
  17   2.0000      -1.425559       -38.7914
  18   2.0000      -1.146519       -31.1984
  19   2.0000      -1.042248       -28.3610
  20   2.0000      -0.930532       -25.3211
  21   2.0000      -0.861228       -23.4352
  22   2.0000      -0.815427       -22.1889
  23   2.0000      -0.784358       -21.3435
  24   2.0000      -0.749195       -20.3866
  25   2.0000      -0.717267       -19.5178
  26   2.0000      -0.691001       -18.8031
  27   2.0000      -0.653148       -17.7731
  28   2.0000      -0.624750       -17.0003
  29   2.0000      -0.617773       -16.8105
  30   2.0000      -0.591153       -16.0861
  31   2.0000      -0.580758       -15.8032
  32   2.0000      -0.552285       -15.0284
  33   2.0000      -0.522502       -14.2180
  34   2.0000      -0.513636       -13.9768
  35   2.0000      -0.511430       -13.9167
  36   2.0000      -0.494379       -13.4527
  37   2.0000      -0.486851       -13.2479
  38   2.0000      -0.466608       -12.6970
  39   2.0000      -0.453068       -12.3286
  40   2.0000      -0.442769       -12.0483
  41   2.0000      -0.428929       -11.6717
  42   2.0000      -0.417614       -11.3638
  43   2.0000      -0.400290       -10.8924
  44   2.0000      -0.393786       -10.7155
  45   2.0000      -0.378034       -10.2868
  46   2.0000      -0.372435       -10.1345
  47   2.0000      -0.365103        -9.9350
  48   2.0000      -0.357611        -9.7311
  49   2.0000      -0.348710        -9.4889
  50   2.0000      -0.341691        -9.2979
  51   2.0000      -0.336756        -9.1636
  52   2.0000      -0.328559        -8.9405
  53   2.0000      -0.320095        -8.7102
  54   2.0000      -0.312699        -8.5090
  55   2.0000      -0.175410        -4.7732
  56   0.0000      -0.003873        -0.1054
  57   0.0000       0.012081         0.3287
  58   0.0000       0.027930         0.7600
  59   0.0000       0.034078         0.9273
  60   0.0000       0.036590         0.9957

MULLIKEN ATOMIC CHARGES
-----------------------
   0 C :    0.439847
   1 C :    0.340545
   2 C :   -0.054214
   3 H :    0.205844
   4 H :   -0.085376
   5 S :    1.748824
   6 C :   -0.444529
   7 C :    0.493306
   8 N :    0.188861
   9 H :   -0.005415
  10 H :   -0.148424
  11 H :    0.045264
  12 H :   -0.467172
  13 O :   -0.831113
  14 F :   -0.500960
  15 C :    0.222940
  16 C :    0.035019
  17 H :    0.099798
  18 H :    0.008166
  19 C :   -0.166696
  20 H :    0.062230
  21 H :   -0.069794
  22 O :   -0.804697
  23 H :    0.070310
  24 H :   -0.114283
  25 H :   -0.203187
  26 H :   -0.048974
  27 H :    0.137531
  28 H :   -0.153650
Sum of atomic charges:   -0.0000000

LOEWDIN ATOMIC CHARGES
----------------------
   0 C :    0.022129
   1 C :   -0.023858
   2 C :   -0.035371
   3 H :    0.024282
   4 H :    0.013720
   5 S :    1.185151
   6 C :   -0.251021
   7 C :    0.170445
   8 N :    0.188714
   9 H :    0.003235
  10 H :   -0.044473
  11 H :   -0.073875
  12 H :   -0.129701
  13 O :   -0.476446
  14 F :   -0.249702
  15 C :   -0.013129
  16 C :   -0.017375
  17 H :    0.032317
  18 H :    0.038918
  19 C :   -0.025524
  20 H :    0.021350
  21 H :    0.017031
  22 O :   -0.467685
  23 H :    0.000611
  24 H :    0.026147
  25 H :   -0.009727
  26 H :    0.034716
  27 H :    0.011327
  28 H :    0.027794

  Mayer bond orders larger than 0.100000
B(  0-C ,  6-C ) :   1.2381 B(  0-C , 15-C ) :   1.1607 B(  0-C , 21-H ) :   0.1764
B(  0-C , 27-H ) :   0.6345 B(  0-C , 28-H ) :   0.7785 B(  1-C ,  2-C ) :   1.3116
B(  1-C ,  4-H ) :   0.2176 B(  1-C , 16-C ) :   1.2740 B(  1-C , 17-H ) :   0.6996
B(  1-C , 18-H ) :   0.7607 B(  2-C ,  3-H ) :   0.8717 B(  2-C ,  4-H ) :   0.8674
B(  2-C ,  5-S ) :   0.9971 B(  2-C , 17-H ) :   0.1052 B(  2-C , 18-H ) :   0.1409
B(  5-S , 13-O ) :   1.3072 B(  5-S , 14-F ) :   0.5166 B(  5-S , 22-O ) :   1.3747
B(  6-C ,  7-C ) :   2.1809 B(  6-C ,  8-N ) :   0.8913 B(  6-C , 11-H ) :   0.1354
B(  6-C , 12-H ) :   0.3486 B(  6-C , 27-H ) :   0.2278 B(  6-C , 28-H ) :   0.2280
B(  7-C ,  8-N ) :   0.3563 B(  7-C , 11-H ) :   0.5967 B(  7-C , 12-H ) :   0.5479
B(  8-N ,  9-H ) :   0.9218 B(  8-N , 10-H ) :   0.9766 B(  8-N , 11-H ) :   0.1466
B(  9-H , 10-H ) :  -0.1344 B( 10-H , 12-H ) :   0.1072 B( 12-H , 13-O ) :   0.2315
B( 13-O , 22-O ) :   0.1278 B( 15-C , 19-C ) :   1.2667 B( 15-C , 20-H ) :   0.7207
B( 15-C , 21-H ) :   0.8605 B( 15-C , 23-H ) :   0.1536 B( 15-C , 27-H ) :   0.1192
B( 16-C , 17-H ) :   0.2413 B( 16-C , 19-C ) :   1.2652 B( 16-C , 23-H ) :   0.1181
B( 16-C , 24-H ) :   0.1701 B( 16-C , 25-H ) :   0.9569 B( 16-C , 26-H ) :   0.7531
B( 19-C , 20-H ) :   0.2335 B( 19-C , 21-H ) :   0.1754 B( 19-C , 23-H ) :   0.8622
B( 19-C , 24-H ) :   0.8603 B( 19-C , 25-H ) :   0.1186 B( 19-C , 26-H ) :   0.2046
B( 20-H , 21-H ) :  -0.1047

Dispersion correction           -0.032492879
FINAL SINGLE POINT ENERGY     -1016.241613835261

DIPOLE MOMENT
-------------
                                X             Y             Z
Electronic contribution:      0.02904      -4.12774     -22.49798
Nuclear contribution   :     -1.50273       5.82595      21.72909
                        -----------------------------------------
Total Dipole Moment    :     -1.47369       1.69821      -0.76890
                        -----------------------------------------
Magnitude (a.u.)       :      2.37631
Magnitude (Debye)      :      6.04011

Rotational constants in cm-1:     0.036883     0.018294     0.014745
Rotational constants in MHz :  1105.724679   548.429785   442.050481

                             ****ORCA TERMINATED NORMALLY****
TOTAL RUN TIME: 0 days 0 hours 2 minutes 36 seconds 136 msec
