                         Program Version 5.0.0 -  RELEASE  -
|  1> !PBE0 D3BJ RIJCOSX def2-SVPD def2/J TightSCF xyzfile
|  2>
|  3> *xyzfile 0 1 D5.xyz
|  4>
|  5> %MaxCore 64000
|  6>
|  7> %pal nprocs 4
|  8> end
|  9>
| 10> %scf
| 11>   MaxIter 150
| 12> end
| 13>
| 14>
| 15>                          ****END OF INPUT****

CARTESIAN COORDINATES (ANGSTROEM)
---------------------------------
  C      2.916324   -1.242589   -1.543125
  C      0.704661    1.443129   -4.503630
  C      1.728539    1.424320   -5.639443
  H      2.646718    1.953794   -5.381054
  H      1.299916    1.930613   -6.503614
  S      2.252625   -0.188115   -6.271840
  C      3.466585   -1.590971   -2.889082
  C      4.652275   -1.143164   -3.259692
  N      2.752264   -2.292043   -3.728029
  H      1.778364   -2.489604   -3.512738
  H      2.948612   -2.208544   -4.716813
  H      5.146723   -0.512508   -2.633852
  H      4.783030   -1.007203   -4.253498
  O      3.562607   -0.444464   -5.631552
  O      2.344944   -0.033742   -7.696501
  C      2.804084    0.290698   -1.359243
  C      1.052550    0.695659   -3.214915
  H     -0.232483    1.032925   -4.884449
  H      0.511700    2.495794   -4.267966
  C      2.388380    1.093669   -2.597108
  H      3.763425    0.674718   -0.999889
  H      2.094788    0.461222   -0.545756
  F      1.266058   -1.159177   -5.805365
  H      3.167316    1.013242   -3.359430
  H      2.357690    2.149375   -2.310997
  H      1.039284   -0.368429   -3.449329
  H      0.250787    0.865605   -2.488283
  H      1.940472   -1.716529   -1.441161
  H      3.558569   -1.663433   -0.766371

 Total Charge           Charge          ....    0
 Multiplicity           Mult            ....    1
 Number of Electrons    NEL             ....  112
 Basis Dimension        Dim             ....  404

ORBITAL ENERGIES
----------------

  NO   OCC          E(Eh)            E(eV)
   0   2.0000     -89.306984     -2430.1666
   1   2.0000     -24.907717      -677.7734
   2   2.0000     -19.243912      -523.6535
   3   2.0000     -19.230459      -523.2874
   4   2.0000     -14.387262      -391.4973
   5   2.0000     -10.301643      -280.3219
   6   2.0000     -10.271698      -279.5071
   7   2.0000     -10.248359      -278.8720
   8   2.0000     -10.240529      -278.6590
   9   2.0000     -10.235020      -278.5090
  10   2.0000     -10.233651      -278.4718
  11   2.0000     -10.231398      -278.4105
  12   2.0000     -10.144330      -276.0412
  13   2.0000      -8.266281      -224.9369
  14   2.0000      -6.212646      -169.0547
  15   2.0000      -6.206380      -168.8842
  16   2.0000      -6.204808      -168.8414
  17   2.0000      -1.407243       -38.2930
  18   2.0000      -1.150555       -31.3082
  19   2.0000      -1.047533       -28.5048
  20   2.0000      -0.946152       -25.7461
  21   2.0000      -0.865963       -23.5641
  22   2.0000      -0.820802       -22.3351
  23   2.0000      -0.783747       -21.3268
  24   2.0000      -0.749377       -20.3916
  25   2.0000      -0.725000       -19.7283
  26   2.0000      -0.697507       -18.9801
  27   2.0000      -0.658560       -17.9203
  28   2.0000      -0.622992       -16.9525
  29   2.0000      -0.615368       -16.7450
  30   2.0000      -0.596510       -16.2319
  31   2.0000      -0.576953       -15.6997
  32   2.0000      -0.562292       -15.3008
  33   2.0000      -0.528339       -14.3768
  34   2.0000      -0.516897       -14.0655
  35   2.0000      -0.511517       -13.9191
  36   2.0000      -0.498263       -13.5584
  37   2.0000      -0.488245       -13.2858
  38   2.0000      -0.475432       -12.9372
  39   2.0000      -0.464923       -12.6512
  40   2.0000      -0.449069       -12.2198
  41   2.0000      -0.434454       -11.8221
  42   2.0000      -0.420143       -11.4327
  43   2.0000      -0.404472       -11.0062
  44   2.0000      -0.403737       -10.9862
  45   2.0000      -0.391938       -10.6652
  46   2.0000      -0.384676       -10.4676
  47   2.0000      -0.367994       -10.0136
  48   2.0000      -0.364482        -9.9181
  49   2.0000      -0.356023        -9.6879
  50   2.0000      -0.347076        -9.4444
  51   2.0000      -0.342158        -9.3106
  52   2.0000      -0.335713        -9.1352
  53   2.0000      -0.324396        -8.8273
  54   2.0000      -0.320797        -8.7293
  55   2.0000      -0.187517        -5.1026
  56   0.0000      -0.009125        -0.2483
  57   0.0000       0.020087         0.5466
  58   0.0000       0.021268         0.5787
  59   0.0000       0.031473         0.8564
  60   0.0000       0.039246         1.0679

MULLIKEN ATOMIC CHARGES
-----------------------
   0 C :    0.442751
   1 C :    0.360453
   2 C :   -0.017559
   3 H :    0.202705
   4 H :   -0.103220
   5 S :    1.571797
   6 C :   -0.427004
   7 C :    0.508194
   8 N :    0.172790
   9 H :   -0.008548
  10 H :   -0.173753
  11 H :    0.039664
  12 H :   -0.459989
  13 O :   -0.779327
  14 O :   -0.699242
  15 C :    0.221641
  16 C :    0.067513
  17 H :    0.074269
  18 H :    0.015743
  19 C :   -0.171743
  20 H :    0.065759
  21 H :   -0.069504
  22 F :   -0.507141
  23 H :    0.075541
  24 H :   -0.110818
  25 H :   -0.231120
  26 H :   -0.040701
  27 H :    0.134483
  28 H :   -0.153634
Sum of atomic charges:   -0.0000000

LOEWDIN ATOMIC CHARGES
----------------------
   0 C :    0.022453
   1 C :   -0.037050
   2 C :   -0.024147
   3 H :    0.031647
   4 H :    0.020610
   5 S :    1.165428
   6 C :   -0.253444
   7 C :    0.178651
   8 N :    0.178450
   9 H :    0.000267
  10 H :   -0.042563
  11 H :   -0.069909
  12 H :   -0.126287
  13 O :   -0.471251
  14 O :   -0.446906
  15 C :   -0.012250
  16 C :   -0.023485
  17 H :    0.028848
  18 H :    0.037809
  19 C :   -0.023354
  20 H :    0.022694
  21 H :    0.017804
  22 F :   -0.266447
  23 H :    0.001877
  24 H :    0.028659
  25 H :   -0.013083
  26 H :    0.035271
  27 H :    0.010646
  28 H :    0.029062

  Mayer bond orders larger than 0.100000
B(  0-C ,  6-C ) :   1.2320 B(  0-C , 15-C ) :   1.1617 B(  0-C , 21-H ) :   0.1764
B(  0-C , 27-H ) :   0.6367 B(  0-C , 28-H ) :   0.7786 B(  1-C ,  2-C ) :   1.2625
B(  1-C ,  4-H ) :   0.2010 B(  1-C , 16-C ) :   1.2665 B(  1-C , 17-H ) :   0.7091
B(  1-C , 18-H ) :   0.7566 B(  2-C ,  3-H ) :   0.8676 B(  2-C ,  4-H ) :   0.9294
B(  2-C ,  5-S ) :   0.9976 B(  2-C , 17-H ) :   0.1018 B(  2-C , 18-H ) :   0.1435
B(  5-S , 13-O ) :   1.3802 B(  5-S , 14-O ) :   1.5005 B(  5-S , 22-F ) :   0.5765
B(  6-C ,  7-C ) :   2.1912 B(  6-C ,  8-N ) :   0.8811 B(  6-C , 11-H ) :   0.1318
B(  6-C , 12-H ) :   0.3420 B(  6-C , 27-H ) :   0.2254 B(  6-C , 28-H ) :   0.2249
B(  7-C ,  8-N ) :   0.3512 B(  7-C , 11-H ) :   0.5995 B(  7-C , 12-H ) :   0.5545
B(  8-N ,  9-H ) :   0.9310 B(  8-N , 10-H ) :   0.9778 B(  8-N , 11-H ) :   0.1410
B(  9-H , 10-H ) :  -0.1377 B( 10-H , 13-O ) :   0.1054 B( 12-H , 13-O ) :   0.2436
B( 15-C , 19-C ) :   1.2729 B( 15-C , 20-H ) :   0.7191 B( 15-C , 21-H ) :   0.8610
B( 15-C , 23-H ) :   0.1539 B( 15-C , 27-H ) :   0.1189 B( 16-C , 17-H ) :   0.2305
B( 16-C , 18-H ) :   0.1031 B( 16-C , 19-C ) :   1.2670 B( 16-C , 23-H ) :   0.1221
B( 16-C , 24-H ) :   0.1654 B( 16-C , 25-H ) :   0.9434 B( 16-C , 26-H ) :   0.7533
B( 19-C , 20-H ) :   0.2334 B( 19-C , 21-H ) :   0.1769 B( 19-C , 23-H ) :   0.8583
B( 19-C , 24-H ) :   0.8633 B( 19-C , 25-H ) :   0.1282 B( 19-C , 26-H ) :   0.2040
B( 20-H , 21-H ) :  -0.1036

Dispersion correction           -0.032227404
FINAL SINGLE POINT ENERGY     -1016.246817147344

DIPOLE MOMENT
-------------
                                X             Y             Z
Electronic contribution:     -1.73480      -6.03761     -18.99433
Nuclear contribution   :     -0.26930       7.11259      19.56706
                        -----------------------------------------
Total Dipole Moment    :     -2.00410       1.07498       0.57273
                        -----------------------------------------
Magnitude (a.u.)       :      2.34522
Magnitude (Debye)      :      5.96106

Rotational constants in cm-1:     0.036519     0.018683     0.015073
Rotational constants in MHz :  1094.801738   560.111127   451.890222

                             ****ORCA TERMINATED NORMALLY****
TOTAL RUN TIME: 0 days 0 hours 2 minutes 35 seconds 426 msec
