                         Program Version 5.0.0 -  RELEASE  -
|  1> !TPSS D3BJ RIJCOSX def2-SVPD def2/J TightSCF
|  2> *xyz 1 1
|  3> C          4.36645       -0.13321       -1.41606
|  4> C          4.50829       -0.93187       -2.72425
|  5> C          3.05650       -0.32080       -0.70738
|  6> N          2.38983        0.71129       -0.24391
|  7> N          2.51600       -1.50772       -0.55023
|  8> H          2.96768       -2.32291       -0.95631
|  9> H          1.54987       -1.49063       -0.24988
| 10> H          2.74307        1.64947       -0.41280
| 11> H          1.44036        0.50278        0.03703
| 12> H          4.48784        0.93300       -1.61157
| 13> H          5.16967       -0.41443       -0.72982
| 14> H          5.46700       -0.73824       -3.15818
| 15> H          3.74074       -0.63528       -3.40821
| 16> H          4.41574       -1.97727       -2.51573
| 17> *
| 18>
| 19> %MaxCore 64000
| 20>
| 21> %pal nprocs 4
| 22> end
| 23>
| 24> %scf
| 25>   MaxIter 150
| 26> end
| 27>
| 28>
| 29>                          ****END OF INPUT****

CARTESIAN COORDINATES (ANGSTROEM)
---------------------------------
  C      4.366450   -0.133210   -1.416060
  C      4.508290   -0.931870   -2.724250
  C      3.056500   -0.320800   -0.707380
  N      2.389830    0.711290   -0.243910
  N      2.516000   -1.507720   -0.550230
  H      2.967680   -2.322910   -0.956310
  H      1.549870   -1.490630   -0.249880
  H      2.743070    1.649470   -0.412800
  H      1.440360    0.502780    0.037030
  H      4.487840    0.933000   -1.611570
  H      5.169670   -0.414430   -0.729820
  H      5.467000   -0.738240   -3.158180
  H      3.740740   -0.635280   -3.408210
  H      4.415740   -1.977270   -2.515730

 Total Charge           Charge          ....    1
 Multiplicity           Mult            ....    1
 Number of Electrons    NEL             ....   40
 Basis Dimension        Dim             ....  172

ORBITAL ENERGIES
----------------

  NO   OCC          E(Eh)            E(eV)
   0   2.0000     -14.365461      -390.9041
   1   2.0000     -14.364258      -390.8713
   2   2.0000     -10.312150      -280.6079
   3   2.0000     -10.203290      -277.6456
   4   2.0000     -10.163187      -276.5544
   5   2.0000      -1.138926       -30.9917
   6   2.0000      -1.039480       -28.2857
   7   2.0000      -0.908603       -24.7243
   8   2.0000      -0.805733       -21.9251
   9   2.0000      -0.769794       -20.9472
  10   2.0000      -0.724034       -19.7020
  11   2.0000      -0.710107       -19.3230
  12   2.0000      -0.663115       -18.0443
  13   2.0000      -0.617977       -16.8160
  14   2.0000      -0.588575       -16.0159
  15   2.0000      -0.562237       -15.2993
  16   2.0000      -0.517806       -14.0902
  17   2.0000      -0.505694       -13.7606
  18   2.0000      -0.493000       -13.4152
  19   2.0000      -0.457907       -12.4603
  20   0.0000      -0.242788        -6.6066
  21   0.0000      -0.178329        -4.8526
  22   0.0000      -0.133500        -3.6327
  23   0.0000      -0.131652        -3.5824
  24   0.0000      -0.100167        -2.7257

MULLIKEN ATOMIC CHARGES
-----------------------
   0 C :   -0.315548
   1 C :    0.661296
   2 C :    0.671105
   3 N :   -0.000411
   4 N :    0.050940
   5 H :    0.018656
   6 H :   -0.087495
   7 H :    0.040457
   8 H :   -0.052391
   9 H :    0.089026
  10 H :    0.049039
  11 H :    0.005290
  12 H :   -0.033281
  13 H :   -0.096684
Sum of atomic charges:    1.0000000

LOEWDIN ATOMIC CHARGES
----------------------
   0 C :    0.027664
   1 C :    0.180123
   2 C :   -0.045536
   3 N :    0.283420
   4 N :    0.290638
   5 H :    0.048532
   6 H :    0.043763
   7 H :    0.058651
   8 H :    0.043027
   9 H :    0.032521
  10 H :    0.052979
  11 H :    0.006378
  12 H :   -0.000846
  13 H :   -0.021312

  Mayer bond orders larger than 0.100000
B(  0-C ,  1-C ) :   1.3234 B(  0-C ,  2-C ) :   1.1377 B(  0-C ,  9-H ) :   0.8841
B(  0-C , 10-H ) :   0.8520 B(  0-C , 11-H ) :   0.1670 B(  0-C , 12-H ) :   0.1825
B(  0-C , 13-H ) :   0.1781 B(  1-C ,  9-H ) :   0.1139 B(  1-C , 11-H ) :   0.8343
B(  1-C , 12-H ) :   0.7944 B(  1-C , 13-H ) :   0.8424 B(  2-C ,  3-N ) :   1.0663
B(  2-C ,  4-N ) :   1.0905 B(  2-C ,  6-H ) :  -0.1681 B(  2-C ,  8-H ) :  -0.1241
B(  2-C ,  9-H ) :   0.1287 B(  2-C , 10-H ) :   0.1194 B(  3-N ,  4-N ) :   0.2342
B(  3-N ,  7-H ) :   1.1051 B(  3-N ,  8-H ) :   1.2237 B(  4-N ,  5-H ) :   1.0680
B(  4-N ,  6-H ) :   1.2845 B(  5-H ,  6-H ) :  -0.1747 B(  7-H ,  8-H ) :  -0.1423

Dispersion correction           -0.012436551
FINAL SINGLE POINT ENERGY      -228.921077210967

DIPOLE MOMENT
-------------
                                X             Y             Z
Electronic contribution:     -2.67928       0.62206       3.12835
Nuclear contribution   :      1.78847      -0.48174      -2.67127
                        -----------------------------------------
Total Dipole Moment    :     -0.89082       0.14032       0.45707
                        -----------------------------------------
Magnitude (a.u.)       :      1.01102
Magnitude (Debye)      :      2.56980

Rotational constants in cm-1:     0.286883     0.123210     0.094446
Rotational constants in MHz :  8600.540572  3693.747366  2831.415242

                             ****ORCA TERMINATED NORMALLY****
TOTAL RUN TIME: 0 days 0 hours 0 minutes 14 seconds 458 msec
