                         Program Version 5.0.0 -  RELEASE  -
|  1> !TPSS D3BJ RIJCOSX def2-SVPD def2/J TightSCF
|  2> *xyz 0 1
|  3> C         -0.90349       -0.87394       -1.98739
|  4> C         -0.96015       -0.52236       -0.48987
|  5> H         -1.69039       -1.20813       -0.02168
|  6> H         -1.41449        0.48633       -0.40668
|  7> F          0.26170       -0.58031        0.13861
|  8> H         -1.88568       -0.80774       -2.40670
|  9> H         -0.53143       -1.87013       -2.10605
| 10> H         -0.25399       -0.18836       -2.49039
| 11> *
| 12>
| 13> %MaxCore 64000
| 14>
| 15> %pal nprocs 4
| 16> end
| 17>
| 18> %scf
| 19>   MaxIter 150
| 20> end
| 21>
| 22>
| 23>                          ****END OF INPUT****

CARTESIAN COORDINATES (ANGSTROEM)
---------------------------------
  C     -0.903490   -0.873940   -1.987390
  C     -0.960150   -0.522360   -0.489870
  H     -1.690390   -1.208130   -0.021680
  H     -1.414490    0.486330   -0.406680
  F      0.261700   -0.580310    0.138610
  H     -1.885680   -0.807740   -2.406700
  H     -0.531430   -1.870130   -2.106050
  H     -0.253990   -0.188360   -2.490390

 Total Charge           Charge          ....    0
 Multiplicity           Mult            ....    1
 Number of Electrons    NEL             ....   26
 Basis Dimension        Dim             ....  103

ORBITAL ENERGIES
----------------

  NO   OCC          E(Eh)            E(eV)
   0   2.0000     -24.415487      -664.3792
   1   2.0000     -10.080441      -274.3027
   2   2.0000     -10.000642      -272.1313
   3   2.0000      -1.104507       -30.0552
   4   2.0000      -0.703645       -19.1471
   5   2.0000      -0.577242       -15.7076
   6   2.0000      -0.460482       -12.5303
   7   2.0000      -0.448405       -12.2017
   8   2.0000      -0.408451       -11.1145
   9   2.0000      -0.364569        -9.9204
  10   2.0000      -0.362409        -9.8616
  11   2.0000      -0.293688        -7.9916
  12   2.0000      -0.291567        -7.9339
  13   0.0000       0.012498         0.3401
  14   0.0000       0.044237         1.2037
  15   0.0000       0.059164         1.6099
  16   0.0000       0.069378         1.8879
  17   0.0000       0.092337         2.5126

MULLIKEN ATOMIC CHARGES
-----------------------
   0 C :    0.259954
   1 C :    0.409085
   2 H :   -0.059880
   3 H :   -0.051042
   4 F :   -0.458337
   5 H :   -0.012938
   6 H :   -0.043192
   7 H :   -0.043649
Sum of atomic charges:   -0.0000000

LOEWDIN ATOMIC CHARGES
----------------------
   0 C :    0.145761
   1 C :    0.071555
   2 H :    0.023464
   3 H :    0.025549
   4 F :   -0.212139
   5 H :   -0.016482
   6 H :   -0.018826
   7 H :   -0.018883

  Mayer bond orders larger than 0.100000
B(  0-C ,  1-C ) :   1.3327 B(  0-C ,  5-H ) :   0.8680 B(  0-C ,  6-H ) :   0.9044
B(  0-C ,  7-H ) :   0.9045 B(  1-C ,  2-H ) :   0.9492 B(  1-C ,  3-H ) :   0.9485
B(  1-C ,  4-F ) :   0.7241 B(  1-C ,  5-H ) :   0.1136 B(  1-C ,  6-H ) :   0.1338
B(  1-C ,  7-H ) :   0.1339

Dispersion correction           -0.004197706
FINAL SINGLE POINT ENERGY      -178.961896943601

DIPOLE MOMENT
-------------
                                X             Y             Z
Electronic contribution:      3.23638       0.37478       3.98634
Nuclear contribution   :     -3.84149      -0.36812      -4.38946
                        -----------------------------------------
Total Dipole Moment    :     -0.60511       0.00666      -0.40313
                        -----------------------------------------
Magnitude (a.u.)       :      0.72712
Magnitude (Debye)      :      1.84820

Rotational constants in cm-1:     1.270659     0.299196     0.265842
Rotational constants in MHz : 38093.410361  8969.665806  7969.741481

                             ****ORCA TERMINATED NORMALLY****
TOTAL RUN TIME: 0 days 0 hours 0 minutes 7 seconds 557 msec
