                         Program Version 5.0.0 -  RELEASE  -
|  1> !TPSS D3BJ RIJCOSX def2-SVPD def2/J TightSCF
|  2> *xyz 0 1
|  3> C          4.36645       -0.13321       -1.41606
|  4> C          4.50829       -0.93187       -2.72425
|  5> C          3.05650       -0.32080       -0.70738
|  6> N          2.38983        0.71129       -0.24391
|  7> C          2.51600       -1.50772       -0.55023
|  8> H          2.96768       -2.32291       -0.95631
|  9> H          1.54987       -1.49063       -0.24988
| 10> H          2.74307        1.64947       -0.41280
| 11> H          1.44036        0.50278        0.03703
| 12> H          4.48784        0.93300       -1.61157
| 13> H          5.16967       -0.41443       -0.72982
| 14> H          5.46700       -0.73824       -3.15818
| 15> H          3.74074       -0.63528       -3.40821
| 16> H          4.41574       -1.97727       -2.51573
| 17> *
| 18>
| 19> %MaxCore 64000
| 20>
| 21> %pal nprocs 4
| 22> end
| 23>
| 24> %scf
| 25>   MaxIter 150
| 26> end
| 27>
| 28>
| 29>                          ****END OF INPUT****

CARTESIAN COORDINATES (ANGSTROEM)
---------------------------------
  C      4.366450   -0.133210   -1.416060
  C      4.508290   -0.931870   -2.724250
  C      3.056500   -0.320800   -0.707380
  N      2.389830    0.711290   -0.243910
  C      2.516000   -1.507720   -0.550230
  H      2.967680   -2.322910   -0.956310
  H      1.549870   -1.490630   -0.249880
  H      2.743070    1.649470   -0.412800
  H      1.440360    0.502780    0.037030
  H      4.487840    0.933000   -1.611570
  H      5.169670   -0.414430   -0.729820
  H      5.467000   -0.738240   -3.158180
  H      3.740740   -0.635280   -3.408210
  H      4.415740   -1.977270   -2.515730

 Total Charge           Charge          ....    0
 Multiplicity           Mult            ....    1
 Number of Electrons    NEL             ....   40
 Basis Dimension        Dim             ....  172

ORBITAL ENERGIES
----------------

  NO   OCC          E(Eh)            E(eV)
   0   2.0000     -14.118750      -384.1907
   1   2.0000     -10.010567      -272.4014
   2   2.0000     -10.003542      -272.2102
   3   2.0000      -9.989054      -271.8160
   4   2.0000      -9.930418      -270.2204
   5   2.0000      -0.861368       -23.4390
   6   2.0000      -0.715762       -19.4769
   7   2.0000      -0.650268       -17.6947
   8   2.0000      -0.590393       -16.0654
   9   2.0000      -0.504043       -13.7157
  10   2.0000      -0.487402       -13.2629
  11   2.0000      -0.434352       -11.8193
  12   2.0000      -0.408949       -11.1281
  13   2.0000      -0.366357        -9.9691
  14   2.0000      -0.352370        -9.5885
  15   2.0000      -0.341549        -9.2940
  16   2.0000      -0.320864        -8.7312
  17   2.0000      -0.305658        -8.3174
  18   2.0000      -0.289188        -7.8692
  19   2.0000      -0.156608        -4.2615
  20   0.0000       0.008437         0.2296
  21   0.0000       0.015775         0.4293
  22   0.0000       0.037964         1.0330
  23   0.0000       0.044740         1.2175
  24   0.0000       0.065251         1.7756

MULLIKEN ATOMIC CHARGES
-----------------------
   0 C :   -0.054139
   1 C :    0.648803
   2 C :   -0.052842
   3 N :    0.139317
   4 C :    0.303015
   5 H :   -0.145029
   6 H :   -0.389633
   7 H :   -0.109532
   8 H :   -0.078336
   9 H :   -0.024069
  10 H :   -0.047913
  11 H :   -0.022099
  12 H :   -0.057447
  13 H :   -0.110094
Sum of atomic charges:    0.0000000

LOEWDIN ATOMIC CHARGES
----------------------
   0 C :   -0.016889
   1 C :    0.144076
   2 C :   -0.256173
   3 N :    0.164365
   4 C :    0.176526
   5 H :   -0.086380
   6 H :   -0.087617
   7 H :    0.001260
   8 H :    0.003742
   9 H :    0.004482
  10 H :    0.023267
  11 H :   -0.023611
  12 H :   -0.015885
  13 H :   -0.031165

  Mayer bond orders larger than 0.100000
B(  0-C ,  1-C ) :   1.3080 B(  0-C ,  2-C ) :   1.0732 B(  0-C ,  9-H ) :   0.8071
B(  0-C , 10-H ) :   0.8608 B(  0-C , 11-H ) :   0.1794 B(  0-C , 12-H ) :   0.1886
B(  0-C , 13-H ) :   0.1813 B(  1-C , 11-H ) :   0.8065 B(  1-C , 12-H ) :   0.8161
B(  1-C , 13-H ) :   0.8505 B(  2-C ,  3-N ) :   1.1506 B(  2-C ,  4-C ) :   1.7307
B(  2-C ,  5-H ) :   0.1144 B(  2-C ,  6-H ) :   0.2318 B(  2-C ,  9-H ) :   0.1838
B(  2-C , 10-H ) :   0.1480 B(  3-N ,  4-C ) :   0.3047 B(  3-N ,  7-H ) :   1.1305
B(  3-N ,  8-H ) :   1.1449 B(  4-C ,  5-H ) :   0.8496 B(  4-C ,  6-H ) :   0.8193
B(  7-H ,  8-H ) :  -0.1145

Dispersion correction           -0.012957825
FINAL SINGLE POINT ENERGY      -212.458417183709

DIPOLE MOMENT
-------------
                                X             Y             Z
Electronic contribution:     -1.62257       1.45386       2.36941
Nuclear contribution   :      1.59749      -0.72853      -2.53752
                        -----------------------------------------
Total Dipole Moment    :     -0.02508       0.72533      -0.16811
                        -----------------------------------------
Magnitude (a.u.)       :      0.74498
Magnitude (Debye)      :      1.89358

Rotational constants in cm-1:     0.304597     0.124127     0.096828
Rotational constants in MHz :  9131.600925  3721.227051  2902.830760

                             ****ORCA TERMINATED NORMALLY****
TOTAL RUN TIME: 0 days 0 hours 0 minutes 15 seconds 745 msec
