                         Program Version 5.0.0 -  RELEASE  -
|  1> !wB97X-D3 RIJCOSX def2-SVPD def2/J TightSCF CPCM(Water)
|  2> *xyz -1 1
|  3> C          2.49670       -1.84416       -5.73570
|  4> O          2.45973       -0.50920       -5.50576
|  5> H          2.07863       -2.36209       -4.89793
|  6> H          3.51118       -2.15388       -5.87645
|  7> H          1.92949       -2.07059       -6.61428
|  8> *
|  9>
| 10> %MaxCore 64000
| 11>
| 12> %pal nprocs 18
| 13> end
| 14>
| 15> %scf
| 16>   MaxIter 150
| 17> end
| 18>
| 19>
| 20>                          ****END OF INPUT****

CARTESIAN COORDINATES (ANGSTROEM)
---------------------------------
  C      2.496700   -1.844160   -5.735700
  O      2.459730   -0.509200   -5.505760
  H      2.078630   -2.362090   -4.897930
  H      3.511180   -2.153880   -5.876450
  H      1.929490   -2.070590   -6.614280

 Total Charge           Charge          ....   -1
 Multiplicity           Mult            ....    1
 Number of Electrons    NEL             ....   18
 Basis Dimension        Dim             ....   67

ORBITAL ENERGIES
----------------

  NO   OCC          E(Eh)            E(eV)
   0   2.0000     -19.111637      -520.0541
   1   2.0000     -10.268997      -279.4336
   2   2.0000      -0.988109       -26.8878
   3   2.0000      -0.698745       -19.0138
   4   2.0000      -0.496876       -13.5207
   5   2.0000      -0.496838       -13.5196
   6   2.0000      -0.420349       -11.4383
   7   2.0000      -0.265947        -7.2368
   8   2.0000      -0.265926        -7.2362
   9   0.0000       0.109274         2.9735
  10   0.0000       0.154308         4.1989
  11   0.0000       0.164792         4.4842
  12   0.0000       0.164819         4.4850
  13   0.0000       0.208144         5.6639

MULLIKEN ATOMIC CHARGES
-----------------------
   0 C :    0.716630
   1 O :   -1.077921
   2 H :   -0.213328
   3 H :   -0.212538
   4 H :   -0.212843
Sum of atomic charges:   -1.0000000

LOEWDIN ATOMIC CHARGES
----------------------
   0 C :   -0.108937
   1 O :   -0.731839
   2 H :   -0.053129
   3 H :   -0.053084
   4 H :   -0.053010

  Mayer bond orders larger than 0.100000
B(  0-C ,  1-O ) :   1.2891 B(  0-C ,  2-H ) :   0.9132 B(  0-C ,  3-H ) :   0.9137
B(  0-C ,  4-H ) :   0.9138

Dispersion correction           -0.000086560
FINAL SINGLE POINT ENERGY      -115.102165619912

DIPOLE MOMENT
-------------
                                X             Y             Z
Electronic contribution:     -0.03572       1.28304       0.22066
Nuclear contribution   :      0.07809      -2.81948      -0.48564
                        -----------------------------------------
Total Dipole Moment    :      0.04237      -1.53644      -0.26498
                        -----------------------------------------
Magnitude (a.u.)       :      1.55970
Magnitude (Debye)      :      3.96444

Rotational constants in cm-1:     5.477724     0.956378     0.956377
Rotational constants in MHz : 164218.041992 28671.483536 28671.460928

                             ****ORCA TERMINATED NORMALLY****
TOTAL RUN TIME: 0 days 0 hours 0 minutes 3 seconds 850 msec
