                         Program Version 5.0.0 -  RELEASE  -
|  1> !wB97X-D3 RIJCOSX def2-SVPD def2/J TightSCF CPCM(Water)
|  2> *xyz 1 1
|  3> C          4.99986       -1.59613       -5.92488
|  4> N          5.28156       -1.97413       -4.53576
|  5> C          4.79250       -1.36132       -3.45730
|  6> N          3.93990       -0.37492       -3.55736
|  7> N          5.25986       -1.75422       -2.23913
|  8> H          5.92282       -2.52145       -2.18672
|  9> H          4.65468       -1.64040       -1.44202
| 10> H          5.70914       -2.87560       -4.38702
| 11> H          3.33010       -0.31764       -4.36125
| 12> H          3.69849        0.11447       -2.70833
| 13> H          5.52133       -2.25562       -6.58673
| 14> H          5.32493       -0.59081       -6.09388
| 15> H          3.94785       -1.66624       -6.10727
| 16> *
| 17>
| 18> %MaxCore 64000
| 19>
| 20> %pal nprocs 18
| 21> end
| 22>
| 23> %scf
| 24>   MaxIter 150
| 25> end
| 26>
| 27>
| 28>                          ****END OF INPUT****

CARTESIAN COORDINATES (ANGSTROEM)
---------------------------------
  C      4.999860   -1.596130   -5.924880
  N      5.281560   -1.974130   -4.535760
  C      4.792500   -1.361320   -3.457300
  N      3.939900   -0.374920   -3.557360
  N      5.259860   -1.754220   -2.239130
  H      5.922820   -2.521450   -2.186720
  H      4.654680   -1.640400   -1.442020
  H      5.709140   -2.875600   -4.387020
  H      3.330100   -0.317640   -4.361250
  H      3.698490    0.114470   -2.708330
  H      5.521330   -2.255620   -6.586730
  H      5.324930   -0.590810   -6.093880
  H      3.947850   -1.666240   -6.107270

 Total Charge           Charge          ....    1
 Multiplicity           Mult            ....    1
 Number of Electrons    NEL             ....   40
 Basis Dimension        Dim             ....  164

ORBITAL ENERGIES
----------------

  NO   OCC          E(Eh)            E(eV)
   0   2.0000     -14.492283      -394.3551
   1   2.0000     -14.489659      -394.2837
   2   2.0000     -14.480114      -394.0239
   3   2.0000     -10.456735      -284.5422
   4   2.0000     -10.329991      -281.0933
   5   2.0000      -1.153088       -31.3771
   6   2.0000      -1.041061       -28.3287
   7   2.0000      -1.023130       -27.8408
   8   2.0000      -0.844072       -22.9684
   9   2.0000      -0.758133       -20.6298
  10   2.0000      -0.717505       -19.5243
  11   2.0000      -0.676730       -18.4148
  12   2.0000      -0.626120       -17.0376
  13   2.0000      -0.615953       -16.7609
  14   2.0000      -0.581809       -15.8318
  15   2.0000      -0.562717       -15.3123
  16   2.0000      -0.520928       -14.1752
  17   2.0000      -0.511593       -13.9212
  18   2.0000      -0.403295       -10.9742
  19   2.0000      -0.379154       -10.3173
  20   0.0000       0.076589         2.0841
  21   0.0000       0.085538         2.3276
  22   0.0000       0.115746         3.1496
  23   0.0000       0.132291         3.5998
  24   0.0000       0.154897         4.2149

MULLIKEN ATOMIC CHARGES
-----------------------
   0 C :    0.935763
   1 N :   -0.588165
   2 C :    1.095850
   3 N :   -0.076883
   4 N :   -0.142446
   5 H :    0.039002
   6 H :    0.027018
   7 H :   -0.131581
   8 H :    0.037094
   9 H :    0.005033
  10 H :   -0.218383
  11 H :    0.011480
  12 H :    0.006217
Sum of atomic charges:    1.0000000

LOEWDIN ATOMIC CHARGES
----------------------
   0 C :    0.244110
   1 N :    0.018080
   2 C :   -0.036097
   3 N :    0.282307
   4 N :    0.254510
   5 H :    0.038983
   6 H :    0.033716
   7 H :    0.060945
   8 H :    0.042902
   9 H :    0.052131
  10 H :    0.007002
  11 H :    0.003351
  12 H :   -0.001940

  Mayer bond orders larger than 0.100000
B(  0-C ,  1-N ) :   0.8699 B(  0-C ,  7-H ) :  -0.1059 B(  0-C , 10-H ) :   0.8902
B(  0-C , 11-H ) :   0.8396 B(  0-C , 12-H ) :   0.8515 B(  1-N ,  2-C ) :   1.0809
B(  1-N ,  3-N ) :   0.2118 B(  1-N ,  4-N ) :   0.1825 B(  1-N ,  7-H ) :   1.2589
B(  1-N , 10-H ) :   0.1514 B(  1-N , 11-H ) :   0.1457 B(  1-N , 12-H ) :   0.1257
B(  2-C ,  3-N ) :   1.0869 B(  2-C ,  4-N ) :   0.9169 B(  2-C ,  7-H ) :  -0.1453
B(  3-N ,  4-N ) :   0.1305 B(  3-N ,  8-H ) :   1.0949 B(  3-N ,  9-H ) :   1.1366
B(  4-N ,  5-H ) :   1.0562 B(  4-N ,  6-H ) :   1.1237 B(  5-H ,  6-H ) :  -0.1153
B(  8-H ,  9-H ) :  -0.1644

Dispersion correction           -0.002409744
FINAL SINGLE POINT ENERGY      -244.953181893104

DIPOLE MOMENT
-------------
                                X             Y             Z
Electronic contribution:      0.02815       0.01556       2.84725
Nuclear contribution   :     -0.59263      -0.40751      -2.24260
                        -----------------------------------------
Total Dipole Moment    :     -0.56448      -0.39195       0.60465
                        -----------------------------------------
Magnitude (a.u.)       :      0.91535
Magnitude (Debye)      :      2.32663

Rotational constants in cm-1:     0.316984     0.131419     0.095004
Rotational constants in MHz :  9502.926758  3939.829875  2848.138998

                             ****ORCA TERMINATED NORMALLY****
TOTAL RUN TIME: 0 days 0 hours 0 minutes 9 seconds 394 msec
