                         Program Version 5.0.0 -  RELEASE  -
|  1> !wB97X-D3 RIJCOSX def2-SVPD def2/J TightSCF CPCM(Water)
|  2> *xyz 0 1
|  3> C          2.49670       -1.84416       -5.73570
|  4> F          2.45973       -0.50920       -5.50576
|  5> H          2.07863       -2.36209       -4.89793
|  6> H          3.51118       -2.15388       -5.87645
|  7> H          1.92949       -2.07059       -6.61428
|  8> *
|  9>
| 10> %MaxCore 64000
| 11>
| 12> %pal nprocs 18
| 13> end
| 14>
| 15> %scf
| 16>   MaxIter 150
| 17> end
| 18>
| 19>
| 20>                          ****END OF INPUT****

CARTESIAN COORDINATES (ANGSTROEM)
---------------------------------
  C      2.496700   -1.844160   -5.735700
  F      2.459730   -0.509200   -5.505760
  H      2.078630   -2.362090   -4.897930
  H      3.511180   -2.153880   -5.876450
  H      1.929490   -2.070590   -6.614280

 Total Charge           Charge          ....    0
 Multiplicity           Mult            ....    1
 Number of Electrons    NEL             ....   18
 Basis Dimension        Dim             ....   67

ORBITAL ENERGIES
----------------

  NO   OCC          E(Eh)            E(eV)
   0   2.0000     -24.792161      -674.6290
   1   2.0000     -10.348755      -281.6039
   2   2.0000      -1.308759       -35.6131
   3   2.0000      -0.807374       -21.9698
   4   2.0000      -0.604654       -16.4535
   5   2.0000      -0.596360       -16.2278
   6   2.0000      -0.596342       -16.2273
   7   2.0000      -0.447027       -12.1642
   8   2.0000      -0.447007       -12.1637
   9   0.0000       0.102618         2.7924
  10   0.0000       0.151107         4.1118
  11   0.0000       0.183377         4.9899
  12   0.0000       0.183398         4.9905
  13   0.0000       0.212667         5.7870

MULLIKEN ATOMIC CHARGES
-----------------------
   0 C :    0.738836
   1 F :   -0.514046
   2 H :   -0.074887
   3 H :   -0.074950
   4 H :   -0.074953
Sum of atomic charges:   -0.0000000

LOEWDIN ATOMIC CHARGES
----------------------
   0 C :    0.268567
   1 F :   -0.276026
   2 H :    0.002487
   3 H :    0.002483
   4 H :    0.002489

  Mayer bond orders larger than 0.100000
B(  0-C ,  1-F ) :   0.8202 B(  0-C ,  2-H ) :   0.9585 B(  0-C ,  3-H ) :   0.9591
B(  0-C ,  4-H ) :   0.9589

Dispersion correction           -0.000124156
FINAL SINGLE POINT ENERGY      -139.610452220331

DIPOLE MOMENT
-------------
                                X             Y             Z
Electronic contribution:     -0.07564       2.73578       0.47125
Nuclear contribution   :      0.09898      -3.57380      -0.61557
                        -----------------------------------------
Total Dipole Moment    :      0.02334      -0.83801      -0.14432
                        -----------------------------------------
Magnitude (a.u.)       :      0.85067
Magnitude (Debye)      :      2.16223

Rotational constants in cm-1:     5.477724     0.890368     0.890367
Rotational constants in MHz : 164218.041992 26692.553985 26692.534390

                             ****ORCA TERMINATED NORMALLY****
TOTAL RUN TIME: 0 days 0 hours 0 minutes 3 seconds 581 msec
