                         Program Version 5.0.0 -  RELEASE  -
|  1> !wB97X-D3 RIJCOSX def2-SVPD def2/J TightSCF CPCM(Water)
|  2> *xyz 0 1
|  3> C          4.99986       -1.59613       -5.92488
|  4> C          5.28156       -1.97413       -4.53576
|  5> C          4.79250       -1.36132       -3.45730
|  6> N          3.93990       -0.37492       -3.55736
|  7> N          5.25986       -1.75422       -2.23913
|  8> H          5.92282       -2.52145       -2.18672
|  9> H          4.65468       -1.64040       -1.44202
| 10> H          5.70914       -2.87560       -4.38702
| 11> H          3.33010       -0.31764       -4.36125
| 12> H          3.69849        0.11447       -2.70833
| 13> H          5.52133       -2.25562       -6.58673
| 14> H          5.32493       -0.59081       -6.09388
| 15> H          3.94785       -1.66624       -6.10727
| 16> *
| 17>
| 18> %MaxCore 64000
| 19>
| 20> %pal nprocs 18
| 21> end
| 22>
| 23> %scf
| 24>   MaxIter 150
| 25> end
| 26>
| 27>
| 28>                          ****END OF INPUT****

CARTESIAN COORDINATES (ANGSTROEM)
---------------------------------
  C      4.999860   -1.596130   -5.924880
  C      5.281560   -1.974130   -4.535760
  C      4.792500   -1.361320   -3.457300
  N      3.939900   -0.374920   -3.557360
  N      5.259860   -1.754220   -2.239130
  H      5.922820   -2.521450   -2.186720
  H      4.654680   -1.640400   -1.442020
  H      5.709140   -2.875600   -4.387020
  H      3.330100   -0.317640   -4.361250
  H      3.698490    0.114470   -2.708330
  H      5.521330   -2.255620   -6.586730
  H      5.324930   -0.590810   -6.093880
  H      3.947850   -1.666240   -6.107270

 Total Charge           Charge          ....    0
 Multiplicity           Mult            ....    1
 Number of Electrons    NEL             ....   40
 Basis Dimension        Dim             ....  164

ORBITAL ENERGIES
----------------

  NO   OCC          E(Eh)            E(eV)
   0   2.0000     -14.434733      -392.7890
   1   2.0000     -14.427375      -392.5888
   2   2.0000     -10.335114      -281.2328
   3   2.0000     -10.258487      -279.1476
   4   2.0000     -10.216758      -278.0121
   5   2.0000      -1.068552       -29.0768
   6   2.0000      -0.971876       -26.4461
   7   2.0000      -0.863608       -23.5000
   8   2.0000      -0.762462       -20.7477
   9   2.0000      -0.684108       -18.6155
  10   2.0000      -0.642284       -17.4774
  11   2.0000      -0.602216       -16.3871
  12   2.0000      -0.570917       -15.5354
  13   2.0000      -0.531492       -14.4626
  14   2.0000      -0.510089       -13.8802
  15   2.0000      -0.475349       -12.9349
  16   2.0000      -0.458246       -12.4695
  17   2.0000      -0.437228       -11.8976
  18   2.0000      -0.359155        -9.7731
  19   2.0000      -0.252577        -6.8730
  20   0.0000       0.096640         2.6297
  21   0.0000       0.122841         3.3427
  22   0.0000       0.134017         3.6468
  23   0.0000       0.144638         3.9358
  24   0.0000       0.167329         4.5533

MULLIKEN ATOMIC CHARGES
-----------------------
   0 C :    0.682779
   1 C :   -0.697279
   2 C :    0.695996
   3 N :    0.014286
   4 N :   -0.080706
   5 H :    0.021613
   6 H :   -0.040469
   7 H :   -0.399588
   8 H :   -0.002471
   9 H :   -0.133789
  10 H :   -0.039142
  11 H :    0.010264
  12 H :   -0.031496
Sum of atomic charges:   -0.0000000

LOEWDIN ATOMIC CHARGES
----------------------
   0 C :    0.072760
   1 C :   -0.086913
   2 C :   -0.250041
   3 N :    0.200884
   4 N :    0.172519
   5 H :    0.007265
   6 H :   -0.005923
   7 H :   -0.067897
   8 H :    0.014745
   9 H :    0.013512
  10 H :   -0.020173
  11 H :   -0.023111
  12 H :   -0.027626

  Mayer bond orders larger than 0.100000
B(  0-C ,  1-C ) :   1.2791 B(  0-C ,  7-H ) :   0.1489 B(  0-C , 10-H ) :   0.7621
B(  0-C , 11-H ) :   0.7064 B(  0-C , 12-H ) :   0.7756 B(  1-C ,  2-C ) :   1.5281
B(  1-C ,  3-N ) :   0.2777 B(  1-C ,  4-N ) :   0.2959 B(  1-C ,  7-H ) :   0.9855
B(  1-C , 10-H ) :   0.2802 B(  1-C , 11-H ) :   0.2880 B(  1-C , 12-H ) :   0.1769
B(  2-C ,  3-N ) :   1.0985 B(  2-C ,  4-N ) :   0.9044 B(  3-N ,  8-H ) :   1.0746
B(  3-N ,  9-H ) :   1.2122 B(  4-N ,  5-H ) :   1.0437 B(  4-N ,  6-H ) :   1.0910
B(  5-H ,  6-H ) :  -0.1028 B(  7-H , 10-H ) :  -0.1056 B(  8-H ,  9-H ) :  -0.1555
B( 10-H , 11-H ) :   0.1011

Dispersion correction           -0.002410893
FINAL SINGLE POINT ENERGY      -228.403099255601

DIPOLE MOMENT
-------------
                                X             Y             Z
Electronic contribution:     -0.44031       0.64123       3.32008
Nuclear contribution   :     -0.50372      -0.52081      -2.36443
                        -----------------------------------------
Total Dipole Moment    :     -0.94403       0.12042       0.95565
                        -----------------------------------------
Magnitude (a.u.)       :      1.34869
Magnitude (Debye)      :      3.42810

Rotational constants in cm-1:     0.322219     0.132365     0.095965
Rotational constants in MHz :  9659.878542  3968.206057  2876.950547

                             ****ORCA TERMINATED NORMALLY****
TOTAL RUN TIME: 0 days 0 hours 0 minutes 9 seconds 871 msec
