                         Program Version 5.0.0 -  RELEASE  -
|  1> !wB97X-D3 RIJCOSX def2-SVPD def2/J TightSCF CPCM(Water)
|  2> *xyz 0 1
|  3> C          4.99986       -1.59613       -5.92488
|  4> N          5.28156       -1.97413       -4.53576
|  5> C          4.79250       -1.36132       -3.45730
|  6> C          3.93990       -0.37492       -3.55736
|  7> N          5.25986       -1.75422       -2.23913
|  8> H          5.92282       -2.52145       -2.18672
|  9> H          4.65468       -1.64040       -1.44202
| 10> H          5.70914       -2.87560       -4.38702
| 11> H          3.33010       -0.31764       -4.36125
| 12> H          3.69849        0.11447       -2.70833
| 13> H          5.52133       -2.25562       -6.58673
| 14> H          5.32493       -0.59081       -6.09388
| 15> H          3.94785       -1.66624       -6.10727
| 16> *
| 17>
| 18> %MaxCore 64000
| 19>
| 20> %pal nprocs 18
| 21> end
| 22>
| 23> %scf
| 24>   MaxIter 150
| 25> end
| 26>
| 27>
| 28>                          ****END OF INPUT****

CARTESIAN COORDINATES (ANGSTROEM)
---------------------------------
  C      4.999860   -1.596130   -5.924880
  N      5.281560   -1.974130   -4.535760
  C      4.792500   -1.361320   -3.457300
  C      3.939900   -0.374920   -3.557360
  N      5.259860   -1.754220   -2.239130
  H      5.922820   -2.521450   -2.186720
  H      4.654680   -1.640400   -1.442020
  H      5.709140   -2.875600   -4.387020
  H      3.330100   -0.317640   -4.361250
  H      3.698490    0.114470   -2.708330
  H      5.521330   -2.255620   -6.586730
  H      5.324930   -0.590810   -6.093880
  H      3.947850   -1.666240   -6.107270

 Total Charge           Charge          ....    0
 Multiplicity           Mult            ....    1
 Number of Electrons    NEL             ....   40
 Basis Dimension        Dim             ....  164

ORBITAL ENERGIES
----------------

  NO   OCC          E(Eh)            E(eV)
   0   2.0000     -14.438183      -392.8829
   1   2.0000     -14.431082      -392.6897
   2   2.0000     -10.343022      -281.4479
   3   2.0000     -10.308417      -280.5063
   4   2.0000     -10.210854      -277.8515
   5   2.0000      -1.071639       -29.1608
   6   2.0000      -0.982014       -26.7220
   7   2.0000      -0.837158       -22.7802
   8   2.0000      -0.802772       -21.8445
   9   2.0000      -0.669642       -18.2219
  10   2.0000      -0.644273       -17.5316
  11   2.0000      -0.611377       -16.6364
  12   2.0000      -0.557279       -15.1643
  13   2.0000      -0.532421       -14.4879
  14   2.0000      -0.515471       -14.0267
  15   2.0000      -0.487098       -13.2546
  16   2.0000      -0.478636       -13.0244
  17   2.0000      -0.458027       -12.4636
  18   2.0000      -0.343789        -9.3550
  19   2.0000      -0.272042        -7.4026
  20   0.0000       0.096192         2.6175
  21   0.0000       0.121152         3.2967
  22   0.0000       0.127746         3.4761
  23   0.0000       0.141571         3.8523
  24   0.0000       0.163746         4.4557

MULLIKEN ATOMIC CHARGES
-----------------------
   0 C :    0.964601
   1 N :   -0.555015
   2 C :    0.472922
   3 C :    0.293710
   4 N :   -0.057662
   5 H :   -0.077546
   6 H :    0.010055
   7 H :   -0.241394
   8 H :   -0.186614
   9 H :   -0.360673
  10 H :   -0.280718
  11 H :   -0.016771
  12 H :    0.035105
Sum of atomic charges:    0.0000000

LOEWDIN ATOMIC CHARGES
----------------------
   0 C :    0.210078
   1 N :   -0.049948
   2 C :   -0.254629
   3 C :    0.119464
   4 N :    0.181913
   5 H :    0.003323
   6 H :    0.004788
   7 H :    0.029232
   8 H :   -0.107665
   9 H :   -0.102393
  10 H :   -0.005955
  11 H :   -0.011993
  12 H :   -0.016215

  Mayer bond orders larger than 0.100000
B(  0-C ,  1-N ) :   0.8767 B(  0-C ,  7-H ) :  -0.1158 B(  0-C , 10-H ) :   0.9138
B(  0-C , 11-H ) :   0.8330 B(  0-C , 12-H ) :   0.8418 B(  1-N ,  2-C ) :   1.0477
B(  1-N ,  3-C ) :   0.3385 B(  1-N ,  4-N ) :   0.1291 B(  1-N ,  7-H ) :   1.3189
B(  1-N , 10-H ) :   0.1482 B(  1-N , 11-H ) :   0.1440 B(  1-N , 12-H ) :   0.1037
B(  2-C ,  3-C ) :   1.7902 B(  2-C ,  4-N ) :   0.9656 B(  2-C ,  7-H ) :  -0.1607
B(  2-C ,  8-H ) :   0.2221 B(  2-C ,  9-H ) :   0.2549 B(  3-C ,  4-N ) :   0.2268
B(  3-C ,  8-H ) :   0.7308 B(  3-C ,  9-H ) :   0.7984 B(  4-N ,  5-H ) :   1.0753
B(  4-N ,  6-H ) :   1.0839 B(  5-H ,  6-H ) :  -0.1087 B(  8-H ,  9-H ) :   0.1220

Dispersion correction           -0.002406540
FINAL SINGLE POINT ENERGY      -228.393696771145

DIPOLE MOMENT
-------------
                                X             Y             Z
Electronic contribution:      1.23991      -1.33735       2.11106
Nuclear contribution   :     -0.77547      -0.19690      -2.16626
                        -----------------------------------------
Total Dipole Moment    :      0.46444      -1.53425      -0.05519
                        -----------------------------------------
Magnitude (a.u.)       :      1.60395
Magnitude (Debye)      :      4.07693

Rotational constants in cm-1:     0.340409     0.131955     0.097296
Rotational constants in MHz : 10205.195281  3955.909122  2916.861706

                             ****ORCA TERMINATED NORMALLY****
TOTAL RUN TIME: 0 days 0 hours 0 minutes 10 seconds 36 msec
