                         Program Version 5.0.0 -  RELEASE  -
|  1> !wB97X-D3 RIJCOSX def2-SVPD def2/J TightSCF CPCM(Water)
|  2> *xyz 0 1
|  3> C          4.99986       -1.59613       -5.92488
|  4> N          5.28156       -1.97413       -4.53576
|  5> C          4.79250       -1.36132       -3.45730
|  6> N          3.93990       -0.37492       -3.55736
|  7> C          5.25986       -1.75422       -2.23913
|  8> H          5.92282       -2.52145       -2.18672
|  9> H          4.65468       -1.64040       -1.44202
| 10> H          5.70914       -2.87560       -4.38702
| 11> H          3.33010       -0.31764       -4.36125
| 12> H          3.69849        0.11447       -2.70833
| 13> H          5.52133       -2.25562       -6.58673
| 14> H          5.32493       -0.59081       -6.09388
| 15> H          3.94785       -1.66624       -6.10727
| 16> *
| 17>
| 18> %MaxCore 64000
| 19>
| 20> %pal nprocs 18
| 21> end
| 22>
| 23> %scf
| 24>   MaxIter 150
| 25> end
| 26>
| 27>
| 28>                          ****END OF INPUT****

CARTESIAN COORDINATES (ANGSTROEM)
---------------------------------
  C      4.999860   -1.596130   -5.924880
  N      5.281560   -1.974130   -4.535760
  C      4.792500   -1.361320   -3.457300
  N      3.939900   -0.374920   -3.557360
  C      5.259860   -1.754220   -2.239130
  H      5.922820   -2.521450   -2.186720
  H      4.654680   -1.640400   -1.442020
  H      5.709140   -2.875600   -4.387020
  H      3.330100   -0.317640   -4.361250
  H      3.698490    0.114470   -2.708330
  H      5.521330   -2.255620   -6.586730
  H      5.324930   -0.590810   -6.093880
  H      3.947850   -1.666240   -6.107270

 Total Charge           Charge          ....    0
 Multiplicity           Mult            ....    1
 Number of Electrons    NEL             ....   40
 Basis Dimension        Dim             ....  164

ORBITAL ENERGIES
----------------

  NO   OCC          E(Eh)            E(eV)
   0   2.0000     -14.439402      -392.9161
   1   2.0000     -14.439093      -392.9077
   2   2.0000     -10.350129      -281.6413
   3   2.0000     -10.309283      -280.5298
   4   2.0000     -10.207367      -277.7566
   5   2.0000      -1.082639       -29.4601
   6   2.0000      -0.993304       -27.0292
   7   2.0000      -0.847086       -23.0504
   8   2.0000      -0.771296       -20.9880
   9   2.0000      -0.705939       -19.2096
  10   2.0000      -0.645852       -17.5745
  11   2.0000      -0.595922       -16.2159
  12   2.0000      -0.576680       -15.6923
  13   2.0000      -0.545320       -14.8389
  14   2.0000      -0.496000       -13.4968
  15   2.0000      -0.490366       -13.3435
  16   2.0000      -0.482982       -13.1426
  17   2.0000      -0.455794       -12.4028
  18   2.0000      -0.350879        -9.5479
  19   2.0000      -0.259554        -7.0628
  20   0.0000       0.092986         2.5303
  21   0.0000       0.119419         3.2496
  22   0.0000       0.131091         3.5672
  23   0.0000       0.141149         3.8409
  24   0.0000       0.160207         4.3595

MULLIKEN ATOMIC CHARGES
-----------------------
   0 C :    0.983099
   1 N :   -0.516109
   2 C :    0.307418
   3 N :    0.001648
   4 C :    0.446223
   5 H :   -0.262088
   6 H :   -0.418776
   7 H :   -0.179215
   8 H :   -0.017049
   9 H :   -0.004347
  10 H :   -0.260364
  11 H :   -0.034178
  12 H :   -0.046261
Sum of atomic charges:   -0.0000000

LOEWDIN ATOMIC CHARGES
----------------------
   0 C :    0.210922
   1 N :   -0.039599
   2 C :   -0.252438
   3 N :    0.205715
   4 C :    0.092731
   5 H :   -0.123178
   6 H :   -0.130799
   7 H :    0.035817
   8 H :    0.011978
   9 H :    0.023730
  10 H :   -0.005509
  11 H :   -0.012203
  12 H :   -0.017168

  Mayer bond orders larger than 0.100000
B(  0-C ,  1-N ) :   0.8913 B(  0-C ,  7-H ) :  -0.1191 B(  0-C , 10-H ) :   0.8820
B(  0-C , 11-H ) :   0.8446 B(  0-C , 12-H ) :   0.8474 B(  1-N ,  2-C ) :   1.1307
B(  1-N ,  3-N ) :   0.1669 B(  1-N ,  4-C ) :   0.2023 B(  1-N ,  7-H ) :   1.2180
B(  1-N , 10-H ) :   0.1561 B(  1-N , 11-H ) :   0.1327 B(  1-N , 12-H ) :   0.1496
B(  2-C ,  3-N ) :   1.1308 B(  2-C ,  4-C ) :   1.7291 B(  2-C ,  5-H ) :   0.1884
B(  2-C ,  6-H ) :   0.2240 B(  2-C ,  7-H ) :  -0.1129 B(  3-N ,  4-C ) :   0.1922
B(  3-N ,  8-H ) :   1.0812 B(  3-N ,  9-H ) :   1.1199 B(  4-C ,  5-H ) :   0.7935
B(  4-C ,  6-H ) :   0.7493 B(  5-H ,  6-H ) :   0.1747 B(  8-H ,  9-H ) :  -0.1594

Dispersion correction           -0.002424049
FINAL SINGLE POINT ENERGY      -228.388965259832

DIPOLE MOMENT
-------------
                                X             Y             Z
Electronic contribution:     -0.48611       0.47216       0.30197
Nuclear contribution   :     -0.50812      -0.47627      -1.89926
                        -----------------------------------------
Total Dipole Moment    :     -0.99423      -0.00411      -1.59729
                        -----------------------------------------
Magnitude (a.u.)       :      1.88144
Magnitude (Debye)      :      4.78225

Rotational constants in cm-1:     0.323645     0.137193     0.098606
Rotational constants in MHz :  9702.637007  4112.943433  2956.125886

                             ****ORCA TERMINATED NORMALLY****
TOTAL RUN TIME: 0 days 0 hours 0 minutes 9 seconds 973 msec
