                         Program Version 5.0.0 -  RELEASE  -
|  1> !wB97X-D3 RIJCOSX def2-SVPD def2/J TightSCF CPCM(Water) xyzfile
|  2>
|  3> *xyzfile 0 1 D3.xyz
|  4>
|  5> %MaxCore 64000
|  6>
|  7> %pal nprocs 18
|  8> end
|  9>
| 10> %scf
| 11>   MaxIter 150
| 12> end
| 13>
| 14>
| 15>                          ****END OF INPUT****

CARTESIAN COORDINATES (ANGSTROEM)
---------------------------------
  C      4.999862   -1.596133   -5.924876
  N      5.281560   -1.974132   -4.535764
  C      3.766779   -2.266110   -6.511752
  C      2.496702   -1.844161   -5.735704
  H      1.626416   -2.217434   -6.308950
  H      2.481824   -2.456069   -4.793414
  F      2.459729   -0.509204   -5.505757
  C      4.792500   -1.361316   -3.457295
  N      3.939898   -0.374925   -3.557359
  C      5.259860   -1.754224   -2.239133
  H      5.922824   -2.521451   -2.186720
  H      4.654678   -1.640404   -1.442016
  H      5.709139   -2.875599   -4.387021
  H      3.330101   -0.317639   -4.361247
  H      3.698494    0.114468   -2.708333
  H      4.843333   -0.517930   -5.943019
  H      5.901695   -1.822503   -6.496467
  H      3.886191   -3.357076   -6.533604
  H      3.685602   -1.922168   -7.547128

 Total Charge           Charge          ....    0
 Multiplicity           Mult            ....    1
 Number of Electrons    NEL             ....   64
 Basis Dimension        Dim             ....  251

ORBITAL ENERGIES
----------------

  NO   OCC          E(Eh)            E(eV)
   0   2.0000     -24.829174      -675.6362
   1   2.0000     -14.438107      -392.8809
   2   2.0000     -14.418568      -392.3492
   3   2.0000     -10.375328      -282.3270
   4   2.0000     -10.346415      -281.5403
   5   2.0000     -10.320808      -280.8435
   6   2.0000     -10.293836      -280.1095
   7   2.0000     -10.204022      -277.6656
   8   2.0000      -1.351748       -36.7829
   9   2.0000      -1.079782       -29.3824
  10   2.0000      -0.992026       -26.9944
  11   2.0000      -0.897689       -24.4274
  12   2.0000      -0.835981       -22.7482
  13   2.0000      -0.779874       -21.2214
  14   2.0000      -0.718717       -19.5573
  15   2.0000      -0.704401       -19.1677
  16   2.0000      -0.678939       -18.4749
  17   2.0000      -0.638190       -17.3660
  18   2.0000      -0.611962       -16.6523
  19   2.0000      -0.602209       -16.3869
  20   2.0000      -0.577102       -15.7037
  21   2.0000      -0.567198       -15.4343
  22   2.0000      -0.532216       -14.4823
  23   2.0000      -0.514283       -13.9943
  24   2.0000      -0.494071       -13.4443
  25   2.0000      -0.481173       -13.0934
  26   2.0000      -0.459363       -12.4999
  27   2.0000      -0.446166       -12.1408
  28   2.0000      -0.438660       -11.9365
  29   2.0000      -0.428705       -11.6657
  30   2.0000      -0.344773        -9.3817
  31   2.0000      -0.257150        -6.9974
  32   0.0000       0.092893         2.5277
  33   0.0000       0.113113         3.0780
  34   0.0000       0.120802         3.2872
  35   0.0000       0.124751         3.3946
  36   0.0000       0.139057         3.7839

MULLIKEN ATOMIC CHARGES
-----------------------
   0 C :    0.682123
   1 N :   -0.311044
   2 C :   -0.120710
   3 C :    0.675680
   4 H :   -0.242849
   5 H :    0.249896
   6 F :   -0.422288
   7 C :    0.131574
   8 N :    0.444550
   9 C :    0.415493
  10 H :   -0.281713
  11 H :   -0.293484
  12 H :   -0.223136
  13 H :   -0.445818
  14 H :   -0.048678
  15 H :    0.142581
  16 H :   -0.360301
  17 H :   -0.060145
  18 H :    0.068270
Sum of atomic charges:    0.0000000

LOEWDIN ATOMIC CHARGES
----------------------
   0 C :    0.061183
   1 N :    0.000002
   2 C :    0.003762
   3 C :    0.148023
   4 H :    0.044080
   5 H :    0.053650
   6 F :   -0.193131
   7 C :   -0.247952
   8 N :    0.233347
   9 C :    0.092022
  10 H :   -0.125800
  11 H :   -0.131503
  12 H :    0.042905
  13 H :   -0.126993
  14 H :    0.026740
  15 H :    0.020644
  16 H :    0.028292
  17 H :    0.040327
  18 H :    0.030400

  Mayer bond orders larger than 0.100000
B(  0-C ,  1-N ) :   0.9292 B(  0-C ,  2-C ) :   1.1298 B(  0-C , 12-H ) :  -0.1934
B(  0-C , 15-H ) :   0.7341 B(  0-C , 16-H ) :   0.9792 B(  0-C , 17-H ) :   0.1306
B(  0-C , 18-H ) :   0.1007 B(  1-N ,  7-C ) :   1.1343 B(  1-N ,  8-N ) :   0.1128
B(  1-N ,  9-C ) :   0.1856 B(  1-N , 12-H ) :   1.2144 B(  1-N , 15-H ) :   0.1675
B(  1-N , 16-H ) :   0.1269 B(  2-C ,  3-C ) :   1.2057 B(  2-C ,  4-H ) :   0.1451
B(  2-C , 17-H ) :   0.9520 B(  2-C , 18-H ) :   0.8887 B(  3-C ,  4-H ) :   1.0360
B(  3-C ,  5-H ) :   0.7932 B(  3-C ,  6-F ) :   0.5985 B(  6-F , 13-H ) :   0.1217
B(  7-C ,  8-N ) :   1.1507 B(  7-C ,  9-C ) :   1.8558 B(  7-C , 10-H ) :   0.1885
B(  7-C , 11-H ) :   0.2148 B(  7-C , 12-H ) :  -0.1236 B(  8-N ,  9-C ) :   0.1154
B(  8-N , 13-H ) :   1.0867 B(  8-N , 14-H ) :   1.1289 B(  9-C , 10-H ) :   0.7495
B(  9-C , 11-H ) :   0.7843 B( 10-H , 11-H ) :   0.2252 B( 13-H , 14-H ) :  -0.1911
B( 15-H , 16-H ) :  -0.1344

Dispersion correction           -0.006195385
FINAL SINGLE POINT ENERGY      -406.075092094982

DIPOLE MOMENT
-------------
                                X             Y             Z
Electronic contribution:     -3.81169       3.60705      -2.08829
Nuclear contribution   :      2.63642      -4.47741       0.00296
                        -----------------------------------------
Total Dipole Moment    :     -1.17527      -0.87035      -2.08534
                        -----------------------------------------
Magnitude (a.u.)       :      2.54704
Magnitude (Debye)      :      6.47405

Rotational constants in cm-1:     0.108041     0.051979     0.040387
Rotational constants in MHz :  3238.993235  1558.297571  1210.782552

                             ****ORCA TERMINATED NORMALLY****
TOTAL RUN TIME: 0 days 0 hours 0 minutes 22 seconds 646 msec
