                         Program Version 5.0.0 -  RELEASE  -
|  1> !M062X D3Zero RIJCOSX def2-SVPD def2/J TightSCF
|  2> *xyz -1 1
|  3> C         -0.77455        2.78833       -0.54394
|  4> C          0.69721        3.22791       -0.52513
|  5> O          1.48929        2.37470        0.19919
|  6> H          0.71600        4.26403       -0.13077
|  7> H          1.03615        3.33092       -1.58367
|  8> H         -1.34746        3.48478       -1.11982
|  9> H         -1.15078        2.75876        0.45729
| 10> H         -0.85058        1.81526       -0.98241
| 11> *
| 12>
| 13> %MaxCore 64000
| 14> %pal nprocs 4
| 15> end
| 16>
| 17> %scf
| 18>   MaxIter 150
| 19> end
| 20>
| 21>
| 22>                          ****END OF INPUT****

CARTESIAN COORDINATES (ANGSTROEM)
---------------------------------
  C     -0.774550    2.788330   -0.543940
  C      0.697210    3.227910   -0.525130
  O      1.489290    2.374700    0.199190
  H      0.716000    4.264030   -0.130770
  H      1.036150    3.330920   -1.583670
  H     -1.347460    3.484780   -1.119820
  H     -1.150780    2.758760    0.457290
  H     -0.850580    1.815260   -0.982410

 Total Charge           Charge          ....   -1
 Multiplicity           Mult            ....    1
 Number of Electrons    NEL             ....   26
 Basis Dimension        Dim             ....  103

ORBITAL ENERGIES
----------------

  NO   OCC          E(Eh)            E(eV)
   0   2.0000     -19.298264      -525.1325
   1   2.0000     -10.363625      -282.0086
   2   2.0000     -10.340545      -281.3805
   3   2.0000      -0.776202       -21.1215
   4   2.0000      -0.610686       -16.6176
   5   2.0000      -0.447408       -12.1746
   6   2.0000      -0.318009        -8.6535
   7   2.0000      -0.294135        -8.0038
   8   2.0000      -0.236693        -6.4407
   9   2.0000      -0.218526        -5.9464
  10   2.0000      -0.175610        -4.7786
  11   2.0000      -0.031426        -0.8551
  12   2.0000      -0.029850        -0.8123
  13   0.0000       0.200940         5.4679
  14   0.0000       0.231797         6.3075
  15   0.0000       0.272961         7.4276
  16   0.0000       0.284695         7.7469
  17   0.0000       0.297160         8.0861

MULLIKEN ATOMIC CHARGES
-----------------------
   0 C :    0.334957
   1 C :    0.148301
   2 O :   -0.914593
   3 H :   -0.154839
   4 H :   -0.142203
   5 H :   -0.067807
   6 H :   -0.101817
   7 H :   -0.102000
Sum of atomic charges:   -1.0000000

LOEWDIN ATOMIC CHARGES
----------------------
   0 C :    0.060509
   1 C :   -0.257667
   2 O :   -0.598834
   3 H :   -0.032863
   4 H :   -0.028735
   5 H :   -0.058864
   6 H :   -0.041512
   7 H :   -0.042035

  Mayer bond orders larger than 0.100000
B(  0-C ,  1-C ) :   1.1873 B(  0-C ,  2-O ) :   0.1272 B(  0-C ,  3-H ) :   0.1159
B(  0-C ,  4-H ) :   0.1085 B(  0-C ,  5-H ) :   0.8920 B(  0-C ,  6-H ) :   0.8937
B(  0-C ,  7-H ) :   0.8966 B(  1-C ,  2-O ) :   1.1319 B(  1-C ,  3-H ) :   0.9757
B(  1-C ,  4-H ) :   0.9833 B(  1-C ,  5-H ) :   0.1204 B(  1-C ,  6-H ) :   0.1776
B(  1-C ,  7-H ) :   0.1761

Dispersion correction           -0.000014828
FINAL SINGLE POINT ENERGY      -154.234030402531

DIPOLE MOMENT
-------------
                                X             Y             Z
Electronic contribution:      2.33465      -0.99181       1.13659
Nuclear contribution   :     -3.69910       1.55962      -1.78699
                        -----------------------------------------
Total Dipole Moment    :     -1.36445       0.56781      -0.65040
                        -----------------------------------------
Magnitude (a.u.)       :      1.61467
Magnitude (Debye)      :      4.10417

Rotational constants in cm-1:     1.268893     0.327436     0.287754
Rotational constants in MHz : 38040.440181  9816.269339  8626.646564

                             ****ORCA TERMINATED NORMALLY****
TOTAL RUN TIME: 0 days 0 hours 0 minutes 11 seconds 197 msec
