                         Program Version 5.0.0 -  RELEASE  -
|  1> !M062X D3Zero RIJCOSX def2-SVPD def2/J TightSCF
|  2> *xyz 1 1
|  3> C          3.95643        0.50147       -0.37910
|  4> H          3.16840        0.02920        0.20738
|  5> N          3.80389        1.96157       -0.15675
|  6> C          3.84232        0.14849       -1.85406
|  7> H          4.92323        0.17798        0.00937
|  8> H          4.20643        2.24441        0.74536
|  9> H          2.80827        2.21132       -0.09610
| 10> H          4.28076        2.50155       -0.89104
| 11> H          4.62951        0.62800       -2.39748
| 12> H          2.89665        0.48102       -2.22825
| 13> H          3.92053       -0.91187       -1.97413
| 14> *
| 15>
| 16> %MaxCore 64000
| 17> %pal nprocs 4
| 18> end
| 19>
| 20> %scf
| 21>   MaxIter 150
| 22> end
| 23>
| 24>
| 25>                          ****END OF INPUT****

CARTESIAN COORDINATES (ANGSTROEM)
---------------------------------
  C      3.956430    0.501470   -0.379100
  H      3.168400    0.029200    0.207380
  N      3.803890    1.961570   -0.156750
  C      3.842320    0.148490   -1.854060
  H      4.923230    0.177980    0.009370
  H      4.206430    2.244410    0.745360
  H      2.808270    2.211320   -0.096100
  H      4.280760    2.501550   -0.891040
  H      4.629510    0.628000   -2.397480
  H      2.896650    0.481020   -2.228250
  H      3.920530   -0.911870   -1.974130

 Total Charge           Charge          ....    1
 Multiplicity           Mult            ....    1
 Number of Electrons    NEL             ....   26
 Basis Dimension        Dim             ....  124

ORBITAL ENERGIES
----------------

  NO   OCC          E(Eh)            E(eV)
   0   2.0000     -15.097434      -410.8221
   1   2.0000     -10.805980      -294.0457
   2   2.0000     -10.726542      -291.8840
   3   2.0000      -1.314866       -35.7793
   4   2.0000      -1.055070       -28.7099
   5   2.0000      -0.925786       -25.1919
   6   2.0000      -0.879703       -23.9379
   7   2.0000      -0.860668       -23.4200
   8   2.0000      -0.767383       -20.8815
   9   2.0000      -0.712330       -19.3835
  10   2.0000      -0.647165       -17.6102
  11   2.0000      -0.631951       -17.1962
  12   2.0000      -0.614355       -16.7174
  13   0.0000      -0.168539        -4.5862
  14   0.0000      -0.109275        -2.9735
  15   0.0000      -0.106675        -2.9028
  16   0.0000      -0.100611        -2.7378
  17   0.0000      -0.068929        -1.8757

MULLIKEN ATOMIC CHARGES
-----------------------
   0 C :    0.144351
   1 H :   -0.044844
   2 N :   -0.923656
   3 C :    0.525522
   4 H :   -0.025457
   5 H :    0.388742
   6 H :    0.436957
   7 H :    0.438008
   8 H :    0.003043
   9 H :    0.036359
  10 H :    0.020976
Sum of atomic charges:    1.0000000

LOEWDIN ATOMIC CHARGES
----------------------
   0 C :    0.053150
   1 H :    0.053523
   2 N :    0.319004
   3 C :    0.171863
   4 H :    0.054583
   5 H :    0.108146
   6 H :    0.112014
   7 H :    0.108046
   8 H :    0.001361
   9 H :    0.002255
  10 H :    0.016055

  Mayer bond orders larger than 0.100000
B(  0-C ,  1-H ) :   0.9354 B(  0-C ,  2-N ) :   0.7390 B(  0-C ,  3-C ) :   1.3276
B(  0-C ,  4-H ) :   0.9580 B(  0-C ,  8-H ) :   0.1567 B(  0-C ,  9-H ) :   0.1417
B(  0-C , 10-H ) :   0.1754 B(  1-H ,  2-N ) :   0.1192 B(  2-N ,  5-H ) :   0.7339
B(  2-N ,  6-H ) :   0.6724 B(  2-N ,  7-H ) :   0.6530 B(  3-C ,  8-H ) :   0.8468
B(  3-C ,  9-H ) :   0.8369 B(  3-C , 10-H ) :   0.8436

Dispersion correction           -0.000053630
FINAL SINGLE POINT ENERGY      -135.358716700096

DIPOLE MOMENT
-------------
                                X             Y             Z
Electronic contribution:     -0.01144       1.32861       1.24921
Nuclear contribution   :     -0.06214      -0.04120      -0.39947
                        -----------------------------------------
Total Dipole Moment    :     -0.07359       1.28740       0.84974
                        -----------------------------------------
Magnitude (a.u.)       :      1.54431
Magnitude (Debye)      :      3.92532

Rotational constants in cm-1:     1.011771     0.281435     0.249812
Rotational constants in MHz : 30332.138762  8437.210602  7489.166323

                             ****ORCA TERMINATED NORMALLY****
TOTAL RUN TIME: 0 days 0 hours 0 minutes 12 seconds 556 msec
