                         Program Version 5.0.0 -  RELEASE  -
|  1> !M062X D3Zero RIJCOSX def2-SVPD def2/J TightSCF
|  2> *xyz 0 1
|  3> C         -0.77455        2.78833       -0.54394
|  4> C          0.69721        3.22791       -0.52513
|  5> F          1.48929        2.37470        0.19919
|  6> H          0.71600        4.26403       -0.13077
|  7> H          1.03615        3.33092       -1.58367
|  8> H         -1.34746        3.48478       -1.11982
|  9> H         -1.15078        2.75876        0.45729
| 10> H         -0.85058        1.81526       -0.98241
| 11> *
| 12>
| 13> %MaxCore 64000
| 14> %pal nprocs 4
| 15> end
| 16>
| 17> %scf
| 18>   MaxIter 150
| 19> end
| 20>
| 21>
| 22>                          ****END OF INPUT****

CARTESIAN COORDINATES (ANGSTROEM)
---------------------------------
  C     -0.774550    2.788330   -0.543940
  C      0.697210    3.227910   -0.525130
  F      1.489290    2.374700    0.199190
  H      0.716000    4.264030   -0.130770
  H      1.036150    3.330920   -1.583670
  H     -1.347460    3.484780   -1.119820
  H     -1.150780    2.758760    0.457290
  H     -0.850580    1.815260   -0.982410

 Total Charge           Charge          ....    0
 Multiplicity           Mult            ....    1
 Number of Electrons    NEL             ....   26
 Basis Dimension        Dim             ....  103

ORBITAL ENERGIES
----------------

  NO   OCC          E(Eh)            E(eV)
   0   2.0000     -25.245058      -686.9529
   1   2.0000     -10.633170      -289.3433
   2   2.0000     -10.547332      -287.0075
   3   2.0000      -1.319819       -35.9141
   4   2.0000      -0.855517       -23.2798
   5   2.0000      -0.716025       -19.4840
   6   2.0000      -0.591923       -16.1070
   7   2.0000      -0.581194       -15.8151
   8   2.0000      -0.545613       -14.8469
   9   2.0000      -0.482385       -13.1264
  10   2.0000      -0.468652       -12.7527
  11   2.0000      -0.408072       -11.1042
  12   2.0000      -0.400176       -10.8893
  13   0.0000       0.039638         1.0786
  14   0.0000       0.069682         1.8962
  15   0.0000       0.100191         2.7263
  16   0.0000       0.105556         2.8723
  17   0.0000       0.133623         3.6361

MULLIKEN ATOMIC CHARGES
-----------------------
   0 C :    0.248650
   1 C :    0.369189
   2 F :   -0.474431
   3 H :   -0.038200
   4 H :   -0.025264
   5 H :   -0.009392
   6 H :   -0.034734
   7 H :   -0.035818
Sum of atomic charges:   -0.0000000

LOEWDIN ATOMIC CHARGES
----------------------
   0 C :    0.134260
   1 C :    0.073871
   2 F :   -0.233033
   3 H :    0.029943
   4 H :    0.034971
   5 H :   -0.012646
   6 H :   -0.013443
   7 H :   -0.013923

  Mayer bond orders larger than 0.100000
B(  0-C ,  1-C ) :   1.3444 B(  0-C ,  5-H ) :   0.8712 B(  0-C ,  6-H ) :   0.9002
B(  0-C ,  7-H ) :   0.9036 B(  1-C ,  2-F ) :   0.6848 B(  1-C ,  3-H ) :   0.9588
B(  1-C ,  4-H ) :   0.9608 B(  1-C ,  5-H ) :   0.1110 B(  1-C ,  6-H ) :   0.1369
B(  1-C ,  7-H ) :   0.1346

Dispersion correction           -0.000018827
FINAL SINGLE POINT ENERGY      -178.848343187711

DIPOLE MOMENT
-------------
                                X             Y             Z
Electronic contribution:      4.39168      -1.63027       1.98069
Nuclear contribution   :     -4.89513       2.05627      -2.36166
                        -----------------------------------------
Total Dipole Moment    :     -0.50345       0.42601      -0.38097
                        -----------------------------------------
Magnitude (a.u.)       :      0.76163
Magnitude (Debye)      :      1.93592

Rotational constants in cm-1:     1.247826     0.304622     0.269019
Rotational constants in MHz : 37408.889506  9132.346906  8064.979146

                             ****ORCA TERMINATED NORMALLY****
TOTAL RUN TIME: 0 days 0 hours 0 minutes 10 seconds 334 msec
