                         Program Version 5.0.0 -  RELEASE  -
|  1> !M062X D3Zero RIJCOSX def2-SVPD def2/J TightSCF
|  2> *xyz 0 1
|  3> C          3.95643        0.50147       -0.37910
|  4> H          3.16840        0.02920        0.20738
|  5> C          3.80389        1.96157       -0.15675
|  6> C          3.84232        0.14849       -1.85406
|  7> H          4.92323        0.17798        0.00937
|  8> H          4.20643        2.24441        0.74536
|  9> H          2.80827        2.21132       -0.09610
| 10> H          4.28076        2.50155       -0.89104
| 11> H          4.62951        0.62800       -2.39748
| 12> H          2.89665        0.48102       -2.22825
| 13> H          3.92053       -0.91187       -1.97413
| 14> *
| 15>
| 16> %MaxCore 64000
| 17> %pal nprocs 4
| 18> end
| 19>
| 20> %scf
| 21>   MaxIter 150
| 22> end
| 23>
| 24>
| 25>                          ****END OF INPUT****

CARTESIAN COORDINATES (ANGSTROEM)
---------------------------------
  C      3.956430    0.501470   -0.379100
  H      3.168400    0.029200    0.207380
  C      3.803890    1.961570   -0.156750
  C      3.842320    0.148490   -1.854060
  H      4.923230    0.177980    0.009370
  H      4.206430    2.244410    0.745360
  H      2.808270    2.211320   -0.096100
  H      4.280760    2.501550   -0.891040
  H      4.629510    0.628000   -2.397480
  H      2.896650    0.481020   -2.228250
  H      3.920530   -0.911870   -1.974130

 Total Charge           Charge          ....    0
 Multiplicity           Mult            ....    1
 Number of Electrons    NEL             ....   26
 Basis Dimension        Dim             ....  124

ORBITAL ENERGIES
----------------

  NO   OCC          E(Eh)            E(eV)
   0   2.0000     -10.535996      -286.6990
   1   2.0000     -10.528547      -286.4963
   2   2.0000     -10.511442      -286.0309
   3   2.0000      -0.883504       -24.0414
   4   2.0000      -0.774488       -21.0749
   5   2.0000      -0.662136       -18.0176
   6   2.0000      -0.540307       -14.7025
   7   2.0000      -0.514930       -14.0119
   8   2.0000      -0.467677       -12.7261
   9   2.0000      -0.456007       -12.4086
  10   2.0000      -0.397426       -10.8145
  11   2.0000      -0.395059       -10.7501
  12   2.0000      -0.385824       -10.4988
  13   0.0000       0.045381         1.2349
  14   0.0000       0.070699         1.9238
  15   0.0000       0.078901         2.1470
  16   0.0000       0.110947         3.0190
  17   0.0000       0.128625         3.5001

MULLIKEN ATOMIC CHARGES
-----------------------
   0 C :   -0.632447
   1 H :   -0.080945
   2 C :    0.867818
   3 C :    0.577147
   4 H :   -0.094460
   5 H :   -0.162404
   6 H :   -0.139081
   7 H :   -0.205544
   8 H :   -0.016252
   9 H :   -0.041471
  10 H :   -0.072361
Sum of atomic charges:    0.0000000

LOEWDIN ATOMIC CHARGES
----------------------
   0 C :   -0.122865
   1 H :    0.021436
   2 C :    0.111619
   3 C :    0.113309
   4 H :    0.021454
   5 H :   -0.034491
   6 H :   -0.027919
   7 H :   -0.030740
   8 H :   -0.016045
   9 H :   -0.014167
  10 H :   -0.021590

  Mayer bond orders larger than 0.100000
B(  0-C ,  1-H ) :   0.9553 B(  0-C ,  2-C ) :   1.2895 B(  0-C ,  3-C ) :   1.2655
B(  0-C ,  4-H ) :   0.9670 B(  0-C ,  5-H ) :   0.2002 B(  0-C ,  6-H ) :   0.2553
B(  0-C ,  7-H ) :   0.1929 B(  0-C ,  8-H ) :   0.1547 B(  0-C ,  9-H ) :   0.1804
B(  0-C , 10-H ) :   0.1816 B(  1-H ,  2-C ) :   0.1186 B(  2-C ,  5-H ) :   0.7389
B(  2-C ,  6-H ) :   0.6943 B(  2-C ,  7-H ) :   0.7617 B(  3-C ,  8-H ) :   0.8379
B(  3-C ,  9-H ) :   0.8435 B(  3-C , 10-H ) :   0.8425

Dispersion correction           -0.000052251
FINAL SINGLE POINT ENERGY      -118.963555619511

DIPOLE MOMENT
-------------
                                X             Y             Z
Electronic contribution:      0.08149      -0.29640       0.23443
Nuclear contribution   :     -0.08172       0.30475      -0.19303
                        -----------------------------------------
Total Dipole Moment    :     -0.00022       0.00835       0.04140
                        -----------------------------------------
Magnitude (a.u.)       :      0.04223
Magnitude (Debye)      :      0.10735

Rotational constants in cm-1:     1.020248     0.295755     0.261591
Rotational constants in MHz : 30586.266829  8866.511639  7842.297953

                             ****ORCA TERMINATED NORMALLY****
TOTAL RUN TIME: 0 days 0 hours 0 minutes 13 seconds 751 msec
