                         Program Version 5.0.0 -  RELEASE  -
|  1> !M062X D3Zero RIJCOSX def2-SVPD def2/J TightSCF xyzfile
|  2>
|  3> *xyzfile 0 1 D.xyz
|  4>
|  5> %MaxCore 64000
|  6>
|  7> %pal nprocs 4
|  8> end
|  9>
| 10> %scf
| 11>   MaxIter 150
| 12> end
| 13>
| 14>
| 15>                          ****END OF INPUT****

CARTESIAN COORDINATES (ANGSTROEM)
---------------------------------
  C      3.956426    0.501466   -0.379100
  H      3.168398    0.029201    0.207383
  C      3.803893    1.961572   -0.156747
  C      3.842322    0.148490   -1.854058
  H      4.923231    0.177982    0.009371
  H      4.620021    0.694502   -2.402150
  H      4.096015   -0.910930   -1.955103
  C      2.475619    0.412708   -2.485377
  H      2.174689    1.445076   -2.287971
  C      1.383931   -0.532740   -1.995203
  H      2.575613    0.318574   -3.571460
  H      1.264698   -0.412309   -0.915491
  H      1.705223   -1.566885   -2.164984
  C      0.031398   -0.317260   -2.677791
  C     -0.587292    1.060853   -2.436460
  H     -0.662815   -1.089530   -2.329985
  H      0.149465   -0.478040   -3.755648
  H      0.104376    1.828590   -2.793130
  C     -0.951213    1.334978   -0.972500
  H     -1.478832    1.161355   -3.062484
  H     -0.317007    0.741648   -0.311389
  H     -1.980916    1.012842   -0.788958
  C     -0.774550    2.788332   -0.543943
  H     -1.352609    3.459372   -1.192585
  H     -1.171014    2.902331    0.469968
  C      0.697208    3.227911   -0.525126
  F      1.489294    2.374703    0.199189
  H      0.715998    4.264030   -0.130774
  H      1.036148    3.330920   -1.583669
  H      4.206425    2.244406    0.745359
  H      2.808269    2.211323   -0.096097
  H      4.280757    2.501552   -0.891037

 Total Charge           Charge          ....    0
 Multiplicity           Mult            ....    1
 Number of Electrons    NEL             ....   90
 Basis Dimension        Dim             ....  391

ORBITAL ENERGIES
----------------

  NO   OCC          E(Eh)            E(eV)
   0   2.0000     -25.266852      -687.5460
   1   2.0000     -10.641779      -289.5775
   2   2.0000     -10.562110      -287.4096
   3   2.0000     -10.548554      -287.0407
   4   2.0000     -10.545129      -286.9475
   5   2.0000     -10.541776      -286.8563
   6   2.0000     -10.535983      -286.6987
   7   2.0000     -10.534040      -286.6458
   8   2.0000     -10.527713      -286.4736
   9   2.0000     -10.517006      -286.1823
  10   2.0000     -10.464608      -284.7565
  11   2.0000      -1.354776       -36.8653
  12   2.0000      -0.913825       -24.8665
  13   2.0000      -0.893831       -24.3224
  14   2.0000      -0.858503       -23.3611
  15   2.0000      -0.826456       -22.4890
  16   2.0000      -0.775622       -21.1058
  17   2.0000      -0.748948       -20.3799
  18   2.0000      -0.704831       -19.1794
  19   2.0000      -0.681185       -18.5360
  20   2.0000      -0.641986       -17.4693
  21   2.0000      -0.634781       -17.2733
  22   2.0000      -0.607547       -16.5322
  23   2.0000      -0.601341       -16.3633
  24   2.0000      -0.577139       -15.7048
  25   2.0000      -0.542454       -14.7609
  26   2.0000      -0.532498       -14.4900
  27   2.0000      -0.519629       -14.1398
  28   2.0000      -0.499843       -13.6014
  29   2.0000      -0.498151       -13.5554
  30   2.0000      -0.478503       -13.0207
  31   2.0000      -0.460329       -12.5262
  32   2.0000      -0.454079       -12.3561
  33   2.0000      -0.438246       -11.9253
  34   2.0000      -0.430488       -11.7142
  35   2.0000      -0.421726       -11.4758
  36   2.0000      -0.410876       -11.1805
  37   2.0000      -0.404817       -11.0156
  38   2.0000      -0.385430       -10.4881
  39   2.0000      -0.379817       -10.3353
  40   2.0000      -0.373197       -10.1552
  41   2.0000      -0.371639       -10.1128
  42   2.0000      -0.356219        -9.6932
  43   2.0000      -0.354924        -9.6580
  44   2.0000      -0.336927        -9.1682
  45   0.0000       0.036741         0.9998
  46   0.0000       0.046804         1.2736
  47   0.0000       0.052558         1.4302
  48   0.0000       0.056361         1.5337
  49   0.0000       0.070214         1.9106

MULLIKEN ATOMIC CHARGES
-----------------------
   0 C :   -0.077561
   1 H :    0.067524
   2 C :    3.111786
   3 C :    0.339789
   4 H :   -0.385743
   5 H :   -0.027939
   6 H :   -0.072965
   7 C :    0.452656
   8 H :   -0.634490
   9 C :    0.016749
  10 H :   -0.073850
  11 H :   -0.113300
  12 H :   -0.192812
  13 C :    0.597035
  14 C :    0.222073
  15 H :   -0.242395
  16 H :    0.054253
  17 H :   -0.154107
  18 C :    0.155920
  19 H :   -0.263226
  20 H :   -0.077663
  21 H :   -0.155783
  22 C :    0.210342
  23 H :   -0.121763
  24 H :    0.026684
  25 C :    0.660448
  26 F :   -0.607102
  27 H :   -0.244842
  28 H :    0.173500
  29 H :    0.143609
  30 H :   -2.677568
  31 H :   -0.109260
Sum of atomic charges:   -0.0000000

LOEWDIN ATOMIC CHARGES
----------------------
   0 C :   -0.054144
   1 H :    0.014435
   2 C :    0.141183
   3 C :   -0.036553
   4 H :    0.019015
   5 H :    0.023693
   6 H :    0.016839
   7 C :   -0.022279
   8 H :   -0.010874
   9 C :   -0.029109
  10 H :    0.026864
  11 H :   -0.000940
  12 H :    0.027688
  13 C :   -0.031733
  14 C :   -0.021690
  15 H :    0.023392
  16 H :    0.023509
  17 H :   -0.006088
  18 C :   -0.020175
  19 H :    0.021968
  20 H :    0.002054
  21 H :    0.026079
  22 C :   -0.013503
  23 H :    0.036140
  24 H :    0.027741
  25 C :    0.165376
  26 F :   -0.196797
  27 H :    0.041167
  28 H :    0.032206
  29 H :   -0.024095
  30 H :   -0.176708
  31 H :   -0.024660

  Mayer bond orders larger than 0.100000
B(  0-C ,  1-H ) :   0.7571 B(  0-C ,  2-C ) :   0.4352 B(  0-C ,  3-C ) :   1.1237
B(  0-C ,  4-H ) :   1.0558 B(  0-C ,  6-H ) :   0.1549 B(  0-C , 29-H ) :   0.1317
B(  0-C , 30-H ) :   1.0078 B(  0-C , 31-H ) :   0.3886 B(  1-H ,  2-C ) :   0.3748
B(  1-H ,  3-C ) :   0.1750 B(  1-H ,  4-H ) :  -0.2486 B(  1-H , 30-H ) :  -0.2145
B(  1-H , 31-H ) :  -0.1330 B(  2-C ,  4-H ) :  -0.2919 B(  2-C ,  8-H ) :  -0.1093
B(  2-C , 26-F ) :  -0.3883 B(  2-C , 29-H ) :   0.7891 B(  2-C , 30-H ) :  -5.2572
B(  2-C , 31-H ) :  -0.2116 B(  3-C ,  5-H ) :   0.7028 B(  3-C ,  6-H ) :   0.8825
B(  3-C ,  7-C ) :   1.2120 B(  4-H , 29-H ) :  -0.1817 B(  4-H , 30-H ) :   0.1965
B(  4-H , 31-H ) :   0.3253 B(  5-H ,  6-H ) :  -0.1767 B(  5-H ,  7-C ) :   0.2755
B(  5-H , 29-H ) :  -0.1031 B(  5-H , 31-H ) :   0.1716 B(  6-H , 31-H ) :  -0.2052
B(  7-C ,  8-H ) :   0.8017 B(  7-C ,  9-C ) :   1.1608 B(  7-C , 10-H ) :   0.6779
B(  7-C , 12-H ) :   0.1510 B(  8-H ,  9-C ) :   0.1830 B(  8-H , 30-H ) :   0.1417
B(  9-C , 10-H ) :   0.1689 B(  9-C , 11-H ) :   0.8987 B(  9-C , 12-H ) :   0.9110
B(  9-C , 13-C ) :   1.1739 B(  9-C , 14-C ) :   0.1168 B(  9-C , 15-H ) :   0.2870
B(  9-C , 16-H ) :   0.1228 B( 11-H , 20-H ) :   0.1637 B( 13-C , 14-C ) :   1.1925
B( 13-C , 15-H ) :   0.7527 B( 13-C , 16-H ) :   0.6827 B( 14-C , 16-H ) :   0.2311
B( 14-C , 17-H ) :   0.8657 B( 14-C , 18-C ) :   1.1757 B( 14-C , 19-H ) :   0.8464
B( 14-C , 21-H ) :   0.2196 B( 15-H , 16-H ) :  -0.1816 B( 17-H , 18-C ) :   0.1037
B( 18-C , 19-H ) :   0.1815 B( 18-C , 20-H ) :   0.8311 B( 18-C , 21-H ) :   0.8584
B( 18-C , 22-C ) :   1.2151 B( 18-C , 24-H ) :   0.2142 B( 20-H , 22-C ) :   0.1125
B( 22-C , 23-H ) :   0.8536 B( 22-C , 24-H ) :   0.7060 B( 22-C , 25-C ) :   1.2635
B( 22-C , 27-H ) :   0.1031 B( 23-H , 24-H ) :  -0.1126 B( 23-H , 25-C ) :   0.1559
B( 24-H , 25-C ) :   0.1222 B( 25-C , 26-F ) :   0.5277 B( 25-C , 27-H ) :   0.9878
B( 25-C , 28-H ) :   0.7451 B( 25-C , 30-H ) :   0.2303 B( 26-F , 27-H ) :  -0.1118
B( 26-F , 30-H ) :   0.4740 B( 29-H , 31-H ) :  -0.2644 B( 30-H , 31-H ) :   0.9118

Dispersion correction           -0.001653482
FINAL SINGLE POINT ENERGY      -492.912675920080

DIPOLE MOMENT
-------------
                                X             Y             Z
Electronic contribution:     -1.96965       3.29515       4.27115
Nuclear contribution   :      1.09293      -2.80761      -4.51228
                        -----------------------------------------
Total Dipole Moment    :     -0.87672       0.48754      -0.24113
                        -----------------------------------------
Magnitude (a.u.)       :      1.03173
Magnitude (Debye)      :      2.62245

Rotational constants in cm-1:     0.040502     0.027818     0.018259
Rotational constants in MHz :  1214.218058   833.972871   547.398614

                             ****ORCA TERMINATED NORMALLY****
TOTAL RUN TIME: 0 days 0 hours 2 minutes 20 seconds 221 msec
