                         Program Version 5.0.0 -  RELEASE  -
|  1> !wB97X-D3 RIJCOSX def2-SVPD def2/J TightSCF CPCM(Water)
|  2> *xyz 1 1
|  3> C          0.81607       -2.10149       -2.18655
|  4> H          1.69623       -2.36869       -1.60046
|  5> N          1.10055       -2.46749       -3.59927
|  6> C          0.51624       -0.61363       -2.03937
|  7> H         -0.02007       -2.71285       -1.84084
|  8> C         -0.86862       -0.19392       -2.54630
|  9> H          1.70061       -1.75723       -4.07838
| 10> H          0.29386       -2.35977       -4.25632
| 11> H          1.50132       -3.42848       -3.69491
| 12> H          1.29904       -0.05680       -2.55898
| 13> H          0.61239       -0.36558       -0.97917
| 14> H         -0.95781       -0.43872       -3.58410
| 15> H         -0.99113        0.86113       -2.41690
| 16> H         -1.62334       -0.71130       -1.99167
| 17> *
| 18> %MaxCore 64000
| 19>
| 20> %pal nprocs 18
| 21> end
| 22>
| 23> %scf
| 24>   MaxIter 150
| 25> end
| 26>
| 27>
| 28>                          ****END OF INPUT****

CARTESIAN COORDINATES (ANGSTROEM)
---------------------------------
  C      0.816070   -2.101490   -2.186550
  H      1.696230   -2.368690   -1.600460
  N      1.100550   -2.467490   -3.599270
  C      0.516240   -0.613630   -2.039370
  H     -0.020070   -2.712850   -1.840840
  C     -0.868620   -0.193920   -2.546300
  H      1.700610   -1.757230   -4.078380
  H      0.293860   -2.359770   -4.256320
  H      1.501320   -3.428480   -3.694910
  H      1.299040   -0.056800   -2.558980
  H      0.612390   -0.365580   -0.979170
  H     -0.957810   -0.438720   -3.584100
  H     -0.991130    0.861130   -2.416900
  H     -1.623340   -0.711300   -1.991670

 Total Charge           Charge          ....    1
 Multiplicity           Mult            ....    1
 Number of Electrons    NEL             ....   34
 Basis Dimension        Dim             ....  160

ORBITAL ENERGIES
----------------

  NO   OCC          E(Eh)            E(eV)
   0   2.0000     -14.558180      -396.1482
   1   2.0000     -10.350832      -281.6605
   2   2.0000     -10.301204      -280.3100
   3   2.0000     -10.277615      -279.6681
   4   2.0000      -1.102996       -30.0140
   5   2.0000      -0.906628       -24.6706
   6   2.0000      -0.814824       -22.1725
   7   2.0000      -0.724579       -19.7168
   8   2.0000      -0.678611       -18.4660
   9   2.0000      -0.657275       -17.8854
  10   2.0000      -0.604992       -16.4627
  11   2.0000      -0.547789       -14.9061
  12   2.0000      -0.540460       -14.7067
  13   2.0000      -0.509252       -13.8575
  14   2.0000      -0.454261       -12.3611
  15   2.0000      -0.446731       -12.1562
  16   2.0000      -0.445773       -12.1301
  17   0.0000       0.084303         2.2940
  18   0.0000       0.117054         3.1852
  19   0.0000       0.118744         3.2312
  20   0.0000       0.126359         3.4384
  21   0.0000       0.161469         4.3938

MULLIKEN ATOMIC CHARGES
-----------------------
   0 C :    0.575967
   1 H :   -0.003106
   2 N :   -1.068798
   3 C :   -0.425455
   4 H :   -0.010537
   5 C :    0.618635
   6 H :    0.533202
   7 H :    0.414346
   8 H :    0.467489
   9 H :   -0.010881
  10 H :   -0.028129
  11 H :   -0.087128
  12 H :   -0.007372
  13 H :    0.031768
Sum of atomic charges:    1.0000000

LOEWDIN ATOMIC CHARGES
----------------------
   0 C :    0.086800
   1 H :    0.050197
   2 N :    0.331186
   3 C :   -0.052520
   4 H :    0.052279
   5 C :    0.132656
   6 H :    0.123133
   7 H :    0.118766
   8 H :    0.132202
   9 H :    0.029851
  10 H :    0.033944
  11 H :   -0.018012
  12 H :   -0.010830
  13 H :   -0.009651

  Mayer bond orders larger than 0.100000
B(  0-C ,  1-H ) :   0.9274 B(  0-C ,  2-N ) :   0.6299 B(  0-C ,  3-C ) :   1.1409
B(  0-C ,  4-H ) :   0.9211 B(  0-C , 10-H ) :   0.1073 B(  1-H ,  2-N ) :   0.1024
B(  2-N ,  4-H ) :   0.1264 B(  2-N ,  6-H ) :   0.5375 B(  2-N ,  7-H ) :   0.7211
B(  2-N ,  8-H ) :   0.5976 B(  3-C ,  5-C ) :   1.2357 B(  3-C ,  9-H ) :   0.9693
B(  3-C , 10-H ) :   0.9911 B(  3-C , 11-H ) :   0.1782 B(  3-C , 12-H ) :   0.1898
B(  3-C , 13-H ) :   0.1646 B(  5-C , 11-H ) :   0.8579 B(  5-C , 12-H ) :   0.8081
B(  5-C , 13-H ) :   0.8181

Dispersion correction           -0.002840577
FINAL SINGLE POINT ENERGY      -174.795639070120

DIPOLE MOMENT
-------------
                                X             Y             Z
Electronic contribution:      1.73152      -2.18994      -1.07908
Nuclear contribution   :     -0.52914       0.42437      -0.52967
                        -----------------------------------------
Total Dipole Moment    :      1.20239      -1.76558      -1.60875
                        -----------------------------------------
Magnitude (a.u.)       :      2.67415
Magnitude (Debye)      :      6.79715

Rotational constants in cm-1:     0.462856     0.150885     0.132529
Rotational constants in MHz : 13876.083919  4523.416930  3973.119974

                             ****ORCA TERMINATED NORMALLY****
TOTAL RUN TIME: 0 days 0 hours 0 minutes 8 seconds 923 msec
