                         Program Version 5.0.0 -  RELEASE  -
|  1> !wB97X-D3 RIJCOSX def2-SVPD def2/J TightSCF CPCM(Water)
|  2> *xyz 0 1
|  3> C         -0.98480        1.28474       -2.92869
|  4> C         -0.10608        1.76991       -4.08984
|  5> H         -0.34774        2.82220       -4.26294
|  6> H          0.94968        1.74588       -3.80878
|  7> C         -0.25875        1.00432       -5.40983
|  8> C          0.39596       -0.37070       -5.33994
|  9> H          0.23915        1.56939       -6.20125
| 10> H         -1.30936        0.88869       -5.68245
| 11> F         -0.32633       -1.39040       -5.49128
| 12> O          1.61941       -0.40073       -5.03683
| 13> H         -2.01317        1.31546       -3.22263
| 14> H         -0.83724        1.91975       -2.08023
| 15> H         -0.71656        0.28077       -2.67373
| 16> *
| 17> %MaxCore 64000
| 18>
| 19> %pal nprocs 18
| 20> end
| 21>
| 22> %scf
| 23>   MaxIter 150
| 24> end
| 25>
| 26>
| 27>                          ****END OF INPUT****

CARTESIAN COORDINATES (ANGSTROEM)
---------------------------------
  C     -0.984800    1.284740   -2.928690
  C     -0.106080    1.769910   -4.089840
  H     -0.347740    2.822200   -4.262940
  H      0.949680    1.745880   -3.808780
  C     -0.258750    1.004320   -5.409830
  C      0.395960   -0.370700   -5.339940
  H      0.239150    1.569390   -6.201250
  H     -1.309360    0.888690   -5.682450
  F     -0.326330   -1.390400   -5.491280
  O      1.619410   -0.400730   -5.036830
  H     -2.013170    1.315460   -3.222630
  H     -0.837240    1.919750   -2.080230
  H     -0.716560    0.280770   -2.673730

 Total Charge           Charge          ....    0
 Multiplicity           Mult            ....    1
 Number of Electrons    NEL             ....   48
 Basis Dimension        Dim             ....  182

ORBITAL ENERGIES
----------------

  NO   OCC          E(Eh)            E(eV)
   0   2.0000     -24.876490      -676.9237
   1   2.0000     -19.262462      -524.1582
   2   2.0000     -10.481283      -285.2102
   3   2.0000     -10.310748      -280.5697
   4   2.0000     -10.294636      -280.1313
   5   2.0000     -10.272232      -279.5216
   6   2.0000      -1.424367       -38.7590
   7   2.0000      -1.148366       -31.2486
   8   2.0000      -0.915864       -24.9219
   9   2.0000      -0.832232       -22.6462
  10   2.0000      -0.770007       -20.9530
  11   2.0000      -0.710105       -19.3229
  12   2.0000      -0.657612       -17.8945
  13   2.0000      -0.638186       -17.3659
  14   2.0000      -0.617812       -16.8115
  15   2.0000      -0.554643       -15.0926
  16   2.0000      -0.552803       -15.0425
  17   2.0000      -0.509727       -13.8704
  18   2.0000      -0.502044       -13.6613
  19   2.0000      -0.475696       -12.9443
  20   2.0000      -0.439666       -11.9639
  21   2.0000      -0.434651       -11.8275
  22   2.0000      -0.433102       -11.7853
  23   2.0000      -0.402004       -10.9391
  24   0.0000       0.046090         1.2542
  25   0.0000       0.090388         2.4596
  26   0.0000       0.118735         3.2310
  27   0.0000       0.127652         3.4736
  28   0.0000       0.131988         3.5916

MULLIKEN ATOMIC CHARGES
-----------------------
   0 C :    0.576753
   1 C :   -0.444816
   2 H :   -0.050405
   3 H :   -0.013638
   4 C :   -0.087161
   5 C :    0.805903
   6 H :    0.105976
   7 H :    0.083884
   8 F :   -0.384635
   9 O :   -0.564259
  10 H :    0.027685
  11 H :   -0.011299
  12 H :   -0.043989
Sum of atomic charges:    0.0000000

LOEWDIN ATOMIC CHARGES
----------------------
   0 C :    0.129243
   1 C :   -0.061129
   2 H :    0.028060
   3 H :    0.019310
   4 C :    0.050092
   5 C :    0.010797
   6 H :    0.049360
   7 H :    0.035997
   8 F :   -0.034346
   9 O :   -0.186445
  10 H :   -0.012208
  11 H :   -0.012759
  12 H :   -0.015972

  Mayer bond orders larger than 0.100000
B(  0-C ,  1-C ) :   1.3088 B(  0-C , 10-H ) :   0.8003 B(  0-C , 11-H ) :   0.7979
B(  0-C , 12-H ) :   0.8564 B(  1-C ,  2-H ) :   0.9792 B(  1-C ,  3-H ) :   0.9470
B(  1-C ,  4-C ) :   1.2290 B(  1-C ,  6-H ) :   0.1238 B(  1-C ,  7-H ) :   0.1241
B(  1-C , 10-H ) :   0.1872 B(  1-C , 11-H ) :   0.1896 B(  1-C , 12-H ) :   0.1880
B(  3-H ,  4-C ) :   0.1137 B(  4-C ,  5-C ) :   1.0868 B(  4-C ,  6-H ) :   0.8580
B(  4-C ,  7-H ) :   0.9031 B(  5-C ,  8-F ) :   0.7305 B(  5-C ,  9-O ) :   1.7814

Dispersion correction           -0.003212515
FINAL SINGLE POINT ENERGY      -331.402036172616

DIPOLE MOMENT
-------------
                                X             Y             Z
Electronic contribution:      2.42183      -8.92505      -5.77794
Nuclear contribution   :     -3.72230       9.78546       5.57872
                        -----------------------------------------
Total Dipole Moment    :     -1.30047       0.86041      -0.19921
                        -----------------------------------------
Magnitude (a.u.)       :      1.57201
Magnitude (Debye)      :      3.99573

Rotational constants in cm-1:     0.192703     0.076176     0.069525
Rotational constants in MHz :  5777.081080  2283.698999  2084.312921

                             ****ORCA TERMINATED NORMALLY****
TOTAL RUN TIME: 0 days 0 hours 0 minutes 11 seconds 603 msec
