                         Program Version 5.0.0 -  RELEASE  -
|  1> !wB97X-D3 RIJCOSX def2-SVPD def2/J TightSCF CPCM(Water)
|  2> *xyz 0 1
|  3> C          0.81607       -2.10149       -2.18655
|  4> H          1.69623       -2.36869       -1.60046
|  5> C          1.10055       -2.46749       -3.59927
|  6> C          0.51624       -0.61363       -2.03937
|  7> H         -0.02007       -2.71285       -1.84084
|  8> C         -0.86862       -0.19392       -2.54630
|  9> H          1.70061       -1.75723       -4.07838
| 10> H          0.29386       -2.35977       -4.25632
| 11> H          1.50132       -3.42848       -3.69491
| 12> H          1.29904       -0.05680       -2.55898
| 13> H          0.61239       -0.36558       -0.97917
| 14> H         -0.95781       -0.43872       -3.58410
| 15> H         -0.99113        0.86113       -2.41690
| 16> H         -1.62334       -0.71130       -1.99167
| 17> *
| 18> %MaxCore 64000
| 19>
| 20> %pal nprocs 18
| 21> end
| 22>
| 23> %scf
| 24>   MaxIter 150
| 25> end
| 26>
| 27>
| 28>                          ****END OF INPUT****

CARTESIAN COORDINATES (ANGSTROEM)
---------------------------------
  C      0.816070   -2.101490   -2.186550
  H      1.696230   -2.368690   -1.600460
  C      1.100550   -2.467490   -3.599270
  C      0.516240   -0.613630   -2.039370
  H     -0.020070   -2.712850   -1.840840
  C     -0.868620   -0.193920   -2.546300
  H      1.700610   -1.757230   -4.078380
  H      0.293860   -2.359770   -4.256320
  H      1.501320   -3.428480   -3.694910
  H      1.299040   -0.056800   -2.558980
  H      0.612390   -0.365580   -0.979170
  H     -0.957810   -0.438720   -3.584100
  H     -0.991130    0.861130   -2.416900
  H     -1.623340   -0.711300   -1.991670

 Total Charge           Charge          ....    0
 Multiplicity           Mult            ....    1
 Number of Electrons    NEL             ....   34
 Basis Dimension        Dim             ....  160

ORBITAL ENERGIES
----------------

  NO   OCC          E(Eh)            E(eV)
   0   2.0000     -10.275192      -279.6022
   1   2.0000     -10.272099      -279.5180
   2   2.0000     -10.265314      -279.3334
   3   2.0000     -10.251180      -278.9488
   4   2.0000      -0.908173       -24.7126
   5   2.0000      -0.832273       -22.6473
   6   2.0000      -0.746322       -20.3085
   7   2.0000      -0.671876       -18.2827
   8   2.0000      -0.561247       -15.2723
   9   2.0000      -0.555103       -15.1051
  10   2.0000      -0.518000       -14.0955
  11   2.0000      -0.487855       -13.2752
  12   2.0000      -0.477704       -12.9990
  13   2.0000      -0.446350       -12.1458
  14   2.0000      -0.416236       -11.3264
  15   2.0000      -0.410819       -11.1790
  16   2.0000      -0.403291       -10.9741
  17   0.0000       0.100663         2.7392
  18   0.0000       0.124453         3.3865
  19   0.0000       0.126758         3.4493
  20   0.0000       0.134711         3.6657
  21   0.0000       0.180779         4.9192

MULLIKEN ATOMIC CHARGES
-----------------------
   0 C :   -0.230054
   1 H :   -0.063666
   2 C :    0.799538
   3 C :   -0.355589
   4 H :   -0.050798
   5 C :    0.653700
   6 H :   -0.121141
   7 H :   -0.250956
   8 H :   -0.130637
   9 H :   -0.010311
  10 H :   -0.105182
  11 H :   -0.127495
  12 H :   -0.017754
  13 H :    0.010342
Sum of atomic charges:    0.0000000

LOEWDIN ATOMIC CHARGES
----------------------
   0 C :   -0.083284
   1 H :    0.022248
   2 C :    0.103126
   3 C :   -0.083381
   4 H :    0.024791
   5 C :    0.122699
   6 H :   -0.026999
   7 H :   -0.033046
   8 H :   -0.021272
   9 H :    0.019145
  10 H :    0.014896
  11 H :   -0.024482
  12 H :   -0.018785
  13 H :   -0.015655

  Mayer bond orders larger than 0.100000
B(  0-C ,  1-H ) :   0.9438 B(  0-C ,  2-C ) :   1.2335 B(  0-C ,  3-C ) :   1.1556
B(  0-C ,  4-H ) :   0.9296 B(  0-C ,  6-H ) :   0.1772 B(  0-C ,  7-H ) :   0.1830
B(  0-C ,  8-H ) :   0.2034 B(  0-C , 10-H ) :   0.1261 B(  2-C ,  4-H ) :   0.1151
B(  2-C ,  6-H ) :   0.7080 B(  2-C ,  7-H ) :   0.7198 B(  2-C ,  8-H ) :   0.7814
B(  3-C ,  4-H ) :   0.1020 B(  3-C ,  5-C ) :   1.2416 B(  3-C ,  9-H ) :   0.9287
B(  3-C , 10-H ) :   0.9924 B(  3-C , 11-H ) :   0.1913 B(  3-C , 12-H ) :   0.1876
B(  3-C , 13-H ) :   0.1791 B(  5-C , 11-H ) :   0.8523 B(  5-C , 12-H ) :   0.7894
B(  5-C , 13-H ) :   0.8068 B(  6-H ,  7-H ) :   0.3188

Dispersion correction           -0.002742926
FINAL SINGLE POINT ENERGY      -158.293596703430

DIPOLE MOMENT
-------------
                                X             Y             Z
Electronic contribution:      0.32341      -0.06087       0.81612
Nuclear contribution   :     -0.30980       0.07990      -0.83209
                        -----------------------------------------
Total Dipole Moment    :      0.01361       0.01903      -0.01597
                        -----------------------------------------
Magnitude (a.u.)       :      0.02832
Magnitude (Debye)      :      0.07199

Rotational constants in cm-1:     0.470198     0.157622     0.138278
Rotational constants in MHz : 14096.185772  4725.380109  4145.481686

                             ****ORCA TERMINATED NORMALLY****
TOTAL RUN TIME: 0 days 0 hours 0 minutes 8 seconds 219 msec
