                         Program Version 5.0.0 -  RELEASE  -
|  1> !wB97X-D3 RIJCOSX def2-SVPD def2/J TightSCF CPCM(Water)
|  2> *xyz 0 1
|  3> C         -0.98480        1.28474       -2.92869
|  4> C         -0.10608        1.76991       -4.08984
|  5> H         -0.34774        2.82220       -4.26294
|  6> H          0.94968        1.74588       -3.80878
|  7> C         -0.25875        1.00432       -5.40983
|  8> C          0.39596       -0.37070       -5.33994
|  9> H          0.23915        1.56939       -6.20125
| 10> H         -1.30936        0.88869       -5.68245
| 11> O         -0.32633       -1.39040       -5.49128
| 12> F          1.61941       -0.40073       -5.03683
| 13> H         -2.01317        1.31546       -3.22263
| 14> H         -0.83724        1.91975       -2.08023
| 15> H         -0.71656        0.28077       -2.67373
| 16> *
| 17> %MaxCore 64000
| 18>
| 19> %pal nprocs 18
| 20> end
| 21>
| 22> %scf
| 23>   MaxIter 150
| 24> end
| 25>
| 26>
| 27>                          ****END OF INPUT****

CARTESIAN COORDINATES (ANGSTROEM)
---------------------------------
  C     -0.984800    1.284740   -2.928690
  C     -0.106080    1.769910   -4.089840
  H     -0.347740    2.822200   -4.262940
  H      0.949680    1.745880   -3.808780
  C     -0.258750    1.004320   -5.409830
  C      0.395960   -0.370700   -5.339940
  H      0.239150    1.569390   -6.201250
  H     -1.309360    0.888690   -5.682450
  O     -0.326330   -1.390400   -5.491280
  F      1.619410   -0.400730   -5.036830
  H     -2.013170    1.315460   -3.222630
  H     -0.837240    1.919750   -2.080230
  H     -0.716560    0.280770   -2.673730

 Total Charge           Charge          ....    0
 Multiplicity           Mult            ....    1
 Number of Electrons    NEL             ....   48
 Basis Dimension        Dim             ....  182

ORBITAL ENERGIES
----------------

  NO   OCC          E(Eh)            E(eV)
   0   2.0000     -24.875610      -676.8998
   1   2.0000     -19.264011      -524.2004
   2   2.0000     -10.481121      -285.2058
   3   2.0000     -10.310708      -280.5686
   4   2.0000     -10.295950      -280.1670
   5   2.0000     -10.272569      -279.5308
   6   2.0000      -1.423284       -38.7295
   7   2.0000      -1.149312       -31.2744
   8   2.0000      -0.918703       -24.9992
   9   2.0000      -0.831987       -22.6395
  10   2.0000      -0.766971       -20.8704
  11   2.0000      -0.712174       -19.3792
  12   2.0000      -0.659029       -17.9331
  13   2.0000      -0.646439       -17.5905
  14   2.0000      -0.605715       -16.4823
  15   2.0000      -0.555431       -15.1141
  16   2.0000      -0.551550       -15.0084
  17   2.0000      -0.516284       -14.0488
  18   2.0000      -0.496185       -13.5019
  19   2.0000      -0.475788       -12.9468
  20   2.0000      -0.450241       -12.2517
  21   2.0000      -0.441165       -12.0047
  22   2.0000      -0.433935       -11.8080
  23   2.0000      -0.394603       -10.7377
  24   0.0000       0.049031         1.3342
  25   0.0000       0.089409         2.4329
  26   0.0000       0.119563         3.2535
  27   0.0000       0.127436         3.4677
  28   0.0000       0.131093         3.5672

MULLIKEN ATOMIC CHARGES
-----------------------
   0 C :    0.580637
   1 C :   -0.469962
   2 H :   -0.052794
   3 H :    0.004397
   4 C :   -0.071167
   5 C :    0.819806
   6 H :    0.116943
   7 H :    0.046279
   8 O :   -0.533357
   9 F :   -0.411010
  10 H :    0.026103
  11 H :   -0.007302
  12 H :   -0.048573
Sum of atomic charges:   -0.0000000

LOEWDIN ATOMIC CHARGES
----------------------
   0 C :    0.129840
   1 C :   -0.062898
   2 H :    0.027713
   3 H :    0.023437
   4 C :    0.051461
   5 C :    0.004013
   6 H :    0.048121
   7 H :    0.040286
   8 O :   -0.186209
   9 F :   -0.035187
  10 H :   -0.011273
  11 H :   -0.012717
  12 H :   -0.016585

  Mayer bond orders larger than 0.100000
B(  0-C ,  1-C ) :   1.3059 B(  0-C , 10-H ) :   0.8054 B(  0-C , 11-H ) :   0.8012
B(  0-C , 12-H ) :   0.8545 B(  1-C ,  2-H ) :   0.9940 B(  1-C ,  3-H ) :   0.9312
B(  1-C ,  4-C ) :   1.2107 B(  1-C ,  6-H ) :   0.1168 B(  1-C ,  7-H ) :   0.1128
B(  1-C , 10-H ) :   0.1883 B(  1-C , 11-H ) :   0.1877 B(  1-C , 12-H ) :   0.1908
B(  3-H ,  4-C ) :   0.1077 B(  4-C ,  5-C ) :   1.0474 B(  4-C ,  6-H ) :   0.8510
B(  4-C ,  7-H ) :   0.9470 B(  5-C ,  7-H ) :   0.1157 B(  5-C ,  8-O ) :   1.7955
B(  5-C ,  9-F ) :   0.7094

Dispersion correction           -0.003240728
FINAL SINGLE POINT ENERGY      -331.403595016195

DIPOLE MOMENT
-------------
                                X             Y             Z
Electronic contribution:      6.15427      -7.00626      -4.90202
Nuclear contribution   :     -5.92016       8.66755       5.06539
                        -----------------------------------------
Total Dipole Moment    :      0.23412       1.66129       0.16337
                        -----------------------------------------
Magnitude (a.u.)       :      1.68564
Magnitude (Debye)      :      4.28456

Rotational constants in cm-1:     0.191324     0.076691     0.070269
Rotational constants in MHz :  5735.753800  2299.148675  2106.608556

                             ****ORCA TERMINATED NORMALLY****
TOTAL RUN TIME: 0 days 0 hours 0 minutes 11 seconds 241 msec
