                         Program Version 5.0.0 -  RELEASE  -
|  1> !TPSS D3BJ RIJCOSX def2-SVPD def2/J TightSCF
|  2> *xyz -1 1
|  3> C         -0.25875        1.00432       -5.40983
|  4> C          0.39596       -0.37070       -5.33994
|  5> O         -0.32633       -1.39040       -5.49128
|  6> O          1.61941       -0.40073       -5.03683
|  7> H         -1.28979        0.89539       -5.67439
|  8> H          0.23798        1.59877       -6.14792
|  9> H         -0.18395        1.48386       -4.45623
| 10> *
| 11> %MaxCore 64000
| 12>
| 13> %pal nprocs 4
| 14> end
| 15>
| 16> %scf
| 17>   MaxIter 150
| 18> end
| 19>
| 20>
| 21>                          ****END OF INPUT****

CARTESIAN COORDINATES (ANGSTROEM)
---------------------------------
  C     -0.258750    1.004320   -5.409830
  C      0.395960   -0.370700   -5.339940
  O     -0.326330   -1.390400   -5.491280
  O      1.619410   -0.400730   -5.036830
  H     -1.289790    0.895390   -5.674390
  H      0.237980    1.598770   -6.147920
  H     -0.183950    1.483860   -4.456230

 Total Charge           Charge          ....   -1
 Multiplicity           Mult            ....    1
 Number of Electrons    NEL             ....   32
 Basis Dimension        Dim             ....  110

ORBITAL ENERGIES
----------------

  NO   OCC          E(Eh)            E(eV)
   0   2.0000     -18.635359      -507.0939
   1   2.0000     -18.632830      -507.0251
   2   2.0000      -9.874589      -268.7012
   3   2.0000      -9.814490      -267.0659
   4   2.0000      -0.734507       -19.9869
   5   2.0000      -0.644449       -17.5364
   6   2.0000      -0.483503       -13.1568
   7   2.0000      -0.252919        -6.8823
   8   2.0000      -0.218821        -5.9544
   9   2.0000      -0.203986        -5.5507
  10   2.0000      -0.172631        -4.6975
  11   2.0000      -0.134837        -3.6691
  12   2.0000      -0.122267        -3.3271
  13   2.0000      -0.008887        -0.2418
  14   2.0000       0.001409         0.0383
  15   2.0000       0.020868         0.5679
  16   0.0000       0.163099         4.4381
  17   0.0000       0.203051         5.5253
  18   0.0000       0.205124         5.5817
  19   0.0000       0.231117         6.2890
  20   0.0000       0.247963         6.7474

MULLIKEN ATOMIC CHARGES
-----------------------
   0 C :    0.408692
   1 C :    0.057907
   2 O :   -0.653011
   3 O :   -0.684784
   4 H :   -0.058087
   5 H :   -0.034170
   6 H :   -0.036548
Sum of atomic charges:   -1.0000000

LOEWDIN ATOMIC CHARGES
----------------------
   0 C :    0.147780
   1 C :   -0.330957
   2 O :   -0.337751
   3 O :   -0.343956
   4 H :   -0.050512
   5 H :   -0.043838
   6 H :   -0.040765

  Mayer bond orders larger than 0.100000
B(  0-C ,  1-C ) :   1.2427 B(  0-C ,  4-H ) :   0.8877 B(  0-C ,  5-H ) :   0.8319
B(  0-C ,  6-H ) :   0.8438 B(  1-C ,  2-O ) :   1.4500 B(  1-C ,  3-O ) :   1.4683
B(  1-C ,  4-H ) :   0.2370 B(  1-C ,  5-H ) :   0.1704 B(  1-C ,  6-H ) :   0.1581

Dispersion correction           -0.004506644
FINAL SINGLE POINT ENERGY      -228.405049921280

DIPOLE MOMENT
-------------
                                X             Y             Z
Electronic contribution:      1.55590      -3.29831       0.19334
Nuclear contribution   :     -2.15615       4.52621      -0.30445
                        -----------------------------------------
Total Dipole Moment    :     -0.60024       1.22790      -0.11110
                        -----------------------------------------
Magnitude (a.u.)       :      1.37127
Magnitude (Debye)      :      3.48548

Rotational constants in cm-1:     0.393591     0.332639     0.186460
Rotational constants in MHz : 11799.557437  9972.275109  5589.926304

                             ****ORCA TERMINATED NORMALLY****
TOTAL RUN TIME: 0 days 0 hours 0 minutes 4 seconds 792 msec
