                         Program Version 5.0.0 -  RELEASE  -
|  1> !TPSS D3BJ RIJCOSX def2-SVPD def2/J TightSCF
|  2> *xyz 1 1
|  3> C          0.81607       -2.10149       -2.18655
|  4> N          1.10055       -2.46749       -3.59927
|  5> H          1.70061       -1.75723       -4.07838
|  6> H          0.29386       -2.35977       -4.25632
|  7> H          1.50132       -3.42848       -3.69491
|  8> H          0.40947       -1.11246       -2.14929
|  9> H          1.72290       -2.13590       -1.61965
| 10> H          0.11112       -2.79271       -1.77405
| 11> *
| 12> %MaxCore 64000
| 13>
| 14> %pal nprocs 4
| 15> end
| 16>
| 17> %scf
| 18>   MaxIter 150
| 19> end
| 20>
| 21>
| 22>                          ****END OF INPUT****

CARTESIAN COORDINATES (ANGSTROEM)
---------------------------------
  C      0.816070   -2.101490   -2.186550
  N      1.100550   -2.467490   -3.599270
  H      1.700610   -1.757230   -4.078380
  H      0.293860   -2.359770   -4.256320
  H      1.501320   -3.428480   -3.694910
  H      0.409470   -1.112460   -2.149290
  H      1.722900   -2.135900   -1.619650
  H      0.111120   -2.792710   -1.774050

 Total Charge           Charge          ....    1
 Multiplicity           Mult            ....    1
 Number of Electrons    NEL             ....   18
 Basis Dimension        Dim             ....   88

ORBITAL ENERGIES
----------------

  NO   OCC          E(Eh)            E(eV)
   0   2.0000     -14.469596      -393.7377
   1   2.0000     -10.261932      -279.2414
   2   2.0000      -1.151524       -31.3346
   3   2.0000      -0.885565       -24.0974
   4   2.0000      -0.771815       -21.0022
   5   2.0000      -0.737333       -20.0638
   6   2.0000      -0.677802       -18.4439
   7   2.0000      -0.591361       -16.0918
   8   2.0000      -0.586169       -15.9505
   9   0.0000      -0.222098        -6.0436
  10   0.0000      -0.161365        -4.3910
  11   0.0000      -0.154825        -4.2130
  12   0.0000      -0.144076        -3.9205
  13   0.0000      -0.096642        -2.6298

MULLIKEN ATOMIC CHARGES
-----------------------
   0 C :    0.913936
   1 N :   -0.960317
   2 H :    0.393281
   3 H :    0.378996
   4 H :    0.418691
   5 H :   -0.052406
   6 H :   -0.042494
   7 H :   -0.049687
Sum of atomic charges:    1.0000000

LOEWDIN ATOMIC CHARGES
----------------------
   0 C :    0.292929
   1 N :    0.291042
   2 H :    0.114460
   3 H :    0.115121
   4 H :    0.121395
   5 H :    0.021637
   6 H :    0.022216
   7 H :    0.021200

  Mayer bond orders larger than 0.100000
B(  0-C ,  1-N ) :   0.7392 B(  0-C ,  5-H ) :   0.9004 B(  0-C ,  6-H ) :   0.8946
B(  0-C ,  7-H ) :   0.9048 B(  1-N ,  2-H ) :   0.7362 B(  1-N ,  3-H ) :   0.7536
B(  1-N ,  4-H ) :   0.6772

Dispersion correction           -0.003999453
FINAL SINGLE POINT ENERGY       -96.164834798065

DIPOLE MOMENT
-------------
                                X             Y             Z
Electronic contribution:      0.21248      -0.31266      -0.95950
Nuclear contribution   :     -0.05716       0.15480       0.08012
                        -----------------------------------------
Total Dipole Moment    :      0.15532      -0.15786      -0.87937
                        -----------------------------------------
Magnitude (a.u.)       :      0.90683
Magnitude (Debye)      :      2.30498

Rotational constants in cm-1:     2.875975     0.681325     0.670600
Rotational constants in MHz : 86219.567947 20425.600745 20104.086440

                             ****ORCA TERMINATED NORMALLY****
TOTAL RUN TIME: 0 days 0 hours 0 minutes 3 seconds 430 msec
