                         Program Version 5.0.0 -  RELEASE  -
|  1> !TPSS D3BJ RIJCOSX def2-SVPD def2/J TightSCF
|  2> *xyz 0 1
|  3> C         -0.25875        1.00432       -5.40983
|  4> C          0.39596       -0.37070       -5.33994
|  5> F         -0.32633       -1.39040       -5.49128
|  6> O          1.61941       -0.40073       -5.03683
|  7> H         -1.28979        0.89539       -5.67439
|  8> H          0.23798        1.59877       -6.14792
|  9> H         -0.18395        1.48386       -4.45623
| 10> *
| 11> %MaxCore 64000
| 12>
| 13> %pal nprocs 4
| 14> end
| 15>
| 16> %scf
| 17>   MaxIter 150
| 18> end
| 19>
| 20>
| 21>                          ****END OF INPUT****

CARTESIAN COORDINATES (ANGSTROEM)
---------------------------------
  C     -0.258750    1.004320   -5.409830
  C      0.395960   -0.370700   -5.339940
  F     -0.326330   -1.390400   -5.491280
  O      1.619410   -0.400730   -5.036830
  H     -1.289790    0.895390   -5.674390
  H      0.237980    1.598770   -6.147920
  H     -0.183950    1.483860   -4.456230

 Total Charge           Charge          ....    0
 Multiplicity           Mult            ....    1
 Number of Electrons    NEL             ....   32
 Basis Dimension        Dim             ....  110

ORBITAL ENERGIES
----------------

  NO   OCC          E(Eh)            E(eV)
   0   2.0000     -24.499229      -666.6579
   1   2.0000     -18.907896      -514.5100
   2   2.0000     -10.176689      -276.9218
   3   2.0000     -10.031585      -272.9733
   4   2.0000      -1.226768       -33.3820
   5   2.0000      -0.953995       -25.9595
   6   2.0000      -0.712991       -19.4015
   7   2.0000      -0.601293       -16.3620
   8   2.0000      -0.496180       -13.5017
   9   2.0000      -0.492259       -13.3950
  10   2.0000      -0.453620       -12.3436
  11   2.0000      -0.408121       -11.1055
  12   2.0000      -0.395126       -10.7519
  13   2.0000      -0.356382        -9.6976
  14   2.0000      -0.316623        -8.6157
  15   2.0000      -0.251668        -6.8482
  16   0.0000      -0.069630        -1.8947
  17   0.0000       0.001449         0.0394
  18   0.0000       0.048508         1.3200
  19   0.0000       0.074297         2.0217
  20   0.0000       0.077002         2.0953

MULLIKEN ATOMIC CHARGES
-----------------------
   0 C :    0.359903
   1 C :    0.441780
   2 F :   -0.347907
   3 O :   -0.508411
   4 H :   -0.015979
   5 H :    0.032875
   6 H :    0.037740
Sum of atomic charges:    0.0000000

LOEWDIN ATOMIC CHARGES
----------------------
   0 C :    0.222589
   1 C :   -0.033455
   2 F :   -0.034195
   3 O :   -0.139049
   4 H :   -0.018388
   5 H :    0.000414
   6 H :    0.002085

  Mayer bond orders larger than 0.100000
B(  0-C ,  1-C ) :   1.2564 B(  0-C ,  4-H ) :   0.8906 B(  0-C ,  5-H ) :   0.8127
B(  0-C ,  6-H ) :   0.8230 B(  1-C ,  2-F ) :   0.7838 B(  1-C ,  3-O ) :   1.7574
B(  1-C ,  4-H ) :   0.1474 B(  1-C ,  5-H ) :   0.1457 B(  1-C ,  6-H ) :   0.1306

Dispersion correction           -0.004154253
FINAL SINGLE POINT ENERGY      -252.940782722777

DIPOLE MOMENT
-------------
                                X             Y             Z
Electronic contribution:      0.47301      -5.06983      -0.08729
Nuclear contribution   :     -1.44986       5.66477      -0.12483
                        -----------------------------------------
Total Dipole Moment    :     -0.97685       0.59494      -0.21212
                        -----------------------------------------
Magnitude (a.u.)       :      1.16326
Magnitude (Debye)      :      2.95678

Rotational constants in cm-1:     0.371735     0.317798     0.176902
Rotational constants in MHz : 11144.324945  9527.341239  5303.391856

                             ****ORCA TERMINATED NORMALLY****
TOTAL RUN TIME: 0 days 0 hours 0 minutes 4 seconds 862 msec
