                         Program Version 5.0.0 -  RELEASE  -
|  1> !TPSS D3BJ RIJCOSX def2-SVPD def2/J TightSCF
|  2> *xyz 0 1
|  3> C          0.81607       -2.10149       -2.18655
|  4> C          1.10055       -2.46749       -3.59927
|  5> H          1.70061       -1.75723       -4.07838
|  6> H          0.29386       -2.35977       -4.25632
|  7> H          1.50132       -3.42848       -3.69491
|  8> H          0.40947       -1.11246       -2.14929
|  9> H          1.72290       -2.13590       -1.61965
| 10> H          0.11112       -2.79271       -1.77405
| 11> *
| 12> %MaxCore 64000
| 13>
| 14> %pal nprocs 4
| 15> end
| 16>
| 17> %scf
| 18>   MaxIter 150
| 19> end
| 20>
| 21>
| 22>                          ****END OF INPUT****

CARTESIAN COORDINATES (ANGSTROEM)
---------------------------------
  C      0.816070   -2.101490   -2.186550
  C      1.100550   -2.467490   -3.599270
  H      1.700610   -1.757230   -4.078380
  H      0.293860   -2.359770   -4.256320
  H      1.501320   -3.428480   -3.694910
  H      0.409470   -1.112460   -2.149290
  H      1.722900   -2.135900   -1.619650
  H      0.111120   -2.792710   -1.774050

 Total Charge           Charge          ....    0
 Multiplicity           Mult            ....    1
 Number of Electrons    NEL             ....   18
 Basis Dimension        Dim             ....   88

ORBITAL ENERGIES
----------------

  NO   OCC          E(Eh)            E(eV)
   0   2.0000      -9.982037      -271.6250
   1   2.0000      -9.972496      -271.3654
   2   2.0000      -0.704282       -19.1645
   3   2.0000      -0.570016       -15.5109
   4   2.0000      -0.412337       -11.2203
   5   2.0000      -0.394485       -10.7345
   6   2.0000      -0.335808        -9.1378
   7   2.0000      -0.316311        -8.6073
   8   2.0000      -0.296122        -8.0579
   9   0.0000       0.018808         0.5118
  10   0.0000       0.049892         1.3576
  11   0.0000       0.087985         2.3942
  12   0.0000       0.092640         2.5209
  13   0.0000       0.111676         3.0389

MULLIKEN ATOMIC CHARGES
-----------------------
   0 C :    0.251238
   1 C :    0.342008
   2 H :   -0.158120
   3 H :   -0.172537
   4 H :   -0.129393
   5 H :   -0.034697
   6 H :   -0.047019
   7 H :   -0.051480
Sum of atomic charges:    0.0000000

LOEWDIN ATOMIC CHARGES
----------------------
   0 C :    0.087192
   1 C :    0.075846
   2 H :   -0.036227
   3 H :   -0.036596
   4 H :   -0.027982
   5 H :   -0.020110
   6 H :   -0.020366
   7 H :   -0.021757

  Mayer bond orders larger than 0.100000
B(  0-C ,  1-C ) :   1.4355 B(  0-C ,  2-H ) :   0.1339 B(  0-C ,  3-H ) :   0.1218
B(  0-C ,  4-H ) :   0.1460 B(  0-C ,  5-H ) :   0.8791 B(  0-C ,  6-H ) :   0.8586
B(  0-C ,  7-H ) :   0.8737 B(  1-C ,  2-H ) :   0.8097 B(  1-C ,  3-H ) :   0.8146
B(  1-C ,  4-H ) :   0.8589 B(  1-C ,  5-H ) :   0.1492 B(  1-C ,  6-H ) :   0.1562
B(  1-C ,  7-H ) :   0.1491 B(  2-H ,  3-H ) :   0.2635

Dispersion correction           -0.004009174
FINAL SINGLE POINT ENERGY       -79.779128413747

DIPOLE MOMENT
-------------
                                X             Y             Z
Electronic contribution:      0.00546      -0.07350       0.13111
Nuclear contribution   :     -0.00793       0.09023      -0.16124
                        -----------------------------------------
Total Dipole Moment    :     -0.00247       0.01673      -0.03014
                        -----------------------------------------
Magnitude (a.u.)       :      0.03456
Magnitude (Debye)      :      0.08784

Rotational constants in cm-1:     2.876169     0.710562     0.698917
Rotational constants in MHz : 86225.370734 21302.115394 20952.991121

                             ****ORCA TERMINATED NORMALLY****
TOTAL RUN TIME: 0 days 0 hours 0 minutes 3 seconds 200 msec
