                         Program Version 5.0.0 -  RELEASE  -
|  1> !TPSS D3BJ RIJCOSX def2-SVPD def2/J TightSCF
|  2> *xyz 0 1
|  3> C         -0.25875        1.00432       -5.40983
|  4> C          0.39596       -0.37070       -5.33994
|  5> O         -0.32633       -1.39040       -5.49128
|  6> F          1.61941       -0.40073       -5.03683
|  7> H         -1.28979        0.89539       -5.67439
|  8> H          0.23798        1.59877       -6.14792
|  9> H         -0.18395        1.48386       -4.45623
| 10> *
| 11> %MaxCore 64000
| 12>
| 13> %pal nprocs 4
| 14> end
| 15>
| 16> %scf
| 17>   MaxIter 150
| 18> end
| 19>
| 20>
| 21>                          ****END OF INPUT****

CARTESIAN COORDINATES (ANGSTROEM)
---------------------------------
  C     -0.258750    1.004320   -5.409830
  C      0.395960   -0.370700   -5.339940
  O     -0.326330   -1.390400   -5.491280
  F      1.619410   -0.400730   -5.036830
  H     -1.289790    0.895390   -5.674390
  H      0.237980    1.598770   -6.147920
  H     -0.183950    1.483860   -4.456230

 Total Charge           Charge          ....    0
 Multiplicity           Mult            ....    1
 Number of Electrons    NEL             ....   32
 Basis Dimension        Dim             ....  110

ORBITAL ENERGIES
----------------

  NO   OCC          E(Eh)            E(eV)
   0   2.0000     -24.497172      -666.6019
   1   2.0000     -18.909598      -514.5563
   2   2.0000     -10.176525      -276.9173
   3   2.0000     -10.031413      -272.9686
   4   2.0000      -1.224502       -33.3204
   5   2.0000      -0.955484       -26.0000
   6   2.0000      -0.714002       -19.4290
   7   2.0000      -0.599423       -16.3111
   8   2.0000      -0.495644       -13.4871
   9   2.0000      -0.491127       -13.3643
  10   2.0000      -0.452934       -12.3250
  11   2.0000      -0.406859       -11.0712
  12   2.0000      -0.395406       -10.7595
  13   2.0000      -0.356606        -9.7037
  14   2.0000      -0.320773        -8.7287
  15   2.0000      -0.252316        -6.8659
  16   0.0000      -0.066926        -1.8212
  17   0.0000       0.001820         0.0495
  18   0.0000       0.048546         1.3210
  19   0.0000       0.072827         1.9817
  20   0.0000       0.080394         2.1876

MULLIKEN ATOMIC CHARGES
-----------------------
   0 C :    0.368067
   1 C :    0.455398
   2 O :   -0.486501
   3 F :   -0.369211
   4 H :   -0.034849
   5 H :    0.031942
   6 H :    0.035154
Sum of atomic charges:   -0.0000000

LOEWDIN ATOMIC CHARGES
----------------------
   0 C :    0.222628
   1 C :   -0.035773
   2 O :   -0.134618
   3 F :   -0.037424
   4 H :   -0.004568
   5 H :   -0.006877
   6 H :   -0.003368

  Mayer bond orders larger than 0.100000
B(  0-C ,  1-C ) :   1.2425 B(  0-C ,  4-H ) :   0.8962 B(  0-C ,  5-H ) :   0.8151
B(  0-C ,  6-H ) :   0.8213 B(  1-C ,  2-O ) :   1.7763 B(  1-C ,  3-F ) :   0.7466
B(  1-C ,  4-H ) :   0.2007 B(  1-C ,  5-H ) :   0.1280 B(  1-C ,  6-H ) :   0.1207

Dispersion correction           -0.004152341
FINAL SINGLE POINT ENERGY      -252.943208544422

DIPOLE MOMENT
-------------
                                X             Y             Z
Electronic contribution:      3.60270      -3.47565       0.64459
Nuclear contribution   :     -3.46039       4.64214      -0.59441
                        -----------------------------------------
Total Dipole Moment    :      0.14231       1.16650       0.05018
                        -----------------------------------------
Magnitude (a.u.)       :      1.17622
Magnitude (Debye)      :      2.98970

Rotational constants in cm-1:     0.366844     0.321935     0.177045
Rotational constants in MHz : 10997.709774  9651.373819  5307.687677

                             ****ORCA TERMINATED NORMALLY****
TOTAL RUN TIME: 0 days 0 hours 0 minutes 4 seconds 416 msec
