                         Program Version 5.0.0 -  RELEASE  -
|  1> !TPSS D3BJ RIJCOSX def2-SVPD def2/J TightSCF xyzfile
|  2>
|  3> *xyzfile 0 1 D2.xyz
|  4>
|  5> %MaxCore 64000
|  6>
|  7> %pal nprocs 4
|  8> end
|  9>
| 10> %scf
| 11>   MaxIter 150
| 12> end
| 13>
| 14>
| 15>                          ****END OF INPUT****

CARTESIAN COORDINATES (ANGSTROEM)
---------------------------------
  C      0.816067   -2.101491   -2.186546
  H      1.696232   -2.368691   -1.600457
  C      1.100552   -2.467492   -3.599269
  C      0.516243   -0.613634   -2.039373
  H     -0.020066   -2.712849   -1.840844
  C     -0.868621   -0.193925   -2.546303
  C     -0.984801    1.284739   -2.928686
  H     -0.764939    1.904116   -2.051568
  H     -2.032613    1.478953   -3.178952
  C     -0.106085    1.769914   -4.089836
  H     -0.347744    2.822196   -4.262942
  H      0.949683    1.745875   -3.808781
  C     -0.258747    1.004323   -5.409829
  C      0.395958   -0.370696   -5.339939
  H      0.239150    1.569393   -6.201253
  H     -1.309360    0.888694   -5.682455
  H      1.700606   -1.757225   -4.078378
  H      0.293855   -2.359766   -4.256324
  H      1.501324   -3.428479   -3.694915
  O     -0.326329   -1.390398   -5.491279
  F      1.619412   -0.400726   -5.036827
  H     -1.607271   -0.412651   -1.768955
  H     -1.157234   -0.796164   -3.409254
  H      1.299044   -0.056805   -2.558982
  H      0.612393   -0.365579   -0.979171

 Total Charge           Charge          ....    0
 Multiplicity           Mult            ....    1
 Number of Electrons    NEL             ....   80
 Basis Dimension        Dim             ....  326

ORBITAL ENERGIES
----------------

  NO   OCC          E(Eh)            E(eV)
   0   2.0000     -24.504336      -666.7969
   1   2.0000     -18.912300      -514.6298
   2   2.0000     -10.177572      -276.9458
   3   2.0000     -10.035204      -273.0718
   4   2.0000     -10.019983      -272.6576
   5   2.0000     -10.004525      -272.2370
   6   2.0000      -9.992274      -271.9036
   7   2.0000      -9.987752      -271.7805
   8   2.0000      -9.975835      -271.4563
   9   2.0000      -9.930337      -270.2182
  10   2.0000      -1.235464       -33.6187
  11   2.0000      -0.965501       -26.2726
  12   2.0000      -0.763087       -20.7646
  13   2.0000      -0.731030       -19.8923
  14   2.0000      -0.684455       -18.6250
  15   2.0000      -0.646464       -17.5912
  16   2.0000      -0.605946       -16.4886
  17   2.0000      -0.584174       -15.8962
  18   2.0000      -0.547437       -14.8965
  19   2.0000      -0.511885       -13.9291
  20   2.0000      -0.506633       -13.7862
  21   2.0000      -0.492596       -13.4042
  22   2.0000      -0.460681       -12.5358
  23   2.0000      -0.436405       -11.8752
  24   2.0000      -0.414814       -11.2877
  25   2.0000      -0.404269       -11.0007
  26   2.0000      -0.399312       -10.8658
  27   2.0000      -0.389358       -10.5950
  28   2.0000      -0.371807       -10.1174
  29   2.0000      -0.353472        -9.6185
  30   2.0000      -0.347381        -9.4527
  31   2.0000      -0.337205        -9.1758
  32   2.0000      -0.332113        -9.0372
  33   2.0000      -0.314993        -8.5714
  34   2.0000      -0.297154        -8.0860
  35   2.0000      -0.292224        -7.9518
  36   2.0000      -0.282633        -7.6908
  37   2.0000      -0.268953        -7.3186
  38   2.0000      -0.265124        -7.2144
  39   2.0000      -0.227773        -6.1980
  40   0.0000      -0.075796        -2.0625
  41   0.0000       0.001619         0.0441
  42   0.0000       0.025984         0.7070
  43   0.0000       0.028160         0.7663
  44   0.0000       0.030688         0.8351

MULLIKEN ATOMIC CHARGES
-----------------------
   0 C :    0.123557
   1 H :   -0.070312
   2 C :    1.195927
   3 C :    0.114638
   4 H :   -0.143455
   5 C :    0.177094
   6 C :    0.286206
   7 H :   -0.049289
   8 H :    0.087751
   9 C :    0.008977
  10 H :   -0.197415
  11 H :    0.090657
  12 C :    0.203940
  13 C :    0.535409
  14 H :    0.041455
  15 H :   -0.001586
  16 H :   -0.278407
  17 H :   -0.207738
  18 H :   -0.251406
  19 O :   -0.590681
  20 F :   -0.478750
  21 H :   -0.093954
  22 H :   -0.266600
  23 H :    0.000052
  24 H :   -0.236069
Sum of atomic charges:   -0.0000000

LOEWDIN ATOMIC CHARGES
----------------------
   0 C :   -0.040704
   1 H :    0.014929
   2 C :    0.139941
   3 C :   -0.014819
   4 H :    0.020667
   5 C :   -0.004023
   6 C :   -0.014622
   7 H :    0.021090
   8 H :    0.019014
   9 C :   -0.013480
  10 H :    0.019211
  11 H :    0.009564
  12 C :    0.077949
  13 C :    0.018663
  14 H :    0.033970
  15 H :    0.036713
  16 H :   -0.076742
  17 H :   -0.100901
  18 H :   -0.016133
  19 O :   -0.125728
  20 F :   -0.035867
  21 H :    0.022644
  22 H :   -0.004501
  23 H :   -0.001023
  24 H :    0.014188

  Mayer bond orders larger than 0.100000
B(  0-C ,  1-H ) :   0.8017 B(  0-C ,  2-C ) :   1.0932 B(  0-C ,  3-C ) :   1.1695
B(  0-C ,  4-H ) :   0.8389 B(  0-C , 16-H ) :   0.2525 B(  0-C , 17-H ) :   0.1966
B(  0-C , 18-H ) :   0.1738 B(  0-C , 23-H ) :   0.1595 B(  0-C , 24-H ) :   0.1091
B(  1-H ,  3-C ) :   0.1598 B(  1-H ,  4-H ) :  -0.1089 B(  2-C ,  3-C ) :   0.1409
B(  2-C ,  4-H ) :   0.1454 B(  2-C , 16-H ) :   0.4682 B(  2-C , 17-H ) :   0.4044
B(  2-C , 18-H ) :   0.6899 B(  2-C , 23-H ) :  -0.1495 B(  2-C , 24-H ) :   0.1128
B(  3-C ,  5-C ) :   1.1356 B(  3-C , 21-H ) :   0.2205 B(  3-C , 22-H ) :   0.1215
B(  3-C , 23-H ) :   0.8159 B(  3-C , 24-H ) :   0.9400 B(  5-C ,  6-C ) :   1.2242
B(  5-C ,  7-H ) :   0.1735 B(  5-C ,  8-H ) :   0.1912 B(  5-C ,  9-C ) :   0.1018
B(  5-C , 21-H ) :   0.7794 B(  5-C , 22-H ) :   0.8780 B(  5-C , 23-H ) :   0.1108
B(  5-C , 24-H ) :   0.1839 B(  6-C ,  7-H ) :   0.8365 B(  6-C ,  8-H ) :   0.6785
B(  6-C ,  9-C ) :   1.2404 B(  6-C , 10-H ) :   0.1507 B(  6-C , 21-H ) :   0.1153
B(  6-C , 22-H ) :   0.1131 B(  7-H ,  9-C ) :   0.1417 B(  8-H ,  9-C ) :   0.1457
B(  9-C , 10-H ) :   0.9454 B(  9-C , 11-H ) :   0.7996 B(  9-C , 12-C ) :   1.1899
B(  9-C , 14-H ) :   0.1610 B( 10-H , 11-H ) :  -0.1029 B( 10-H , 12-C ) :   0.1009
B( 12-C , 13-C ) :   1.2015 B( 12-C , 14-H ) :   0.7259 B( 12-C , 15-H ) :   0.8894
B( 13-C , 14-H ) :   0.1591 B( 13-C , 15-H ) :   0.1936 B( 13-C , 16-H ) :   0.1247
B( 13-C , 17-H ) :   0.1101 B( 13-C , 19-O ) :   1.6946 B( 13-C , 20-F ) :   0.6025
B( 16-H , 17-H ) :   0.3804 B( 16-H , 20-F ) :   0.1773 B( 16-H , 23-H ) :   0.2280
B( 16-H , 24-H ) :  -0.1696 B( 17-H , 19-O ) :   0.1761 B( 18-H , 23-H ) :  -0.1303

Dispersion correction           -0.032448002
FINAL SINGLE POINT ENERGY      -488.674003651266

DIPOLE MOMENT
-------------
                                X             Y             Z
Electronic contribution:      3.59752      -0.36181      -9.79304
Nuclear contribution   :     -3.57245       1.60200       9.69133
                        -----------------------------------------
Total Dipole Moment    :      0.02507       1.24018      -0.10170
                        -----------------------------------------
Magnitude (a.u.)       :      1.24460
Magnitude (Debye)      :      3.16352

Rotational constants in cm-1:     0.051520     0.042563     0.028962
Rotational constants in MHz :  1544.537298  1275.996546   868.258224

                             ****ORCA TERMINATED NORMALLY****
TOTAL RUN TIME: 0 days 0 hours 0 minutes 45 seconds 243 msec
