                         Program Version 5.0.0 -  RELEASE  -
|  1> !CAM-B3LYP RIJCOSX def2-SVP def2/J TightSCF
|  2> *xyz -1 1
|  3> C         -0.72184       -0.99951       -3.43931
|  4> C          0.28725       -1.71177       -2.52740
|  5> H          1.13178       -2.06738       -3.15940
|  6> H         -0.20414       -2.63733       -2.17048
|  7> O          0.71050       -0.92751       -1.48177
|  8> H         -1.01315       -1.65739       -4.23129
|  9> H         -0.27123       -0.12142       -3.85259
| 10> H         -1.58442       -0.72333       -2.86958
| 11> *
| 12> %MaxCore 64000
| 13>
| 14> %pal nprocs 4
| 15> end
| 16>
| 17> %scf
| 18>   MaxIter 150
| 19> end
| 20>
| 21>
| 22>                          ****END OF INPUT****

CARTESIAN COORDINATES (ANGSTROEM)
---------------------------------
  C     -0.721840   -0.999510   -3.439310
  C      0.287250   -1.711770   -2.527400
  H      1.131780   -2.067380   -3.159400
  H     -0.204140   -2.637330   -2.170480
  O      0.710500   -0.927510   -1.481770
  H     -1.013150   -1.657390   -4.231290
  H     -0.271230   -0.121420   -3.852590
  H     -1.584420   -0.723330   -2.869580

 Total Charge           Charge          ....   -1
 Multiplicity           Mult            ....    1
 Number of Electrons    NEL             ....   26
 Basis Dimension        Dim             ....   67

ORBITAL ENERGIES
----------------

  NO   OCC          E(Eh)            E(eV)
   0   2.0000     -18.812910      -511.9253
   1   2.0000     -10.045768      -273.3592
   2   2.0000     -10.034897      -273.0634
   3   2.0000      -0.702499       -19.1160
   4   2.0000      -0.578283       -15.7359
   5   2.0000      -0.419378       -11.4119
   6   2.0000      -0.302310        -8.2263
   7   2.0000      -0.278612        -7.5814
   8   2.0000      -0.219467        -5.9720
   9   2.0000      -0.201199        -5.4749
  10   2.0000      -0.129888        -3.5344
  11   2.0000       0.017653         0.4803
  12   2.0000       0.020255         0.5512
  13   0.0000       0.293962         7.9991
  14   0.0000       0.339508         9.2385
  15   0.0000       0.353427         9.6172
  16   0.0000       0.361290         9.8312
  17   0.0000       0.405817        11.0429

MULLIKEN ATOMIC CHARGES
-----------------------
   0 C :    0.074581
   1 C :    0.262839
   2 H :   -0.180726
   3 H :   -0.180602
   4 O :   -0.711181
   5 H :   -0.124004
   6 H :   -0.071301
   7 H :   -0.069606
Sum of atomic charges:   -1.0000000

LOEWDIN ATOMIC CHARGES
----------------------
   0 C :   -0.106614
   1 C :    0.010747
   2 H :   -0.082991
   3 H :   -0.081905
   4 O :   -0.674848
   5 H :   -0.034975
   6 H :   -0.015207
   7 H :   -0.014207

  Mayer bond orders larger than 0.100000
B(  0-C ,  1-C ) :   1.0046 B(  0-C ,  5-H ) :   0.9187 B(  0-C ,  6-H ) :   0.9553
B(  0-C ,  7-H ) :   0.9567 B(  1-C ,  2-H ) :   0.8683 B(  1-C ,  3-H ) :   0.8694
B(  1-C ,  4-O ) :   1.5157

FINAL SINGLE POINT ENERGY      -154.197817285483

DIPOLE MOMENT
-------------
                                X             Y             Z
Electronic contribution:      1.54209       0.89777       2.58647
Nuclear contribution   :     -2.24828      -1.06600      -3.62481
                        -----------------------------------------
Total Dipole Moment    :     -0.70618      -0.16823      -1.03833
                        -----------------------------------------
Magnitude (a.u.)       :      1.26694
Magnitude (Debye)      :      3.22030

Rotational constants in cm-1:     1.278116     0.325414     0.286672
Rotational constants in MHz : 38316.964654  9755.653004  8594.216906

                             ****ORCA TERMINATED NORMALLY****
TOTAL RUN TIME: 0 days 0 hours 0 minutes 9 seconds 739 msec
