                         Program Version 5.0.0 -  RELEASE  -
|  1> !CAM-B3LYP RIJCOSX def2-SVP def2/J TightSCF
|  2> *xyz 1 1
|  3> C          3.48828        1.60092       -1.52204
|  4> C          4.34297        1.31342       -2.75683
|  5> N          2.81029        0.42878       -1.01420
|  6> H          2.71455        2.33145       -1.76030
|  7> H          4.09099        2.06315       -0.73338
|  8> C          3.29098       -0.41802       -0.12908
|  9> N          2.51754       -1.43202        0.23936
| 10> N          4.53549       -0.28441        0.39580
| 11> H          5.04363        0.57189        0.22290
| 12> H          4.72335       -0.73327        1.28180
| 13> H          1.93479        0.10230       -1.40379
| 14> H          1.67464       -1.50562       -0.31610
| 15> H          2.92850       -2.21850        0.72549
| 16> H          3.73575        0.86277       -3.51385
| 17> H          5.13754        0.64699       -2.49333
| 18> H          4.75374        2.22930       -3.12740
| 19> *
| 20> %MaxCore 64000
| 21>
| 22> %pal nprocs 4
| 23> end
| 24>
| 25> %scf
| 26>   MaxIter 150
| 27> end
| 28>
| 29>
| 30>                          ****END OF INPUT****

CARTESIAN COORDINATES (ANGSTROEM)
---------------------------------
  C      3.488280    1.600920   -1.522040
  C      4.342970    1.313420   -2.756830
  N      2.810290    0.428780   -1.014200
  H      2.714550    2.331450   -1.760300
  H      4.090990    2.063150   -0.733380
  C      3.290980   -0.418020   -0.129080
  N      2.517540   -1.432020    0.239360
  N      4.535490   -0.284410    0.395800
  H      5.043630    0.571890    0.222900
  H      4.723350   -0.733270    1.281800
  H      1.934790    0.102300   -1.403790
  H      1.674640   -1.505620   -0.316100
  H      2.928500   -2.218500    0.725490
  H      3.735750    0.862770   -3.513850
  H      5.137540    0.646990   -2.493330
  H      4.753740    2.229300   -3.127400

 Total Charge           Charge          ....    1
 Multiplicity           Mult            ....    1
 Number of Electrons    NEL             ....   48
 Basis Dimension        Dim             ....  134

ORBITAL ENERGIES
----------------

  NO   OCC          E(Eh)            E(eV)
   0   2.0000     -14.630259      -398.1096
   1   2.0000     -14.627254      -398.0278
   2   2.0000     -14.624169      -397.9439
   3   2.0000     -10.595450      -288.3168
   4   2.0000     -10.467516      -284.8356
   5   2.0000     -10.394336      -282.8443
   6   2.0000      -1.295585       -35.2547
   7   2.0000      -1.180270       -32.1168
   8   2.0000      -1.165596       -31.7175
   9   2.0000      -1.007903       -27.4264
  10   2.0000      -0.909235       -24.7415
  11   2.0000      -0.879771       -23.9398
  12   2.0000      -0.852589       -23.2001
  13   2.0000      -0.817819       -22.2540
  14   2.0000      -0.761894       -20.7322
  15   2.0000      -0.751441       -20.4477
  16   2.0000      -0.723480       -19.6869
  17   2.0000      -0.710667       -19.3382
  18   2.0000      -0.670727       -18.2514
  19   2.0000      -0.628129       -17.0923
  20   2.0000      -0.597543       -16.2600
  21   2.0000      -0.577384       -15.7114
  22   2.0000      -0.541318       -14.7300
  23   2.0000      -0.513667       -13.9776
  24   0.0000      -0.111533        -3.0350
  25   0.0000      -0.098400        -2.6776
  26   0.0000      -0.066820        -1.8183
  27   0.0000      -0.049745        -1.3536
  28   0.0000      -0.023790        -0.6474

MULLIKEN ATOMIC CHARGES
-----------------------
   0 C :    0.017928
   1 C :    0.029767
   2 N :   -0.087585
   3 H :    0.069793
   4 H :    0.050637
   5 C :    0.001299
   6 N :   -0.004961
   7 N :   -0.045759
   8 H :    0.162806
   9 H :    0.172709
  10 H :    0.159334
  11 H :    0.164365
  12 H :    0.179850
  13 H :    0.040575
  14 H :    0.025635
  15 H :    0.063608
Sum of atomic charges:    1.0000000

LOEWDIN ATOMIC CHARGES
----------------------
   0 C :    0.037484
   1 C :   -0.045696
   2 N :    0.040201
   3 H :    0.050611
   4 H :    0.034549
   5 C :    0.152869
   6 N :    0.046805
   7 N :    0.029200
   8 H :    0.103971
   9 H :    0.111184
  10 H :    0.105226
  11 H :    0.107938
  12 H :    0.115398
  13 H :    0.034995
  14 H :    0.027075
  15 H :    0.048190

  Mayer bond orders larger than 0.100000
B(  0-C ,  1-C ) :   1.0934 B(  0-C ,  2-N ) :   0.9291 B(  0-C ,  3-H ) :   0.9473
B(  0-C ,  4-H ) :   0.9525 B(  1-C , 13-H ) :   0.9687 B(  1-C , 14-H ) :   0.9687
B(  1-C , 15-H ) :   0.9652 B(  2-N ,  5-C ) :   1.4015 B(  2-N , 10-H ) :   0.9076
B(  5-C ,  6-N ) :   1.3966 B(  5-C ,  7-N ) :   1.3756 B(  6-N , 11-H ) :   0.9225
B(  6-N , 12-H ) :   0.9248 B(  7-N ,  8-H ) :   0.9273 B(  7-N ,  9-H ) :   0.9275

FINAL SINGLE POINT ENERGY      -284.039540443102

DIPOLE MOMENT
-------------
                                X             Y             Z
Electronic contribution:     -1.95418      -3.07071       3.80739
Nuclear contribution   :      1.59382       2.33278      -3.02574
                        -----------------------------------------
Total Dipole Moment    :     -0.36036      -0.73793       0.78165
                        -----------------------------------------
Magnitude (a.u.)       :      1.13375
Magnitude (Debye)      :      2.88175

Rotational constants in cm-1:     0.232230     0.073139     0.063030
Rotational constants in MHz :  6962.079716  2192.649203  1889.578947

                             ****ORCA TERMINATED NORMALLY****
TOTAL RUN TIME: 0 days 0 hours 0 minutes 24 seconds 828 msec
