                         Program Version 5.0.0 -  RELEASE  -
|  1> !CAM-B3LYP RIJCOSX def2-SVP def2/J TightSCF
|  2> *xyz 0 1
|  3> C         -0.72184       -0.99951       -3.43931
|  4> C          0.28725       -1.71177       -2.52740
|  5> H          1.13178       -2.06738       -3.15940
|  6> H         -0.20414       -2.63733       -2.17048
|  7> F          0.71050       -0.92751       -1.48177
|  8> H         -1.01315       -1.65739       -4.23129
|  9> H         -0.27123       -0.12142       -3.85259
| 10> H         -1.58442       -0.72333       -2.86958
| 11> *
| 12> %MaxCore 64000
| 13>
| 14> %pal nprocs 4
| 15> end
| 16>
| 17> %scf
| 18>   MaxIter 150
| 19> end
| 20>
| 21>
| 22>                          ****END OF INPUT****

CARTESIAN COORDINATES (ANGSTROEM)
---------------------------------
  C     -0.721840   -0.999510   -3.439310
  C      0.287250   -1.711770   -2.527400
  H      1.131780   -2.067380   -3.159400
  H     -0.204140   -2.637330   -2.170480
  F      0.710500   -0.927510   -1.481770
  H     -1.013150   -1.657390   -4.231290
  H     -0.271230   -0.121420   -3.852590
  H     -1.584420   -0.723330   -2.869580

 Total Charge           Charge          ....    0
 Multiplicity           Mult            ....    1
 Number of Electrons    NEL             ....   26
 Basis Dimension        Dim             ....   67

ORBITAL ENERGIES
----------------

  NO   OCC          E(Eh)            E(eV)
   0   2.0000     -24.736301      -673.1090
   1   2.0000     -10.333240      -281.1818
   2   2.0000     -10.253387      -279.0088
   3   2.0000      -1.245925       -33.9033
   4   2.0000      -0.836674       -22.7671
   5   2.0000      -0.697832       -18.9890
   6   2.0000      -0.569607       -15.4998
   7   2.0000      -0.561757       -15.2862
   8   2.0000      -0.520254       -14.1568
   9   2.0000      -0.467686       -12.7264
  10   2.0000      -0.465314       -12.6618
  11   2.0000      -0.396186       -10.7808
  12   2.0000      -0.390312       -10.6209
  13   0.0000       0.105356         2.8669
  14   0.0000       0.151667         4.1271
  15   0.0000       0.160227         4.3600
  16   0.0000       0.178985         4.8704
  17   0.0000       0.198449         5.4001

MULLIKEN ATOMIC CHARGES
-----------------------
   0 C :   -0.031970
   1 C :    0.225074
   2 H :    0.006938
   3 H :    0.004759
   4 F :   -0.264944
   5 H :    0.012667
   6 H :    0.023622
   7 H :    0.023853
Sum of atomic charges:   -0.0000000

LOEWDIN ATOMIC CHARGES
----------------------
   0 C :   -0.071617
   1 C :    0.110491
   2 H :    0.010667
   3 H :    0.009647
   4 F :   -0.139395
   5 H :    0.029520
   6 H :    0.025157
   7 H :    0.025530

  Mayer bond orders larger than 0.100000
B(  0-C ,  1-C ) :   1.0963 B(  0-C ,  5-H ) :   0.9611 B(  0-C ,  6-H ) :   0.9717
B(  0-C ,  7-H ) :   0.9717 B(  1-C ,  2-H ) :   0.9596 B(  1-C ,  3-H ) :   0.9601
B(  1-C ,  4-F ) :   1.0078

FINAL SINGLE POINT ENERGY      -178.844537808450

DIPOLE MOMENT
-------------
                                X             Y             Z
Electronic contribution:      2.71864       1.05852       4.25175
Nuclear contribution   :     -2.97459      -1.40206      -4.79987
                        -----------------------------------------
Total Dipole Moment    :     -0.25596      -0.34354      -0.54812
                        -----------------------------------------
Magnitude (a.u.)       :      0.69568
Magnitude (Debye)      :      1.76828

Rotational constants in cm-1:     1.257024     0.302702     0.267953
Rotational constants in MHz : 37684.643733  9074.792567  8033.038070

                             ****ORCA TERMINATED NORMALLY****
TOTAL RUN TIME: 0 days 0 hours 0 minutes 9 seconds 425 msec
