                         Program Version 5.0.0 -  RELEASE  -
|  1> !CAM-B3LYP RIJCOSX def2-SVP def2/J TightSCF
|  2> *xyz 0 1
|  3> C          3.48828        1.60092       -1.52204
|  4> C          4.34297        1.31342       -2.75683
|  5> C          2.81029        0.42878       -1.01420
|  6> H          2.71455        2.33145       -1.76030
|  7> H          4.09099        2.06315       -0.73338
|  8> C          3.29098       -0.41802       -0.12908
|  9> N          2.51754       -1.43202        0.23936
| 10> N          4.53549       -0.28441        0.39580
| 11> H          5.04363        0.57189        0.22290
| 12> H          4.72335       -0.73327        1.28180
| 13> H          1.93479        0.10230       -1.40379
| 14> H          1.67464       -1.50562       -0.31610
| 15> H          2.92850       -2.21850        0.72549
| 16> H          3.73575        0.86277       -3.51385
| 17> H          5.13754        0.64699       -2.49333
| 18> H          4.75374        2.22930       -3.12740
| 19> *
| 20> %MaxCore 64000
| 21>
| 22> %pal nprocs 4
| 23> end
| 24>
| 25> %scf
| 26>   MaxIter 150
| 27> end
| 28>
| 29>
| 30>                          ****END OF INPUT****

CARTESIAN COORDINATES (ANGSTROEM)
---------------------------------
  C      3.488280    1.600920   -1.522040
  C      4.342970    1.313420   -2.756830
  C      2.810290    0.428780   -1.014200
  H      2.714550    2.331450   -1.760300
  H      4.090990    2.063150   -0.733380
  C      3.290980   -0.418020   -0.129080
  N      2.517540   -1.432020    0.239360
  N      4.535490   -0.284410    0.395800
  H      5.043630    0.571890    0.222900
  H      4.723350   -0.733270    1.281800
  H      1.934790    0.102300   -1.403790
  H      1.674640   -1.505620   -0.316100
  H      2.928500   -2.218500    0.725490
  H      3.735750    0.862770   -3.513850
  H      5.137540    0.646990   -2.493330
  H      4.753740    2.229300   -3.127400

 Total Charge           Charge          ....    0
 Multiplicity           Mult            ....    1
 Number of Electrons    NEL             ....   48
 Basis Dimension        Dim             ....  134

ORBITAL ENERGIES
----------------

  NO   OCC          E(Eh)            E(eV)
   0   2.0000     -14.395127      -391.7113
   1   2.0000     -14.390741      -391.5920
   2   2.0000     -10.292260      -280.0666
   3   2.0000     -10.229009      -278.3455
   4   2.0000     -10.220425      -278.1119
   5   2.0000     -10.171457      -276.7794
   6   2.0000      -1.024875       -27.8883
   7   2.0000      -0.934013       -25.4158
   8   2.0000      -0.843804       -22.9611
   9   2.0000      -0.762037       -20.7361
  10   2.0000      -0.679573       -18.4921
  11   2.0000      -0.644139       -17.5279
  12   2.0000      -0.600975       -16.3534
  13   2.0000      -0.572988       -15.5918
  14   2.0000      -0.527075       -14.3424
  15   2.0000      -0.501772       -13.6539
  16   2.0000      -0.481091       -13.0912
  17   2.0000      -0.459087       -12.4924
  18   2.0000      -0.442431       -12.0392
  19   2.0000      -0.413050       -11.2397
  20   2.0000      -0.391596       -10.6559
  21   2.0000      -0.379085       -10.3154
  22   2.0000      -0.321140        -8.7387
  23   2.0000      -0.209577        -5.7029
  24   0.0000       0.088888         2.4188
  25   0.0000       0.119484         3.2513
  26   0.0000       0.129748         3.5306
  27   0.0000       0.147732         4.0200
  28   0.0000       0.158215         4.3052

MULLIKEN ATOMIC CHARGES
-----------------------
   0 C :    0.067313
   1 C :    0.073125
   2 C :   -0.141402
   3 H :   -0.019438
   4 H :   -0.032813
   5 C :   -0.105817
   6 N :   -0.038503
   7 N :   -0.077738
   8 H :    0.110403
   9 H :    0.099579
  10 H :   -0.119061
  11 H :    0.115434
  12 H :    0.100504
  13 H :   -0.008628
  14 H :   -0.011231
  15 H :   -0.011725
Sum of atomic charges:    0.0000000

LOEWDIN ATOMIC CHARGES
----------------------
   0 C :   -0.037896
   1 C :   -0.052883
   2 C :   -0.215448
   3 H :    0.021689
   4 H :    0.007300
   5 C :    0.030792
   6 N :   -0.028359
   7 N :   -0.039301
   8 H :    0.074497
   9 H :    0.063412
  10 H :   -0.012465
  11 H :    0.082664
  12 H :    0.065457
  13 H :    0.017093
  14 H :    0.013104
  15 H :    0.010344

  Mayer bond orders larger than 0.100000
B(  0-C ,  1-C ) :   1.0892 B(  0-C ,  2-C ) :   1.0575 B(  0-C ,  3-H ) :   0.9159
B(  0-C ,  4-H ) :   0.9376 B(  1-C , 13-H ) :   0.9668 B(  1-C , 14-H ) :   0.9711
B(  1-C , 15-H ) :   0.9648 B(  2-C ,  5-C ) :   1.7153 B(  2-C , 10-H ) :   0.9264
B(  5-C ,  6-N ) :   1.2493 B(  5-C ,  7-N ) :   1.2394 B(  6-N , 11-H ) :   0.9340
B(  6-N , 12-H ) :   0.9461 B(  7-N ,  8-H ) :   0.9427 B(  7-N ,  9-H ) :   0.9479

FINAL SINGLE POINT ENERGY      -267.566272530077

DIPOLE MOMENT
-------------
                                X             Y             Z
Electronic contribution:     -1.23460      -3.04216       3.77893
Nuclear contribution   :      1.44676       2.38443      -3.07370
                        -----------------------------------------
Total Dipole Moment    :      0.21216      -0.65773       0.70524
                        -----------------------------------------
Magnitude (a.u.)       :      0.98741
Magnitude (Debye)      :      2.50980

Rotational constants in cm-1:     0.235977     0.073199     0.063283
Rotational constants in MHz :  7074.404583  2194.453291  1897.179599

                             ****ORCA TERMINATED NORMALLY****
TOTAL RUN TIME: 0 days 0 hours 0 minutes 24 seconds 662 msec
