                         Program Version 5.0.0 -  RELEASE  -
|  1> !CAM-B3LYP RIJCOSX def2-SVP def2/J TightSCF
|  2> *xyz 0 1
|  3> C          3.48828        1.60092       -1.52204
|  4> C          4.34297        1.31342       -2.75683
|  5> N          2.81029        0.42878       -1.01420
|  6> H          2.71455        2.33145       -1.76030
|  7> H          4.09099        2.06315       -0.73338
|  8> C          3.29098       -0.41802       -0.12908
|  9> C          2.51754       -1.43202        0.23936
| 10> N          4.53549       -0.28441        0.39580
| 11> H          5.04363        0.57189        0.22290
| 12> H          4.72335       -0.73327        1.28180
| 13> H          1.93479        0.10230       -1.40379
| 14> H          1.67464       -1.50562       -0.31610
| 15> H          2.92850       -2.21850        0.72549
| 16> H          3.73575        0.86277       -3.51385
| 17> H          5.13754        0.64699       -2.49333
| 18> H          4.75374        2.22930       -3.12740
| 19> *
| 20> %MaxCore 64000
| 21>
| 22> %pal nprocs 4
| 23> end
| 24>
| 25> %scf
| 26>   MaxIter 150
| 27> end
| 28>
| 29>
| 30>                          ****END OF INPUT****

CARTESIAN COORDINATES (ANGSTROEM)
---------------------------------
  C      3.488280    1.600920   -1.522040
  C      4.342970    1.313420   -2.756830
  N      2.810290    0.428780   -1.014200
  H      2.714550    2.331450   -1.760300
  H      4.090990    2.063150   -0.733380
  C      3.290980   -0.418020   -0.129080
  C      2.517540   -1.432020    0.239360
  N      4.535490   -0.284410    0.395800
  H      5.043630    0.571890    0.222900
  H      4.723350   -0.733270    1.281800
  H      1.934790    0.102300   -1.403790
  H      1.674640   -1.505620   -0.316100
  H      2.928500   -2.218500    0.725490
  H      3.735750    0.862770   -3.513850
  H      5.137540    0.646990   -2.493330
  H      4.753740    2.229300   -3.127400

 Total Charge           Charge          ....    0
 Multiplicity           Mult            ....    1
 Number of Electrons    NEL             ....   48
 Basis Dimension        Dim             ....  134

ORBITAL ENERGIES
----------------

  NO   OCC          E(Eh)            E(eV)
   0   2.0000     -14.396119      -391.7383
   1   2.0000     -14.395577      -391.7236
   2   2.0000     -10.298914      -280.2477
   3   2.0000     -10.296843      -280.1913
   4   2.0000     -10.248917      -278.8872
   5   2.0000     -10.160851      -276.4908
   6   2.0000      -1.038123       -28.2488
   7   2.0000      -0.949181       -25.8285
   8   2.0000      -0.847426       -23.0596
   9   2.0000      -0.770055       -20.9543
  10   2.0000      -0.697896       -18.9907
  11   2.0000      -0.663743       -18.0614
  12   2.0000      -0.601199       -16.3594
  13   2.0000      -0.565011       -15.3747
  14   2.0000      -0.542093       -14.7511
  15   2.0000      -0.505660       -13.7597
  16   2.0000      -0.496115       -13.5000
  17   2.0000      -0.467943       -12.7334
  18   2.0000      -0.438398       -11.9294
  19   2.0000      -0.434348       -11.8192
  20   2.0000      -0.425780       -11.5861
  21   2.0000      -0.419443       -11.4136
  22   2.0000      -0.314290        -8.5523
  23   2.0000      -0.210750        -5.7348
  24   0.0000       0.085371         2.3231
  25   0.0000       0.113888         3.0990
  26   0.0000       0.125302         3.4096
  27   0.0000       0.149225         4.0606
  28   0.0000       0.151802         4.1307

MULLIKEN ATOMIC CHARGES
-----------------------
   0 C :    0.063241
   1 C :    0.047402
   2 N :   -0.114638
   3 H :    0.007508
   4 H :    0.004393
   5 C :   -0.065632
   6 C :   -0.062979
   7 N :   -0.091148
   8 H :    0.093862
   9 H :    0.122730
  10 H :    0.119989
  11 H :   -0.082306
  12 H :   -0.063889
  13 H :    0.008380
  14 H :    0.009007
  15 H :    0.004079
Sum of atomic charges:    0.0000000

LOEWDIN ATOMIC CHARGES
----------------------
   0 C :    0.029652
   1 C :   -0.062521
   2 N :   -0.022439
   3 H :    0.022979
   4 H :    0.016120
   5 C :    0.046556
   6 C :   -0.262020
   7 N :   -0.035434
   8 H :    0.059459
   9 H :    0.082596
  10 H :    0.085561
  11 H :   -0.013724
  12 H :   -0.010394
  13 H :    0.021784
  14 H :    0.020804
  15 H :    0.021019

  Mayer bond orders larger than 0.100000
B(  0-C ,  1-C ) :   1.0858 B(  0-C ,  2-N ) :   1.0172 B(  0-C ,  3-H ) :   0.9528
B(  0-C ,  4-H ) :   0.9510 B(  1-C , 13-H ) :   0.9678 B(  1-C , 14-H ) :   0.9671
B(  1-C , 15-H ) :   0.9628 B(  2-N ,  5-C ) :   1.2180 B(  2-N , 10-H ) :   0.9217
B(  5-C ,  6-C ) :   1.7559 B(  5-C ,  7-N ) :   1.2143 B(  6-C , 11-H ) :   0.9206
B(  6-C , 12-H ) :   0.9476 B(  7-N ,  8-H ) :   0.9545 B(  7-N ,  9-H ) :   0.9490

FINAL SINGLE POINT ENERGY      -267.555979919419

DIPOLE MOMENT
-------------
                                X             Y             Z
Electronic contribution:     -0.83607      -1.03093       2.47600
Nuclear contribution   :      1.38466       1.98967      -2.80776
                        -----------------------------------------
Total Dipole Moment    :      0.54859       0.95874      -0.33176
                        -----------------------------------------
Magnitude (a.u.)       :      1.15334
Magnitude (Debye)      :      2.93156

Rotational constants in cm-1:     0.235618     0.075969     0.065309
Rotational constants in MHz :  7063.646698  2277.495424  1957.925383

                             ****ORCA TERMINATED NORMALLY****
TOTAL RUN TIME: 0 days 0 hours 0 minutes 27 seconds 991 msec
