                         Program Version 5.0.0 -  RELEASE  -
|  1> !CAM-B3LYP RIJCOSX def2-SVP def2/J TightSCF
|  2> *xyz 0 1
|  3> C          3.48828        1.60092       -1.52204
|  4> C          4.34297        1.31342       -2.75683
|  5> N          2.81029        0.42878       -1.01420
|  6> H          2.71455        2.33145       -1.76030
|  7> H          4.09099        2.06315       -0.73338
|  8> C          3.29098       -0.41802       -0.12908
|  9> N          2.51754       -1.43202        0.23936
| 10> C          4.53549       -0.28441        0.39580
| 11> H          5.04363        0.57189        0.22290
| 12> H          4.72335       -0.73327        1.28180
| 13> H          1.93479        0.10230       -1.40379
| 14> H          1.67464       -1.50562       -0.31610
| 15> H          2.92850       -2.21850        0.72549
| 16> H          3.73575        0.86277       -3.51385
| 17> H          5.13754        0.64699       -2.49333
| 18> H          4.75374        2.22930       -3.12740
| 19> *
| 20> %MaxCore 64000
| 21>
| 22> %pal nprocs 4
| 23> end
| 24>
| 25> %scf
| 26>   MaxIter 150
| 27> end
| 28>
| 29>
| 30>                          ****END OF INPUT****

CARTESIAN COORDINATES (ANGSTROEM)
---------------------------------
  C      3.488280    1.600920   -1.522040
  C      4.342970    1.313420   -2.756830
  N      2.810290    0.428780   -1.014200
  H      2.714550    2.331450   -1.760300
  H      4.090990    2.063150   -0.733380
  C      3.290980   -0.418020   -0.129080
  N      2.517540   -1.432020    0.239360
  C      4.535490   -0.284410    0.395800
  H      5.043630    0.571890    0.222900
  H      4.723350   -0.733270    1.281800
  H      1.934790    0.102300   -1.403790
  H      1.674640   -1.505620   -0.316100
  H      2.928500   -2.218500    0.725490
  H      3.735750    0.862770   -3.513850
  H      5.137540    0.646990   -2.493330
  H      4.753740    2.229300   -3.127400

 Total Charge           Charge          ....    0
 Multiplicity           Mult            ....    1
 Number of Electrons    NEL             ....   48
 Basis Dimension        Dim             ....  134

ORBITAL ENERGIES
----------------

  NO   OCC          E(Eh)            E(eV)
   0   2.0000     -14.401937      -391.8966
   1   2.0000     -14.398187      -391.7946
   2   2.0000     -10.299887      -280.2742
   3   2.0000     -10.289748      -279.9983
   4   2.0000     -10.239926      -278.6426
   5   2.0000     -10.159868      -276.4641
   6   2.0000      -1.046923       -28.4882
   7   2.0000      -0.954960       -25.9858
   8   2.0000      -0.826547       -22.4915
   9   2.0000      -0.772055       -21.0087
  10   2.0000      -0.712640       -19.3919
  11   2.0000      -0.627757       -17.0821
  12   2.0000      -0.608105       -16.5474
  13   2.0000      -0.592580       -16.1249
  14   2.0000      -0.532615       -14.4932
  15   2.0000      -0.505586       -13.7577
  16   2.0000      -0.491232       -13.3671
  17   2.0000      -0.456360       -12.4182
  18   2.0000      -0.440755       -11.9935
  19   2.0000      -0.429116       -11.6768
  20   2.0000      -0.419869       -11.4252
  21   2.0000      -0.408496       -11.1157
  22   2.0000      -0.309127        -8.4118
  23   2.0000      -0.211698        -5.7606
  24   0.0000       0.081155         2.2083
  25   0.0000       0.116592         3.1726
  26   0.0000       0.130026         3.5382
  27   0.0000       0.148359         4.0371
  28   0.0000       0.163184         4.4405

MULLIKEN ATOMIC CHARGES
-----------------------
   0 C :    0.090233
   1 C :    0.038475
   2 N :   -0.134887
   3 H :   -0.000823
   4 H :    0.028697
   5 C :   -0.058675
   6 N :   -0.059277
   7 C :   -0.106681
   8 H :   -0.068662
   9 H :   -0.065675
  10 H :    0.091558
  11 H :    0.092572
  12 H :    0.128644
  13 H :   -0.004645
  14 H :    0.025084
  15 H :    0.004063
Sum of atomic charges:    0.0000000

LOEWDIN ATOMIC CHARGES
----------------------
   0 C :    0.042310
   1 C :   -0.059540
   2 N :   -0.020942
   3 H :    0.018797
   4 H :    0.029372
   5 C :    0.043116
   6 N :   -0.019977
   7 C :   -0.285058
   8 H :   -0.014118
   9 H :   -0.011906
  10 H :    0.063272
  11 H :    0.061780
  12 H :    0.086911
  13 H :    0.016140
  14 H :    0.028045
  15 H :    0.021797

  Mayer bond orders larger than 0.100000
B(  0-C ,  1-C ) :   1.1025 B(  0-C ,  2-N ) :   0.9953 B(  0-C ,  3-H ) :   0.9561
B(  0-C ,  4-H ) :   0.9437 B(  1-C , 13-H ) :   0.9671 B(  1-C , 14-H ) :   0.9681
B(  1-C , 15-H ) :   0.9649 B(  2-N ,  5-C ) :   1.2028 B(  2-N , 10-H ) :   0.9338
B(  5-C ,  6-N ) :   1.2415 B(  5-C ,  7-C ) :   1.7358 B(  6-N , 11-H ) :   0.9512
B(  6-N , 12-H ) :   0.9448 B(  7-C ,  8-H ) :   0.9371 B(  7-C ,  9-H ) :   0.9426

FINAL SINGLE POINT ENERGY      -267.555126497784

DIPOLE MOMENT
-------------
                                X             Y             Z
Electronic contribution:     -2.91769      -2.37575       2.19096
Nuclear contribution   :      1.81275       2.23313      -2.77458
                        -----------------------------------------
Total Dipole Moment    :     -1.10494      -0.14263      -0.58362
                        -----------------------------------------
Magnitude (a.u.)       :      1.25771
Magnitude (Debye)      :      3.19686

Rotational constants in cm-1:     0.245202     0.073668     0.064348
Rotational constants in MHz :  7350.977980  2208.513334  1929.108541

                             ****ORCA TERMINATED NORMALLY****
TOTAL RUN TIME: 0 days 0 hours 0 minutes 24 seconds 632 msec
