                         Program Version 5.0.0 -  RELEASE  -
|  1> !CAM-B3LYP RIJCOSX def2-TZVP def2/J TightSCF xyzfile
|  2>
|  3> *xyzfile 0 1 D2.xyz
|  4>
|  5> %MaxCore 64000
|  6>
|  7> %pal nprocs 18
|  8> end
|  9>
| 10> %scf
| 11>   MaxIter 150
| 12> end
| 13>
| 14>
| 15>                          ****END OF INPUT****

CARTESIAN COORDINATES (ANGSTROEM)
---------------------------------
  C      3.488276    1.600919   -1.522040
  C      4.342970    1.313419   -2.756826
  N      2.810285    0.428783   -1.014196
  H      5.132033    0.604994   -2.484466
  C      3.535896    0.749253   -3.924604
  H      4.841247    2.242136   -3.054083
  H      2.991617   -0.132199   -3.574137
  H      4.225505    0.392784   -4.695962
  C      2.564776    1.750890   -4.544523
  H      1.918749    2.171679   -3.769419
  C      1.686235    1.161657   -5.650111
  H      3.132494    2.594775   -4.951604
  C      0.839616   -0.037582   -5.220473
  H      2.323886    0.866395   -6.490796
  H      1.029518    1.951850   -6.029329
  C     -0.151019    0.254955   -4.094256
  H      1.499442   -0.857141   -4.922958
  H      0.290097   -0.410143   -6.091131
  H      0.328265    0.833022   -3.299125
  C     -0.721843   -0.999513   -3.439309
  H     -0.957367    0.884951   -4.485450
  H     -1.083403   -1.697555   -4.205656
  H     -1.581056   -0.723848   -2.820490
  C      0.287250   -1.711771   -2.527405
  H      1.131780   -2.067380   -3.159396
  H     -0.204137   -2.637326   -2.170480
  F      0.710505   -0.927506   -1.481767
  H      2.714548    2.331455   -1.760302
  H      4.090991    2.063151   -0.733382
  C      3.290978   -0.418021   -0.129083
  C      2.517536   -1.432017    0.239360
  N      4.535490   -0.284410    0.395800
  H      5.043627    0.571888    0.222899
  H      4.723346   -0.733273    1.281800
  H      1.934787    0.102305   -1.403788
  H      1.674638   -1.505616   -0.316095
  H      2.928503   -2.218502    0.725494

 Total Charge           Charge          ....    0
 Multiplicity           Mult            ....    1
 Number of Electrons    NEL             ....  112
 Basis Dimension        Dim             ....  572

ORBITAL ENERGIES
----------------

  NO   OCC          E(Eh)            E(eV)
   0   2.0000     -24.769216      -674.0046
   1   2.0000     -14.370977      -391.0542
   2   2.0000     -14.361090      -390.7851
   3   2.0000     -10.332825      -281.1705
   4   2.0000     -10.269901      -279.4582
   5   2.0000     -10.269048      -279.4350
   6   2.0000     -10.256667      -279.0981
   7   2.0000     -10.246256      -278.8148
   8   2.0000     -10.242656      -278.7168
   9   2.0000     -10.240596      -278.6608
  10   2.0000     -10.237303      -278.5712
  11   2.0000     -10.235152      -278.5127
  12   2.0000     -10.234475      -278.4942
  13   2.0000     -10.121337      -275.4156
  14   2.0000      -1.315683       -35.8016
  15   2.0000      -1.034298       -28.1447
  16   2.0000      -0.949208       -25.8293
  17   2.0000      -0.911198       -24.7949
  18   2.0000      -0.883001       -24.0277
  19   2.0000      -0.855337       -23.2749
  20   2.0000      -0.808738       -22.0069
  21   2.0000      -0.784625       -21.3507
  22   2.0000      -0.749435       -20.3932
  23   2.0000      -0.722414       -19.6579
  24   2.0000      -0.688728       -18.7412
  25   2.0000      -0.673000       -18.3132
  26   2.0000      -0.652158       -17.7461
  27   2.0000      -0.634778       -17.2732
  28   2.0000      -0.609827       -16.5942
  29   2.0000      -0.595657       -16.2086
  30   2.0000      -0.582501       -15.8507
  31   2.0000      -0.568821       -15.4784
  32   2.0000      -0.555528       -15.1167
  33   2.0000      -0.544498       -14.8165
  34   2.0000      -0.537973       -14.6390
  35   2.0000      -0.523340       -14.2408
  36   2.0000      -0.507409       -13.8073
  37   2.0000      -0.500146       -13.6097
  38   2.0000      -0.497082       -13.5263
  39   2.0000      -0.481862       -13.1121
  40   2.0000      -0.463612       -12.6155
  41   2.0000      -0.449386       -12.2284
  42   2.0000      -0.441052       -12.0016
  43   2.0000      -0.437970       -11.9178
  44   2.0000      -0.432198       -11.7607
  45   2.0000      -0.426279       -11.5996
  46   2.0000      -0.411786       -11.2053
  47   2.0000      -0.407713       -11.0944
  48   2.0000      -0.402101       -10.9417
  49   2.0000      -0.392613       -10.6835
  50   2.0000      -0.384979       -10.4758
  51   2.0000      -0.380154       -10.3445
  52   2.0000      -0.377203       -10.2642
  53   2.0000      -0.373543       -10.1646
  54   2.0000      -0.304398        -8.2831
  55   2.0000      -0.199327        -5.4240
  56   0.0000       0.065583         1.7846
  57   0.0000       0.071664         1.9501
  58   0.0000       0.078400         2.1334
  59   0.0000       0.083305         2.2668
  60   0.0000       0.096133         2.6159

MULLIKEN ATOMIC CHARGES
-----------------------
   0 C :   -0.266145
   1 C :   -0.079254
   2 N :   -0.277113
   3 H :    0.107556
   4 C :   -0.254135
   5 H :    0.087463
   6 H :    0.113890
   7 H :    0.106027
   8 C :   -0.244705
   9 H :    0.108274
  10 C :   -0.150849
  11 H :    0.105113
  12 C :   -0.264311
  13 H :    0.105356
  14 H :    0.103227
  15 C :   -0.212806
  16 H :    0.113730
  17 H :    0.111310
  18 H :    0.111590
  19 C :   -0.174728
  20 H :    0.112114
  21 H :    0.109530
  22 H :    0.119069
  23 C :   -0.017858
  24 H :    0.113224
  25 H :    0.131288
  26 F :   -0.241927
  27 H :    0.137090
  28 H :    0.117968
  29 C :    0.337540
  30 C :   -0.556723
  31 N :   -0.482566
  32 H :    0.209773
  33 H :    0.234841
  34 H :    0.243744
  35 H :    0.101653
  36 H :    0.081747
Sum of atomic charges:    0.0000000

LOEWDIN ATOMIC CHARGES
----------------------
   0 C :   -0.298048
   1 C :   -0.270468
   2 N :    0.123672
   3 H :    0.136579
   4 C :   -0.268209
   5 H :    0.133824
   6 H :    0.134358
   7 H :    0.136667
   8 C :   -0.269883
   9 H :    0.130294
  10 C :   -0.266412
  11 H :    0.136332
  12 C :   -0.270100
  13 H :    0.136682
  14 H :    0.136170
  15 C :   -0.268281
  16 H :    0.131714
  17 H :    0.135937
  18 H :    0.136761
  19 C :   -0.272255
  20 H :    0.137758
  21 H :    0.144257
  22 H :    0.140523
  23 C :   -0.335076
  24 H :    0.125593
  25 H :    0.130666
  26 F :    0.143631
  27 H :    0.130827
  28 H :    0.127626
  29 C :   -0.453967
  30 C :   -0.366744
  31 N :   -0.034353
  32 H :    0.154061
  33 H :    0.172856
  34 H :    0.173721
  35 H :    0.092309
  36 H :    0.090975

  Mayer bond orders larger than 0.100000
B(  0-C ,  1-C ) :   0.8923 B(  0-C ,  2-N ) :   0.9251 B(  0-C , 27-H ) :   0.9999
B(  0-C , 28-H ) :   0.9951 B(  1-C ,  3-H ) :   0.9716 B(  1-C ,  4-C ) :   0.9523
B(  1-C ,  5-H ) :   0.9759 B(  2-N , 29-C ) :   1.2076 B(  2-N , 34-H ) :   0.8885
B(  4-C ,  6-H ) :   0.9843 B(  4-C ,  7-H ) :   0.9770 B(  4-C ,  8-C ) :   0.9222
B(  8-C ,  9-H ) :   0.9927 B(  8-C , 10-C ) :   0.9531 B(  8-C , 11-H ) :   0.9758
B( 10-C , 12-C ) :   0.9475 B( 10-C , 13-H ) :   0.9813 B( 10-C , 14-H ) :   0.9858
B( 12-C , 15-C ) :   0.9188 B( 12-C , 16-H ) :   0.9940 B( 12-C , 17-H ) :   0.9744
B( 15-C , 18-H ) :   0.9918 B( 15-C , 19-C ) :   0.9466 B( 15-C , 20-H ) :   0.9720
B( 19-C , 21-H ) :   0.9642 B( 19-C , 22-H ) :   0.9766 B( 19-C , 23-C ) :   0.9720
B( 23-C , 24-H ) :   0.9781 B( 23-C , 25-H ) :   0.9743 B( 23-C , 26-F ) :   0.8786
B( 29-C , 30-C ) :   1.6430 B( 29-C , 31-N ) :   1.1041 B( 30-C , 35-H ) :   1.0225
B( 30-C , 36-H ) :   0.9999 B( 31-N , 32-H ) :   0.9308 B( 31-N , 33-H ) :   0.9278

FINAL SINGLE POINT ENERGY      -642.215550031903

DIPOLE MOMENT
-------------
                                X             Y             Z
Electronic contribution:     -1.25649      -3.12883       9.44179
Nuclear contribution   :      1.09892       3.58083     -10.64472
                        -----------------------------------------
Total Dipole Moment    :     -0.15756       0.45200      -1.20293
                        -----------------------------------------
Magnitude (a.u.)       :      1.29467
Magnitude (Debye)      :      3.29078

Rotational constants in cm-1:     0.026768     0.016312     0.010954
Rotational constants in MHz :   802.489946   489.033275   328.388904

                             ****ORCA TERMINATED NORMALLY****
TOTAL RUN TIME: 0 days 0 hours 1 minutes 52 seconds 541 msec
