                         Program Version 5.0.0 -  RELEASE  -
|  1> !PBE0 D3BJ RIJCOSX def2-SVPD def2/J TightSCF
|  2> *xyz -1 1
|  3> C         -0.81136       -2.90878       -4.60763
|  4> C         -1.91658       -2.48508       -3.64367
|  5> H         -2.55452       -1.71243       -4.09199
|  6> C         -1.36353       -1.98134       -2.29361
|  7> H         -2.55345       -3.35567       -3.45881
|  8> O         -0.35039       -2.74969       -1.79601
|  9> H         -2.22622       -1.90839       -1.60204
| 10> H         -1.05135       -0.91567       -2.44333
| 11> H         -1.24783       -3.24801       -5.52377
| 12> H         -0.24047       -3.70079       -4.16978
| 13> H         -0.17107       -2.07453       -4.80501
| 14> *
| 15>
| 16> %MaxCore 64000
| 17> %pal nprocs 4
| 18> end
| 19>
| 20> %scf
| 21>   MaxIter 150
| 22> end
| 23>
| 24>
| 25>                          ****END OF INPUT****

CARTESIAN COORDINATES (ANGSTROEM)
---------------------------------
  C     -0.811360   -2.908780   -4.607630
  C     -1.916580   -2.485080   -3.643670
  H     -2.554520   -1.712430   -4.091990
  C     -1.363530   -1.981340   -2.293610
  H     -2.553450   -3.355670   -3.458810
  O     -0.350390   -2.749690   -1.796010
  H     -2.226220   -1.908390   -1.602040
  H     -1.051350   -0.915670   -2.443330
  H     -1.247830   -3.248010   -5.523770
  H     -0.240470   -3.700790   -4.169780
  H     -0.171070   -2.074530   -4.805010

 Total Charge           Charge          ....   -1
 Multiplicity           Mult            ....    1
 Number of Electrons    NEL             ....   34
 Basis Dimension        Dim             ....  139

ORBITAL ENERGIES
----------------

  NO   OCC          E(Eh)            E(eV)
   0   2.0000     -18.888082      -513.9708
   1   2.0000     -10.048143      -273.4239
   2   2.0000     -10.045283      -273.3460
   3   2.0000     -10.041223      -273.2356
   4   2.0000      -0.703162       -19.1340
   5   2.0000      -0.596531       -16.2324
   6   2.0000      -0.480565       -13.0768
   7   2.0000      -0.373778       -10.1710
   8   2.0000      -0.288163        -7.8413
   9   2.0000      -0.276885        -7.5344
  10   2.0000      -0.225190        -6.1277
  11   2.0000      -0.200880        -5.4662
  12   2.0000      -0.172827        -4.7029
  13   2.0000      -0.159849        -4.3497
  14   2.0000      -0.127421        -3.4673
  15   2.0000       0.013892         0.3780
  16   2.0000       0.018171         0.4945
  17   0.0000       0.173344         4.7169
  18   0.0000       0.197577         5.3763
  19   0.0000       0.215134         5.8541
  20   0.0000       0.238057         6.4779
  21   0.0000       0.258924         7.0457

MULLIKEN ATOMIC CHARGES
-----------------------
   0 C :    0.470602
   1 C :   -0.681239
   2 H :   -0.025032
   3 C :    0.391889
   4 H :    0.003625
   5 O :   -0.926484
   6 H :   -0.117721
   7 H :   -0.063011
   8 H :   -0.052641
   9 H :    0.028975
  10 H :   -0.028962
Sum of atomic charges:   -1.0000000

LOEWDIN ATOMIC CHARGES
----------------------
   0 C :    0.076927
   1 C :   -0.120258
   2 H :   -0.010459
   3 C :   -0.216808
   4 H :   -0.001852
   5 O :   -0.555636
   6 H :   -0.033838
   7 H :   -0.027048
   8 H :   -0.048926
   9 H :   -0.033286
  10 H :   -0.028817

  Mayer bond orders larger than 0.100000
B(  0-C ,  1-C ) :   1.2777 B(  0-C ,  8-H ) :   0.8293 B(  0-C ,  9-H ) :   0.8430
B(  0-C , 10-H ) :   0.8547 B(  1-C ,  2-H ) :   1.0208 B(  1-C ,  3-C ) :   1.0657
B(  1-C ,  4-H ) :   0.9785 B(  1-C ,  5-O ) :   0.1141 B(  1-C ,  6-H ) :   0.1368
B(  1-C ,  7-H ) :   0.1358 B(  1-C ,  8-H ) :   0.1782 B(  1-C ,  9-H ) :   0.1898
B(  1-C , 10-H ) :   0.1888 B(  3-C ,  5-O ) :   1.0932 B(  3-C ,  6-H ) :   0.9706
B(  3-C ,  7-H ) :   0.9603

Dispersion correction           -0.005486111
FINAL SINGLE POINT ENERGY      -193.384265716056

DIPOLE MOMENT
-------------
                                X             Y             Z
Electronic contribution:      1.28283      -0.56004       2.54111
Nuclear contribution   :     -2.20255       0.75707      -4.26861
                        -----------------------------------------
Total Dipole Moment    :     -0.91973       0.19703      -1.72750
                        -----------------------------------------
Magnitude (a.u.)       :      1.96697
Magnitude (Debye)      :      4.99965

Rotational constants in cm-1:     0.480704     0.187939     0.150770
Rotational constants in MHz : 14411.155440  5634.276828  4519.982802

                             ****ORCA TERMINATED NORMALLY****
TOTAL RUN TIME: 0 days 0 hours 0 minutes 10 seconds 652 msec
