                         Program Version 5.0.0 -  RELEASE  -
|  1> !PBE0 D3BJ RIJCOSX def2-SVPD def2/J TightSCF
|  2> *xyz 0 1
|  3> C         -0.81136       -2.90878       -4.60763
|  4> C         -1.91658       -2.48508       -3.64367
|  5> H         -2.55452       -1.71243       -4.09199
|  6> C         -1.36353       -1.98134       -2.29361
|  7> H         -2.55345       -3.35567       -3.45881
|  8> F         -0.35039       -2.74969       -1.79601
|  9> H         -2.22622       -1.90839       -1.60204
| 10> H         -1.05135       -0.91567       -2.44333
| 11> H         -1.24783       -3.24801       -5.52377
| 12> H         -0.24047       -3.70079       -4.16978
| 13> H         -0.17107       -2.07453       -4.80501
| 14> *
| 15>
| 16> %MaxCore 64000
| 17> %pal nprocs 4
| 18> end
| 19>
| 20> %scf
| 21>   MaxIter 150
| 22> end
| 23>
| 24>
| 25>                          ****END OF INPUT****

CARTESIAN COORDINATES (ANGSTROEM)
---------------------------------
  C     -0.811360   -2.908780   -4.607630
  C     -1.916580   -2.485080   -3.643670
  H     -2.554520   -1.712430   -4.091990
  C     -1.363530   -1.981340   -2.293610
  H     -2.553450   -3.355670   -3.458810
  F     -0.350390   -2.749690   -1.796010
  H     -2.226220   -1.908390   -1.602040
  H     -1.051350   -0.915670   -2.443330
  H     -1.247830   -3.248010   -5.523770
  H     -0.240470   -3.700790   -4.169780
  H     -0.171070   -2.074530   -4.805010

 Total Charge           Charge          ....    0
 Multiplicity           Mult            ....    1
 Number of Electrons    NEL             ....   34
 Basis Dimension        Dim             ....  139

ORBITAL ENERGIES
----------------

  NO   OCC          E(Eh)            E(eV)
   0   2.0000     -24.775069      -674.1639
   1   2.0000     -10.311774      -280.5976
   2   2.0000     -10.239948      -278.6431
   3   2.0000     -10.218291      -278.0538
   4   2.0000      -1.219370       -33.1807
   5   2.0000      -0.805558       -21.9204
   6   2.0000      -0.705747       -19.2043
   7   2.0000      -0.610267       -16.6062
   8   2.0000      -0.527559       -14.3556
   9   2.0000      -0.511578       -13.9208
  10   2.0000      -0.491333       -13.3698
  11   2.0000      -0.451356       -12.2820
  12   2.0000      -0.413357       -11.2480
  13   2.0000      -0.387728       -10.5506
  14   2.0000      -0.369682       -10.0596
  15   2.0000      -0.340726        -9.2716
  16   2.0000      -0.334357        -9.0983
  17   0.0000       0.027730         0.7546
  18   0.0000       0.053720         1.4618
  19   0.0000       0.064743         1.7617
  20   0.0000       0.078217         2.1284
  21   0.0000       0.099191         2.6991

MULLIKEN ATOMIC CHARGES
-----------------------
   0 C :    0.477167
   1 C :   -0.651643
   2 H :   -0.012322
   3 C :    0.673642
   4 H :    0.007226
   5 F :   -0.479073
   6 H :   -0.029135
   7 H :    0.023699
   8 H :   -0.026214
   9 H :    0.030717
  10 H :   -0.014063
Sum of atomic charges:   -0.0000000

LOEWDIN ATOMIC CHARGES
----------------------
   0 C :    0.114346
   1 C :   -0.071881
   2 H :    0.028520
   3 C :    0.099566
   4 H :    0.021141
   5 F :   -0.214079
   6 H :    0.029841
   7 H :    0.038670
   8 H :   -0.017407
   9 H :   -0.015527
  10 H :   -0.013190

  Mayer bond orders larger than 0.100000
B(  0-C ,  1-C ) :   1.3075 B(  0-C ,  8-H ) :   0.8491 B(  0-C ,  9-H ) :   0.8459
B(  0-C , 10-H ) :   0.8520 B(  1-C ,  2-H ) :   0.9854 B(  1-C ,  3-C ) :   1.1911
B(  1-C ,  4-H ) :   0.9631 B(  1-C ,  7-H ) :   0.1058 B(  1-C ,  8-H ) :   0.1650
B(  1-C ,  9-H ) :   0.1580 B(  1-C , 10-H ) :   0.1667 B(  3-C ,  5-F ) :   0.6771
B(  3-C ,  6-H ) :   0.9318 B(  3-C ,  7-H ) :   0.9083

Dispersion correction           -0.005166859
FINAL SINGLE POINT ENERGY      -217.981701188152

DIPOLE MOMENT
-------------
                                X             Y             Z
Electronic contribution:      2.59117      -0.70014       5.47976
Nuclear contribution   :     -3.10989       1.02097      -5.82098
                        -----------------------------------------
Total Dipole Moment    :     -0.51872       0.32083      -0.34121
                        -----------------------------------------
Magnitude (a.u.)       :      0.69888
Magnitude (Debye)      :      1.77640

Rotational constants in cm-1:     0.466172     0.177379     0.142652
Rotational constants in MHz : 13975.492374  5317.681709  4276.599690

                             ****ORCA TERMINATED NORMALLY****
TOTAL RUN TIME: 0 days 0 hours 0 minutes 8 seconds 604 msec
