                         Program Version 5.0.0 -  RELEASE  -
|  1> !PBE0 D3BJ RIJCOSX def2-SVPD def2/J TightSCF
|  2> *xyz 0 1
|  3> C          1.64703       -2.34528       -5.02041
|  4> C          0.21763       -1.81402       -4.92439
|  5> C          2.20996       -2.81239       -3.66571
|  6> H          2.30838       -1.58870       -5.45713
|  7> H          1.67429       -3.20348       -5.69739
|  8> C          2.48901       -1.66851       -2.73754
|  9> C          3.59631       -0.94761       -2.95225
| 10> N          1.66394       -1.41369       -1.77781
| 11> H          0.81164       -1.96318       -1.70275
| 12> H          1.84550       -0.63508       -1.15875
| 13> H          4.20535       -1.17600       -3.73383
| 14> H          3.81723       -0.12585       -2.40604
| 15> H          3.14311       -3.36280       -3.81152
| 16> H          1.48768       -3.45893       -3.16521
| 17> H         -0.11459       -1.50684       -5.89401
| 18> H          0.19193       -0.97796       -4.25713
| 19> H         -0.42543       -2.58523       -4.55479
| 20> *
| 21>
| 22> %MaxCore 64000
| 23> %pal nprocs 4
| 24> end
| 25>
| 26> %scf
| 27>   MaxIter 150
| 28> end
| 29>
| 30>
| 31>                          ****END OF INPUT****

CARTESIAN COORDINATES (ANGSTROEM)
---------------------------------
  C      1.647030   -2.345280   -5.020410
  C      0.217630   -1.814020   -4.924390
  C      2.209960   -2.812390   -3.665710
  H      2.308380   -1.588700   -5.457130
  H      1.674290   -3.203480   -5.697390
  C      2.489010   -1.668510   -2.737540
  C      3.596310   -0.947610   -2.952250
  N      1.663940   -1.413690   -1.777810
  H      0.811640   -1.963180   -1.702750
  H      1.845500   -0.635080   -1.158750
  H      4.205350   -1.176000   -3.733830
  H      3.817230   -0.125850   -2.406040
  H      3.143110   -3.362800   -3.811520
  H      1.487680   -3.458930   -3.165210
  H     -0.114590   -1.506840   -5.894010
  H      0.191930   -0.977960   -4.257130
  H     -0.425430   -2.585230   -4.554790

 Total Charge           Charge          ....    0
 Multiplicity           Mult            ....    1
 Number of Electrons    NEL             ....   48
 Basis Dimension        Dim             ....  208

ORBITAL ENERGIES
----------------

  NO   OCC          E(Eh)            E(eV)
   0   2.0000     -14.402523      -391.9126
   1   2.0000     -10.252673      -278.9894
   2   2.0000     -10.231191      -278.4049
   3   2.0000     -10.228750      -278.3384
   4   2.0000     -10.214456      -277.9495
   5   2.0000     -10.162112      -276.5251
   6   2.0000      -0.958820       -26.0908
   7   2.0000      -0.810651       -22.0589
   8   2.0000      -0.746235       -20.3061
   9   2.0000      -0.693965       -18.8838
  10   2.0000      -0.622239       -16.9320
  11   2.0000      -0.578268       -15.7355
  12   2.0000      -0.545485       -14.8434
  13   2.0000      -0.499258       -13.5855
  14   2.0000      -0.466637       -12.6979
  15   2.0000      -0.444134       -12.0855
  16   2.0000      -0.417965       -11.3734
  17   2.0000      -0.403966       -10.9925
  18   2.0000      -0.385351       -10.4859
  19   2.0000      -0.370719       -10.0878
  20   2.0000      -0.350861        -9.5474
  21   2.0000      -0.340051        -9.2533
  22   2.0000      -0.336048        -9.1443
  23   2.0000      -0.194580        -5.2948
  24   0.0000       0.022484         0.6118
  25   0.0000       0.043309         1.1785
  26   0.0000       0.052650         1.4327
  27   0.0000       0.057489         1.5644
  28   0.0000       0.072557         1.9744

MULLIKEN ATOMIC CHARGES
-----------------------
   0 C :   -0.469782
   1 C :    0.551455
   2 C :    0.141380
   3 H :    0.023748
   4 H :   -0.027120
   5 C :   -0.000792
   6 C :    0.368272
   7 N :    0.027926
   8 H :   -0.031721
   9 H :   -0.126118
  10 H :   -0.080165
  11 H :   -0.428901
  12 H :    0.067097
  13 H :    0.003009
  14 H :   -0.036211
  15 H :   -0.044304
  16 H :    0.062227
Sum of atomic charges:    0.0000000

LOEWDIN ATOMIC CHARGES
----------------------
   0 C :   -0.067171
   1 C :    0.115822
   2 C :    0.001957
   3 H :    0.022092
   4 H :    0.017791
   5 C :   -0.266233
   6 C :    0.170622
   7 N :    0.166837
   8 H :    0.010231
   9 H :    0.017598
  10 H :   -0.080634
  11 H :   -0.092212
  12 H :    0.029188
  13 H :    0.014386
  14 H :   -0.018514
  15 H :   -0.023362
  16 H :   -0.018396

  Mayer bond orders larger than 0.100000
B(  0-C ,  1-C ) :   1.3259 B(  0-C ,  2-C ) :   1.1819 B(  0-C ,  3-H ) :   0.9569
B(  0-C ,  4-H ) :   0.9895 B(  0-C , 13-H ) :   0.1358 B(  0-C , 14-H ) :   0.1899
B(  0-C , 15-H ) :   0.2018 B(  0-C , 16-H ) :   0.1843 B(  1-C , 14-H ) :   0.8138
B(  1-C , 15-H ) :   0.8606 B(  1-C , 16-H ) :   0.8028 B(  2-C ,  3-H ) :   0.1348
B(  2-C ,  5-C ) :   1.0612 B(  2-C ,  6-C ) :   0.1590 B(  2-C ,  7-N ) :   0.1245
B(  2-C , 12-H ) :   0.8735 B(  2-C , 13-H ) :   0.7759 B(  5-C ,  6-C ) :   1.7730
B(  5-C ,  7-N ) :   1.0685 B(  5-C ,  9-H ) :  -0.1076 B(  5-C , 11-H ) :   0.1692
B(  5-C , 12-H ) :   0.1054 B(  5-C , 13-H ) :   0.1587 B(  6-C ,  7-N ) :   0.2743
B(  6-C , 10-H ) :   0.8596 B(  6-C , 11-H ) :   0.8210 B(  7-N ,  8-H ) :   1.0725
B(  7-N ,  9-H ) :   1.2603 B(  8-H ,  9-H ) :  -0.1476

Dispersion correction           -0.012004594
FINAL SINGLE POINT ENERGY      -251.411495228525

DIPOLE MOMENT
-------------
                                X             Y             Z
Electronic contribution:      1.44148       0.28548       3.30252
Nuclear contribution   :     -2.15663      -0.43764      -3.01766
                        -----------------------------------------
Total Dipole Moment    :     -0.71516      -0.15216       0.28487
                        -----------------------------------------
Magnitude (a.u.)       :      0.78470
Magnitude (Debye)      :      1.99454

Rotational constants in cm-1:     0.184410     0.080989     0.069427
Rotational constants in MHz :  5528.462717  2427.993314  2081.376031

                             ****ORCA TERMINATED NORMALLY****
TOTAL RUN TIME: 0 days 0 hours 0 minutes 24 seconds 196 msec
