                         Program Version 5.0.0 -  RELEASE  -
|  1> !PBE0 D3BJ RIJCOSX def2-SVPD def2/J TightSCF
|  2> *xyz 0 1
|  3> C          1.64703       -2.34528       -5.02041
|  4> C          0.21763       -1.81402       -4.92439
|  5> C          2.20996       -2.81239       -3.66571
|  6> H          2.30838       -1.58870       -5.45713
|  7> H          1.67429       -3.20348       -5.69739
|  8> C          2.48901       -1.66851       -2.73754
|  9> N          3.59631       -0.94761       -2.95225
| 10> C          1.66394       -1.41369       -1.77781
| 11> H          0.81164       -1.96318       -1.70275
| 12> H          1.84550       -0.63508       -1.15875
| 13> H          4.20535       -1.17600       -3.73383
| 14> H          3.81723       -0.12585       -2.40604
| 15> H          3.14311       -3.36280       -3.81152
| 16> H          1.48768       -3.45893       -3.16521
| 17> H         -0.11459       -1.50684       -5.89401
| 18> H          0.19193       -0.97796       -4.25713
| 19> H         -0.42543       -2.58523       -4.55479
| 20> *
| 21>
| 22> %MaxCore 64000
| 23> %pal nprocs 4
| 24> end
| 25>
| 26> %scf
| 27>   MaxIter 150
| 28> end
| 29>
| 30>
| 31>                          ****END OF INPUT****

CARTESIAN COORDINATES (ANGSTROEM)
---------------------------------
  C      1.647030   -2.345280   -5.020410
  C      0.217630   -1.814020   -4.924390
  C      2.209960   -2.812390   -3.665710
  H      2.308380   -1.588700   -5.457130
  H      1.674290   -3.203480   -5.697390
  C      2.489010   -1.668510   -2.737540
  N      3.596310   -0.947610   -2.952250
  C      1.663940   -1.413690   -1.777810
  H      0.811640   -1.963180   -1.702750
  H      1.845500   -0.635080   -1.158750
  H      4.205350   -1.176000   -3.733830
  H      3.817230   -0.125850   -2.406040
  H      3.143110   -3.362800   -3.811520
  H      1.487680   -3.458930   -3.165210
  H     -0.114590   -1.506840   -5.894010
  H      0.191930   -0.977960   -4.257130
  H     -0.425430   -2.585230   -4.554790

 Total Charge           Charge          ....    0
 Multiplicity           Mult            ....    1
 Number of Electrons    NEL             ....   48
 Basis Dimension        Dim             ....  208

ORBITAL ENERGIES
----------------

  NO   OCC          E(Eh)            E(eV)
   0   2.0000     -14.395782      -391.7292
   1   2.0000     -10.249626      -278.9065
   2   2.0000     -10.229955      -278.3712
   3   2.0000     -10.229483      -278.3584
   4   2.0000     -10.208985      -277.8006
   5   2.0000     -10.165561      -276.6190
   6   2.0000      -0.939736       -25.5715
   7   2.0000      -0.809762       -22.0347
   8   2.0000      -0.753542       -20.5049
   9   2.0000      -0.698603       -19.0100
  10   2.0000      -0.610619       -16.6158
  11   2.0000      -0.579525       -15.7697
  12   2.0000      -0.536450       -14.5976
  13   2.0000      -0.491005       -13.3609
  14   2.0000      -0.461316       -12.5530
  15   2.0000      -0.456048       -12.4097
  16   2.0000      -0.412620       -11.2280
  17   2.0000      -0.404001       -10.9934
  18   2.0000      -0.385032       -10.4773
  19   2.0000      -0.375547       -10.2192
  20   2.0000      -0.347935        -9.4678
  21   2.0000      -0.333944        -9.0871
  22   2.0000      -0.330795        -9.0014
  23   2.0000      -0.206826        -5.6280
  24   0.0000       0.023769         0.6468
  25   0.0000       0.046173         1.2564
  26   0.0000       0.051873         1.4115
  27   0.0000       0.059022         1.6061
  28   0.0000       0.077478         2.1083

MULLIKEN ATOMIC CHARGES
-----------------------
   0 C :   -0.395825
   1 C :    0.565562
   2 C :    0.067636
   3 H :   -0.007473
   4 H :   -0.014023
   5 C :    0.066438
   6 N :   -0.039708
   7 C :    0.326536
   8 H :   -0.014752
   9 H :   -0.373541
  10 H :   -0.090339
  11 H :   -0.162752
  12 H :   -0.050868
  13 H :    0.137219
  14 H :   -0.033503
  15 H :   -0.031482
  16 H :    0.050874
Sum of atomic charges:    0.0000000

LOEWDIN ATOMIC CHARGES
----------------------
   0 C :   -0.071664
   1 C :    0.119154
   2 C :    0.000290
   3 H :    0.016122
   4 H :    0.017163
   5 C :   -0.263478
   6 N :    0.168011
   7 C :    0.166228
   8 H :   -0.068186
   9 H :   -0.075837
  10 H :   -0.000316
  11 H :    0.003140
  12 H :    0.022037
  13 H :    0.024038
  14 H :   -0.019770
  15 H :   -0.022482
  16 H :   -0.014450

  Mayer bond orders larger than 0.100000
B(  0-C ,  1-C ) :   1.3199 B(  0-C ,  2-C ) :   1.1525 B(  0-C ,  3-H ) :   0.9272
B(  0-C ,  4-H ) :   0.9554 B(  0-C , 13-H ) :   0.1134 B(  0-C , 14-H ) :   0.1931
B(  0-C , 15-H ) :   0.2043 B(  0-C , 16-H ) :   0.1844 B(  1-C , 14-H ) :   0.8106
B(  1-C , 15-H ) :   0.8629 B(  1-C , 16-H ) :   0.8024 B(  2-C ,  3-H ) :   0.1393
B(  2-C ,  4-H ) :   0.1014 B(  2-C ,  5-C ) :   1.0953 B(  2-C ,  6-N ) :   0.1283
B(  2-C ,  7-C ) :   0.1439 B(  2-C , 12-H ) :   0.9304 B(  2-C , 13-H ) :   0.8155
B(  5-C ,  6-N ) :   1.0404 B(  5-C ,  7-C ) :   1.7969 B(  5-C ,  8-H ) :   0.1398
B(  5-C ,  9-H ) :   0.2680 B(  5-C , 12-H ) :   0.1328 B(  5-C , 13-H ) :   0.1049
B(  6-N ,  7-C ) :   0.2414 B(  6-N , 10-H ) :   1.1650 B(  6-N , 11-H ) :   1.2680
B(  7-C ,  8-H ) :   0.9278 B(  7-C ,  9-H ) :   0.6881 B( 10-H , 11-H ) :  -0.1495

Dispersion correction           -0.012019897
FINAL SINGLE POINT ENERGY      -251.415311475795

DIPOLE MOMENT
-------------
                                X             Y             Z
Electronic contribution:      3.12648       0.70614       2.30679
Nuclear contribution   :     -2.61370      -0.54788      -2.73987
                        -----------------------------------------
Total Dipole Moment    :      0.51278       0.15826      -0.43307
                        -----------------------------------------
Magnitude (a.u.)       :      0.68959
Magnitude (Debye)      :      1.75281

Rotational constants in cm-1:     0.186678     0.079942     0.069329
Rotational constants in MHz :  5596.476267  2396.611465  2078.426257

                             ****ORCA TERMINATED NORMALLY****
TOTAL RUN TIME: 0 days 0 hours 0 minutes 22 seconds 957 msec
