                         Program Version 5.0.0 -  RELEASE  -
|  1> !PBE0 D3BJ RIJCOSX def2-TZVP def2/J TightSCF
|  2> *xyz -1 1
|  3> C         -0.91495        0.61511        2.50554
|  4> C         -0.05915        1.50352        3.41058
|  5> H          0.36536        2.34431        2.86116
|  6> H         -0.69226        1.92021        4.19898
|  7> C          1.08303        0.74964        4.08571
|  8> O          2.22817        1.26348        4.01983
|  9> O          0.81003       -0.34541        4.63627
| 10> H         -0.30401        0.20228        1.73015
| 11> H         -1.69811        1.19946        2.06954
| 12> H         -1.34124       -0.17772        3.08397
| 13> *
| 14>
| 15> %MaxCore 64000
| 16>
| 17> %pal nprocs 4
| 18> end
| 19>
| 20> %scf
| 21>   MaxIter 150
| 22> end
| 23>
| 24>
| 25>                          ****END OF INPUT****

CARTESIAN COORDINATES (ANGSTROEM)
---------------------------------
  C     -0.914950    0.615110    2.505540
  C     -0.059150    1.503520    3.410580
  H      0.365360    2.344310    2.861160
  H     -0.692260    1.920210    4.198980
  C      1.083030    0.749640    4.085710
  O      2.228170    1.263480    4.019830
  O      0.810030   -0.345410    4.636270
  H     -0.304010    0.202280    1.730150
  H     -1.698110    1.199460    2.069540
  H     -1.341240   -0.177720    3.083970

 Total Charge           Charge          ....   -1
 Multiplicity           Mult            ....    1
 Number of Electrons    NEL             ....   40
 Basis Dimension        Dim             ....  185

ORBITAL ENERGIES
----------------

  NO   OCC          E(Eh)            E(eV)
   0   2.0000     -18.927882      -515.0539
   1   2.0000     -18.926718      -515.0222
   2   2.0000     -10.090543      -274.5776
   3   2.0000     -10.051067      -273.5034
   4   2.0000     -10.040294      -273.2103
   5   2.0000      -0.838371       -22.8132
   6   2.0000      -0.744406       -20.2563
   7   2.0000      -0.623329       -16.9616
   8   2.0000      -0.488996       -13.3063
   9   2.0000      -0.329892        -8.9768
  10   2.0000      -0.301949        -8.2165
  11   2.0000      -0.269122        -7.3232
  12   2.0000      -0.237664        -6.4672
  13   2.0000      -0.221398        -6.0245
  14   2.0000      -0.213834        -5.8187
  15   2.0000      -0.184029        -5.0077
  16   2.0000      -0.165792        -4.5114
  17   2.0000      -0.050978        -1.3872
  18   2.0000      -0.044382        -1.2077
  19   2.0000      -0.030985        -0.8431
  20   0.0000       0.193414         5.2631
  21   0.0000       0.235301         6.4029
  22   0.0000       0.252053         6.8587
  23   0.0000       0.258556         7.0357
  24   0.0000       0.270324         7.3559

MULLIKEN ATOMIC CHARGES
-----------------------
   0 C :   -0.333702
   1 C :   -0.143975
   2 H :    0.048835
   3 H :    0.041396
   4 C :    0.204219
   5 O :   -0.535198
   6 O :   -0.535738
   7 H :    0.090718
   8 H :    0.061109
   9 H :    0.102336
Sum of atomic charges:   -1.0000000

LOEWDIN ATOMIC CHARGES
----------------------
   0 C :   -0.330572
   1 C :   -0.296760
   2 H :    0.120067
   3 H :    0.123517
   4 C :   -0.705935
   5 O :   -0.114651
   6 O :   -0.111044
   7 H :    0.109169
   8 H :    0.093626
   9 H :    0.112584

  Mayer bond orders larger than 0.100000
B(  0-C ,  1-C ) :   0.9761 B(  0-C ,  7-H ) :   0.9793 B(  0-C ,  8-H ) :   0.9662
B(  0-C ,  9-H ) :   0.9677 B(  1-C ,  2-H ) :   0.9492 B(  1-C ,  3-H ) :   0.9484
B(  1-C ,  4-C ) :   0.9610 B(  4-C ,  5-O ) :   1.8753 B(  4-C ,  6-O ) :   1.8398

Dispersion correction           -0.005454149
FINAL SINGLE POINT ENERGY      -267.642634550153

DIPOLE MOMENT
-------------
                                X             Y             Z
Electronic contribution:      4.81723      -1.03795       3.41213
Nuclear contribution   :     -6.38408       1.63097      -4.40540
                        -----------------------------------------
Total Dipole Moment    :     -1.56685       0.59302      -0.99327
                        -----------------------------------------
Magnitude (a.u.)       :      1.94763
Magnitude (Debye)      :      4.95048

Rotational constants in cm-1:     0.319732     0.134414     0.104753
Rotational constants in MHz :  9585.336550  4029.633034  3140.404334

                             ****ORCA TERMINATED NORMALLY****
TOTAL RUN TIME: 0 days 0 hours 0 minutes 19 seconds 654 msec
