                         Program Version 5.0.0 -  RELEASE  -
|  1> !PBE0 D3BJ RIJCOSX def2-TZVP def2/J TightSCF
|  2> *xyz 1 1
|  3> C          4.60295       -2.44010        2.63478
|  4> C          3.86085       -1.59157        3.62289
|  5> N          2.75650       -2.04616        4.16633
|  6> N          4.25433       -0.36291        3.86046
|  7> H          3.56526        0.31099        4.16898
|  8> H          5.05429       -0.01606        3.33784
|  9> H          2.43970       -2.97389        3.89740
| 10> H          2.06687       -1.41253        4.54981
| 11> C          3.74469       -2.58056        1.36188
| 12> H          5.56156       -1.97135        2.40708
| 13> H          4.81050       -3.42255        3.06310
| 14> H          4.26314       -3.18477        0.64702
| 15> H          3.56325       -1.61180        0.94535
| 16> H          2.81197       -3.04259        1.60980
| 17> *
| 18>
| 19> %MaxCore 64000
| 20>
| 21> %pal nprocs 4
| 22> end
| 23>
| 24> %scf
| 25>   MaxIter 150
| 26> end
| 27>
| 28>
| 29>                          ****END OF INPUT****

CARTESIAN COORDINATES (ANGSTROEM)
---------------------------------
  C      4.602950   -2.440100    2.634780
  C      3.860850   -1.591570    3.622890
  N      2.756500   -2.046160    4.166330
  N      4.254330   -0.362910    3.860460
  H      3.565260    0.310990    4.168980
  H      5.054290   -0.016060    3.337840
  H      2.439700   -2.973890    3.897400
  H      2.066870   -1.412530    4.549810
  C      3.744690   -2.580560    1.361880
  H      5.561560   -1.971350    2.407080
  H      4.810500   -3.422550    3.063100
  H      4.263140   -3.184770    0.647020
  H      3.563250   -1.611800    0.945350
  H      2.811970   -3.042590    1.609800

 Total Charge           Charge          ....    1
 Multiplicity           Mult            ....    1
 Number of Electrons    NEL             ....   40
 Basis Dimension        Dim             ....  209

ORBITAL ENERGIES
----------------

  NO   OCC          E(Eh)            E(eV)
   0   2.0000     -14.628963      -398.0743
   1   2.0000     -14.628021      -398.0487
   2   2.0000     -10.543637      -286.9070
   3   2.0000     -10.424176      -283.6563
   4   2.0000     -10.381019      -282.4819
   5   2.0000      -1.236570       -33.6488
   6   2.0000      -1.137211       -30.9451
   7   2.0000      -0.995806       -27.0972
   8   2.0000      -0.882280       -24.0081
   9   2.0000      -0.835615       -22.7383
  10   2.0000      -0.789215       -21.4756
  11   2.0000      -0.770405       -20.9638
  12   2.0000      -0.712575       -19.3902
  13   2.0000      -0.678871       -18.4730
  14   2.0000      -0.640471       -17.4281
  15   2.0000      -0.615500       -16.7486
  16   2.0000      -0.563579       -15.3358
  17   2.0000      -0.556515       -15.1435
  18   2.0000      -0.543891       -14.8000
  19   2.0000      -0.508585       -13.8393
  20   0.0000      -0.210048        -5.7157
  21   0.0000      -0.150885        -4.1058
  22   0.0000      -0.105956        -2.8832
  23   0.0000      -0.103979        -2.8294
  24   0.0000      -0.072931        -1.9846

MULLIKEN ATOMIC CHARGES
-----------------------
   0 C :   -0.245803
   1 C :    0.303863
   2 N :   -0.342737
   3 N :   -0.331928
   4 H :    0.283859
   5 H :    0.300991
   6 H :    0.302306
   7 H :    0.286408
   8 C :   -0.348356
   9 H :    0.149505
  10 H :    0.184016
  11 H :    0.181291
  12 H :    0.145923
  13 H :    0.130663
Sum of atomic charges:    1.0000000

LOEWDIN ATOMIC CHARGES
----------------------
   0 C :   -0.219192
   1 C :   -0.301123
   2 N :    0.116534
   3 N :    0.115207
   4 H :    0.201381
   5 H :    0.211324
   6 H :    0.211183
   7 H :    0.200826
   8 C :   -0.259674
   9 H :    0.159865
  10 H :    0.168407
  11 H :    0.141311
  12 H :    0.130556
  13 H :    0.123397

  Mayer bond orders larger than 0.100000
B(  0-C ,  1-C ) :   1.0182 B(  0-C ,  8-C ) :   0.9720 B(  0-C ,  9-H ) :   0.9520
B(  0-C , 10-H ) :   0.9364 B(  1-C ,  2-N ) :   1.4533 B(  1-C ,  3-N ) :   1.4726
B(  2-N ,  6-H ) :   0.8841 B(  2-N ,  7-H ) :   0.8843 B(  3-N ,  4-H ) :   0.8845
B(  3-N ,  5-H ) :   0.8798 B(  8-C , 11-H ) :   0.9557 B(  8-C , 12-H ) :   0.9562
B(  8-C , 13-H ) :   0.9685

Dispersion correction           -0.008630278
FINAL SINGLE POINT ENERGY      -228.849178697578

DIPOLE MOMENT
-------------
                                X             Y             Z
Electronic contribution:     -0.24330       1.79662       3.72552
Nuclear contribution   :     -0.22400      -1.16268      -3.30447
                        -----------------------------------------
Total Dipole Moment    :     -0.46730       0.63394       0.42105
                        -----------------------------------------
Magnitude (a.u.)       :      0.89305
Magnitude (Debye)      :      2.26995

Rotational constants in cm-1:     0.258103     0.130571     0.102508
Rotational constants in MHz :  7737.732062  3914.431392  3073.119154

                             ****ORCA TERMINATED NORMALLY****
TOTAL RUN TIME: 0 days 0 hours 0 minutes 24 seconds 412 msec
