                         Program Version 5.0.0 -  RELEASE  -
|  1> !PBE0 D3BJ RIJCOSX def2-TZVP def2/J TightSCF
|  2> *xyz 0 1
|  3> C         -0.91495        0.61511        2.50554
|  4> C         -0.05915        1.50352        3.41058
|  5> H          0.36536        2.34431        2.86116
|  6> H         -0.69226        1.92021        4.19898
|  7> C          1.08303        0.74964        4.08571
|  8> F          2.22817        1.26348        4.01983
|  9> O          0.81003       -0.34541        4.63627
| 10> H         -0.30401        0.20228        1.73015
| 11> H         -1.69811        1.19946        2.06954
| 12> H         -1.34124       -0.17772        3.08397
| 13> *
| 14>
| 15> %MaxCore 64000
| 16>
| 17> %pal nprocs 4
| 18> end
| 19>
| 20> %scf
| 21>   MaxIter 150
| 22> end
| 23>
| 24>
| 25>                          ****END OF INPUT****

CARTESIAN COORDINATES (ANGSTROEM)
---------------------------------
  C     -0.914950    0.615110    2.505540
  C     -0.059150    1.503520    3.410580
  H      0.365360    2.344310    2.861160
  H     -0.692260    1.920210    4.198980
  C      1.083030    0.749640    4.085710
  F      2.228170    1.263480    4.019830
  O      0.810030   -0.345410    4.636270
  H     -0.304010    0.202280    1.730150
  H     -1.698110    1.199460    2.069540
  H     -1.341240   -0.177720    3.083970

 Total Charge           Charge          ....    0
 Multiplicity           Mult            ....    1
 Number of Electrons    NEL             ....   40
 Basis Dimension        Dim             ....  185

ORBITAL ENERGIES
----------------

  NO   OCC          E(Eh)            E(eV)
   0   2.0000     -24.839881      -675.9275
   1   2.0000     -19.209489      -522.7168
   2   2.0000     -10.397070      -282.9187
   3   2.0000     -10.253204      -279.0039
   4   2.0000     -10.222633      -278.1720
   5   2.0000      -1.350282       -36.7430
   6   2.0000      -1.060827       -28.8666
   7   2.0000      -0.823997       -22.4221
   8   2.0000      -0.712209       -19.3802
   9   2.0000      -0.656798       -17.8724
  10   2.0000      -0.564605       -15.3637
  11   2.0000      -0.551372       -15.0036
  12   2.0000      -0.525804       -14.3078
  13   2.0000      -0.480038       -13.0625
  14   2.0000      -0.448422       -12.2022
  15   2.0000      -0.411282       -11.1916
  16   2.0000      -0.390499       -10.6260
  17   2.0000      -0.387041       -10.5319
  18   2.0000      -0.359568        -9.7843
  19   2.0000      -0.306392        -8.3374
  20   0.0000      -0.023186        -0.6309
  21   0.0000       0.043994         1.1971
  22   0.0000       0.082821         2.2537
  23   0.0000       0.097738         2.6596
  24   0.0000       0.107990         2.9386

MULLIKEN ATOMIC CHARGES
-----------------------
   0 C :   -0.359587
   1 C :   -0.209917
   2 H :    0.116658
   3 H :    0.131348
   4 C :    0.358313
   5 F :   -0.095977
   6 O :   -0.336244
   7 H :    0.122615
   8 H :    0.127459
   9 H :    0.145331
Sum of atomic charges:    0.0000000

LOEWDIN ATOMIC CHARGES
----------------------
   0 C :   -0.289843
   1 C :   -0.264748
   2 H :    0.140577
   3 H :    0.157603
   4 C :   -0.500723
   5 F :    0.322832
   6 O :    0.065072
   7 H :    0.121586
   8 H :    0.120399
   9 H :    0.127246

  Mayer bond orders larger than 0.100000
B(  0-C ,  1-C ) :   0.9985 B(  0-C ,  7-H ) :   0.9732 B(  0-C ,  8-H ) :   0.9650
B(  0-C ,  9-H ) :   0.9650 B(  1-C ,  2-H ) :   0.9533 B(  1-C ,  3-H ) :   0.9302
B(  1-C ,  4-C ) :   1.0095 B(  4-C ,  5-F ) :   1.1656 B(  4-C ,  6-O ) :   2.0491

Dispersion correction           -0.005171926
FINAL SINGLE POINT ENERGY      -292.202184938764

DIPOLE MOMENT
-------------
                                X             Y             Z
Electronic contribution:      7.73898      -0.17583       4.10094
Nuclear contribution   :     -8.12386       1.06915      -4.71960
                        -----------------------------------------
Total Dipole Moment    :     -0.38489       0.89332      -0.61865
                        -----------------------------------------
Magnitude (a.u.)       :      1.15277
Magnitude (Debye)      :      2.93011

Rotational constants in cm-1:     0.309513     0.127560     0.099675
Rotational constants in MHz :  9278.979128  3824.146597  2988.174827

                             ****ORCA TERMINATED NORMALLY****
TOTAL RUN TIME: 0 days 0 hours 0 minutes 19 seconds 150 msec
