                         Program Version 5.0.0 -  RELEASE  -
|  1> !PBE0 D3BJ RIJCOSX def2-TZVP def2/J TightSCF
|  2> *xyz 0 1
|  3> C          4.60295       -2.44010        2.63478
|  4> C          3.86085       -1.59157        3.62289
|  5> C          2.75650       -2.04616        4.16633
|  6> N          4.25433       -0.36291        3.86046
|  7> H          3.56526        0.31099        4.16898
|  8> H          5.05429       -0.01606        3.33784
|  9> H          2.43970       -2.97389        3.89740
| 10> H          2.06687       -1.41253        4.54981
| 11> C          3.74469       -2.58056        1.36188
| 12> H          5.56156       -1.97135        2.40708
| 13> H          4.81050       -3.42255        3.06310
| 14> H          4.26314       -3.18477        0.64702
| 15> H          3.56325       -1.61180        0.94535
| 16> H          2.81197       -3.04259        1.60980
| 17> *
| 18>
| 19> %MaxCore 64000
| 20>
| 21> %pal nprocs 4
| 22> end
| 23>
| 24> %scf
| 25>   MaxIter 150
| 26> end
| 27>
| 28>
| 29>                          ****END OF INPUT****

CARTESIAN COORDINATES (ANGSTROEM)
---------------------------------
  C      4.602950   -2.440100    2.634780
  C      3.860850   -1.591570    3.622890
  C      2.756500   -2.046160    4.166330
  N      4.254330   -0.362910    3.860460
  H      3.565260    0.310990    4.168980
  H      5.054290   -0.016060    3.337840
  H      2.439700   -2.973890    3.897400
  H      2.066870   -1.412530    4.549810
  C      3.744690   -2.580560    1.361880
  H      5.561560   -1.971350    2.407080
  H      4.810500   -3.422550    3.063100
  H      4.263140   -3.184770    0.647020
  H      3.563250   -1.611800    0.945350
  H      2.811970   -3.042590    1.609800

 Total Charge           Charge          ....    0
 Multiplicity           Mult            ....    1
 Number of Electrons    NEL             ....   40
 Basis Dimension        Dim             ....  209

ORBITAL ENERGIES
----------------

  NO   OCC          E(Eh)            E(eV)
   0   2.0000     -14.382611      -391.3707
   1   2.0000     -10.237996      -278.5900
   2   2.0000     -10.223237      -278.1884
   3   2.0000     -10.204119      -277.6682
   4   2.0000     -10.146404      -276.0977
   5   2.0000      -0.959808       -26.1177
   6   2.0000      -0.805144       -21.9091
   7   2.0000      -0.733754       -19.9665
   8   2.0000      -0.659085       -17.9346
   9   2.0000      -0.579275       -15.7629
  10   2.0000      -0.539249       -14.6737
  11   2.0000      -0.496593       -13.5130
  12   2.0000      -0.461169       -12.5491
  13   2.0000      -0.425424       -11.5764
  14   2.0000      -0.400953       -10.9105
  15   2.0000      -0.389836       -10.6080
  16   2.0000      -0.364745        -9.9252
  17   2.0000      -0.353908        -9.6303
  18   2.0000      -0.339764        -9.2454
  19   2.0000      -0.199128        -5.4185
  20   0.0000       0.035487         0.9656
  21   0.0000       0.044950         1.2231
  22   0.0000       0.079814         2.1719
  23   0.0000       0.084103         2.2886
  24   0.0000       0.098517         2.6808

MULLIKEN ATOMIC CHARGES
-----------------------
   0 C :   -0.204078
   1 C :    0.186791
   2 C :   -0.415863
   3 N :   -0.450720
   4 H :    0.236281
   5 H :    0.228888
   6 H :    0.098795
   7 H :    0.088583
   8 C :   -0.332870
   9 H :    0.087430
  10 H :    0.124840
  11 H :    0.115429
  12 H :    0.112429
  13 H :    0.124067
Sum of atomic charges:   -0.0000000

LOEWDIN ATOMIC CHARGES
----------------------
   0 C :   -0.238293
   1 C :   -0.379605
   2 C :   -0.277694
   3 N :    0.002778
   4 H :    0.174915
   5 H :    0.169390
   6 H :    0.108162
   7 H :    0.099241
   8 C :   -0.290537
   9 H :    0.132417
  10 H :    0.147848
  11 H :    0.113225
  12 H :    0.117991
  13 H :    0.120161

  Mayer bond orders larger than 0.100000
B(  0-C ,  1-C ) :   0.9717 B(  0-C ,  8-C ) :   0.9841 B(  0-C ,  9-H ) :   0.9652
B(  0-C , 10-H ) :   0.9746 B(  1-C ,  2-C ) :   1.7853 B(  1-C ,  3-N ) :   1.1769
B(  2-C ,  6-H ) :   0.9910 B(  2-C ,  7-H ) :   0.9801 B(  3-N ,  4-H ) :   0.9115
B(  3-N ,  5-H ) :   0.9185 B(  8-C , 11-H ) :   0.9671 B(  8-C , 12-H ) :   0.9723
B(  8-C , 13-H ) :   0.9727

Dispersion correction           -0.008988350
FINAL SINGLE POINT ENERGY      -212.383866791359

DIPOLE MOMENT
-------------
                                X             Y             Z
Electronic contribution:      0.82269       1.80694       2.54128
Nuclear contribution   :     -0.47010      -1.22282      -3.06417
                        -----------------------------------------
Total Dipole Moment    :      0.35258       0.58412      -0.52289
                        -----------------------------------------
Magnitude (a.u.)       :      0.85961
Magnitude (Debye)      :      2.18494

Rotational constants in cm-1:     0.271862     0.131962     0.105499
Rotational constants in MHz :  8150.219120  3956.123671  3162.785522

                             ****ORCA TERMINATED NORMALLY****
TOTAL RUN TIME: 0 days 0 hours 0 minutes 26 seconds 123 msec
