                         Program Version 5.0.0 -  RELEASE  -
|  1> !PBE0 D3BJ RIJCOSX def2-TZVP def2/J TightSCF
|  2> *xyz 0 1
|  3> C         -0.91495        0.61511        2.50554
|  4> C         -0.05915        1.50352        3.41058
|  5> H          0.36536        2.34431        2.86116
|  6> H         -0.69226        1.92021        4.19898
|  7> C          1.08303        0.74964        4.08571
|  8> O          2.22817        1.26348        4.01983
|  9> F          0.81003       -0.34541        4.63627
| 10> H         -0.30401        0.20228        1.73015
| 11> H         -1.69811        1.19946        2.06954
| 12> H         -1.34124       -0.17772        3.08397
| 13> *
| 14>
| 15> %MaxCore 64000
| 16>
| 17> %pal nprocs 4
| 18> end
| 19>
| 20> %scf
| 21>   MaxIter 150
| 22> end
| 23>
| 24>
| 25>                          ****END OF INPUT****

CARTESIAN COORDINATES (ANGSTROEM)
---------------------------------
  C     -0.914950    0.615110    2.505540
  C     -0.059150    1.503520    3.410580
  H      0.365360    2.344310    2.861160
  H     -0.692260    1.920210    4.198980
  C      1.083030    0.749640    4.085710
  O      2.228170    1.263480    4.019830
  F      0.810030   -0.345410    4.636270
  H     -0.304010    0.202280    1.730150
  H     -1.698110    1.199460    2.069540
  H     -1.341240   -0.177720    3.083970

 Total Charge           Charge          ....    0
 Multiplicity           Mult            ....    1
 Number of Electrons    NEL             ....   40
 Basis Dimension        Dim             ....  185

ORBITAL ENERGIES
----------------

  NO   OCC          E(Eh)            E(eV)
   0   2.0000     -24.840914      -675.9556
   1   2.0000     -19.208364      -522.6862
   2   2.0000     -10.396340      -282.8988
   3   2.0000     -10.252601      -278.9875
   4   2.0000     -10.228036      -278.3190
   5   2.0000      -1.351671       -36.7808
   6   2.0000      -1.058825       -28.8121
   7   2.0000      -0.828214       -22.5368
   8   2.0000      -0.708048       -19.2670
   9   2.0000      -0.663762       -18.0619
  10   2.0000      -0.567286       -15.4366
  11   2.0000      -0.557998       -15.1839
  12   2.0000      -0.516593       -14.0572
  13   2.0000      -0.481224       -13.0948
  14   2.0000      -0.449400       -12.2288
  15   2.0000      -0.415858       -11.3161
  16   2.0000      -0.397097       -10.8056
  17   2.0000      -0.390639       -10.6298
  18   2.0000      -0.361395        -9.8340
  19   2.0000      -0.301110        -8.1936
  20   0.0000      -0.020213        -0.5500
  21   0.0000       0.039163         1.0657
  22   0.0000       0.082174         2.2361
  23   0.0000       0.099960         2.7200
  24   0.0000       0.110391         3.0039

MULLIKEN ATOMIC CHARGES
-----------------------
   0 C :   -0.364523
   1 C :   -0.206087
   2 H :    0.140071
   3 H :    0.122800
   4 C :    0.349186
   5 O :   -0.333904
   6 F :   -0.098298
   7 H :    0.130903
   8 H :    0.132383
   9 H :    0.127468
Sum of atomic charges:    0.0000000

LOEWDIN ATOMIC CHARGES
----------------------
   0 C :   -0.298406
   1 C :   -0.259881
   2 H :    0.153738
   3 H :    0.152326
   4 C :   -0.502565
   5 O :    0.061161
   6 F :    0.327407
   7 H :    0.122685
   8 H :    0.122407
   9 H :    0.121130

  Mayer bond orders larger than 0.100000
B(  0-C ,  1-C ) :   0.9837 B(  0-C ,  7-H ) :   0.9712 B(  0-C ,  8-H ) :   0.9655
B(  0-C ,  9-H ) :   0.9675 B(  1-C ,  2-H ) :   0.9567 B(  1-C ,  3-H ) :   0.9309
B(  1-C ,  4-C ) :   1.0271 B(  4-C ,  5-O ) :   2.0635 B(  4-C ,  6-F ) :   1.1559

Dispersion correction           -0.005136500
FINAL SINGLE POINT ENERGY      -292.201233381958

DIPOLE MOMENT
-------------
                                X             Y             Z
Electronic contribution:      5.35786      -2.83810       5.10825
Nuclear contribution   :     -6.57765       2.82334      -5.39171
                        -----------------------------------------
Total Dipole Moment    :     -1.21979      -0.01476      -0.28346
                        -----------------------------------------
Magnitude (a.u.)       :      1.25238
Magnitude (Debye)      :      3.18330

Rotational constants in cm-1:     0.294245     0.132994     0.101060
Rotational constants in MHz :  8821.228602  3987.049251  3029.696815

                             ****ORCA TERMINATED NORMALLY****
TOTAL RUN TIME: 0 days 0 hours 0 minutes 19 seconds 206 msec
