                         Program Version 5.0.0 -  RELEASE  -
|  1> !PBE0 D3BJ RIJCOSX def2-TZVP def2/J TightSCF
|  2> *xyz 0 1
|  3> C          4.60295       -2.44010        2.63478
|  4> C          3.86085       -1.59157        3.62289
|  5> N          2.75650       -2.04616        4.16633
|  6> C          4.25433       -0.36291        3.86046
|  7> H          3.56526        0.31099        4.16898
|  8> H          5.05429       -0.01606        3.33784
|  9> H          2.43970       -2.97389        3.89740
| 10> H          2.06687       -1.41253        4.54981
| 11> C          3.74469       -2.58056        1.36188
| 12> H          5.56156       -1.97135        2.40708
| 13> H          4.81050       -3.42255        3.06310
| 14> H          4.26314       -3.18477        0.64702
| 15> H          3.56325       -1.61180        0.94535
| 16> H          2.81197       -3.04259        1.60980
| 17> *
| 18>
| 19> %MaxCore 64000
| 20>
| 21> %pal nprocs 4
| 22> end
| 23>
| 24> %scf
| 25>   MaxIter 150
| 26> end
| 27>
| 28>
| 29>                          ****END OF INPUT****

CARTESIAN COORDINATES (ANGSTROEM)
---------------------------------
  C      4.602950   -2.440100    2.634780
  C      3.860850   -1.591570    3.622890
  N      2.756500   -2.046160    4.166330
  C      4.254330   -0.362910    3.860460
  H      3.565260    0.310990    4.168980
  H      5.054290   -0.016060    3.337840
  H      2.439700   -2.973890    3.897400
  H      2.066870   -1.412530    4.549810
  C      3.744690   -2.580560    1.361880
  H      5.561560   -1.971350    2.407080
  H      4.810500   -3.422550    3.063100
  H      4.263140   -3.184770    0.647020
  H      3.563250   -1.611800    0.945350
  H      2.811970   -3.042590    1.609800

 Total Charge           Charge          ....    0
 Multiplicity           Mult            ....    1
 Number of Electrons    NEL             ....   40
 Basis Dimension        Dim             ....  209

ORBITAL ENERGIES
----------------

  NO   OCC          E(Eh)            E(eV)
   0   2.0000     -14.382714      -391.3735
   1   2.0000     -10.239063      -278.6191
   2   2.0000     -10.222695      -278.1737
   3   2.0000     -10.208012      -277.7741
   4   2.0000     -10.147819      -276.1362
   5   2.0000      -0.959590       -26.1118
   6   2.0000      -0.803313       -21.8593
   7   2.0000      -0.741894       -20.1880
   8   2.0000      -0.654515       -17.8103
   9   2.0000      -0.586218       -15.9518
  10   2.0000      -0.540722       -14.7138
  11   2.0000      -0.491595       -13.3770
  12   2.0000      -0.452263       -12.3067
  13   2.0000      -0.442458       -12.0399
  14   2.0000      -0.400728       -10.9044
  15   2.0000      -0.392376       -10.6771
  16   2.0000      -0.368121       -10.0171
  17   2.0000      -0.351727        -9.5710
  18   2.0000      -0.336027        -9.1438
  19   2.0000      -0.201938        -5.4950
  20   0.0000       0.033105         0.9008
  21   0.0000       0.047495         1.2924
  22   0.0000       0.082963         2.2575
  23   0.0000       0.084798         2.3075
  24   0.0000       0.094070         2.5598

MULLIKEN ATOMIC CHARGES
-----------------------
   0 C :   -0.206281
   1 C :    0.187710
   2 N :   -0.458407
   3 C :   -0.398734
   4 H :    0.084728
   5 H :    0.095223
   6 H :    0.231551
   7 H :    0.235469
   8 C :   -0.340748
   9 H :    0.114970
  10 H :    0.105433
  11 H :    0.123472
  12 H :    0.126319
  13 H :    0.099296
Sum of atomic charges:    0.0000000

LOEWDIN ATOMIC CHARGES
----------------------
   0 C :   -0.238646
   1 C :   -0.379886
   2 N :    0.006552
   3 C :   -0.278830
   4 H :    0.100306
   5 H :    0.107606
   6 H :    0.170705
   7 H :    0.173885
   8 C :   -0.294508
   9 H :    0.147340
  10 H :    0.135885
  11 H :    0.116408
  12 H :    0.121671
  13 H :    0.111512

  Mayer bond orders larger than 0.100000
B(  0-C ,  1-C ) :   1.0002 B(  0-C ,  8-C ) :   0.9740 B(  0-C ,  9-H ) :   0.9678
B(  0-C , 10-H ) :   0.9625 B(  1-C ,  2-N ) :   1.1719 B(  1-C ,  3-C ) :   1.8045
B(  2-N ,  6-H ) :   0.9236 B(  2-N ,  7-H ) :   0.9120 B(  3-C ,  4-H ) :   0.9826
B(  3-C ,  5-H ) :   0.9847 B(  8-C , 11-H ) :   0.9689 B(  8-C , 12-H ) :   0.9721
B(  8-C , 13-H ) :   0.9732

Dispersion correction           -0.008975199
FINAL SINGLE POINT ENERGY      -212.384469335100

DIPOLE MOMENT
-------------
                                X             Y             Z
Electronic contribution:     -0.51706       0.29735       2.83098
Nuclear contribution   :     -0.12319      -0.83296      -3.13501
                        -----------------------------------------
Total Dipole Moment    :     -0.64025      -0.53561      -0.30403
                        -----------------------------------------
Magnitude (a.u.)       :      0.88839
Magnitude (Debye)      :      2.25811

Rotational constants in cm-1:     0.266453     0.134423     0.106086
Rotational constants in MHz :  7988.053142  4029.892766  3180.375228

                             ****ORCA TERMINATED NORMALLY****
TOTAL RUN TIME: 0 days 0 hours 0 minutes 26 seconds 889 msec
