                         Program Version 5.0.0 -  RELEASE  -
|  1> !PBE0 D3BJ RIJCOSX def2-TZVP def2/J TightSCF xyzfile
|  2>
|  3> *xyzfile 0 1 D2.xyz
|  4>
|  5> %MaxCore 64000
|  6>
|  7> %pal nprocs 18
|  8> end
|  9>
| 10> %scf
| 11>   MaxIter 150
| 12> end
| 13>
| 14>
| 15>                          ****END OF INPUT****

CARTESIAN COORDINATES (ANGSTROEM)
---------------------------------
  C      4.602954   -2.440100    2.634780
  C     -0.914947    0.615112    2.505538
  C     -0.059146    1.503524    3.410578
  H      0.365364    2.344315    2.861161
  H     -0.692261    1.920207    4.198985
  C      1.083027    0.749640    4.085705
  C      3.860851   -1.591565    3.622893
  N      2.756502   -2.046159    4.166333
  C      4.254325   -0.362905    3.860455
  H      3.565256    0.310994    4.168983
  H      5.054292   -0.016059    3.337838
  H      2.439696   -2.973894    3.897395
  H      2.066869   -1.412532    4.549813
  F      2.228167    1.263475    4.019826
  O      0.810034   -0.345411    4.636269
  C      3.744685   -2.580557    1.361882
  C      0.772139    0.636882    0.562129
  C     -0.130740   -0.193985    1.470763
  H     -0.840563   -0.760165    0.856377
  H      0.466691   -0.938942    2.006959
  H     -1.647961    1.245963    1.991076
  H     -1.478180   -0.081046    3.130424
  C      3.203721   -1.256004    0.826211
  H      2.898939   -3.239289    1.583074
  H      4.334962   -3.095523    0.600188
  C      2.107815   -1.442385   -0.216865
  H      2.786775   -0.672760    1.650711
  H      4.021008   -0.652993    0.414046
  C      1.390662   -0.145912   -0.602422
  H      1.372179   -2.152184    0.176151
  H      2.523302   -1.906787   -1.117115
  H      1.561361    1.100094    1.161831
  H      0.195516    1.468325    0.142758
  H      0.602893   -0.398214   -1.319716
  H      2.087247    0.508272   -1.137335
  H      5.561557   -1.971347    2.407084
  H      4.810498   -3.422552    3.063099

 Total Charge           Charge          ....    0
 Multiplicity           Mult            ....    1
 Number of Electrons    NEL             ....  118
 Basis Dimension        Dim             ....  597

ORBITAL ENERGIES
----------------

  NO   OCC          E(Eh)            E(eV)
   0   2.0000     -24.857132      -676.3970
   1   2.0000     -19.235047      -523.4122
   2   2.0000     -14.348135      -390.4326
   3   2.0000     -10.420443      -283.5547
   4   2.0000     -10.261604      -279.2324
   5   2.0000     -10.240976      -278.6711
   6   2.0000     -10.225294      -278.2444
   7   2.0000     -10.222454      -278.1671
   8   2.0000     -10.219488      -278.0864
   9   2.0000     -10.217130      -278.0223
  10   2.0000     -10.211906      -277.8801
  11   2.0000     -10.210636      -277.8455
  12   2.0000     -10.207282      -277.7543
  13   2.0000     -10.204208      -277.6706
  14   2.0000     -10.123519      -275.4750
  15   2.0000      -1.372015       -37.3344
  16   2.0000      -1.091769       -29.7085
  17   2.0000      -0.934917       -25.4404
  18   2.0000      -0.857994       -23.3472
  19   2.0000      -0.830421       -22.5969
  20   2.0000      -0.803656       -21.8686
  21   2.0000      -0.768853       -20.9215
  22   2.0000      -0.737804       -20.0767
  23   2.0000      -0.724055       -19.7025
  24   2.0000      -0.691427       -18.8147
  25   2.0000      -0.668506       -18.1910
  26   2.0000      -0.631097       -17.1730
  27   2.0000      -0.604162       -16.4401
  28   2.0000      -0.586267       -15.9531
  29   2.0000      -0.580155       -15.7868
  30   2.0000      -0.573756       -15.6127
  31   2.0000      -0.565336       -15.3836
  32   2.0000      -0.543829       -14.7983
  33   2.0000      -0.514310       -13.9951
  34   2.0000      -0.499562       -13.5938
  35   2.0000      -0.493595       -13.4314
  36   2.0000      -0.477012       -12.9801
  37   2.0000      -0.467747       -12.7280
  38   2.0000      -0.457619       -12.4525
  39   2.0000      -0.448398       -12.2015
  40   2.0000      -0.437583       -11.9072
  41   2.0000      -0.423886       -11.5345
  42   2.0000      -0.420434       -11.4406
  43   2.0000      -0.408214       -11.1081
  44   2.0000      -0.394220       -10.7273
  45   2.0000      -0.387423       -10.5423
  46   2.0000      -0.382075       -10.3968
  47   2.0000      -0.379501       -10.3267
  48   2.0000      -0.364865        -9.9285
  49   2.0000      -0.360536        -9.8107
  50   2.0000      -0.354259        -9.6399
  51   2.0000      -0.340702        -9.2710
  52   2.0000      -0.335246        -9.1225
  53   2.0000      -0.331535        -9.0215
  54   2.0000      -0.325501        -8.8573
  55   2.0000      -0.322888        -8.7862
  56   2.0000      -0.314677        -8.5628
  57   2.0000      -0.304446        -8.2844
  58   2.0000      -0.180892        -4.9223
  59   0.0000      -0.045896        -1.2489
  60   0.0000       0.032094         0.8733
  61   0.0000       0.044239         1.2038
  62   0.0000       0.053726         1.4620
  63   0.0000       0.058109         1.5812

MULLIKEN ATOMIC CHARGES
-----------------------
   0 C :   -0.182750
   1 C :   -0.163914
   2 C :   -0.215672
   3 H :    0.137343
   4 H :    0.148702
   5 C :    0.392617
   6 C :    0.095148
   7 N :   -0.420476
   8 C :   -0.386584
   9 H :    0.086740
  10 H :    0.083412
  11 H :    0.214468
  12 H :    0.248181
  13 F :   -0.084775
  14 O :   -0.368075
  15 C :   -0.215609
  16 C :   -0.272667
  17 C :   -0.271989
  18 H :    0.109803
  19 H :    0.137230
  20 H :    0.114217
  21 H :    0.122508
  22 C :   -0.232628
  23 H :    0.096781
  24 H :    0.103013
  25 C :   -0.174299
  26 H :    0.103555
  27 H :    0.086902
  28 C :   -0.149182
  29 H :    0.103468
  30 H :    0.101896
  31 H :    0.126277
  32 H :    0.105151
  33 H :    0.104278
  34 H :    0.098269
  35 H :    0.106255
  36 H :    0.112403
Sum of atomic charges:    0.0000000

LOEWDIN ATOMIC CHARGES
----------------------
   0 C :   -0.217065
   1 C :   -0.258790
   2 C :   -0.232805
   3 H :    0.147654
   4 H :    0.162820
   5 C :   -0.473836
   6 C :   -0.392879
   7 N :    0.011877
   8 C :   -0.297365
   9 H :    0.090091
  10 H :    0.102939
  11 H :    0.165147
  12 H :    0.147824
  13 F :    0.351088
  14 O :    0.082350
  15 C :   -0.261404
  16 C :   -0.276661
  17 C :   -0.273701
  18 H :    0.142494
  19 H :    0.142230
  20 H :    0.143261
  21 H :    0.147062
  22 C :   -0.265780
  23 H :    0.132807
  24 H :    0.135564
  25 C :   -0.274888
  26 H :    0.144322
  27 H :    0.137301
  28 C :   -0.269224
  29 H :    0.136611
  30 H :    0.136127
  31 H :    0.135295
  32 H :    0.138049
  33 H :    0.137812
  34 H :    0.138064
  35 H :    0.147636
  36 H :    0.137974

  Mayer bond orders larger than 0.100000
B(  0-C ,  6-C ) :   0.9846 B(  0-C , 15-C ) :   0.9756 B(  0-C , 35-H ) :   0.9633
B(  0-C , 36-H ) :   0.9648 B(  1-C ,  2-C ) :   0.9868 B(  1-C , 17-C ) :   1.0114
B(  1-C , 20-H ) :   0.9544 B(  1-C , 21-H ) :   0.9516 B(  2-C ,  3-H ) :   0.9543
B(  2-C ,  4-H ) :   0.9246 B(  2-C ,  5-C ) :   1.0133 B(  5-C , 13-F ) :   1.1500
B(  5-C , 14-O ) :   1.9316 B(  6-C ,  7-N ) :   1.2211 B(  6-C ,  8-C ) :   1.7886
B(  7-N , 11-H ) :   0.9275 B(  7-N , 12-H ) :   0.8471 B(  8-C ,  9-H ) :   0.9775
B(  8-C , 10-H ) :   0.9843 B( 12-H , 14-O ) :   0.1102 B( 15-C , 22-C ) :   0.9929
B( 15-C , 23-H ) :   0.9756 B( 15-C , 24-H ) :   0.9529 B( 16-C , 17-C ) :   0.9772
B( 16-C , 28-C ) :   1.0145 B( 16-C , 31-H ) :   0.9611 B( 16-C , 32-H ) :   0.9546
B( 17-C , 18-H ) :   0.9552 B( 17-C , 19-H ) :   0.9602 B( 22-C , 25-C ) :   1.0017
B( 22-C , 26-H ) :   0.9819 B( 22-C , 27-H ) :   0.9529 B( 25-C , 28-C ) :   0.9944
B( 25-C , 29-H ) :   0.9598 B( 25-C , 30-H ) :   0.9588 B( 28-C , 33-H ) :   0.9602
B( 28-C , 34-H ) :   0.9610

Dispersion correction           -0.037629083
FINAL SINGLE POINT ENERGY      -699.780702614909

DIPOLE MOMENT
-------------
                                X             Y             Z
Electronic contribution:      0.05867       6.23236      15.14889
Nuclear contribution   :     -1.39991      -5.60370     -16.00470
                        -----------------------------------------
Total Dipole Moment    :     -1.34124       0.62866      -0.85581
                        -----------------------------------------
Magnitude (a.u.)       :      1.71072
Magnitude (Debye)      :      4.34830

Rotational constants in cm-1:     0.021622     0.017313     0.011402
Rotational constants in MHz :   648.226014   519.043632   341.814105

                             ****ORCA TERMINATED NORMALLY****
TOTAL RUN TIME: 0 days 0 hours 1 minutes 25 seconds 186 msec
