                         Program Version 5.0.0 -  RELEASE  -
|  1> !PBE0 D3BJ RIJCOSX def2-TZVP def2/J TightSCF xyzfile
|  2>
|  3> *xyzfile 0 1 D3.xyz
|  4>
|  5> %MaxCore 64000
|  6>
|  7> %pal nprocs 18
|  8> end
|  9>
| 10> %scf
| 11>   MaxIter 150
| 12> end
| 13>
| 14>
| 15>                          ****END OF INPUT****

CARTESIAN COORDINATES (ANGSTROEM)
---------------------------------
  C      4.602954   -2.440100    2.634780
  C     -0.914947    0.615112    2.505538
  C     -0.059146    1.503524    3.410578
  H      0.365364    2.344315    2.861161
  H     -0.692261    1.920207    4.198985
  C      1.083027    0.749640    4.085705
  C      3.860851   -1.591565    3.622893
  C      2.756502   -2.046159    4.166333
  N      4.254325   -0.362905    3.860455
  H      3.565256    0.310994    4.168983
  H      5.054292   -0.016059    3.337838
  H      2.439696   -2.973894    3.897395
  H      2.066869   -1.412532    4.549813
  O      2.228167    1.263475    4.019826
  F      0.810034   -0.345411    4.636269
  C      3.744685   -2.580557    1.361882
  C      0.772139    0.636882    0.562129
  C     -0.130740   -0.193985    1.470763
  H     -0.840563   -0.760165    0.856377
  H      0.466691   -0.938942    2.006959
  H     -1.647961    1.245963    1.991076
  H     -1.478180   -0.081046    3.130424
  C      3.203721   -1.256004    0.826211
  H      2.898939   -3.239289    1.583074
  H      4.334962   -3.095523    0.600188
  C      2.107815   -1.442385   -0.216865
  H      2.786775   -0.672760    1.650711
  H      4.021008   -0.652993    0.414046
  C      1.390662   -0.145912   -0.602422
  H      1.372179   -2.152184    0.176151
  H      2.523302   -1.906787   -1.117115
  H      1.561361    1.100094    1.161831
  H      0.195516    1.468325    0.142758
  H      0.602893   -0.398214   -1.319716
  H      2.087247    0.508272   -1.137335
  H      5.561557   -1.971347    2.407084
  H      4.810498   -3.422552    3.063099

 Total Charge           Charge          ....    0
 Multiplicity           Mult            ....    1
 Number of Electrons    NEL             ....  118
 Basis Dimension        Dim             ....  597

ORBITAL ENERGIES
----------------

  NO   OCC          E(Eh)            E(eV)
   0   2.0000     -24.856215      -676.3720
   1   2.0000     -19.233365      -523.3665
   2   2.0000     -14.346056      -390.3760
   3   2.0000     -10.418680      -283.5067
   4   2.0000     -10.259714      -279.1810
   5   2.0000     -10.242140      -278.7028
   6   2.0000     -10.225859      -278.2598
   7   2.0000     -10.219598      -278.0894
   8   2.0000     -10.219455      -278.0855
   9   2.0000     -10.215453      -277.9766
  10   2.0000     -10.209271      -277.8084
  11   2.0000     -10.208125      -277.7772
  12   2.0000     -10.207550      -277.7616
  13   2.0000     -10.203400      -277.6486
  14   2.0000     -10.123117      -275.4640
  15   2.0000      -1.371541       -37.3215
  16   2.0000      -1.088715       -29.6255
  17   2.0000      -0.933744       -25.4085
  18   2.0000      -0.858856       -23.3707
  19   2.0000      -0.829789       -22.5797
  20   2.0000      -0.803052       -21.8522
  21   2.0000      -0.767568       -20.8866
  22   2.0000      -0.734749       -19.9935
  23   2.0000      -0.716801       -19.5051
  24   2.0000      -0.691469       -18.8158
  25   2.0000      -0.668708       -18.1965
  26   2.0000      -0.633201       -17.2303
  27   2.0000      -0.607373       -16.5275
  28   2.0000      -0.586994       -15.9729
  29   2.0000      -0.583620       -15.8811
  30   2.0000      -0.572791       -15.5864
  31   2.0000      -0.558847       -15.2070
  32   2.0000      -0.537895       -14.6369
  33   2.0000      -0.508079       -13.8255
  34   2.0000      -0.498036       -13.5522
  35   2.0000      -0.493035       -13.4162
  36   2.0000      -0.482336       -13.1250
  37   2.0000      -0.462154       -12.5759
  38   2.0000      -0.458409       -12.4740
  39   2.0000      -0.444674       -12.1002
  40   2.0000      -0.436883       -11.8882
  41   2.0000      -0.423148       -11.5144
  42   2.0000      -0.421012       -11.4563
  43   2.0000      -0.404192       -10.9986
  44   2.0000      -0.398415       -10.8414
  45   2.0000      -0.388555       -10.5731
  46   2.0000      -0.384021       -10.4497
  47   2.0000      -0.377689       -10.2774
  48   2.0000      -0.364723        -9.9246
  49   2.0000      -0.354438        -9.6447
  50   2.0000      -0.351839        -9.5740
  51   2.0000      -0.345755        -9.4085
  52   2.0000      -0.333817        -9.0836
  53   2.0000      -0.329937        -8.9780
  54   2.0000      -0.322415        -8.7734
  55   2.0000      -0.319850        -8.7036
  56   2.0000      -0.312548        -8.5049
  57   2.0000      -0.304361        -8.2821
  58   2.0000      -0.179473        -4.8837
  59   0.0000      -0.041284        -1.1234
  60   0.0000       0.030943         0.8420
  61   0.0000       0.050548         1.3755
  62   0.0000       0.054652         1.4872
  63   0.0000       0.057356         1.5607

MULLIKEN ATOMIC CHARGES
-----------------------
   0 C :   -0.177700
   1 C :   -0.197426
   2 C :   -0.204126
   3 H :    0.148414
   4 H :    0.143971
   5 C :    0.387364
   6 C :    0.097392
   7 C :   -0.421623
   8 N :   -0.406569
   9 H :    0.244777
  10 H :    0.212834
  11 H :    0.088577
  12 H :    0.099841
  13 O :   -0.374602
  14 F :   -0.085551
  15 C :   -0.178275
  16 C :   -0.283730
  17 C :   -0.253381
  18 H :    0.109753
  19 H :    0.143456
  20 H :    0.116353
  21 H :    0.121813
  22 C :   -0.262368
  23 H :    0.100602
  24 H :    0.093259
  25 C :   -0.180784
  26 H :    0.119259
  27 H :    0.083249
  28 C :   -0.149518
  29 H :    0.104831
  30 H :    0.101742
  31 H :    0.143639
  32 H :    0.103575
  33 H :    0.103278
  34 H :    0.097044
  35 H :    0.088445
  36 H :    0.122189
Sum of atomic charges:   -0.0000000

LOEWDIN ATOMIC CHARGES
----------------------
   0 C :   -0.216076
   1 C :   -0.267167
   2 C :   -0.229226
   3 H :    0.157805
   4 H :    0.158254
   5 C :   -0.474883
   6 C :   -0.390692
   7 C :   -0.301157
   8 N :    0.010850
   9 H :    0.147469
  10 H :    0.163028
  11 H :    0.104376
  12 H :    0.090267
  13 O :    0.078152
  14 F :    0.353891
  15 C :   -0.255542
  16 C :   -0.276035
  17 C :   -0.273661
  18 H :    0.142612
  19 H :    0.143470
  20 H :    0.143860
  21 H :    0.143057
  22 C :   -0.269159
  23 H :    0.138928
  24 H :    0.132130
  25 C :   -0.273623
  26 H :    0.145480
  27 H :    0.133932
  28 C :   -0.269720
  29 H :    0.137669
  30 H :    0.136161
  31 H :    0.139659
  32 H :    0.137670
  33 H :    0.137297
  34 H :    0.137758
  35 H :    0.134568
  36 H :    0.148598

  Mayer bond orders larger than 0.100000
B(  0-C ,  6-C ) :   0.9575 B(  0-C , 15-C ) :   0.9916 B(  0-C , 35-H ) :   0.9628
B(  0-C , 36-H ) :   0.9647 B(  1-C ,  2-C ) :   0.9710 B(  1-C , 17-C ) :   0.9947
B(  1-C , 20-H ) :   0.9525 B(  1-C , 21-H ) :   0.9622 B(  2-C ,  3-H ) :   0.9575
B(  2-C ,  4-H ) :   0.9283 B(  2-C ,  5-C ) :   1.0222 B(  5-C , 13-O ) :   1.9193
B(  5-C , 14-F ) :   1.1484 B(  6-C ,  7-C ) :   1.7678 B(  6-C ,  8-N ) :   1.2317
B(  7-C , 11-H ) :   0.9877 B(  7-C , 12-H ) :   0.9782 B(  8-N ,  9-H ) :   0.8560
B(  8-N , 10-H ) :   0.9243 B(  9-H , 13-O ) :   0.1110 B( 15-C , 22-C ) :   1.0041
B( 15-C , 23-H ) :   0.9616 B( 15-C , 24-H ) :   0.9524 B( 16-C , 17-C ) :   0.9731
B( 16-C , 28-C ) :   1.0122 B( 16-C , 31-H ) :   0.9602 B( 16-C , 32-H ) :   0.9544
B( 17-C , 18-H ) :   0.9544 B( 17-C , 19-H ) :   0.9632 B( 22-C , 25-C ) :   1.0092
B( 22-C , 26-H ) :   0.9711 B( 22-C , 27-H ) :   0.9534 B( 25-C , 28-C ) :   0.9937
B( 25-C , 29-H ) :   0.9611 B( 25-C , 30-H ) :   0.9578 B( 28-C , 33-H ) :   0.9611
B( 28-C , 34-H ) :   0.9609

Dispersion correction           -0.037675010
FINAL SINGLE POINT ENERGY      -699.781715654149

DIPOLE MOMENT
-------------
                                X             Y             Z
Electronic contribution:     -1.19894       4.77058      15.97703
Nuclear contribution   :      0.05905      -3.94566     -16.70013
                        -----------------------------------------
Total Dipole Moment    :     -1.13989       0.82492      -0.72310
                        -----------------------------------------
Magnitude (a.u.)       :      1.58200
Magnitude (Debye)      :      4.02112

Rotational constants in cm-1:     0.021602     0.017295     0.011353
Rotational constants in MHz :   647.614981   518.478934   340.359556

                             ****ORCA TERMINATED NORMALLY****
TOTAL RUN TIME: 0 days 0 hours 1 minutes 32 seconds 624 msec
