                         Program Version 5.0.0 -  RELEASE  -
|  1> !PBE0 D3BJ RIJCOSX def2-TZVP def2/J TightSCF xyzfile
|  2>
|  3> *xyzfile 0 1 D4.xyz
|  4>
|  5> %MaxCore 64000
|  6>
|  7> %pal nprocs 18
|  8> end
|  9>
| 10> %scf
| 11>   MaxIter 150
| 12> end
| 13>
| 14>
| 15>                          ****END OF INPUT****

CARTESIAN COORDINATES (ANGSTROEM)
---------------------------------
  C      4.602954   -2.440100    2.634780
  C     -0.914947    0.615112    2.505538
  C     -0.059146    1.503524    3.410578
  H      0.365364    2.344315    2.861161
  H     -0.692261    1.920207    4.198985
  C      1.083027    0.749640    4.085705
  C      3.860851   -1.591565    3.622893
  N      2.756502   -2.046159    4.166333
  C      4.254325   -0.362905    3.860455
  H      3.565256    0.310994    4.168983
  H      5.054292   -0.016059    3.337838
  H      2.439696   -2.973894    3.897395
  H      2.066869   -1.412532    4.549813
  O      2.228167    1.263475    4.019826
  F      0.810034   -0.345411    4.636269
  C      3.744685   -2.580557    1.361882
  C      0.772139    0.636882    0.562129
  C     -0.130740   -0.193985    1.470763
  H     -0.840563   -0.760165    0.856377
  H      0.466691   -0.938942    2.006959
  H     -1.647961    1.245963    1.991076
  H     -1.478180   -0.081046    3.130424
  C      3.203721   -1.256004    0.826211
  H      2.898939   -3.239289    1.583074
  H      4.334962   -3.095523    0.600188
  C      2.107815   -1.442385   -0.216865
  H      2.786775   -0.672760    1.650711
  H      4.021008   -0.652993    0.414046
  C      1.390662   -0.145912   -0.602422
  H      1.372179   -2.152184    0.176151
  H      2.523302   -1.906787   -1.117115
  H      1.561361    1.100094    1.161831
  H      0.195516    1.468325    0.142758
  H      0.602893   -0.398214   -1.319716
  H      2.087247    0.508272   -1.137335
  H      5.561557   -1.971347    2.407084
  H      4.810498   -3.422552    3.063099

 Total Charge           Charge          ....    0
 Multiplicity           Mult            ....    1
 Number of Electrons    NEL             ....  118
 Basis Dimension        Dim             ....  597

ORBITAL ENERGIES
----------------

  NO   OCC          E(Eh)            E(eV)
   0   2.0000     -24.868471      -676.7055
   1   2.0000     -19.224948      -523.1374
   2   2.0000     -14.360799      -390.7772
   3   2.0000     -10.414183      -283.3843
   4   2.0000     -10.259183      -279.1666
   5   2.0000     -10.243284      -278.7339
   6   2.0000     -10.228805      -278.3399
   7   2.0000     -10.219722      -278.0928
   8   2.0000     -10.215432      -277.9760
   9   2.0000     -10.215373      -277.9744
  10   2.0000     -10.210528      -277.8426
  11   2.0000     -10.209475      -277.8139
  12   2.0000     -10.205814      -277.7143
  13   2.0000     -10.201641      -277.6008
  14   2.0000     -10.113551      -275.2037
  15   2.0000      -1.382665       -37.6242
  16   2.0000      -1.081260       -29.4226
  17   2.0000      -0.941812       -25.6280
  18   2.0000      -0.859736       -23.3946
  19   2.0000      -0.829736       -22.5783
  20   2.0000      -0.803594       -21.8669
  21   2.0000      -0.766463       -20.8565
  22   2.0000      -0.740220       -20.1424
  23   2.0000      -0.715474       -19.4691
  24   2.0000      -0.700941       -19.0736
  25   2.0000      -0.666971       -18.1492
  26   2.0000      -0.633573       -17.2404
  27   2.0000      -0.605493       -16.4763
  28   2.0000      -0.599351       -16.3092
  29   2.0000      -0.589792       -16.0490
  30   2.0000      -0.571040       -15.5388
  31   2.0000      -0.560369       -15.2484
  32   2.0000      -0.536805       -14.6072
  33   2.0000      -0.516680       -14.0596
  34   2.0000      -0.500314       -13.6142
  35   2.0000      -0.496789       -13.5183
  36   2.0000      -0.474767       -12.9191
  37   2.0000      -0.461229       -12.5507
  38   2.0000      -0.454954       -12.3799
  39   2.0000      -0.449856       -12.2412
  40   2.0000      -0.433842       -11.8054
  41   2.0000      -0.427498       -11.6328
  42   2.0000      -0.421920       -11.4810
  43   2.0000      -0.402921       -10.9640
  44   2.0000      -0.395960       -10.7746
  45   2.0000      -0.388453       -10.5703
  46   2.0000      -0.385158       -10.4807
  47   2.0000      -0.373080       -10.1520
  48   2.0000      -0.368118       -10.0170
  49   2.0000      -0.360340        -9.8054
  50   2.0000      -0.355930        -9.6853
  51   2.0000      -0.340745        -9.2721
  52   2.0000      -0.334993        -9.1156
  53   2.0000      -0.333021        -9.0619
  54   2.0000      -0.322650        -8.7798
  55   2.0000      -0.318986        -8.6801
  56   2.0000      -0.312857        -8.5133
  57   2.0000      -0.282600        -7.6899
  58   2.0000      -0.179379        -4.8811
  59   0.0000      -0.039071        -1.0632
  60   0.0000       0.027185         0.7397
  61   0.0000       0.042430         1.1546
  62   0.0000       0.052614         1.4317
  63   0.0000       0.059692         1.6243

MULLIKEN ATOMIC CHARGES
-----------------------
   0 C :   -0.185816
   1 C :   -0.199067
   2 C :   -0.203105
   3 H :    0.151336
   4 H :    0.142205
   5 C :    0.364804
   6 C :    0.093359
   7 N :   -0.438610
   8 C :   -0.374051
   9 H :    0.129478
  10 H :    0.075447
  11 H :    0.221528
  12 H :    0.228074
  13 O :   -0.317366
  14 F :   -0.123506
  15 C :   -0.208862
  16 C :   -0.282983
  17 C :   -0.245427
  18 H :    0.111560
  19 H :    0.115481
  20 H :    0.116964
  21 H :    0.118885
  22 C :   -0.251815
  23 H :    0.092255
  24 H :    0.103448
  25 C :   -0.170378
  26 H :    0.122502
  27 H :    0.087637
  28 C :   -0.150622
  29 H :    0.099069
  30 H :    0.101639
  31 H :    0.152647
  32 H :    0.103882
  33 H :    0.102348
  34 H :    0.099305
  35 H :    0.108329
  36 H :    0.109425
Sum of atomic charges:   -0.0000000

LOEWDIN ATOMIC CHARGES
----------------------
   0 C :   -0.219250
   1 C :   -0.269084
   2 C :   -0.230734
   3 H :    0.159185
   4 H :    0.157392
   5 C :   -0.487513
   6 C :   -0.398156
   7 N :   -0.000322
   8 C :   -0.274086
   9 H :    0.091431
  10 H :    0.102754
  11 H :    0.166309
  12 H :    0.152946
  13 O :    0.106279
  14 F :    0.337371
  15 C :   -0.262999
  16 C :   -0.275184
  17 C :   -0.274866
  18 H :    0.142435
  19 H :    0.137148
  20 H :    0.144056
  21 H :    0.141293
  22 C :   -0.264944
  23 H :    0.130978
  24 H :    0.135384
  25 C :   -0.275603
  26 H :    0.147031
  27 H :    0.138220
  28 C :   -0.269391
  29 H :    0.135125
  30 H :    0.135925
  31 H :    0.142199
  32 H :    0.138079
  33 H :    0.136902
  34 H :    0.138718
  35 H :    0.148688
  36 H :    0.136282

  Mayer bond orders larger than 0.100000
B(  0-C ,  6-C ) :   0.9874 B(  0-C , 15-C ) :   0.9751 B(  0-C , 35-H ) :   0.9633
B(  0-C , 36-H ) :   0.9653 B(  1-C ,  2-C ) :   0.9679 B(  1-C , 17-C ) :   0.9943
B(  1-C , 20-H ) :   0.9520 B(  1-C , 21-H ) :   0.9643 B(  2-C ,  3-H ) :   0.9577
B(  2-C ,  4-H ) :   0.9284 B(  2-C ,  5-C ) :   1.0246 B(  5-C , 13-O ) :   1.9963
B(  5-C , 14-F ) :   1.0836 B(  6-C ,  7-N ) :   1.1714 B(  6-C ,  8-C ) :   1.8070
B(  7-N , 11-H ) :   0.9258 B(  7-N , 12-H ) :   0.8904 B(  8-C ,  9-H ) :   0.9609
B(  8-C , 10-H ) :   0.9828 B( 15-C , 22-C ) :   0.9834 B( 15-C , 23-H ) :   0.9774
B( 15-C , 24-H ) :   0.9527 B( 16-C , 17-C ) :   0.9751 B( 16-C , 28-C ) :   1.0121
B( 16-C , 31-H ) :   0.9583 B( 16-C , 32-H ) :   0.9542 B( 17-C , 18-H ) :   0.9550
B( 17-C , 19-H ) :   0.9642 B( 22-C , 25-C ) :   0.9948 B( 22-C , 26-H ) :   0.9869
B( 22-C , 27-H ) :   0.9533 B( 25-C , 28-C ) :   0.9945 B( 25-C , 29-H ) :   0.9606
B( 25-C , 30-H ) :   0.9586 B( 28-C , 33-H ) :   0.9611 B( 28-C , 34-H ) :   0.9606

Dispersion correction           -0.037635911
FINAL SINGLE POINT ENERGY      -699.769166133760

DIPOLE MOMENT
-------------
                                X             Y             Z
Electronic contribution:     -2.27148       3.57217      16.22275
Nuclear contribution   :      0.32481      -3.64700     -16.75441
                        -----------------------------------------
Total Dipole Moment    :     -1.94667      -0.07483      -0.53166
                        -----------------------------------------
Magnitude (a.u.)       :      2.01935
Magnitude (Debye)      :      5.13279

Rotational constants in cm-1:     0.021629     0.017327     0.011372
Rotational constants in MHz :   648.414821   519.443407   340.925013

                             ****ORCA TERMINATED NORMALLY****
TOTAL RUN TIME: 0 days 0 hours 1 minutes 32 seconds 567 msec
