                         Program Version 5.0.0 -  RELEASE  -
|  1> !B3LYP D3BJ RIJCOSX def2-SVPD def2/J TightSCF
|  2> *xyz -1 1
|  3> C         -1.10433        0.25137       -2.86006
|  4> C         -0.71189        0.84252       -4.21834
|  5> H          0.15463        1.49980       -4.13091
|  6> H         -1.53813        1.45922       -4.58267
|  7> C         -0.39762       -0.20587       -5.28802
|  8> O          0.61717       -0.00535       -5.99827
|  9> O         -1.13317       -1.22138       -5.34147
| 10> C         -0.19626       -0.86337       -2.32576
| 11> H         -1.14384        1.06671       -2.12968
| 12> H         -2.11440       -0.15683       -2.93032
| 13> H         -0.15538       -1.66172       -3.03700
| 14> H         -0.58845       -1.22999       -1.40020
| 15> H          0.78852       -0.47602       -2.16737
| 16> *
| 17>
| 18> %MaxCore 64000
| 19>
| 20> %pal nprocs 4
| 21> end
| 22>
| 23> %scf
| 24>   MaxIter 150
| 25> end
| 26>
| 27>
| 28>                          ****END OF INPUT****

CARTESIAN COORDINATES (ANGSTROEM)
---------------------------------
  C     -1.104330    0.251370   -2.860060
  C     -0.711890    0.842520   -4.218340
  H      0.154630    1.499800   -4.130910
  H     -1.538130    1.459220   -4.582670
  C     -0.397620   -0.205870   -5.288020
  O      0.617170   -0.005350   -5.998270
  O     -1.133170   -1.221380   -5.341470
  C     -0.196260   -0.863370   -2.325760
  H     -1.143840    1.066710   -2.129680
  H     -2.114400   -0.156830   -2.930320
  H     -0.155380   -1.661720   -3.037000
  H     -0.588450   -1.229990   -1.400200
  H      0.788520   -0.476020   -2.167370

 Total Charge           Charge          ....   -1
 Multiplicity           Mult            ....    1
 Number of Electrons    NEL             ....   48
 Basis Dimension        Dim             ....  182

ORBITAL ENERGIES
----------------

  NO   OCC          E(Eh)            E(eV)
   0   2.0000     -18.881261      -513.7852
   1   2.0000     -18.880415      -513.7622
   2   2.0000     -10.071746      -274.0661
   3   2.0000     -10.034114      -273.0421
   4   2.0000     -10.025450      -272.8064
   5   2.0000     -10.010757      -272.4066
   6   2.0000      -0.815737       -22.1973
   7   2.0000      -0.723200       -19.6793
   8   2.0000      -0.627450       -17.0738
   9   2.0000      -0.536038       -14.5863
  10   2.0000      -0.439828       -11.9683
  11   2.0000      -0.323012        -8.7896
  12   2.0000      -0.303197        -8.2504
  13   2.0000      -0.288887        -7.8610
  14   2.0000      -0.256439        -6.9781
  15   2.0000      -0.233339        -6.3495
  16   2.0000      -0.215183        -5.8554
  17   2.0000      -0.206677        -5.6240
  18   2.0000      -0.195979        -5.3329
  19   2.0000      -0.177070        -4.8183
  20   2.0000      -0.164900        -4.4871
  21   2.0000      -0.055043        -1.4978
  22   2.0000      -0.047045        -1.2802
  23   2.0000      -0.033536        -0.9126
  24   0.0000       0.145662         3.9637
  25   0.0000       0.169639         4.6161
  26   0.0000       0.187378         5.0988
  27   0.0000       0.197533         5.3751
  28   0.0000       0.217312         5.9134

MULLIKEN ATOMIC CHARGES
-----------------------
   0 C :   -0.249235
   1 C :    0.316853
   2 H :   -0.084560
   3 H :   -0.116100
   4 C :    0.379955
   5 O :   -0.669521
   6 O :   -0.737315
   7 C :    0.890936
   8 H :   -0.267807
   9 H :   -0.069154
  10 H :   -0.143733
  11 H :   -0.148450
  12 H :   -0.101869
Sum of atomic charges:   -1.0000000

LOEWDIN ATOMIC CHARGES
----------------------
   0 C :   -0.083640
   1 C :    0.006228
   2 H :   -0.002335
   3 H :    0.006749
   4 C :   -0.306340
   5 O :   -0.325029
   6 O :   -0.315164
   7 C :    0.122595
   8 H :   -0.007237
   9 H :    0.005873
  10 H :   -0.031481
  11 H :   -0.040641
  12 H :   -0.029581

  Mayer bond orders larger than 0.100000
B(  0-C ,  1-C ) :   1.2001 B(  0-C ,  2-H ) :   0.1548 B(  0-C ,  3-H ) :   0.1513
B(  0-C ,  7-C ) :   1.3213 B(  0-C ,  8-H ) :   0.9171 B(  0-C ,  9-H ) :   0.8471
B(  0-C , 10-H ) :   0.2355 B(  0-C , 11-H ) :   0.2586 B(  0-C , 12-H ) :   0.2219
B(  1-C ,  2-H ) :   0.8319 B(  1-C ,  3-H ) :   0.7844 B(  1-C ,  4-C ) :   1.0245
B(  1-C ,  8-H ) :   0.1288 B(  1-C ,  9-H ) :   0.1356 B(  2-H ,  4-C ) :   0.2481
B(  3-H ,  4-C ) :   0.1087 B(  4-C ,  5-O ) :   1.4171 B(  4-C ,  6-O ) :   1.4854
B(  7-C ,  8-H ) :   0.1068 B(  7-C ,  9-H ) :   0.1011 B(  7-C , 10-H ) :   0.7957
B(  7-C , 11-H ) :   0.6840 B(  7-C , 12-H ) :   0.7452

Dispersion correction           -0.016414240
FINAL SINGLE POINT ENERGY      -306.789672735527

DIPOLE MOMENT
-------------
                                X             Y             Z
Electronic contribution:      0.66202      -1.02877      -7.12945
Nuclear contribution   :     -1.15173       1.87787       9.37659
                        -----------------------------------------
Total Dipole Moment    :     -0.48971       0.84910       2.24714
                        -----------------------------------------
Magnitude (a.u.)       :      2.45161
Magnitude (Debye)      :      6.23151

Rotational constants in cm-1:     0.203160     0.081703     0.075834
Rotational constants in MHz :  6090.598467  2449.397428  2273.436534

                             ****ORCA TERMINATED NORMALLY****
TOTAL RUN TIME: 0 days 0 hours 0 minutes 17 seconds 605 msec
