                         Program Version 5.0.0 -  RELEASE  -
|  1> !B3LYP D3BJ RIJCOSX def2-SVPD def2/J TightSCF
|  2> *xyz 1 1
|  3> C          2.23447       -2.98975       -2.39762
|  4> N          2.75680       -2.94555       -3.76503
|  5> C          1.98721       -2.59045       -4.81898
|  6> N          0.74322       -3.01749       -4.91352
|  7> N          2.49964       -1.84860       -5.80324
|  8> H          3.30978       -1.29282       -5.55895
|  9> H          1.80103       -1.30430       -6.28913
| 10> H          3.71612       -2.62880       -3.82953
| 11> H          0.39583       -3.62775       -4.18502
| 12> H          0.03920       -2.45438       -5.37137
| 13> C          2.19120       -1.61950       -1.71549
| 14> H          2.87278       -3.66637       -1.82801
| 15> H          1.24619       -3.44744       -2.40784
| 16> C          1.29873       -0.55431       -2.35977
| 17> H          1.87292       -1.78796       -0.68131
| 18> H          3.21681       -1.23843       -1.65443
| 19> H          1.61097       -0.39090       -3.37007
| 20> H          1.37981        0.35955       -1.80916
| 21> H          0.28197       -0.88750       -2.35015
| 22> *
| 23>
| 24> %MaxCore 64000
| 25>
| 26> %pal nprocs 4
| 27> end
| 28>
| 29> %scf
| 30>   MaxIter 150
| 31> end
| 32>
| 33>
| 34>                          ****END OF INPUT****

CARTESIAN COORDINATES (ANGSTROEM)
---------------------------------
  C      2.234470   -2.989750   -2.397620
  N      2.756800   -2.945550   -3.765030
  C      1.987210   -2.590450   -4.818980
  N      0.743220   -3.017490   -4.913520
  N      2.499640   -1.848600   -5.803240
  H      3.309780   -1.292820   -5.558950
  H      1.801030   -1.304300   -6.289130
  H      3.716120   -2.628800   -3.829530
  H      0.395830   -3.627750   -4.185020
  H      0.039200   -2.454380   -5.371370
  C      2.191200   -1.619500   -1.715490
  H      2.872780   -3.666370   -1.828010
  H      1.246190   -3.447440   -2.407840
  C      1.298730   -0.554310   -2.359770
  H      1.872920   -1.787960   -0.681310
  H      3.216810   -1.238430   -1.654430
  H      1.610970   -0.390900   -3.370070
  H      1.379810    0.359550   -1.809160
  H      0.281970   -0.887500   -2.350150

 Total Charge           Charge          ....    1
 Multiplicity           Mult            ....    1
 Number of Electrons    NEL             ....   56
 Basis Dimension        Dim             ....  236

ORBITAL ENERGIES
----------------

  NO   OCC          E(Eh)            E(eV)
   0   2.0000     -14.558458      -396.1558
   1   2.0000     -14.555181      -396.0666
   2   2.0000     -14.551462      -395.9654
   3   2.0000     -10.520985      -286.2906
   4   2.0000     -10.389499      -282.7126
   5   2.0000     -10.332798      -281.1697
   6   2.0000     -10.313824      -280.6534
   7   2.0000      -1.210755       -32.9463
   8   2.0000      -1.097557       -29.8660
   9   2.0000      -1.093112       -29.7451
  10   2.0000      -0.934806       -25.4374
  11   2.0000      -0.864884       -23.5347
  12   2.0000      -0.824438       -22.4341
  13   2.0000      -0.784959       -21.3598
  14   2.0000      -0.765855       -20.8400
  15   2.0000      -0.730922       -19.8894
  16   2.0000      -0.700002       -19.0480
  17   2.0000      -0.685808       -18.6618
  18   2.0000      -0.650562       -17.7027
  19   2.0000      -0.625797       -17.0288
  20   2.0000      -0.598590       -16.2885
  21   2.0000      -0.587303       -15.9813
  22   2.0000      -0.560628       -15.2555
  23   2.0000      -0.522900       -14.2288
  24   2.0000      -0.498830       -13.5738
  25   2.0000      -0.494071       -13.4444
  26   2.0000      -0.484506       -13.1841
  27   2.0000      -0.449060       -12.2195
  28   0.0000      -0.196660        -5.3514
  29   0.0000      -0.154337        -4.1997
  30   0.0000      -0.127368        -3.4659
  31   0.0000      -0.114938        -3.1276
  32   0.0000      -0.095184        -2.5901

MULLIKEN ATOMIC CHARGES
-----------------------
   0 C :    0.926432
   1 N :   -0.345304
   2 C :    0.882822
   3 N :    0.167111
   4 N :    0.069771
   5 H :   -0.033360
   6 H :    0.000527
   7 H :   -0.190612
   8 H :   -0.025944
   9 H :   -0.071396
  10 C :   -0.174587
  11 H :   -0.352884
  12 H :   -0.160483
  13 C :    1.049516
  14 H :   -0.119046
  15 H :   -0.115614
  16 H :   -0.282808
  17 H :   -0.166446
  18 H :   -0.057695
Sum of atomic charges:    1.0000000

LOEWDIN ATOMIC CHARGES
----------------------
   0 C :    0.077475
   1 N :    0.064657
   2 C :   -0.065051
   3 N :    0.291884
   4 N :    0.279283
   5 H :    0.032394
   6 H :    0.032632
   7 H :    0.049468
   8 H :    0.024054
   9 H :    0.046483
  10 C :   -0.037070
  11 H :    0.038042
  12 H :    0.015381
  13 C :    0.148133
  14 H :    0.036765
  15 H :    0.026404
  16 H :   -0.044020
  17 H :   -0.003169
  18 H :   -0.013743

  Mayer bond orders larger than 0.100000
B(  0-C ,  1-N ) :   0.9316 B(  0-C , 10-C ) :   1.1288 B(  0-C , 11-H ) :   0.7837
B(  0-C , 12-H ) :   0.7251 B(  0-C , 14-H ) :   0.1588 B(  0-C , 15-H ) :   0.1379
B(  1-N ,  2-C ) :   1.1015 B(  1-N ,  4-N ) :   0.1611 B(  1-N ,  7-H ) :   1.1693
B(  1-N , 11-H ) :   0.2127 B(  1-N , 12-H ) :   0.1420 B(  2-C ,  3-N ) :   1.0522
B(  2-C ,  4-N ) :   0.9772 B(  2-C ,  7-H ) :  -0.1751 B(  3-N ,  4-N ) :   0.1519
B(  3-N ,  8-H ) :   0.9848 B(  3-N ,  9-H ) :   1.1891 B(  4-N ,  5-H ) :   1.0105
B(  4-N ,  6-H ) :   1.0037 B(  8-H ,  9-H ) :  -0.1612 B( 10-C , 12-H ) :   0.1524
B( 10-C , 13-C ) :   1.2776 B( 10-C , 14-H ) :   0.8751 B( 10-C , 15-H ) :   0.8872
B( 10-C , 16-H ) :   0.2587 B( 10-C , 17-H ) :   0.2367 B( 10-C , 18-H ) :   0.2604
B( 11-H , 12-H ) :  -0.1317 B( 13-C , 14-H ) :   0.1030 B( 13-C , 16-H ) :   0.7404
B( 13-C , 17-H ) :   0.7172 B( 13-C , 18-H ) :   0.6811 B( 16-H , 18-H ) :   0.1323

Dispersion correction           -0.026957728
FINAL SINGLE POINT ENERGY      -323.309908915641

DIPOLE MOMENT
-------------
                                X             Y             Z
Electronic contribution:      1.23917      -3.57176      -5.57065
Nuclear contribution   :     -1.48325       3.81474       4.74728
                        -----------------------------------------
Total Dipole Moment    :     -0.24407       0.24298      -0.82338
                        -----------------------------------------
Magnitude (a.u.)       :      0.89250
Magnitude (Debye)      :      2.26857

Rotational constants in cm-1:     0.127669     0.058023     0.053953
Rotational constants in MHz :  3827.411023  1739.493733  1617.466565

                             ****ORCA TERMINATED NORMALLY****
TOTAL RUN TIME: 0 days 0 hours 0 minutes 30 seconds 705 msec
