                         Program Version 5.0.0 -  RELEASE  -
|  1> !B3LYP D3BJ RIJCOSX def2-SVPD def2/J TightSCF
|  2> *xyz 0 1
|  3> C         -1.10433        0.25137       -2.86006
|  4> C         -0.71189        0.84252       -4.21834
|  5> H          0.15463        1.49980       -4.13091
|  6> H         -1.53813        1.45922       -4.58267
|  7> C         -0.39762       -0.20587       -5.28802
|  8> F          0.61717       -0.00535       -5.99827
|  9> O         -1.13317       -1.22138       -5.34147
| 10> C         -0.19626       -0.86337       -2.32576
| 11> H         -1.14384        1.06671       -2.12968
| 12> H         -2.11440       -0.15683       -2.93032
| 13> H         -0.15538       -1.66172       -3.03700
| 14> H         -0.58845       -1.22999       -1.40020
| 15> H          0.78852       -0.47602       -2.16737
| 16> *
| 17>
| 18> %MaxCore 64000
| 19>
| 20> %pal nprocs 4
| 21> end
| 22>
| 23> %scf
| 24>   MaxIter 150
| 25> end
| 26>
| 27>
| 28>                          ****END OF INPUT****

CARTESIAN COORDINATES (ANGSTROEM)
---------------------------------
  C     -1.104330    0.251370   -2.860060
  C     -0.711890    0.842520   -4.218340
  H      0.154630    1.499800   -4.130910
  H     -1.538130    1.459220   -4.582670
  C     -0.397620   -0.205870   -5.288020
  F      0.617170   -0.005350   -5.998270
  O     -1.133170   -1.221380   -5.341470
  C     -0.196260   -0.863370   -2.325760
  H     -1.143840    1.066710   -2.129680
  H     -2.114400   -0.156830   -2.930320
  H     -0.155380   -1.661720   -3.037000
  H     -0.588450   -1.229990   -1.400200
  H      0.788520   -0.476020   -2.167370

 Total Charge           Charge          ....    0
 Multiplicity           Mult            ....    1
 Number of Electrons    NEL             ....   48
 Basis Dimension        Dim             ....  182

ORBITAL ENERGIES
----------------

  NO   OCC          E(Eh)            E(eV)
   0   2.0000     -24.770279      -674.0336
   1   2.0000     -19.150465      -521.1106
   2   2.0000     -10.367420      -282.1118
   3   2.0000     -10.215714      -277.9837
   4   2.0000     -10.196816      -277.4695
   5   2.0000     -10.173201      -276.8269
   6   2.0000      -1.308566       -35.6079
   7   2.0000      -1.028173       -27.9780
   8   2.0000      -0.804988       -21.9048
   9   2.0000      -0.724900       -19.7255
  10   2.0000      -0.663125       -18.0445
  11   2.0000      -0.608629       -16.5616
  12   2.0000      -0.553129       -15.0514
  13   2.0000      -0.533678       -14.5221
  14   2.0000      -0.509602       -13.8670
  15   2.0000      -0.468035       -12.7359
  16   2.0000      -0.455454       -12.3935
  17   2.0000      -0.419505       -11.4153
  18   2.0000      -0.405442       -11.0326
  19   2.0000      -0.371972       -10.1219
  20   2.0000      -0.359092        -9.7714
  21   2.0000      -0.350870        -9.5477
  22   2.0000      -0.345413        -9.3992
  23   2.0000      -0.298042        -8.1101
  24   0.0000      -0.037982        -1.0335
  25   0.0000       0.012411         0.3377
  26   0.0000       0.040508         1.1023
  27   0.0000       0.046429         1.2634
  28   0.0000       0.057749         1.5714

MULLIKEN ATOMIC CHARGES
-----------------------
   0 C :   -0.203177
   1 C :    0.230686
   2 H :   -0.044181
   3 H :   -0.048042
   4 C :    0.715555
   5 F :   -0.358384
   6 O :   -0.525523
   7 C :    0.913461
   8 H :   -0.233151
   9 H :   -0.059321
  10 H :   -0.168280
  11 H :   -0.125533
  12 H :   -0.094111
Sum of atomic charges:   -0.0000000

LOEWDIN ATOMIC CHARGES
----------------------
   0 C :   -0.054377
   1 C :    0.047817
   2 H :    0.021399
   3 H :    0.037924
   4 C :   -0.011037
   5 F :   -0.031106
   6 O :   -0.129563
   7 C :    0.141802
   8 H :    0.020345
   9 H :    0.023021
  10 H :   -0.029807
  11 H :   -0.017366
  12 H :   -0.019051

  Mayer bond orders larger than 0.100000
B(  0-C ,  1-C ) :   1.2390 B(  0-C ,  2-H ) :   0.1503 B(  0-C ,  3-H ) :   0.1511
B(  0-C ,  7-C ) :   1.3489 B(  0-C ,  8-H ) :   0.8993 B(  0-C ,  9-H ) :   0.8452
B(  0-C , 10-H ) :   0.2210 B(  0-C , 11-H ) :   0.2438 B(  0-C , 12-H ) :   0.2130
B(  1-C ,  2-H ) :   0.8436 B(  1-C ,  3-H ) :   0.7813 B(  1-C ,  4-C ) :   1.0872
B(  1-C ,  8-H ) :   0.1246 B(  1-C ,  9-H ) :   0.1263 B(  2-H ,  4-C ) :   0.1313
B(  4-C ,  5-F ) :   0.7228 B(  4-C ,  6-O ) :   1.8023 B(  5-F ,  6-O ) :   0.1095
B(  7-C ,  8-H ) :   0.1013 B(  7-C , 10-H ) :   0.7912 B(  7-C , 11-H ) :   0.6936
B(  7-C , 12-H ) :   0.7467

Dispersion correction           -0.015794753
FINAL SINGLE POINT ENERGY      -331.319678629266

DIPOLE MOMENT
-------------
                                X             Y             Z
Electronic contribution:      2.60600      -0.67440     -10.67451
Nuclear contribution   :     -2.39146       1.63977      11.24418
                        -----------------------------------------
Total Dipole Moment    :      0.21455       0.96537       0.56967
                        -----------------------------------------
Magnitude (a.u.)       :      1.14127
Magnitude (Debye)      :      2.90087

Rotational constants in cm-1:     0.198868     0.077542     0.072498
Rotational constants in MHz :  5961.919605  2324.650173  2173.425242

                             ****ORCA TERMINATED NORMALLY****
TOTAL RUN TIME: 0 days 0 hours 0 minutes 16 seconds 540 msec
