                         Program Version 5.0.0 -  RELEASE  -
|  1> !B3LYP D3BJ RIJCOSX def2-SVPD def2/J TightSCF
|  2> *xyz 0 1
|  3> C          2.23447       -2.98975       -2.39762
|  4> C          2.75680       -2.94555       -3.76503
|  5> C          1.98721       -2.59045       -4.81898
|  6> N          0.74322       -3.01749       -4.91352
|  7> N          2.49964       -1.84860       -5.80324
|  8> H          3.30978       -1.29282       -5.55895
|  9> H          1.80103       -1.30430       -6.28913
| 10> H          3.71612       -2.62880       -3.82953
| 11> H          0.39583       -3.62775       -4.18502
| 12> H          0.03920       -2.45438       -5.37137
| 13> C          2.19120       -1.61950       -1.71549
| 14> H          2.87278       -3.66637       -1.82801
| 15> H          1.24619       -3.44744       -2.40784
| 16> C          1.29873       -0.55431       -2.35977
| 17> H          1.87292       -1.78796       -0.68131
| 18> H          3.21681       -1.23843       -1.65443
| 19> H          1.61097       -0.39090       -3.37007
| 20> H          1.37981        0.35955       -1.80916
| 21> H          0.28197       -0.88750       -2.35015
| 22> *
| 23>
| 24> %MaxCore 64000
| 25>
| 26> %pal nprocs 4
| 27> end
| 28>
| 29> %scf
| 30>   MaxIter 150
| 31> end
| 32>
| 33>
| 34>                          ****END OF INPUT****

CARTESIAN COORDINATES (ANGSTROEM)
---------------------------------
  C      2.234470   -2.989750   -2.397620
  C      2.756800   -2.945550   -3.765030
  C      1.987210   -2.590450   -4.818980
  N      0.743220   -3.017490   -4.913520
  N      2.499640   -1.848600   -5.803240
  H      3.309780   -1.292820   -5.558950
  H      1.801030   -1.304300   -6.289130
  H      3.716120   -2.628800   -3.829530
  H      0.395830   -3.627750   -4.185020
  H      0.039200   -2.454380   -5.371370
  C      2.191200   -1.619500   -1.715490
  H      2.872780   -3.666370   -1.828010
  H      1.246190   -3.447440   -2.407840
  C      1.298730   -0.554310   -2.359770
  H      1.872920   -1.787960   -0.681310
  H      3.216810   -1.238430   -1.654430
  H      1.610970   -0.390900   -3.370070
  H      1.379810    0.359550   -1.809160
  H      0.281970   -0.887500   -2.350150

 Total Charge           Charge          ....    0
 Multiplicity           Mult            ....    1
 Number of Electrons    NEL             ....   56
 Basis Dimension        Dim             ....  236

ORBITAL ENERGIES
----------------

  NO   OCC          E(Eh)            E(eV)
   0   2.0000     -14.338121      -390.1601
   1   2.0000     -14.334912      -390.0728
   2   2.0000     -10.232306      -278.4352
   3   2.0000     -10.164968      -276.6028
   4   2.0000     -10.160537      -276.4823
   5   2.0000     -10.160052      -276.4691
   6   2.0000     -10.110471      -275.1199
   7   2.0000      -0.964327       -26.2407
   8   2.0000      -0.873034       -23.7565
   9   2.0000      -0.780414       -21.2362
  10   2.0000      -0.716658       -19.5013
  11   2.0000      -0.656812       -17.8728
  12   2.0000      -0.599480       -16.3127
  13   2.0000      -0.565804       -15.3963
  14   2.0000      -0.544516       -14.8170
  15   2.0000      -0.508534       -13.8379
  16   2.0000      -0.473628       -12.8881
  17   2.0000      -0.450871       -12.2688
  18   2.0000      -0.440052       -11.9744
  19   2.0000      -0.413936       -11.2638
  20   2.0000      -0.387524       -10.5451
  21   2.0000      -0.377282       -10.2664
  22   2.0000      -0.354518        -9.6469
  23   2.0000      -0.340740        -9.2720
  24   2.0000      -0.318867        -8.6768
  25   2.0000      -0.314996        -8.5715
  26   2.0000      -0.277398        -7.5484
  27   2.0000      -0.163584        -4.4513
  28   0.0000       0.003596         0.0978
  29   0.0000       0.034662         0.9432
  30   0.0000       0.039395         1.0720
  31   0.0000       0.044886         1.2214
  32   0.0000       0.058421         1.5897

MULLIKEN ATOMIC CHARGES
-----------------------
   0 C :    0.360665
   1 C :   -0.039076
   2 C :    0.246999
   3 N :    0.144724
   4 N :    0.075087
   5 H :    0.009504
   6 H :   -0.027914
   7 H :   -0.249027
   8 H :   -0.040044
   9 H :   -0.163047
  10 C :   -0.161220
  11 H :   -0.152543
  12 H :   -0.248991
  13 C :    1.085838
  14 H :   -0.185353
  15 H :   -0.138742
  16 H :   -0.243840
  17 H :   -0.209802
  18 H :   -0.063218
Sum of atomic charges:   -0.0000000

LOEWDIN ATOMIC CHARGES
----------------------
   0 C :   -0.064214
   1 C :   -0.010463
   2 C :   -0.251599
   3 N :    0.207208
   4 N :    0.199959
   5 H :    0.000365
   6 H :   -0.014386
   7 H :   -0.059020
   8 H :   -0.005303
   9 H :   -0.004101
  10 C :   -0.063928
  11 H :    0.007611
  12 H :   -0.008525
  13 C :    0.132517
  14 H :    0.010318
  15 H :    0.015683
  16 H :   -0.041669
  17 H :   -0.025805
  18 H :   -0.024647

  Mayer bond orders larger than 0.100000
B(  0-C ,  1-C ) :   1.2260 B(  0-C ,  2-C ) :   0.1601 B(  0-C ,  7-H ) :   0.3500
B(  0-C , 10-C ) :   1.1599 B(  0-C , 11-H ) :   0.7455 B(  0-C , 12-H ) :   0.7139
B(  0-C , 14-H ) :   0.2279 B(  0-C , 15-H ) :   0.1878 B(  1-C ,  2-C ) :   1.6495
B(  1-C ,  3-N ) :   0.1359 B(  1-C ,  4-N ) :   0.2701 B(  1-C ,  7-H ) :   0.5711
B(  1-C , 11-H ) :   0.2200 B(  1-C , 12-H ) :   0.2346 B(  2-C ,  3-N ) :   1.0769
B(  2-C ,  4-N ) :   0.9425 B(  2-C ,  6-H ) :   0.1078 B(  2-C ,  7-H ) :   0.3141
B(  3-N ,  4-N ) :   0.1242 B(  3-N ,  8-H ) :   0.9959 B(  3-N ,  9-H ) :   1.1778
B(  4-N ,  5-H ) :   0.9460 B(  4-N ,  6-H ) :   0.8698 B(  8-H ,  9-H ) :  -0.1444
B( 10-C , 12-H ) :   0.1511 B( 10-C , 13-C ) :   1.2782 B( 10-C , 14-H ) :   0.8396
B( 10-C , 15-H ) :   0.8721 B( 10-C , 16-H ) :   0.2754 B( 10-C , 17-H ) :   0.2635
B( 10-C , 18-H ) :   0.2510 B( 13-C , 15-H ) :   0.1046 B( 13-C , 16-H ) :   0.7416
B( 13-C , 17-H ) :   0.6703 B( 13-C , 18-H ) :   0.6915 B( 16-H , 18-H ) :   0.1343

Dispersion correction           -0.028019304
FINAL SINGLE POINT ENERGY      -306.843289906631

DIPOLE MOMENT
-------------
                                X             Y             Z
Electronic contribution:      0.58898      -2.85648      -5.02997
Nuclear contribution   :     -1.30515       3.65216       4.73330
                        -----------------------------------------
Total Dipole Moment    :     -0.71617       0.79568      -0.29667
                        -----------------------------------------
Magnitude (a.u.)       :      1.11086
Magnitude (Debye)      :      2.82359

Rotational constants in cm-1:     0.129987     0.058163     0.054282
Rotational constants in MHz :  3896.918182  1743.696851  1627.337267

                             ****ORCA TERMINATED NORMALLY****
TOTAL RUN TIME: 0 days 0 hours 0 minutes 33 seconds 994 msec
