                         Program Version 5.0.0 -  RELEASE  -
|  1> !B3LYP D3BJ RIJCOSX def2-SVPD def2/J TightSCF
|  2> *xyz 0 1
|  3> C         -1.10433        0.25137       -2.86006
|  4> C         -0.71189        0.84252       -4.21834
|  5> H          0.15463        1.49980       -4.13091
|  6> H         -1.53813        1.45922       -4.58267
|  7> C         -0.39762       -0.20587       -5.28802
|  8> O          0.61717       -0.00535       -5.99827
|  9> F         -1.13317       -1.22138       -5.34147
| 10> C         -0.19626       -0.86337       -2.32576
| 11> H         -1.14384        1.06671       -2.12968
| 12> H         -2.11440       -0.15683       -2.93032
| 13> H         -0.15538       -1.66172       -3.03700
| 14> H         -0.58845       -1.22999       -1.40020
| 15> H          0.78852       -0.47602       -2.16737
| 16> *
| 17>
| 18> %MaxCore 64000
| 19>
| 20> %pal nprocs 4
| 21> end
| 22>
| 23> %scf
| 24>   MaxIter 150
| 25> end
| 26>
| 27>
| 28>                          ****END OF INPUT****

CARTESIAN COORDINATES (ANGSTROEM)
---------------------------------
  C     -1.104330    0.251370   -2.860060
  C     -0.711890    0.842520   -4.218340
  H      0.154630    1.499800   -4.130910
  H     -1.538130    1.459220   -4.582670
  C     -0.397620   -0.205870   -5.288020
  O      0.617170   -0.005350   -5.998270
  F     -1.133170   -1.221380   -5.341470
  C     -0.196260   -0.863370   -2.325760
  H     -1.143840    1.066710   -2.129680
  H     -2.114400   -0.156830   -2.930320
  H     -0.155380   -1.661720   -3.037000
  H     -0.588450   -1.229990   -1.400200
  H      0.788520   -0.476020   -2.167370

 Total Charge           Charge          ....    0
 Multiplicity           Mult            ....    1
 Number of Electrons    NEL             ....   48
 Basis Dimension        Dim             ....  182

ORBITAL ENERGIES
----------------

  NO   OCC          E(Eh)            E(eV)
   0   2.0000     -24.771066      -674.0550
   1   2.0000     -19.149104      -521.0736
   2   2.0000     -10.366414      -282.0845
   3   2.0000     -10.214578      -277.9528
   4   2.0000     -10.201861      -277.6067
   5   2.0000     -10.181332      -277.0481
   6   2.0000      -1.309160       -35.6241
   7   2.0000      -1.026401       -27.9298
   8   2.0000      -0.810425       -22.0528
   9   2.0000      -0.725412       -19.7395
  10   2.0000      -0.663693       -18.0600
  11   2.0000      -0.614328       -16.7167
  12   2.0000      -0.555148       -15.1064
  13   2.0000      -0.544957       -14.8290
  14   2.0000      -0.493714       -13.4346
  15   2.0000      -0.474735       -12.9182
  16   2.0000      -0.456770       -12.4293
  17   2.0000      -0.422812       -11.5053
  18   2.0000      -0.406371       -11.0579
  19   2.0000      -0.380308       -10.3487
  20   2.0000      -0.367361        -9.9964
  21   2.0000      -0.356404        -9.6982
  22   2.0000      -0.346971        -9.4416
  23   2.0000      -0.292744        -7.9660
  24   0.0000      -0.034918        -0.9502
  25   0.0000       0.008771         0.2387
  26   0.0000       0.041387         1.1262
  27   0.0000       0.045793         1.2461
  28   0.0000       0.054430         1.4811

MULLIKEN ATOMIC CHARGES
-----------------------
   0 C :   -0.201199
   1 C :    0.255784
   2 H :   -0.063948
   3 H :   -0.062719
   4 C :    0.732196
   5 O :   -0.463379
   6 F :   -0.415182
   7 C :    0.916224
   8 H :   -0.243339
   9 H :   -0.078179
  10 H :   -0.170461
  11 H :   -0.124886
  12 H :   -0.080913
Sum of atomic charges:    0.0000000

LOEWDIN ATOMIC CHARGES
----------------------
   0 C :   -0.063002
   1 C :    0.053414
   2 H :    0.032863
   3 H :    0.035723
   4 C :   -0.017688
   5 O :   -0.131327
   6 F :   -0.029893
   7 C :    0.141431
   8 H :    0.020522
   9 H :    0.017795
  10 H :   -0.028716
  11 H :   -0.017133
  12 H :   -0.013989

  Mayer bond orders larger than 0.100000
B(  0-C ,  1-C ) :   1.2117 B(  0-C ,  2-H ) :   0.1437 B(  0-C ,  3-H ) :   0.1412
B(  0-C ,  7-C ) :   1.3460 B(  0-C ,  8-H ) :   0.9066 B(  0-C ,  9-H ) :   0.8482
B(  0-C , 10-H ) :   0.2213 B(  0-C , 11-H ) :   0.2485 B(  0-C , 12-H ) :   0.2188
B(  1-C ,  2-H ) :   0.8638 B(  1-C ,  3-H ) :   0.7940 B(  1-C ,  4-C ) :   1.0391
B(  1-C ,  8-H ) :   0.1270 B(  1-C ,  9-H ) :   0.1186 B(  2-H ,  4-C ) :   0.1715
B(  4-C ,  5-O ) :   1.7821 B(  4-C ,  6-F ) :   0.6906 B(  5-O ,  6-F ) :   0.1263
B(  7-C , 10-H ) :   0.7905 B(  7-C , 11-H ) :   0.6912 B(  7-C , 12-H ) :   0.7505

Dispersion correction           -0.015646391
FINAL SINGLE POINT ENERGY      -331.318812824570

DIPOLE MOMENT
-------------
                                X             Y             Z
Electronic contribution:     -0.35605      -2.71693      -9.50501
Nuclear contribution   :     -0.41432       3.01336      10.50227
                        -----------------------------------------
Total Dipole Moment    :     -0.77037       0.29643       0.99727
                        -----------------------------------------
Magnitude (a.u.)       :      1.29456
Magnitude (Debye)      :      3.29050

Rotational constants in cm-1:     0.192167     0.080512     0.073747
Rotational constants in MHz :  5761.018137  2413.690728  2210.882638

                             ****ORCA TERMINATED NORMALLY****
TOTAL RUN TIME: 0 days 0 hours 0 minutes 16 seconds 970 msec
