                         Program Version 5.0.0 -  RELEASE  -
|  1> !B3LYP D3BJ RIJCOSX def2-SVPD def2/J TightSCF
|  2> *xyz 0 1
|  3> C          2.23447       -2.98975       -2.39762
|  4> N          2.75680       -2.94555       -3.76503
|  5> C          1.98721       -2.59045       -4.81898
|  6> C          0.74322       -3.01749       -4.91352
|  7> N          2.49964       -1.84860       -5.80324
|  8> H          3.30978       -1.29282       -5.55895
|  9> H          1.80103       -1.30430       -6.28913
| 10> H          3.71612       -2.62880       -3.82953
| 11> H          0.39583       -3.62775       -4.18502
| 12> H          0.03920       -2.45438       -5.37137
| 13> C          2.19120       -1.61950       -1.71549
| 14> H          2.87278       -3.66637       -1.82801
| 15> H          1.24619       -3.44744       -2.40784
| 16> C          1.29873       -0.55431       -2.35977
| 17> H          1.87292       -1.78796       -0.68131
| 18> H          3.21681       -1.23843       -1.65443
| 19> H          1.61097       -0.39090       -3.37007
| 20> H          1.37981        0.35955       -1.80916
| 21> H          0.28197       -0.88750       -2.35015
| 22> *
| 23>
| 24> %MaxCore 64000
| 25>
| 26> %pal nprocs 4
| 27> end
| 28>
| 29> %scf
| 30>   MaxIter 150
| 31> end
| 32>
| 33>
| 34>                          ****END OF INPUT****

CARTESIAN COORDINATES (ANGSTROEM)
---------------------------------
  C      2.234470   -2.989750   -2.397620
  N      2.756800   -2.945550   -3.765030
  C      1.987210   -2.590450   -4.818980
  C      0.743220   -3.017490   -4.913520
  N      2.499640   -1.848600   -5.803240
  H      3.309780   -1.292820   -5.558950
  H      1.801030   -1.304300   -6.289130
  H      3.716120   -2.628800   -3.829530
  H      0.395830   -3.627750   -4.185020
  H      0.039200   -2.454380   -5.371370
  C      2.191200   -1.619500   -1.715490
  H      2.872780   -3.666370   -1.828010
  H      1.246190   -3.447440   -2.407840
  C      1.298730   -0.554310   -2.359770
  H      1.872920   -1.787960   -0.681310
  H      3.216810   -1.238430   -1.654430
  H      1.610970   -0.390900   -3.370070
  H      1.379810    0.359550   -1.809160
  H      0.281970   -0.887500   -2.350150

 Total Charge           Charge          ....    0
 Multiplicity           Mult            ....    1
 Number of Electrons    NEL             ....   56
 Basis Dimension        Dim             ....  236

ORBITAL ENERGIES
----------------

  NO   OCC          E(Eh)            E(eV)
   0   2.0000     -14.332798      -390.0153
   1   2.0000     -14.332566      -390.0089
   2   2.0000     -10.228954      -278.3440
   3   2.0000     -10.214791      -277.9586
   4   2.0000     -10.183842      -277.1164
   5   2.0000     -10.168380      -276.6957
   6   2.0000     -10.102711      -274.9087
   7   2.0000      -0.960865       -26.1465
   8   2.0000      -0.881796       -23.9949
   9   2.0000      -0.771894       -21.0043
  10   2.0000      -0.715284       -19.4639
  11   2.0000      -0.683300       -18.5935
  12   2.0000      -0.601514       -16.3680
  13   2.0000      -0.559561       -15.2264
  14   2.0000      -0.543277       -14.7833
  15   2.0000      -0.511138       -13.9088
  16   2.0000      -0.470847       -12.8124
  17   2.0000      -0.455857       -12.4045
  18   2.0000      -0.429084       -11.6760
  19   2.0000      -0.413970       -11.2647
  20   2.0000      -0.400832       -10.9072
  21   2.0000      -0.382047       -10.3960
  22   2.0000      -0.368425       -10.0254
  23   2.0000      -0.357578        -9.7302
  24   2.0000      -0.345813        -9.4101
  25   2.0000      -0.336903        -9.1676
  26   2.0000      -0.254530        -6.9261
  27   2.0000      -0.177284        -4.8241
  28   0.0000       0.007056         0.1920
  29   0.0000       0.031313         0.8521
  30   0.0000       0.036811         1.0017
  31   0.0000       0.050117         1.3638
  32   0.0000       0.056371         1.5339

MULLIKEN ATOMIC CHARGES
-----------------------
   0 C :    0.907521
   1 N :   -0.287691
   2 C :    0.407528
   3 C :    0.500464
   4 N :    0.078149
   5 H :   -0.090067
   6 H :    0.007568
   7 H :   -0.303368
   8 H :   -0.247125
   9 H :   -0.464372
  10 C :   -0.216467
  11 H :   -0.379205
  12 H :   -0.154029
  13 C :    1.076362
  14 H :   -0.157954
  15 H :   -0.136959
  16 H :   -0.306770
  17 H :   -0.153547
  18 H :   -0.080038
Sum of atomic charges:    0.0000000

LOEWDIN ATOMIC CHARGES
----------------------
   0 C :    0.054050
   1 N :    0.004251
   2 C :   -0.259612
   3 C :    0.165304
   4 N :    0.196794
   5 H :   -0.018215
   6 H :   -0.001367
   7 H :    0.010173
   8 H :   -0.105379
   9 H :   -0.092778
  10 C :   -0.057587
  11 H :    0.014619
  12 H :    0.006843
  13 C :    0.137546
  14 H :    0.014956
  15 H :    0.011337
  16 H :   -0.039217
  17 H :   -0.023819
  18 H :   -0.017900

  Mayer bond orders larger than 0.100000
B(  0-C ,  1-N ) :   0.9340 B(  0-C , 10-C ) :   1.0918 B(  0-C , 11-H ) :   0.7905
B(  0-C , 12-H ) :   0.7025 B(  0-C , 14-H ) :   0.1715 B(  0-C , 15-H ) :   0.1414
B(  1-N ,  2-C ) :   1.0555 B(  1-N ,  3-C ) :   0.2912 B(  1-N ,  4-N ) :   0.1320
B(  1-N ,  7-H ) :   1.0973 B(  1-N , 11-H ) :   0.1912 B(  1-N , 12-H ) :   0.1458
B(  2-C ,  3-C ) :   1.7316 B(  2-C ,  4-N ) :   0.9004 B(  2-C ,  7-H ) :  -0.1246
B(  2-C ,  8-H ) :   0.3246 B(  2-C ,  9-H ) :   0.1894 B(  3-C ,  4-N ) :   0.2360
B(  3-C ,  8-H ) :   0.4750 B(  3-C ,  9-H ) :   0.7807 B(  4-N ,  5-H ) :   0.9361
B(  4-N ,  6-H ) :   0.9355 B(  8-H ,  9-H ) :   0.1608 B( 10-C , 12-H ) :   0.1622
B( 10-C , 13-C ) :   1.2706 B( 10-C , 14-H ) :   0.8811 B( 10-C , 15-H ) :   0.8956
B( 10-C , 16-H ) :   0.2757 B( 10-C , 17-H ) :   0.2325 B( 10-C , 18-H ) :   0.2613
B( 11-H , 12-H ) :  -0.1386 B( 13-C , 14-H ) :   0.1044 B( 13-C , 16-H ) :   0.7491
B( 13-C , 17-H ) :   0.6826 B( 13-C , 18-H ) :   0.6787 B( 16-H , 18-H ) :   0.1598

Dispersion correction           -0.027858905
FINAL SINGLE POINT ENERGY      -306.836853986817

DIPOLE MOMENT
-------------
                                X             Y             Z
Electronic contribution:      2.34617      -2.71167      -3.89663
Nuclear contribution   :     -1.74624       3.63640       4.48172
                        -----------------------------------------
Total Dipole Moment    :      0.59994       0.92473       0.58509
                        -----------------------------------------
Magnitude (a.u.)       :      1.24795
Magnitude (Debye)      :      3.17204

Rotational constants in cm-1:     0.131012     0.059513     0.054636
Rotational constants in MHz :  3927.631151  1784.169731  1637.945644

                             ****ORCA TERMINATED NORMALLY****
TOTAL RUN TIME: 0 days 0 hours 0 minutes 32 seconds 430 msec
