                         Program Version 5.0.0 -  RELEASE  -
|  1> !B3LYP D3BJ RIJCOSX def2-SVPD def2/J TightSCF
|  2> *xyz 0 1
|  3> C          2.23447       -2.98975       -2.39762
|  4> N          2.75680       -2.94555       -3.76503
|  5> C          1.98721       -2.59045       -4.81898
|  6> N          0.74322       -3.01749       -4.91352
|  7> C          2.49964       -1.84860       -5.80324
|  8> H          3.30978       -1.29282       -5.55895
|  9> H          1.80103       -1.30430       -6.28913
| 10> H          3.71612       -2.62880       -3.82953
| 11> H          0.39583       -3.62775       -4.18502
| 12> H          0.03920       -2.45438       -5.37137
| 13> C          2.19120       -1.61950       -1.71549
| 14> H          2.87278       -3.66637       -1.82801
| 15> H          1.24619       -3.44744       -2.40784
| 16> C          1.29873       -0.55431       -2.35977
| 17> H          1.87292       -1.78796       -0.68131
| 18> H          3.21681       -1.23843       -1.65443
| 19> H          1.61097       -0.39090       -3.37007
| 20> H          1.37981        0.35955       -1.80916
| 21> H          0.28197       -0.88750       -2.35015
| 22> *
| 23>
| 24> %MaxCore 64000
| 25>
| 26> %pal nprocs 4
| 27> end
| 28>
| 29> %scf
| 30>   MaxIter 150
| 31> end
| 32>
| 33>
| 34>                          ****END OF INPUT****

CARTESIAN COORDINATES (ANGSTROEM)
---------------------------------
  C      2.234470   -2.989750   -2.397620
  N      2.756800   -2.945550   -3.765030
  C      1.987210   -2.590450   -4.818980
  N      0.743220   -3.017490   -4.913520
  C      2.499640   -1.848600   -5.803240
  H      3.309780   -1.292820   -5.558950
  H      1.801030   -1.304300   -6.289130
  H      3.716120   -2.628800   -3.829530
  H      0.395830   -3.627750   -4.185020
  H      0.039200   -2.454380   -5.371370
  C      2.191200   -1.619500   -1.715490
  H      2.872780   -3.666370   -1.828010
  H      1.246190   -3.447440   -2.407840
  C      1.298730   -0.554310   -2.359770
  H      1.872920   -1.787960   -0.681310
  H      3.216810   -1.238430   -1.654430
  H      1.610970   -0.390900   -3.370070
  H      1.379810    0.359550   -1.809160
  H      0.281970   -0.887500   -2.350150

 Total Charge           Charge          ....    0
 Multiplicity           Mult            ....    1
 Number of Electrons    NEL             ....   56
 Basis Dimension        Dim             ....  236

ORBITAL ENERGIES
----------------

  NO   OCC          E(Eh)            E(eV)
   0   2.0000     -14.335390      -390.0858
   1   2.0000     -14.331681      -389.9849
   2   2.0000     -10.233005      -278.4542
   3   2.0000     -10.222725      -278.1745
   4   2.0000     -10.186800      -277.1969
   5   2.0000     -10.170291      -276.7477
   6   2.0000     -10.098529      -274.7950
   7   2.0000      -0.962784       -26.1987
   8   2.0000      -0.881627       -23.9903
   9   2.0000      -0.778980       -21.1971
  10   2.0000      -0.722545       -19.6615
  11   2.0000      -0.670089       -18.2341
  12   2.0000      -0.601536       -16.3686
  13   2.0000      -0.593977       -16.1629
  14   2.0000      -0.541035       -14.7223
  15   2.0000      -0.494680       -13.4609
  16   2.0000      -0.486982       -13.2514
  17   2.0000      -0.451932       -12.2977
  18   2.0000      -0.447744       -12.1837
  19   2.0000      -0.407467       -11.0878
  20   2.0000      -0.394343       -10.7306
  21   2.0000      -0.380740       -10.3605
  22   2.0000      -0.369040       -10.0421
  23   2.0000      -0.359689        -9.7876
  24   2.0000      -0.346149        -9.4192
  25   2.0000      -0.344045        -9.3619
  26   2.0000      -0.256305        -6.9744
  27   2.0000      -0.173459        -4.7201
  28   0.0000       0.008299         0.2258
  29   0.0000       0.029083         0.7914
  30   0.0000       0.032768         0.8917
  31   0.0000       0.044089         1.1997
  32   0.0000       0.055078         1.4987

MULLIKEN ATOMIC CHARGES
-----------------------
   0 C :    0.944867
   1 N :   -0.370526
   2 C :    0.242598
   3 N :    0.303354
   4 C :    0.644215
   5 H :   -0.264589
   6 H :   -0.491349
   7 H :   -0.194636
   8 H :   -0.134322
   9 H :   -0.125402
  10 C :   -0.226407
  11 H :   -0.393372
  12 H :   -0.186911
  13 C :    1.040927
  14 H :   -0.154694
  15 H :   -0.139663
  16 H :   -0.205273
  17 H :   -0.238156
  18 H :   -0.050661
Sum of atomic charges:    0.0000000

LOEWDIN ATOMIC CHARGES
----------------------
   0 C :    0.046864
   1 N :    0.008180
   2 C :   -0.255042
   3 N :    0.208383
   4 C :    0.145457
   5 H :   -0.107954
   6 H :   -0.107806
   7 H :    0.024325
   8 H :   -0.020107
   9 H :    0.012570
  10 C :   -0.058050
  11 H :    0.013322
  12 H :    0.000349
  13 C :    0.139603
  14 H :    0.013529
  15 H :    0.015350
  16 H :   -0.034182
  17 H :   -0.022543
  18 H :   -0.022250

  Mayer bond orders larger than 0.100000
B(  0-C ,  1-N ) :   0.9426 B(  0-C , 10-C ) :   1.1007 B(  0-C , 11-H ) :   0.7755
B(  0-C , 12-H ) :   0.7174 B(  0-C , 14-H ) :   0.1537 B(  0-C , 15-H ) :   0.1583
B(  1-N ,  2-C ) :   1.0550 B(  1-N ,  4-C ) :   0.2115 B(  1-N ,  7-H ) :   1.1041
B(  1-N , 11-H ) :   0.2158 B(  1-N , 12-H ) :   0.1582 B(  2-C ,  3-N ) :   1.0877
B(  2-C ,  4-C ) :   1.9650 B(  2-C ,  5-H ) :   0.2891 B(  2-C ,  6-H ) :   0.3286
B(  2-C ,  7-H ) :  -0.1112 B(  3-N ,  4-C ) :   0.2178 B(  3-N ,  8-H ) :   0.9692
B(  3-N ,  9-H ) :   1.0803 B(  4-C ,  5-H ) :   0.6261 B(  4-C ,  6-H ) :   0.5879
B(  5-H ,  6-H ) :   0.2838 B(  8-H ,  9-H ) :  -0.1525 B( 10-C , 11-H ) :   0.1031
B( 10-C , 12-H ) :   0.1648 B( 10-C , 13-C ) :   1.2764 B( 10-C , 14-H ) :   0.8980
B( 10-C , 15-H ) :   0.8662 B( 10-C , 16-H ) :   0.2737 B( 10-C , 17-H ) :   0.2468
B( 10-C , 18-H ) :   0.2590 B( 11-H , 12-H ) :  -0.1348 B( 13-C , 16-H ) :   0.7574
B( 13-C , 17-H ) :   0.6940 B( 13-C , 18-H ) :   0.6908 B( 16-H , 18-H ) :   0.1139

Dispersion correction           -0.027753499
FINAL SINGLE POINT ENERGY      -306.832729629098

DIPOLE MOMENT
-------------
                                X             Y             Z
Electronic contribution:      0.75846      -3.82897      -3.03702
Nuclear contribution   :     -1.36148       3.89245       4.28682
                        -----------------------------------------
Total Dipole Moment    :     -0.60302       0.06349       1.24980
                        -----------------------------------------
Magnitude (a.u.)       :      1.38912
Magnitude (Debye)      :      3.53087

Rotational constants in cm-1:     0.130039     0.059901     0.055416
Rotational constants in MHz :  3898.472533  1795.778295  1661.317267

                             ****ORCA TERMINATED NORMALLY****
TOTAL RUN TIME: 0 days 0 hours 0 minutes 31 seconds 824 msec
