                         Program Version 5.0.0 -  RELEASE  -
|  1> !B3LYP D3BJ RIJCOSX def2-SVPD def2/J TightSCF xyzfile
|  2>
|  3> *xyzfile 0 1 D2.xyz
|  4>
|  5> %MaxCore 64000
|  6>
|  7> %pal nprocs 4
|  8> end
|  9>
| 10> %scf
| 11>   MaxIter 150
| 12> end
| 13>
| 14>
| 15>                          ****END OF INPUT****

CARTESIAN COORDINATES (ANGSTROEM)
---------------------------------
  C      2.234473   -2.989754   -2.397622
  N      2.756799   -2.945553   -3.765029
  C     -1.104325    0.251374   -2.860056
  C     -0.711893    0.842517   -4.218344
  H      0.154626    1.499800   -4.130909
  H     -1.538134    1.459222   -4.582671
  C     -0.397624   -0.205875   -5.288018
  C      1.987208   -2.590451   -4.818975
  C      0.743221   -3.017493   -4.913524
  N      2.499636   -1.848598   -5.803241
  H      3.309780   -1.292818   -5.558947
  H      1.801025   -1.304298   -6.289129
  H      3.716116   -2.628797   -3.829533
  H      0.395828   -3.627747   -4.185024
  H      0.039201   -2.454383   -5.371367
  F      0.617165   -0.005348   -5.998273
  O     -1.133173   -1.221380   -5.341465
  C      2.191199   -1.619503   -1.715492
  H      2.872783   -3.666368   -1.828014
  H      1.246188   -3.447444   -2.407842
  C      1.298729   -0.554314   -2.359773
  H      1.872917   -1.787955   -0.681310
  H      3.216809   -1.238432   -1.654428
  C     -0.196255   -0.863365   -2.325763
  H      1.612531   -0.371346   -3.393065
  H      1.480944    0.388638   -1.834444
  H     -0.404105   -1.761825   -2.909448
  H     -0.490439   -1.087880   -1.294131
  H     -1.143842    1.066711   -2.129680
  H     -2.114401   -0.156834   -2.930323

 Total Charge           Charge          ....    0
 Multiplicity           Mult            ....    1
 Number of Electrons    NEL             ....  102
 Basis Dimension        Dim             ....  402

ORBITAL ENERGIES
----------------

  NO   OCC          E(Eh)            E(eV)
   0   2.0000     -24.788220      -674.5218
   1   2.0000     -19.156776      -521.2824
   2   2.0000     -14.323467      -389.7614
   3   2.0000     -14.316669      -389.5764
   4   2.0000     -10.374545      -282.3057
   5   2.0000     -10.218959      -278.0720
   6   2.0000     -10.214701      -277.9561
   7   2.0000     -10.211062      -277.8571
   8   2.0000     -10.196809      -277.4693
   9   2.0000     -10.185432      -277.1597
  10   2.0000     -10.184496      -277.1342
  11   2.0000     -10.178729      -276.9773
  12   2.0000     -10.081084      -274.3202
  13   2.0000      -1.327871       -36.1332
  14   2.0000      -1.039876       -28.2965
  15   2.0000      -0.950462       -25.8634
  16   2.0000      -0.873030       -23.7564
  17   2.0000      -0.817562       -22.2470
  18   2.0000      -0.779578       -21.2134
  19   2.0000      -0.729873       -19.8608
  20   2.0000      -0.705016       -19.1845
  21   2.0000      -0.688257       -18.7284
  22   2.0000      -0.661505       -18.0005
  23   2.0000      -0.616295       -16.7702
  24   2.0000      -0.587858       -15.9964
  25   2.0000      -0.570498       -15.5240
  26   2.0000      -0.547368       -14.8947
  27   2.0000      -0.546363       -14.8673
  28   2.0000      -0.533216       -14.5095
  29   2.0000      -0.522860       -14.2277
  30   2.0000      -0.495345       -13.4790
  31   2.0000      -0.482004       -13.1160
  32   2.0000      -0.471279       -12.8241
  33   2.0000      -0.451077       -12.2744
  34   2.0000      -0.445209       -12.1148
  35   2.0000      -0.428173       -11.6512
  36   2.0000      -0.418485       -11.3875
  37   2.0000      -0.410322       -11.1654
  38   2.0000      -0.399583       -10.8732
  39   2.0000      -0.386842       -10.5265
  40   2.0000      -0.377345       -10.2681
  41   2.0000      -0.369056       -10.0425
  42   2.0000      -0.360261        -9.8032
  43   2.0000      -0.358068        -9.7435
  44   2.0000      -0.347485        -9.4555
  45   2.0000      -0.333896        -9.0858
  46   2.0000      -0.324750        -8.8369
  47   2.0000      -0.321993        -8.7619
  48   2.0000      -0.289486        -7.8773
  49   2.0000      -0.244776        -6.6607
  50   2.0000      -0.163849        -4.4585
  51   0.0000      -0.047125        -1.2823
  52   0.0000       0.005358         0.1458
  53   0.0000       0.020943         0.5699
  54   0.0000       0.026555         0.7226
  55   0.0000       0.038942         1.0597

MULLIKEN ATOMIC CHARGES
-----------------------
   0 C :    0.991910
   1 N :   -0.305921
   2 C :    0.745396
   3 C :    0.327795
   4 H :    0.089380
   5 H :   -0.346019
   6 C :    0.589930
   7 C :    0.378630
   8 C :    0.948027
   9 N :    0.242364
  10 H :    0.005727
  11 H :   -0.198392
  12 H :   -0.252301
  13 H :   -0.130834
  14 H :   -0.872216
  15 F :   -0.427629
  16 O :   -0.629778
  17 C :    0.522244
  18 H :   -0.472147
  19 H :   -0.078076
  20 C :    0.151923
  21 H :   -0.062998
  22 H :   -0.172689
  23 C :    0.065444
  24 H :   -0.280348
  25 H :   -0.226656
  26 H :   -0.209512
  27 H :   -0.214544
  28 H :   -0.180129
  29 H :    0.001418
Sum of atomic charges:   -0.0000000

LOEWDIN ATOMIC CHARGES
----------------------
   0 C :    0.062606
   1 N :    0.004398
   2 C :   -0.003998
   3 C :    0.060685
   4 H :    0.020600
   5 H :    0.037593
   6 C :    0.027306
   7 C :   -0.236036
   8 C :    0.188801
   9 N :    0.207219
  10 H :   -0.014350
  11 H :   -0.057254
  12 H :    0.008151
  13 H :   -0.087968
  14 H :   -0.162912
  15 F :   -0.033291
  16 O :   -0.117068
  17 C :   -0.010887
  18 H :    0.014768
  19 H :    0.003907
  20 C :   -0.021330
  21 H :    0.018747
  22 H :    0.014502
  23 C :   -0.013825
  24 H :   -0.002667
  25 H :    0.021470
  26 H :   -0.004363
  27 H :    0.025767
  28 H :    0.022987
  29 H :    0.026441

  Mayer bond orders larger than 0.100000
B(  0-C ,  1-N ) :   0.9381 B(  0-C ,  8-C ) :   0.1126 B(  0-C , 17-C ) :   1.0691
B(  0-C , 18-H ) :   0.6810 B(  0-C , 19-H ) :   0.7210 B(  0-C , 21-H ) :   0.1811
B(  0-C , 22-H ) :   0.1333 B(  1-N ,  7-C ) :   1.0220 B(  1-N ,  8-C ) :   0.3314
B(  1-N ,  9-N ) :   0.1586 B(  1-N , 12-H ) :   1.0515 B(  1-N , 18-H ) :   0.2300
B(  1-N , 19-H ) :   0.1411 B(  2-C ,  3-C ) :   1.1506 B(  2-C ,  4-H ) :   0.1174
B(  2-C ,  5-H ) :   0.1870 B(  2-C , 23-C ) :   1.2367 B(  2-C , 28-H ) :   0.6929
B(  2-C , 29-H ) :   0.5700 B(  3-C ,  4-H ) :   0.8016 B(  3-C ,  5-H ) :   0.6751
B(  3-C ,  6-C ) :   1.1930 B(  3-C , 23-C ) :   0.1436 B(  3-C , 28-H ) :   0.1862
B(  3-C , 29-H ) :   0.1136 B(  4-H ,  5-H ) :  -0.1054 B(  4-H ,  6-C ) :   0.1826
B(  5-H ,  6-C ) :   0.2290 B(  6-C , 14-H ) :   0.1279 B(  6-C , 15-F ) :   0.6019
B(  6-C , 16-O ) :   1.7641 B(  7-C ,  8-C ) :   1.7481 B(  7-C ,  9-N ) :   0.8246
B(  7-C , 13-H ) :   0.4007 B(  7-C , 14-H ) :   0.1596 B(  8-C ,  9-N ) :   0.2511
B(  8-C , 13-H ) :   0.2582 B(  8-C , 14-H ) :   0.1082 B(  9-N , 10-H ) :   0.8452
B(  9-N , 11-H ) :   0.9268 B( 14-H , 16-O ) :   0.2711 B( 15-F , 16-O ) :   0.1084
B( 17-C , 18-H ) :   0.1249 B( 17-C , 19-H ) :   0.1450 B( 17-C , 20-C ) :   1.2055
B( 17-C , 21-H ) :   0.7370 B( 17-C , 22-H ) :   0.6511 B( 17-C , 24-H ) :   0.1376
B( 18-H , 19-H ) :  -0.1673 B( 20-C , 21-H ) :   0.2024 B( 20-C , 22-H ) :   0.2841
B( 20-C , 23-C ) :   1.2498 B( 20-C , 24-H ) :   0.8567 B( 20-C , 25-H ) :   0.7344
B( 20-C , 26-H ) :   0.1685 B( 20-C , 27-H ) :   0.2634 B( 21-H , 22-H ) :  -0.1330
B( 23-C , 24-H ) :   0.1867 B( 23-C , 25-H ) :   0.2370 B( 23-C , 26-H ) :   0.9001
B( 23-C , 27-H ) :   0.6588 B( 23-C , 28-H ) :   0.1924 B( 23-C , 29-H ) :   0.2985
B( 28-H , 29-H ) :  -0.1477

Dispersion correction           -0.057433480
FINAL SINGLE POINT ENERGY      -636.947726702991

DIPOLE MOMENT
-------------
                                X             Y             Z
Electronic contribution:     -1.50263       2.16333     -13.53111
Nuclear contribution   :      2.00823      -0.28769      14.57028
                        -----------------------------------------
Total Dipole Moment    :      0.50560       1.87564       1.03917
                        -----------------------------------------
Magnitude (a.u.)       :      2.20307
Magnitude (Debye)      :      5.59976

Rotational constants in cm-1:     0.033070     0.023715     0.016943
Rotational constants in MHz :   991.423248   710.957140   507.940500

                             ****ORCA TERMINATED NORMALLY****
TOTAL RUN TIME: 0 days 0 hours 2 minutes 28 seconds 960 msec
