                         Program Version 5.0.0 -  RELEASE  -
|  1> !B3LYP D3BJ RIJCOSX def2-SVPD def2/J TightSCF xyzfile
|  2>
|  3> *xyzfile 0 1 D6.xyz
|  4>
|  5> %MaxCore 64000
|  6>
|  7> %pal nprocs 4
|  8> end
|  9>
| 10> %scf
| 11>   MaxIter 150
| 12> end
| 13>
| 14>
| 15>                          ****END OF INPUT****

CARTESIAN COORDINATES (ANGSTROEM)
---------------------------------
  C      2.234473   -2.989754   -2.397622
  N      2.756799   -2.945553   -3.765029
  C     -1.104325    0.251374   -2.860056
  C     -0.711893    0.842517   -4.218344
  H      0.154626    1.499800   -4.130909
  H     -1.538134    1.459222   -4.582671
  C     -0.397624   -0.205875   -5.288018
  C      1.987208   -2.590451   -4.818975
  N      0.743221   -3.017493   -4.913524
  C      2.499636   -1.848598   -5.803241
  H      3.309780   -1.292818   -5.558947
  H      1.801025   -1.304298   -6.289129
  H      3.716116   -2.628797   -3.829533
  H      0.395828   -3.627747   -4.185024
  H      0.039201   -2.454383   -5.371367
  O      0.617165   -0.005348   -5.998273
  F     -1.133173   -1.221380   -5.341465
  C      2.191199   -1.619503   -1.715492
  H      2.872783   -3.666368   -1.828014
  H      1.246188   -3.447444   -2.407842
  C      1.298729   -0.554314   -2.359773
  H      1.872917   -1.787955   -0.681310
  H      3.216809   -1.238432   -1.654428
  C     -0.196255   -0.863365   -2.325763
  H      1.612531   -0.371346   -3.393065
  H      1.480944    0.388638   -1.834444
  H     -0.404105   -1.761825   -2.909448
  H     -0.490439   -1.087880   -1.294131
  H     -1.143842    1.066711   -2.129680
  H     -2.114401   -0.156834   -2.930323

 Total Charge           Charge          ....    0
 Multiplicity           Mult            ....    1
 Number of Electrons    NEL             ....  102
 Basis Dimension        Dim             ....  402

ORBITAL ENERGIES
----------------

  NO   OCC          E(Eh)            E(eV)
   0   2.0000     -24.790939      -674.5957
   1   2.0000     -19.159770      -521.3639
   2   2.0000     -14.321789      -389.7157
   3   2.0000     -14.319397      -389.6506
   4   2.0000     -10.373909      -282.2884
   5   2.0000     -10.219771      -278.0941
   6   2.0000     -10.218331      -278.0549
   7   2.0000     -10.216702      -278.0106
   8   2.0000     -10.204799      -277.6867
   9   2.0000     -10.192250      -277.3452
  10   2.0000     -10.187006      -277.2025
  11   2.0000     -10.185581      -277.1638
  12   2.0000     -10.076050      -274.1833
  13   2.0000      -1.331994       -36.2454
  14   2.0000      -1.040087       -28.3022
  15   2.0000      -0.952083       -25.9075
  16   2.0000      -0.872802       -23.7502
  17   2.0000      -0.825800       -22.4712
  18   2.0000      -0.784367       -21.3437
  19   2.0000      -0.737543       -20.0696
  20   2.0000      -0.706112       -19.2143
  21   2.0000      -0.682126       -18.5616
  22   2.0000      -0.659751       -17.9527
  23   2.0000      -0.614835       -16.7305
  24   2.0000      -0.605438       -16.4748
  25   2.0000      -0.580410       -15.7938
  26   2.0000      -0.567790       -15.4503
  27   2.0000      -0.559837       -15.2339
  28   2.0000      -0.530829       -14.4446
  29   2.0000      -0.509310       -13.8590
  30   2.0000      -0.492918       -13.4130
  31   2.0000      -0.482447       -13.1281
  32   2.0000      -0.471534       -12.8311
  33   2.0000      -0.463344       -12.6082
  34   2.0000      -0.448205       -12.1963
  35   2.0000      -0.438764       -11.9394
  36   2.0000      -0.418182       -11.3793
  37   2.0000      -0.412354       -11.2207
  38   2.0000      -0.391322       -10.6484
  39   2.0000      -0.386314       -10.5121
  40   2.0000      -0.383311       -10.4304
  41   2.0000      -0.374003       -10.1771
  42   2.0000      -0.368677       -10.0322
  43   2.0000      -0.360533        -9.8106
  44   2.0000      -0.340142        -9.2557
  45   2.0000      -0.336394        -9.1537
  46   2.0000      -0.335136        -9.1195
  47   2.0000      -0.328434        -8.9372
  48   2.0000      -0.290445        -7.9034
  49   2.0000      -0.246392        -6.7047
  50   2.0000      -0.157436        -4.2840
  51   0.0000      -0.046193        -1.2570
  52   0.0000       0.003576         0.0973
  53   0.0000       0.019455         0.5294
  54   0.0000       0.022079         0.6008
  55   0.0000       0.034864         0.9487

MULLIKEN ATOMIC CHARGES
-----------------------
   0 C :    1.044629
   1 N :   -0.429130
   2 C :    0.732353
   3 C :    0.360126
   4 H :    0.101264
   5 H :   -0.339081
   6 C :    0.575657
   7 C :    0.204838
   8 N :    0.495330
   9 C :    0.929157
  10 H :   -0.177160
  11 H :   -0.717398
  12 H :   -0.168029
  13 H :   -0.079381
  14 H :   -0.386577
  15 O :   -0.461805
  16 F :   -0.471033
  17 C :    0.515974
  18 H :   -0.480282
  19 H :   -0.098767
  20 C :    0.144390
  21 H :   -0.066770
  22 H :   -0.201900
  23 C :    0.147694
  24 H :   -0.151793
  25 H :   -0.317999
  26 H :   -0.256640
  27 H :   -0.216567
  28 H :   -0.189412
  29 H :   -0.041689
Sum of atomic charges:    0.0000000

LOEWDIN ATOMIC CHARGES
----------------------
   0 C :    0.054601
   1 N :    0.008470
   2 C :   -0.014882
   3 C :    0.068725
   4 H :    0.034234
   5 H :    0.035931
   6 C :    0.022892
   7 C :   -0.231318
   8 N :    0.233563
   9 C :    0.165797
  10 H :   -0.095665
  11 H :   -0.165629
  12 H :    0.023109
  13 H :   -0.013555
  14 H :   -0.060132
  15 O :   -0.114270
  16 F :   -0.035259
  17 C :   -0.010575
  18 H :    0.013251
  19 H :   -0.003651
  20 C :   -0.014117
  21 H :    0.016509
  22 H :    0.019031
  23 C :   -0.023322
  24 H :    0.006689
  25 H :    0.023738
  26 H :   -0.013315
  27 H :    0.024892
  28 H :    0.023989
  29 H :    0.020272

  Mayer bond orders larger than 0.100000
B(  0-C ,  1-N ) :   0.9336 B(  0-C , 12-H ) :  -0.1059 B(  0-C , 17-C ) :   1.0762
B(  0-C , 18-H ) :   0.6711 B(  0-C , 19-H ) :   0.7284 B(  0-C , 21-H ) :   0.1615
B(  0-C , 22-H ) :   0.1646 B(  1-N ,  7-C ) :   1.0455 B(  1-N ,  9-C ) :   0.2177
B(  1-N , 12-H ) :   1.1141 B(  1-N , 18-H ) :   0.2593 B(  1-N , 19-H ) :   0.1494
B(  2-C ,  3-C ) :   1.1414 B(  2-C ,  5-H ) :   0.1854 B(  2-C , 23-C ) :   1.2163
B(  2-C , 28-H ) :   0.7266 B(  2-C , 29-H ) :   0.5678 B(  3-C ,  4-H ) :   0.8083
B(  3-C ,  5-H ) :   0.6894 B(  3-C ,  6-C ) :   1.1487 B(  3-C , 23-C ) :   0.1124
B(  3-C , 28-H ) :   0.1661 B(  3-C , 29-H ) :   0.1073 B(  4-H ,  5-H ) :  -0.1110
B(  4-H ,  6-C ) :   0.2420 B(  5-H ,  6-C ) :   0.2065 B(  6-C , 15-O ) :   1.7506
B(  6-C , 16-F ) :   0.5598 B(  7-C ,  8-N ) :   0.9825 B(  7-C ,  9-C ) :   1.8967
B(  7-C , 10-H ) :   0.3755 B(  7-C , 11-H ) :   0.4095 B(  7-C , 12-H ) :  -0.1267
B(  8-N ,  9-C ) :   0.2336 B(  8-N , 13-H ) :   0.9305 B(  8-N , 14-H ) :   0.9998
B(  9-C , 10-H ) :   0.3684 B( 10-H , 11-H ) :   0.3613 B( 11-H , 15-O ) :   0.2132
B( 13-H , 14-H ) :  -0.2200 B( 17-C , 18-H ) :   0.1318 B( 17-C , 19-H ) :   0.1521
B( 17-C , 20-C ) :   1.2114 B( 17-C , 21-H ) :   0.7704 B( 17-C , 22-H ) :   0.6172
B( 17-C , 24-H ) :   0.1303 B( 18-H , 19-H ) :  -0.1716 B( 20-C , 21-H ) :   0.1799
B( 20-C , 22-H ) :   0.2965 B( 20-C , 23-C ) :   1.2690 B( 20-C , 24-H ) :   0.8593
B( 20-C , 25-H ) :   0.7433 B( 20-C , 26-H ) :   0.1867 B( 20-C , 27-H ) :   0.2400
B( 21-H , 22-H ) :  -0.1366 B( 23-C , 24-H ) :   0.1622 B( 23-C , 25-H ) :   0.1984
B( 23-C , 26-H ) :   0.8383 B( 23-C , 27-H ) :   0.6836 B( 23-C , 28-H ) :   0.1955
B( 23-C , 29-H ) :   0.2933 B( 28-H , 29-H ) :  -0.1532

Dispersion correction           -0.057166499
FINAL SINGLE POINT ENERGY      -636.943537377154

DIPOLE MOMENT
-------------
                                X             Y             Z
Electronic contribution:     -5.68257      -0.72263     -11.69938
Nuclear contribution   :      4.34606       1.32859      13.65749
                        -----------------------------------------
Total Dipole Moment    :     -1.33651       0.60596       1.95811
                        -----------------------------------------
Magnitude (a.u.)       :      2.44696
Magnitude (Debye)      :      6.21969

Rotational constants in cm-1:     0.033551     0.023540     0.017085
Rotational constants in MHz :  1005.818710   705.725032   512.192443

                             ****ORCA TERMINATED NORMALLY****
TOTAL RUN TIME: 0 days 0 hours 2 minutes 28 seconds 495 msec
