                         Program Version 5.0.0 -  RELEASE  -
|  1> !BLYP D3BJ RIJCOSX def2-TZVP def2/J TightSCF
|  2> *xyz -1 1
|  3> C          4.08422        1.74208       -2.11472
|  4> C          4.26524        2.50052       -0.79589
|  5> H          4.86853        3.39267       -0.98113
|  6> H          3.30764        2.82457       -0.38781
|  7> C          4.98224        1.65026        0.24742
|  8> O          4.36806        1.38927        1.31371
|  9> O          6.12892        1.23351       -0.04562
| 10> H          3.57911        2.36849       -2.81997
| 11> H          3.50424        0.85965       -1.94198
| 12> H          5.04288        1.46841       -2.50327
| 13> *
| 14> %MaxCore 64000
| 15> %pal nprocs 8
| 16> end
| 17> %scf
| 18>   MaxIter 150
| 19> end
| 20>
| 21>
| 22>                          ****END OF INPUT****

CARTESIAN COORDINATES (ANGSTROEM)
---------------------------------
  C      4.084220    1.742080   -2.114720
  C      4.265240    2.500520   -0.795890
  H      4.868530    3.392670   -0.981130
  H      3.307640    2.824570   -0.387810
  C      4.982240    1.650260    0.247420
  O      4.368060    1.389270    1.313710
  O      6.128920    1.233510   -0.045620
  H      3.579110    2.368490   -2.819970
  H      3.504240    0.859650   -1.941980
  H      5.042880    1.468410   -2.503270

 Total Charge           Charge          ....   -1
 Multiplicity           Mult            ....    1
 Number of Electrons    NEL             ....   40
 Basis Dimension        Dim             ....  185

ORBITAL ENERGIES
----------------

  NO   OCC          E(Eh)            E(eV)
   0   2.0000     -18.495753      -503.2950
   1   2.0000     -18.494966      -503.2736
   2   2.0000      -9.768975      -265.8273
   3   2.0000      -9.735447      -264.9150
   4   2.0000      -9.721817      -264.5441
   5   2.0000      -0.713301       -19.4099
   6   2.0000      -0.625869       -17.0308
   7   2.0000      -0.521200       -14.1826
   8   2.0000      -0.398841       -10.8530
   9   2.0000      -0.256074        -6.9681
  10   2.0000      -0.234272        -6.3749
  11   2.0000      -0.197730        -5.3805
  12   2.0000      -0.172293        -4.6883
  13   2.0000      -0.156641        -4.2624
  14   2.0000      -0.146921        -3.9979
  15   2.0000      -0.118235        -3.2173
  16   2.0000      -0.105491        -2.8706
  17   2.0000       0.004091         0.1113
  18   2.0000       0.015977         0.4347
  19   2.0000       0.034010         0.9254
  20   0.0000       0.165119         4.4931
  21   0.0000       0.205469         5.5911
  22   0.0000       0.220790         6.0080
  23   0.0000       0.228390         6.2148
  24   0.0000       0.235960         6.4208

MULLIKEN ATOMIC CHARGES
-----------------------
   0 C :   -0.278267
   1 C :   -0.083023
   2 H :    0.005356
   3 H :    0.006069
   4 C :    0.131343
   5 O :   -0.480028
   6 O :   -0.477558
   7 H :    0.035222
   8 H :    0.070016
   9 H :    0.070870
Sum of atomic charges:   -1.0000000

LOEWDIN ATOMIC CHARGES
----------------------
   0 C :   -0.320448
   1 C :   -0.291119
   2 H :    0.114605
   3 H :    0.110608
   4 C :   -0.725907
   5 O :   -0.096061
   6 O :   -0.090798
   7 H :    0.088650
   8 H :    0.104588
   9 H :    0.105882

  Mayer bond orders larger than 0.100000
B(  0-C ,  1-C ) :   0.9417 B(  0-C ,  7-H ) :   0.9621 B(  0-C ,  8-H ) :   0.9823
B(  0-C ,  9-H ) :   0.9669 B(  1-C ,  2-H ) :   0.9407 B(  1-C ,  3-H ) :   0.9373
B(  1-C ,  4-C ) :   0.9088 B(  4-C ,  5-O ) :   1.9325 B(  4-C ,  6-O ) :   1.8881

Dispersion correction           -0.013577229
FINAL SINGLE POINT ENERGY      -267.877619677423

DIPOLE MOMENT
-------------
                                X             Y             Z
Electronic contribution:      2.51979      -1.56155       5.26922
Nuclear contribution   :     -3.31311       2.28398      -6.76358
                        -----------------------------------------
Total Dipole Moment    :     -0.79332       0.72243      -1.49436
                        -----------------------------------------
Magnitude (a.u.)       :      1.83967
Magnitude (Debye)      :      4.67607

Rotational constants in cm-1:     0.309287     0.135287     0.107346
Rotational constants in MHz :  9272.201029  4055.789113  3218.155789

                             ****ORCA TERMINATED NORMALLY****
TOTAL RUN TIME: 0 days 0 hours 0 minutes 8 seconds 436 msec
