                         Program Version 5.0.0 -  RELEASE  -
|  1> !BLYP D3BJ RIJCOSX def2-TZVP def2/J TightSCF
|  2> *xyz 1 1
|  3> C          3.91385       -1.65829        3.01513
|  4> N          5.03927       -0.90115        2.49282
|  5> C          6.21038       -1.41726        2.17824
|  6> N          6.53591       -2.67712        2.55608
|  7> N          7.07675       -0.70082        1.47891
|  8> H          7.95464       -1.12155        1.20755
|  9> H          6.75616        0.10664        0.96028
| 10> H          4.84217        0.01761        2.11519
| 11> H          5.99388       -3.12692        3.28278
| 12> C          3.13916       -2.37657        1.91061
| 13> H          3.26723       -0.93940        3.52069
| 14> H          4.24720       -2.35509        3.79006
| 15> H          7.49844       -2.97548        2.46878
| 16> H          2.82969       -1.66654        1.17238
| 17> H          2.27790       -2.85264        2.33072
| 18> H          3.76754       -3.11338        1.45548
| 19> *
| 20> %MaxCore 64000
| 21> %pal nprocs 8
| 22> end
| 23> %scf
| 24>   MaxIter 150
| 25> end
| 26>
| 27>
| 28>                          ****END OF INPUT****

CARTESIAN COORDINATES (ANGSTROEM)
---------------------------------
  C      3.913850   -1.658290    3.015130
  N      5.039270   -0.901150    2.492820
  C      6.210380   -1.417260    2.178240
  N      6.535910   -2.677120    2.556080
  N      7.076750   -0.700820    1.478910
  H      7.954640   -1.121550    1.207550
  H      6.756160    0.106640    0.960280
  H      4.842170    0.017610    2.115190
  H      5.993880   -3.126920    3.282780
  C      3.139160   -2.376570    1.910610
  H      3.267230   -0.939400    3.520690
  H      4.247200   -2.355090    3.790060
  H      7.498440   -2.975480    2.468780
  H      2.829690   -1.666540    1.172380
  H      2.277900   -2.852640    2.330720
  H      3.767540   -3.113380    1.455480

 Total Charge           Charge          ....    1
 Multiplicity           Mult            ....    1
 Number of Electrons    NEL             ....   48
 Basis Dimension        Dim             ....  246

ORBITAL ENERGIES
----------------

  NO   OCC          E(Eh)            E(eV)
   0   2.0000     -14.228078      -387.1657
   1   2.0000     -14.226472      -387.1220
   2   2.0000     -14.224241      -387.0613
   3   2.0000     -10.228256      -278.3250
   4   2.0000     -10.111719      -275.1539
   5   2.0000     -10.039422      -273.1866
   6   2.0000      -1.122367       -30.5412
   7   2.0000      -1.021473       -27.7957
   8   2.0000      -1.006449       -27.3869
   9   2.0000      -0.855133       -23.2694
  10   2.0000      -0.775414       -21.1001
  11   2.0000      -0.737931       -20.0801
  12   2.0000      -0.726237       -19.7619
  13   2.0000      -0.685652       -18.6575
  14   2.0000      -0.639021       -17.3887
  15   2.0000      -0.633977       -17.2514
  16   2.0000      -0.601156       -16.3583
  17   2.0000      -0.575674       -15.6649
  18   2.0000      -0.551468       -15.0062
  19   2.0000      -0.513177       -13.9643
  20   2.0000      -0.486068       -13.2266
  21   2.0000      -0.468336       -12.7441
  22   2.0000      -0.432039       -11.7564
  23   2.0000      -0.408336       -11.1114
  24   0.0000      -0.195848        -5.3293
  25   0.0000      -0.178272        -4.8510
  26   0.0000      -0.146481        -3.9860
  27   0.0000      -0.136386        -3.7112
  28   0.0000      -0.117633        -3.2009

MULLIKEN ATOMIC CHARGES
-----------------------
   0 C :   -0.133945
   1 N :   -0.204362
   2 C :    0.397612
   3 N :   -0.357366
   4 N :   -0.340945
   5 H :    0.261499
   6 H :    0.261073
   7 H :    0.230777
   8 H :    0.257366
   9 C :   -0.272664
  10 H :    0.152302
  11 H :    0.111909
  12 H :    0.253698
  13 H :    0.117595
  14 H :    0.146220
  15 H :    0.119230
Sum of atomic charges:    1.0000000

LOEWDIN ATOMIC CHARGES
----------------------
   0 C :   -0.276540
   1 N :    0.185940
   2 C :   -0.413958
   3 N :    0.061785
   4 N :    0.078949
   5 H :    0.194616
   6 H :    0.194664
   7 H :    0.207447
   8 H :    0.188570
   9 C :   -0.274982
  10 H :    0.149488
  11 H :    0.134775
  12 H :    0.191054
  13 H :    0.123372
  14 H :    0.134308
  15 H :    0.120512

  Mayer bond orders larger than 0.100000
B(  0-C ,  1-N ) :   0.8860 B(  0-C ,  9-C ) :   0.9484 B(  0-C , 10-H ) :   0.9561
B(  0-C , 11-H ) :   0.9618 B(  1-N ,  2-C ) :   1.3941 B(  1-N ,  7-H ) :   0.9093
B(  2-C ,  3-N ) :   1.3031 B(  2-C ,  4-N ) :   1.3244 B(  3-N ,  8-H ) :   0.8962
B(  3-N , 12-H ) :   0.9068 B(  4-N ,  5-H ) :   0.9048 B(  4-N ,  6-H ) :   0.9048
B(  9-C , 13-H ) :   0.9649 B(  9-C , 14-H ) :   0.9650 B(  9-C , 15-H ) :   0.9645

Dispersion correction           -0.025087524
FINAL SINGLE POINT ENERGY      -284.407336906073

DIPOLE MOMENT
-------------
                                X             Y             Z
Electronic contribution:      4.70296       1.91078       0.07157
Nuclear contribution   :     -3.67981      -1.62355      -0.28562
                        -----------------------------------------
Total Dipole Moment    :      1.02315       0.28724      -0.21405
                        -----------------------------------------
Magnitude (a.u.)       :      1.08405
Magnitude (Debye)      :      2.75543

Rotational constants in cm-1:     0.222027     0.074735     0.065694
Rotational constants in MHz :  6656.200457  2240.503315  1969.451902

                             ****ORCA TERMINATED NORMALLY****
TOTAL RUN TIME: 0 days 0 hours 0 minutes 11 seconds 430 msec
