                         Program Version 5.0.0 -  RELEASE  -
|  1> !BLYP D3BJ RIJCOSX def2-TZVP def2/J TightSCF xyzfile
|  2>
|  3> *xyzfile 0 1 B.xyz
|  4>
|  5> %MaxCore 64000
|  6>
|  7> %pal nprocs 18
|  8> end
|  9>
| 10> %scf
| 11>   MaxIter 150
| 12> end
| 13>
| 14>
| 15>                          ****END OF INPUT****

CARTESIAN COORDINATES (ANGSTROEM)
---------------------------------
  C      3.913853   -1.658291    3.015134
  N      5.039266   -0.901154    2.492821
  C      4.084215    1.742081   -2.114724
  C      4.265245    2.500518   -0.795890
  H      4.868534    3.392674   -0.981134
  H      3.307640    2.824571   -0.387809
  C      4.982240    1.650257    0.247422
  C      6.210384   -1.417261    2.178244
  N      6.535913   -2.677122    2.556078
  N      7.076754   -0.700820    1.478906
  H      7.954643   -1.121554    1.207554
  H      6.756161    0.106637    0.960278
  H      4.842168    0.017609    2.115191
  H      5.993876   -3.126918    3.282784
  H      7.498441   -2.975482    2.468776
  O      4.368065    1.389270    1.313706
  O      6.128919    1.233512   -0.045620
  C      3.139159   -2.376572    1.910609
  H      3.267235   -0.939401    3.520693
  H      4.247195   -2.355095    3.790065
  C      1.997274    0.430918   -1.399218
  C      3.412746    0.376886   -1.965497
  H      4.047407   -0.246590   -1.326706
  H      3.390774   -0.118719   -2.942839
  H      5.068475    1.598504   -2.565728
  H      3.503356    2.363939   -2.804565
  C      2.399946   -1.389579    1.009490
  H      2.440750   -3.087118    2.362976
  H      3.844475   -2.970462    1.318677
  C      2.070177   -1.936705   -0.372401
  H      1.481611   -1.061542    1.509912
  H      3.008628   -0.490001    0.897451
  C      1.322238   -0.935775   -1.256413
  H      1.472747   -2.850902   -0.283997
  H      3.003539   -2.234041   -0.862535
  H      1.376444    1.058920   -2.047420
  H      2.015341    0.929780   -0.426535
  H      0.316648   -0.787213   -0.848278
  H      1.185611   -1.379252   -2.248613

 Total Charge           Charge          ....    0
 Multiplicity           Mult            ....    1
 Number of Electrons    NEL             ....  126
 Basis Dimension        Dim             ....  634

ORBITAL ENERGIES
----------------

  NO   OCC          E(Eh)            E(eV)
   0   2.0000     -18.690290      -508.5886
   1   2.0000     -18.689232      -508.5599
   2   2.0000     -14.067043      -382.7837
   3   2.0000     -14.033055      -381.8588
   4   2.0000     -14.027676      -381.7125
   5   2.0000     -10.050896      -273.4988
   6   2.0000      -9.959096      -271.0008
   7   2.0000      -9.954590      -270.8782
   8   2.0000      -9.910113      -269.6679
   9   2.0000      -9.888350      -269.0757
  10   2.0000      -9.887858      -269.0623
  11   2.0000      -9.884049      -268.9586
  12   2.0000      -9.875046      -268.7137
  13   2.0000      -9.873432      -268.6697
  14   2.0000      -9.872250      -268.6376
  15   2.0000      -9.863347      -268.3953
  16   2.0000      -0.946182       -25.7469
  17   2.0000      -0.910243       -24.7690
  18   2.0000      -0.847067       -23.0499
  19   2.0000      -0.833347       -22.6765
  20   2.0000      -0.820154       -22.3175
  21   2.0000      -0.728537       -19.8245
  22   2.0000      -0.705308       -19.1924
  23   2.0000      -0.678276       -18.4568
  24   2.0000      -0.642428       -17.4813
  25   2.0000      -0.607367       -16.5273
  26   2.0000      -0.593820       -16.1587
  27   2.0000      -0.563829       -15.3426
  28   2.0000      -0.552627       -15.0378
  29   2.0000      -0.537933       -14.6379
  30   2.0000      -0.513102       -13.9622
  31   2.0000      -0.506165       -13.7735
  32   2.0000      -0.475826       -12.9479
  33   2.0000      -0.469104       -12.7650
  34   2.0000      -0.460561       -12.5325
  35   2.0000      -0.441917       -12.0252
  36   2.0000      -0.414959       -11.2916
  37   2.0000      -0.407466       -11.0877
  38   2.0000      -0.403814       -10.9883
  39   2.0000      -0.399044       -10.8585
  40   2.0000      -0.386262       -10.5107
  41   2.0000      -0.369927       -10.0662
  42   2.0000      -0.365612        -9.9488
  43   2.0000      -0.363647        -9.8953
  44   2.0000      -0.356663        -9.7053
  45   2.0000      -0.342170        -9.3109
  46   2.0000      -0.330084        -8.9820
  47   2.0000      -0.320536        -8.7222
  48   2.0000      -0.316790        -8.6203
  49   2.0000      -0.306925        -8.3518
  50   2.0000      -0.300320        -8.1721
  51   2.0000      -0.293414        -7.9842
  52   2.0000      -0.281752        -7.6669
  53   2.0000      -0.274912        -7.4807
  54   2.0000      -0.267988        -7.2923
  55   2.0000      -0.263259        -7.1636
  56   2.0000      -0.256131        -6.9697
  57   2.0000      -0.251685        -6.8487
  58   2.0000      -0.245125        -6.6702
  59   2.0000      -0.232666        -6.3312
  60   2.0000      -0.188618        -5.1326
  61   2.0000      -0.175085        -4.7643
  62   2.0000      -0.164634        -4.4799
  63   0.0000      -0.033945        -0.9237
  64   0.0000      -0.023086        -0.6282
  65   0.0000      -0.001749        -0.0476
  66   0.0000       0.023450         0.6381
  67   0.0000       0.034570         0.9407

MULLIKEN ATOMIC CHARGES
-----------------------
   0 C :   -0.122183
   1 N :   -0.194364
   2 C :   -0.095218
   3 C :   -0.120822
   4 H :    0.067074
   5 H :    0.072364
   6 C :    0.272867
   7 C :    0.343601
   8 N :   -0.396212
   9 N :   -0.338044
  10 H :    0.200310
  11 H :    0.263828
  12 H :    0.244826
  13 H :    0.229334
  14 H :    0.219740
  15 O :   -0.492683
  16 O :   -0.486045
  17 C :   -0.083907
  18 H :    0.115946
  19 H :    0.080487
  20 C :   -0.188276
  21 C :   -0.172400
  22 H :    0.088862
  23 H :    0.051415
  24 H :    0.065919
  25 H :    0.056661
  26 C :   -0.278435
  27 H :    0.076093
  28 H :    0.077180
  29 C :   -0.134787
  30 H :    0.062862
  31 H :    0.166701
  32 C :   -0.104905
  33 H :    0.064157
  34 H :    0.079265
  35 H :    0.061101
  36 H :    0.114842
  37 H :    0.066509
  38 H :    0.066337
Sum of atomic charges:   -0.0000000

LOEWDIN ATOMIC CHARGES
----------------------
   0 C :   -0.269548
   1 N :    0.187540
   2 C :   -0.258764
   3 C :   -0.235741
   4 H :    0.137963
   5 H :    0.130752
   6 C :   -0.649717
   7 C :   -0.437223
   8 N :    0.015246
   9 N :    0.069176
  10 H :    0.168391
  11 H :    0.144961
  12 H :    0.166084
  13 H :    0.172071
  14 H :    0.172156
  15 O :   -0.035882
  16 O :   -0.022869
  17 C :   -0.260194
  18 H :    0.144780
  19 H :    0.119221
  20 C :   -0.263236
  21 C :   -0.262010
  22 H :    0.134428
  23 H :    0.128629
  24 H :    0.134715
  25 H :    0.127375
  26 C :   -0.263519
  27 H :    0.132536
  28 H :    0.134011
  29 C :   -0.266711
  30 H :    0.133181
  31 H :    0.145294
  32 C :   -0.261487
  33 H :    0.128484
  34 H :    0.130615
  35 H :    0.130607
  36 H :    0.137820
  37 H :    0.130602
  38 H :    0.130261

  Mayer bond orders larger than 0.100000
B(  0-C ,  1-N ) :   0.9503 B(  0-C , 17-C ) :   0.9213 B(  0-C , 18-H ) :   0.9636
B(  0-C , 19-H ) :   0.9767 B(  1-N ,  7-C ) :   1.4342 B(  1-N , 12-H ) :   0.7666
B(  2-C ,  3-C ) :   0.9599 B(  2-C , 21-C ) :   0.9827 B(  2-C , 24-H ) :   0.9487
B(  2-C , 25-H ) :   0.9532 B(  3-C ,  4-H ) :   0.9412 B(  3-C ,  5-H ) :   0.9739
B(  3-C ,  6-C ) :   0.9441 B(  6-C , 15-O ) :   1.6500 B(  6-C , 16-O ) :   1.6686
B(  7-C ,  8-N ) :   1.2091 B(  7-C ,  9-N ) :   1.3965 B(  8-N , 13-H ) :   0.9080
B(  8-N , 14-H ) :   0.9203 B(  9-N , 10-H ) :   0.9258 B(  9-N , 11-H ) :   0.7485
B( 11-H , 16-O ) :   0.2464 B( 12-H , 15-O ) :   0.2359 B( 17-C , 26-C ) :   0.9432
B( 17-C , 27-H ) :   0.9526 B( 17-C , 28-H ) :   0.9651 B( 20-C , 21-C ) :   0.9548
B( 20-C , 32-C ) :   0.9582 B( 20-C , 35-H ) :   0.9557 B( 20-C , 36-H ) :   0.9723
B( 21-C , 22-H ) :   0.9684 B( 21-C , 23-H ) :   0.9586 B( 26-C , 29-C ) :   0.9551
B( 26-C , 30-H ) :   0.9554 B( 26-C , 31-H ) :   0.9832 B( 29-C , 32-C ) :   0.9808
B( 29-C , 33-H ) :   0.9635 B( 29-C , 34-H ) :   0.9616 B( 32-C , 37-H ) :   0.9646
B( 32-C , 38-H ) :   0.9606

Dispersion correction           -0.088675652
FINAL SINGLE POINT ENERGY      -747.823554842700

DIPOLE MOMENT
-------------
                                X             Y             Z
Electronic contribution:     12.34917       3.36209       7.68303
Nuclear contribution   :    -11.44764      -6.21818      -6.18483
                        -----------------------------------------
Total Dipole Moment    :      0.90153      -2.85609       1.49820
                        -----------------------------------------
Magnitude (a.u.)       :      3.34883
Magnitude (Debye)      :      8.51204

Rotational constants in cm-1:     0.020281     0.013510     0.009451
Rotational constants in MHz :   608.005987   405.034308   283.324538

                             ****ORCA TERMINATED NORMALLY****
TOTAL RUN TIME: 0 days 0 hours 0 minutes 38 seconds 599 msec
