                         Program Version 5.0.0 -  RELEASE  -
|  1> !BLYP D3BJ RIJCOSX def2-TZVP def2/J TightSCF
|  2> *xyz 0 1
|  3> C          4.08422        1.74208       -2.11472
|  4> C          4.26524        2.50052       -0.79589
|  5> H          4.86853        3.39267       -0.98113
|  6> H          3.30764        2.82457       -0.38781
|  7> C          4.98224        1.65026        0.24742
|  8> F          4.36806        1.38927        1.31371
|  9> O          6.12892        1.23351       -0.04562
| 10> H          3.57911        2.36849       -2.81997
| 11> H          3.50424        0.85965       -1.94198
| 12> H          5.04288        1.46841       -2.50327
| 13> *
| 14> %MaxCore 64000
| 15> %pal nprocs 8
| 16> end
| 17> %scf
| 18>   MaxIter 150
| 19> end
| 20>
| 21>
| 22>                          ****END OF INPUT****

CARTESIAN COORDINATES (ANGSTROEM)
---------------------------------
  C      4.084220    1.742080   -2.114720
  C      4.265240    2.500520   -0.795890
  H      4.868530    3.392670   -0.981130
  H      3.307640    2.824570   -0.387810
  C      4.982240    1.650260    0.247420
  F      4.368060    1.389270    1.313710
  O      6.128920    1.233510   -0.045620
  H      3.579110    2.368490   -2.819970
  H      3.504240    0.859650   -1.941980
  H      5.042880    1.468410   -2.503270

 Total Charge           Charge          ....    0
 Multiplicity           Mult            ....    1
 Number of Electrons    NEL             ....   40
 Basis Dimension        Dim             ....  185

ORBITAL ENERGIES
----------------

  NO   OCC          E(Eh)            E(eV)
   0   2.0000     -24.349870      -662.5937
   1   2.0000     -18.773513      -510.8533
   2   2.0000     -10.071796      -274.0675
   3   2.0000      -9.934115      -270.3210
   4   2.0000      -9.908365      -269.6203
   5   2.0000      -1.204777       -32.7837
   6   2.0000      -0.936945       -25.4956
   7   2.0000      -0.720758       -19.6128
   8   2.0000      -0.616531       -16.7767
   9   2.0000      -0.569554       -15.4984
  10   2.0000      -0.482607       -13.1324
  11   2.0000      -0.468027       -12.7356
  12   2.0000      -0.444883       -12.1059
  13   2.0000      -0.411606       -11.2004
  14   2.0000      -0.380155       -10.3445
  15   2.0000      -0.350724        -9.5437
  16   2.0000      -0.330772        -9.0008
  17   2.0000      -0.325980        -8.8704
  18   2.0000      -0.301271        -8.1980
  19   2.0000      -0.239809        -6.5255
  20   0.0000      -0.062396        -1.6979
  21   0.0000       0.013642         0.3712
  22   0.0000       0.051256         1.3947
  23   0.0000       0.064002         1.7416
  24   0.0000       0.074464         2.0263

MULLIKEN ATOMIC CHARGES
-----------------------
   0 C :   -0.308386
   1 C :   -0.172032
   2 H :    0.107771
   3 H :    0.087544
   4 C :    0.331405
   5 F :   -0.081546
   6 O :   -0.298038
   7 H :    0.106322
   8 H :    0.102375
   9 H :    0.124586
Sum of atomic charges:   -0.0000000

LOEWDIN ATOMIC CHARGES
----------------------
   0 C :   -0.279393
   1 C :   -0.256397
   2 H :    0.151633
   3 H :    0.133963
   4 C :   -0.524427
   5 F :    0.335519
   6 O :    0.082365
   7 H :    0.116794
   8 H :    0.117151
   9 H :    0.122792

  Mayer bond orders larger than 0.100000
B(  0-C ,  1-C ) :   0.9532 B(  0-C ,  7-H ) :   0.9672 B(  0-C ,  8-H ) :   0.9744
B(  0-C ,  9-H ) :   0.9693 B(  1-C ,  2-H ) :   0.9402 B(  1-C ,  3-H ) :   0.9497
B(  1-C ,  4-C ) :   0.9782 B(  4-C ,  5-F ) :   1.1740 B(  4-C ,  6-O ) :   2.0691

Dispersion correction           -0.012878436
FINAL SINGLE POINT ENERGY      -292.453595428894

DIPOLE MOMENT
-------------
                                X             Y             Z
Electronic contribution:      1.96316      -2.07375       8.16557
Nuclear contribution   :     -2.87511       2.61564      -8.50037
                        -----------------------------------------
Total Dipole Moment    :     -0.91195       0.54189      -0.33479
                        -----------------------------------------
Magnitude (a.u.)       :      1.11237
Magnitude (Debye)      :      2.82743

Rotational constants in cm-1:     0.297822     0.128965     0.102219
Rotational constants in MHz :  8928.481997  3866.271686  3064.463504

                             ****ORCA TERMINATED NORMALLY****
TOTAL RUN TIME: 0 days 0 hours 0 minutes 8 seconds 402 msec
