                         Program Version 5.0.0 -  RELEASE  -
|  1> !BLYP D3BJ RIJCOSX def2-TZVP def2/J TightSCF
|  2> *xyz 0 1
|  3> C          3.91385       -1.65829        3.01513
|  4> C          5.03927       -0.90115        2.49282
|  5> C          6.21038       -1.41726        2.17824
|  6> N          6.53591       -2.67712        2.55608
|  7> N          7.07675       -0.70082        1.47891
|  8> H          7.95464       -1.12155        1.20755
|  9> H          6.75616        0.10664        0.96028
| 10> H          4.84217        0.01761        2.11519
| 11> H          5.99388       -3.12692        3.28278
| 12> C          3.13916       -2.37657        1.91061
| 13> H          3.26723       -0.93940        3.52069
| 14> H          4.24720       -2.35509        3.79006
| 15> H          7.49844       -2.97548        2.46878
| 16> H          2.82969       -1.66654        1.17238
| 17> H          2.27790       -2.85264        2.33072
| 18> H          3.76754       -3.11338        1.45548
| 19> *
| 20> %MaxCore 64000
| 21> %pal nprocs 8
| 22> end
| 23> %scf
| 24>   MaxIter 150
| 25> end
| 26>
| 27>
| 28>                          ****END OF INPUT****

CARTESIAN COORDINATES (ANGSTROEM)
---------------------------------
  C      3.913850   -1.658290    3.015130
  C      5.039270   -0.901150    2.492820
  C      6.210380   -1.417260    2.178240
  N      6.535910   -2.677120    2.556080
  N      7.076750   -0.700820    1.478910
  H      7.954640   -1.121550    1.207550
  H      6.756160    0.106640    0.960280
  H      4.842170    0.017610    2.115190
  H      5.993880   -3.126920    3.282780
  C      3.139160   -2.376570    1.910610
  H      3.267230   -0.939400    3.520690
  H      4.247200   -2.355090    3.790060
  H      7.498440   -2.975480    2.468780
  H      2.829690   -1.666540    1.172380
  H      2.277900   -2.852640    2.330720
  H      3.767540   -3.113380    1.455480

 Total Charge           Charge          ....    0
 Multiplicity           Mult            ....    1
 Number of Electrons    NEL             ....   48
 Basis Dimension        Dim             ....  246

ORBITAL ENERGIES
----------------

  NO   OCC          E(Eh)            E(eV)
   0   2.0000     -14.002789      -381.0353
   1   2.0000     -14.001053      -380.9880
   2   2.0000      -9.938269      -270.4340
   3   2.0000      -9.876394      -268.7504
   4   2.0000      -9.864749      -268.4335
   5   2.0000      -9.822805      -267.2921
   6   2.0000      -0.867828       -23.6148
   7   2.0000      -0.785379       -21.3712
   8   2.0000      -0.691073       -18.8051
   9   2.0000      -0.617676       -16.8078
  10   2.0000      -0.548598       -14.9281
  11   2.0000      -0.513712       -13.9788
  12   2.0000      -0.481482       -13.1018
  13   2.0000      -0.452057       -12.3011
  14   2.0000      -0.420321       -11.4375
  15   2.0000      -0.384357       -10.4589
  16   2.0000      -0.364189        -9.9101
  17   2.0000      -0.334911        -9.1134
  18   2.0000      -0.329793        -8.9741
  19   2.0000      -0.304734        -8.2922
  20   2.0000      -0.281028        -7.6472
  21   2.0000      -0.273761        -7.4494
  22   2.0000      -0.217242        -5.9115
  23   2.0000      -0.123174        -3.3517
  24   0.0000      -0.003252        -0.0885
  25   0.0000       0.028023         0.7625
  26   0.0000       0.036138         0.9834
  27   0.0000       0.056979         1.5505
  28   0.0000       0.061143         1.6638

MULLIKEN ATOMIC CHARGES
-----------------------
   0 C :   -0.167799
   1 C :   -0.276712
   2 C :    0.327185
   3 N :   -0.430296
   4 N :   -0.414512
   5 H :    0.190604
   6 H :    0.217326
   7 H :    0.050320
   8 H :    0.213843
   9 C :   -0.245214
  10 H :    0.068523
  11 H :    0.035398
  12 H :    0.187709
  13 H :    0.077262
  14 H :    0.075656
  15 H :    0.090708
Sum of atomic charges:    0.0000000

LOEWDIN ATOMIC CHARGES
----------------------
   0 C :   -0.301194
   1 C :   -0.274006
   2 C :   -0.457030
   3 N :   -0.017693
   4 N :   -0.002149
   5 H :    0.156494
   6 H :    0.173000
   7 H :    0.117424
   8 H :    0.167166
   9 C :   -0.296124
  10 H :    0.134743
  11 H :    0.120030
  12 H :    0.154521
  13 H :    0.110145
  14 H :    0.103757
  15 H :    0.110916

  Mayer bond orders larger than 0.100000
B(  0-C ,  1-C ) :   1.0522 B(  0-C ,  9-C ) :   0.9238 B(  0-C , 10-H ) :   0.9775
B(  0-C , 11-H ) :   0.9575 B(  1-C ,  2-C ) :   1.6716 B(  1-C ,  7-H ) :   0.9971
B(  2-C ,  3-N ) :   1.1246 B(  2-C ,  4-N ) :   1.1348 B(  3-N ,  8-H ) :   0.9224
B(  3-N , 12-H ) :   0.9317 B(  4-N ,  5-H ) :   0.9342 B(  4-N ,  6-H ) :   0.9266
B(  9-C , 13-H ) :   0.9779 B(  9-C , 14-H ) :   0.9670 B(  9-C , 15-H ) :   0.9790

Dispersion correction           -0.026214337
FINAL SINGLE POINT ENERGY      -267.911500659372

DIPOLE MOMENT
-------------
                                X             Y             Z
Electronic contribution:      4.71649       1.22543      -0.05834
Nuclear contribution   :     -3.74303      -1.46908      -0.23637
                        -----------------------------------------
Total Dipole Moment    :      0.97347      -0.24365      -0.29472
                        -----------------------------------------
Magnitude (a.u.)       :      1.04588
Magnitude (Debye)      :      2.65841

Rotational constants in cm-1:     0.225937     0.074877     0.065953
Rotational constants in MHz :  6773.424301  2244.750632  1977.214101

                             ****ORCA TERMINATED NORMALLY****
TOTAL RUN TIME: 0 days 0 hours 0 minutes 12 seconds 275 msec
