                         Program Version 5.0.0 -  RELEASE  -
|  1> !BLYP D3BJ RIJCOSX def2-TZVP def2/J TightSCF
|  2> *xyz 0 1
|  3> C          4.08422        1.74208       -2.11472
|  4> C          4.26524        2.50052       -0.79589
|  5> H          4.86853        3.39267       -0.98113
|  6> H          3.30764        2.82457       -0.38781
|  7> C          4.98224        1.65026        0.24742
|  8> O          4.36806        1.38927        1.31371
|  9> F          6.12892        1.23351       -0.04562
| 10> H          3.57911        2.36849       -2.81997
| 11> H          3.50424        0.85965       -1.94198
| 12> H          5.04288        1.46841       -2.50327
| 13> *
| 14> %MaxCore 64000
| 15> %pal nprocs 8
| 16> end
| 17> %scf
| 18>   MaxIter 150
| 19> end
| 20>
| 21>
| 22>                          ****END OF INPUT****

CARTESIAN COORDINATES (ANGSTROEM)
---------------------------------
  C      4.084220    1.742080   -2.114720
  C      4.265240    2.500520   -0.795890
  H      4.868530    3.392670   -0.981130
  H      3.307640    2.824570   -0.387810
  C      4.982240    1.650260    0.247420
  O      4.368060    1.389270    1.313710
  F      6.128920    1.233510   -0.045620
  H      3.579110    2.368490   -2.819970
  H      3.504240    0.859650   -1.941980
  H      5.042880    1.468410   -2.503270

 Total Charge           Charge          ....    0
 Multiplicity           Mult            ....    1
 Number of Electrons    NEL             ....   40
 Basis Dimension        Dim             ....  185

ORBITAL ENERGIES
----------------

  NO   OCC          E(Eh)            E(eV)
   0   2.0000     -24.350995      -662.6243
   1   2.0000     -18.772648      -510.8297
   2   2.0000     -10.071353      -274.0555
   3   2.0000      -9.933765      -270.3115
   4   2.0000      -9.912777      -269.7404
   5   2.0000      -1.207392       -32.8548
   6   2.0000      -0.933712       -25.4076
   7   2.0000      -0.724519       -19.7152
   8   2.0000      -0.614499       -16.7214
   9   2.0000      -0.574507       -15.6331
  10   2.0000      -0.485364       -13.2074
  11   2.0000      -0.472758       -12.8644
  12   2.0000      -0.440164       -11.9775
  13   2.0000      -0.411318       -11.1925
  14   2.0000      -0.381954       -10.3935
  15   2.0000      -0.353268        -9.6129
  16   2.0000      -0.333492        -9.0748
  17   2.0000      -0.329571        -8.9681
  18   2.0000      -0.304352        -8.2818
  19   2.0000      -0.234853        -6.3907
  20   0.0000      -0.059494        -1.6189
  21   0.0000       0.009845         0.2679
  22   0.0000       0.050399         1.3714
  23   0.0000       0.066308         1.8043
  24   0.0000       0.078637         2.1398

MULLIKEN ATOMIC CHARGES
-----------------------
   0 C :   -0.314565
   1 C :   -0.168288
   2 H :    0.095167
   3 H :    0.111445
   4 C :    0.324753
   5 O :   -0.298158
   6 F :   -0.082781
   7 H :    0.110863
   8 H :    0.113826
   9 H :    0.107739
Sum of atomic charges:    0.0000000

LOEWDIN ATOMIC CHARGES
----------------------
   0 C :   -0.285762
   1 C :   -0.251859
   2 H :    0.144060
   3 H :    0.147035
   4 C :   -0.527395
   5 O :    0.076616
   6 F :    0.342097
   7 H :    0.118575
   8 H :    0.119466
   9 H :    0.117167

  Mayer bond orders larger than 0.100000
B(  0-C ,  1-C ) :   0.9398 B(  0-C ,  7-H ) :   0.9679 B(  0-C ,  8-H ) :   0.9732
B(  0-C ,  9-H ) :   0.9707 B(  1-C ,  2-H ) :   0.9332 B(  1-C ,  3-H ) :   0.9615
B(  1-C ,  4-C ) :   0.9953 B(  4-C ,  5-O ) :   2.0867 B(  4-C ,  6-F ) :   1.1626

Dispersion correction           -0.012793854
FINAL SINGLE POINT ENERGY      -292.452757152718

DIPOLE MOMENT
-------------
                                X             Y             Z
Electronic contribution:      4.85049      -2.31759       5.90391
Nuclear contribution   :     -4.79499       2.78546      -7.01827
                        -----------------------------------------
Total Dipole Moment    :      0.05549       0.46788      -1.11436
                        -----------------------------------------
Magnitude (a.u.)       :      1.20987
Magnitude (Debye)      :      3.07526

Rotational constants in cm-1:     0.286098     0.133492     0.103343
Rotational constants in MHz :  8577.003657  4001.981591  3098.148068

                             ****ORCA TERMINATED NORMALLY****
TOTAL RUN TIME: 0 days 0 hours 0 minutes 7 seconds 961 msec
