                         Program Version 5.0.0 -  RELEASE  -
|  1> !BLYP D3BJ RIJCOSX def2-TZVP def2/J TightSCF
|  2> *xyz 0 1
|  3> C          3.91385       -1.65829        3.01513
|  4> N          5.03927       -0.90115        2.49282
|  5> C          6.21038       -1.41726        2.17824
|  6> C          6.53591       -2.67712        2.55608
|  7> N          7.07675       -0.70082        1.47891
|  8> H          7.95464       -1.12155        1.20755
|  9> H          6.75616        0.10664        0.96028
| 10> H          4.84217        0.01761        2.11519
| 11> H          5.99388       -3.12692        3.28278
| 12> C          3.13916       -2.37657        1.91061
| 13> H          3.26723       -0.93940        3.52069
| 14> H          4.24720       -2.35509        3.79006
| 15> H          7.49844       -2.97548        2.46878
| 16> H          2.82969       -1.66654        1.17238
| 17> H          2.27790       -2.85264        2.33072
| 18> H          3.76754       -3.11338        1.45548
| 19> *
| 20> %MaxCore 64000
| 21> %pal nprocs 8
| 22> end
| 23> %scf
| 24>   MaxIter 150
| 25> end
| 26>
| 27>
| 28>                          ****END OF INPUT****

CARTESIAN COORDINATES (ANGSTROEM)
---------------------------------
  C      3.913850   -1.658290    3.015130
  N      5.039270   -0.901150    2.492820
  C      6.210380   -1.417260    2.178240
  C      6.535910   -2.677120    2.556080
  N      7.076750   -0.700820    1.478910
  H      7.954640   -1.121550    1.207550
  H      6.756160    0.106640    0.960280
  H      4.842170    0.017610    2.115190
  H      5.993880   -3.126920    3.282780
  C      3.139160   -2.376570    1.910610
  H      3.267230   -0.939400    3.520690
  H      4.247200   -2.355090    3.790060
  H      7.498440   -2.975480    2.468780
  H      2.829690   -1.666540    1.172380
  H      2.277900   -2.852640    2.330720
  H      3.767540   -3.113380    1.455480

 Total Charge           Charge          ....    0
 Multiplicity           Mult            ....    1
 Number of Electrons    NEL             ....   48
 Basis Dimension        Dim             ....  246

ORBITAL ENERGIES
----------------

  NO   OCC          E(Eh)            E(eV)
   0   2.0000     -14.007398      -381.1607
   1   2.0000     -14.004142      -381.0721
   2   2.0000      -9.943714      -270.5822
   3   2.0000      -9.935255      -270.3520
   4   2.0000      -9.883886      -268.9542
   5   2.0000      -9.813693      -267.0442
   6   2.0000      -0.880813       -23.9681
   7   2.0000      -0.803661       -21.8687
   8   2.0000      -0.676290       -18.4028
   9   2.0000      -0.628858       -17.1121
  10   2.0000      -0.573164       -15.5966
  11   2.0000      -0.502864       -13.6836
  12   2.0000      -0.492248       -13.3948
  13   2.0000      -0.463733       -12.6188
  14   2.0000      -0.413280       -11.2459
  15   2.0000      -0.387424       -10.5423
  16   2.0000      -0.364727        -9.9247
  17   2.0000      -0.347120        -9.4456
  18   2.0000      -0.330742        -8.9999
  19   2.0000      -0.317923        -8.6511
  20   2.0000      -0.312180        -8.4949
  21   2.0000      -0.299905        -8.1608
  22   2.0000      -0.205561        -5.5936
  23   2.0000      -0.126688        -3.4474
  24   0.0000      -0.003036        -0.0826
  25   0.0000       0.027495         0.7482
  26   0.0000       0.040416         1.0998
  27   0.0000       0.050386         1.3711
  28   0.0000       0.065755         1.7893

MULLIKEN ATOMIC CHARGES
-----------------------
   0 C :   -0.066277
   1 N :   -0.259877
   2 C :    0.321121
   3 C :   -0.473188
   4 N :   -0.408902
   5 H :    0.221755
   6 H :    0.186584
   7 H :    0.162868
   8 H :    0.058820
   9 C :   -0.268250
  10 H :    0.087369
  11 H :    0.095577
  12 H :    0.054431
  13 H :    0.071371
  14 H :    0.088443
  15 H :    0.128155
Sum of atomic charges:   -0.0000000

LOEWDIN ATOMIC CHARGES
----------------------
   0 C :   -0.292823
   1 N :    0.131433
   2 C :   -0.469559
   3 C :   -0.356610
   4 N :    0.001824
   5 H :    0.174929
   6 H :    0.154499
   7 H :    0.173172
   8 H :    0.092674
   9 C :   -0.298872
  10 H :    0.125535
  11 H :    0.132062
  12 H :    0.090446
  13 H :    0.107973
  14 H :    0.112717
  15 H :    0.120600

  Mayer bond orders larger than 0.100000
B(  0-C ,  1-N ) :   0.9518 B(  0-C ,  9-C ) :   0.9445 B(  0-C , 10-H ) :   0.9718
B(  0-C , 11-H ) :   0.9566 B(  1-N ,  2-C ) :   1.2122 B(  1-N ,  7-H ) :   0.9336
B(  2-C ,  3-C ) :   1.6172 B(  2-C ,  4-N ) :   1.1536 B(  3-C ,  8-H ) :   1.0062
B(  3-C , 12-H ) :   0.9898 B(  4-N ,  5-H ) :   0.9277 B(  4-N ,  6-H ) :   0.9266
B(  9-C , 13-H ) :   0.9710 B(  9-C , 14-H ) :   0.9659 B(  9-C , 15-H ) :   0.9742

Dispersion correction           -0.026098825
FINAL SINGLE POINT ENERGY      -267.904058144064

DIPOLE MOMENT
-------------
                                X             Y             Z
Electronic contribution:      3.08975       2.86092      -0.22928
Nuclear contribution   :     -3.42552      -1.84584      -0.22295
                        -----------------------------------------
Total Dipole Moment    :     -0.33578       1.01508      -0.45223
                        -----------------------------------------
Magnitude (a.u.)       :      1.16088
Magnitude (Debye)      :      2.95073

Rotational constants in cm-1:     0.233526     0.075277     0.067092
Rotational constants in MHz :  7000.931279  2256.752901  2011.361214

                             ****ORCA TERMINATED NORMALLY****
TOTAL RUN TIME: 0 days 0 hours 0 minutes 13 seconds 973 msec
