                         Program Version 5.0.0 -  RELEASE  -
|  1> !BLYP D3BJ RIJCOSX def2-TZVP def2/J TightSCF
|  2> *xyz 0 1
|  3> C          3.91385       -1.65829        3.01513
|  4> N          5.03927       -0.90115        2.49282
|  5> C          6.21038       -1.41726        2.17824
|  6> N          6.53591       -2.67712        2.55608
|  7> C          7.07675       -0.70082        1.47891
|  8> H          7.95464       -1.12155        1.20755
|  9> H          6.75616        0.10664        0.96028
| 10> H          4.84217        0.01761        2.11519
| 11> H          5.99388       -3.12692        3.28278
| 12> C          3.13916       -2.37657        1.91061
| 13> H          3.26723       -0.93940        3.52069
| 14> H          4.24720       -2.35509        3.79006
| 15> H          7.49844       -2.97548        2.46878
| 16> H          2.82969       -1.66654        1.17238
| 17> H          2.27790       -2.85264        2.33072
| 18> H          3.76754       -3.11338        1.45548
| 19> *
| 20> %MaxCore 64000
| 21> %pal nprocs 8
| 22> end
| 23> %scf
| 24>   MaxIter 150
| 25> end
| 26>
| 27>
| 28>                          ****END OF INPUT****

CARTESIAN COORDINATES (ANGSTROEM)
---------------------------------
  C      3.913850   -1.658290    3.015130
  N      5.039270   -0.901150    2.492820
  C      6.210380   -1.417260    2.178240
  N      6.535910   -2.677120    2.556080
  C      7.076750   -0.700820    1.478910
  H      7.954640   -1.121550    1.207550
  H      6.756160    0.106640    0.960280
  H      4.842170    0.017610    2.115190
  H      5.993880   -3.126920    3.282780
  C      3.139160   -2.376570    1.910610
  H      3.267230   -0.939400    3.520690
  H      4.247200   -2.355090    3.790060
  H      7.498440   -2.975480    2.468780
  H      2.829690   -1.666540    1.172380
  H      2.277900   -2.852640    2.330720
  H      3.767540   -3.113380    1.455480

 Total Charge           Charge          ....    0
 Multiplicity           Mult            ....    1
 Number of Electrons    NEL             ....   48
 Basis Dimension        Dim             ....  246

ORBITAL ENERGIES
----------------

  NO   OCC          E(Eh)            E(eV)
   0   2.0000     -14.004387      -381.0787
   1   2.0000     -14.002493      -381.0272
   2   2.0000      -9.943554      -270.5779
   3   2.0000      -9.941498      -270.5219
   4   2.0000      -9.891548      -269.1627
   5   2.0000      -9.813018      -267.0258
   6   2.0000      -0.876423       -23.8487
   7   2.0000      -0.797298       -21.6956
   8   2.0000      -0.692441       -18.8423
   9   2.0000      -0.626127       -17.0378
  10   2.0000      -0.561793       -15.2872
  11   2.0000      -0.537512       -14.6264
  12   2.0000      -0.477393       -12.9905
  13   2.0000      -0.441633       -12.0174
  14   2.0000      -0.425487       -11.5781
  15   2.0000      -0.389143       -10.5891
  16   2.0000      -0.377547       -10.2736
  17   2.0000      -0.353760        -9.6263
  18   2.0000      -0.331905        -9.0316
  19   2.0000      -0.323576        -8.8050
  20   2.0000      -0.313094        -8.5197
  21   2.0000      -0.307951        -8.3798
  22   2.0000      -0.208637        -5.6773
  23   2.0000      -0.126265        -3.4358
  24   0.0000      -0.000423        -0.0115
  25   0.0000       0.023832         0.6485
  26   0.0000       0.035611         0.9690
  27   0.0000       0.050682         1.3791
  28   0.0000       0.061576         1.6756

MULLIKEN ATOMIC CHARGES
-----------------------
   0 C :   -0.113384
   1 N :   -0.249153
   2 C :    0.354409
   3 N :   -0.432089
   4 C :   -0.471189
   5 H :    0.051871
   6 H :    0.057096
   7 H :    0.191009
   8 H :    0.192245
   9 C :   -0.240541
  10 H :    0.095463
  11 H :    0.073865
  12 H :    0.214286
  13 H :    0.084435
  14 H :    0.085160
  15 H :    0.106518
Sum of atomic charges:   -0.0000000

LOEWDIN ATOMIC CHARGES
----------------------
   0 C :   -0.310886
   1 N :    0.134462
   2 C :   -0.460363
   3 N :   -0.014107
   4 C :   -0.340088
   5 H :    0.093502
   6 H :    0.093590
   7 H :    0.190527
   8 H :    0.152944
   9 C :   -0.299399
  10 H :    0.128191
  11 H :    0.120803
  12 H :    0.171356
  13 H :    0.112244
  14 H :    0.111475
  15 H :    0.115748

  Mayer bond orders larger than 0.100000
B(  0-C ,  1-N ) :   0.9780 B(  0-C ,  9-C ) :   0.9285 B(  0-C , 10-H ) :   0.9735
B(  0-C , 11-H ) :   0.9677 B(  1-N ,  2-C ) :   1.2234 B(  1-N ,  7-H ) :   0.9287
B(  2-C ,  3-N ) :   1.1287 B(  2-C ,  4-C ) :   1.6187 B(  3-N ,  8-H ) :   0.9235
B(  3-N , 12-H ) :   0.9289 B(  4-C ,  5-H ) :   1.0065 B(  4-C ,  6-H ) :   1.0039
B(  9-C , 13-H ) :   0.9705 B(  9-C , 14-H ) :   0.9623 B(  9-C , 15-H ) :   0.9742

Dispersion correction           -0.025919437
FINAL SINGLE POINT ENERGY      -267.904437470536

DIPOLE MOMENT
-------------
                                X             Y             Z
Electronic contribution:      2.55254       0.91557       0.97472
Nuclear contribution   :     -3.31079      -1.42658      -0.45147
                        -----------------------------------------
Total Dipole Moment    :     -0.75825      -0.51101       0.52325
                        -----------------------------------------
Magnitude (a.u.)       :      1.05350
Magnitude (Debye)      :      2.67778

Rotational constants in cm-1:     0.225507     0.077571     0.068070
Rotational constants in MHz :  6760.542142  2325.533779  2040.680522

                             ****ORCA TERMINATED NORMALLY****
TOTAL RUN TIME: 0 days 0 hours 0 minutes 13 seconds 429 msec
