                         Program Version 5.0.0 -  RELEASE  -
|  1> !BLYP D3BJ RIJCOSX def2-TZVP def2/J TightSCF xyzfile
|  2>
|  3> *xyzfile 0 1 D1.xyz
|  4>
|  5> %MaxCore 64000
|  6>
|  7> %pal nprocs 18
|  8> end
|  9>
| 10> %scf
| 11>   MaxIter 150
| 12> end
| 13>
| 14>
| 15>                          ****END OF INPUT****

CARTESIAN COORDINATES (ANGSTROEM)
---------------------------------
  C      3.913853   -1.658291    3.015134
  C      5.039266   -0.901154    2.492821
  C      4.084215    1.742081   -2.114724
  C      4.265245    2.500518   -0.795890
  H      4.868534    3.392674   -0.981134
  H      3.307640    2.824571   -0.387809
  C      4.982240    1.650257    0.247422
  C      6.210384   -1.417261    2.178244
  N      6.535913   -2.677122    2.556078
  N      7.076754   -0.700820    1.478906
  H      7.954643   -1.121554    1.207554
  H      6.756161    0.106637    0.960278
  H      4.842168    0.017609    2.115191
  H      5.993876   -3.126918    3.282784
  H      7.498441   -2.975482    2.468776
  F      4.368065    1.389270    1.313706
  O      6.128919    1.233512   -0.045620
  C      3.139159   -2.376572    1.910609
  H      3.267235   -0.939401    3.520693
  H      4.247195   -2.355095    3.790065
  C      1.997274    0.430918   -1.399218
  C      3.412746    0.376886   -1.965497
  H      4.047407   -0.246590   -1.326706
  H      3.390774   -0.118719   -2.942839
  H      5.068475    1.598504   -2.565728
  H      3.503356    2.363939   -2.804565
  C      2.399946   -1.389579    1.009490
  H      2.440750   -3.087118    2.362976
  H      3.844475   -2.970462    1.318677
  C      2.070177   -1.936705   -0.372401
  H      1.481611   -1.061542    1.509912
  H      3.008628   -0.490001    0.897451
  C      1.322238   -0.935775   -1.256413
  H      1.472747   -2.850902   -0.283997
  H      3.003539   -2.234041   -0.862535
  H      1.376444    1.058920   -2.047420
  H      2.015341    0.929780   -0.426535
  H      0.316648   -0.787213   -0.848278
  H      1.185611   -1.379252   -2.248613

 Total Charge           Charge          ....    0
 Multiplicity           Mult            ....    1
 Number of Electrons    NEL             ....  126
 Basis Dimension        Dim             ....  634

ORBITAL ENERGIES
----------------

  NO   OCC          E(Eh)            E(eV)
   0   2.0000     -24.363634      -662.9682
   1   2.0000     -18.796247      -511.4719
   2   2.0000     -13.986893      -380.6027
   3   2.0000     -13.962619      -379.9422
   4   2.0000     -10.091952      -274.6160
   5   2.0000      -9.939388      -270.4645
   6   2.0000      -9.920592      -269.9530
   7   2.0000      -9.919594      -269.9259
   8   2.0000      -9.905031      -269.5296
   9   2.0000      -9.899799      -269.3872
  10   2.0000      -9.893734      -269.2222
  11   2.0000      -9.885990      -269.0115
  12   2.0000      -9.879068      -268.8231
  13   2.0000      -9.870595      -268.5925
  14   2.0000      -9.865753      -268.4608
  15   2.0000      -9.799446      -266.6565
  16   2.0000      -1.223519       -33.2936
  17   2.0000      -0.964605       -26.2482
  18   2.0000      -0.845565       -23.0090
  19   2.0000      -0.762473       -20.7479
  20   2.0000      -0.748510       -20.3680
  21   2.0000      -0.720280       -19.5998
  22   2.0000      -0.693147       -18.8615
  23   2.0000      -0.667179       -18.1549
  24   2.0000      -0.632385       -17.2081
  25   2.0000      -0.613992       -16.7076
  26   2.0000      -0.589523       -16.0417
  27   2.0000      -0.565566       -15.3898
  28   2.0000      -0.537009       -14.6128
  29   2.0000      -0.521137       -14.1809
  30   2.0000      -0.502067       -13.6619
  31   2.0000      -0.495658       -13.4875
  32   2.0000      -0.488273       -13.2866
  33   2.0000      -0.487829       -13.2745
  34   2.0000      -0.465124       -12.6567
  35   2.0000      -0.456900       -12.4329
  36   2.0000      -0.431063       -11.7298
  37   2.0000      -0.424085       -11.5399
  38   2.0000      -0.421913       -11.4808
  39   2.0000      -0.404753       -11.0139
  40   2.0000      -0.393304       -10.7023
  41   2.0000      -0.383154       -10.4262
  42   2.0000      -0.374525       -10.1913
  43   2.0000      -0.365920        -9.9572
  44   2.0000      -0.361124        -9.8267
  45   2.0000      -0.357023        -9.7151
  46   2.0000      -0.341949        -9.3049
  47   2.0000      -0.337302        -9.1785
  48   2.0000      -0.321894        -8.7592
  49   2.0000      -0.318224        -8.6593
  50   2.0000      -0.313121        -8.5204
  51   2.0000      -0.309529        -8.4227
  52   2.0000      -0.301962        -8.2168
  53   2.0000      -0.292165        -7.9502
  54   2.0000      -0.290381        -7.9017
  55   2.0000      -0.275801        -7.5049
  56   2.0000      -0.268280        -7.3003
  57   2.0000      -0.261218        -7.1081
  58   2.0000      -0.258113        -7.0236
  59   2.0000      -0.255344        -6.9483
  60   2.0000      -0.247616        -6.7380
  61   2.0000      -0.195194        -5.3115
  62   2.0000      -0.106441        -2.8964
  63   0.0000      -0.081263        -2.2113
  64   0.0000       0.007973         0.2170
  65   0.0000       0.015814         0.4303
  66   0.0000       0.027242         0.7413
  67   0.0000       0.029430         0.8008

MULLIKEN ATOMIC CHARGES
-----------------------
   0 C :   -0.181336
   1 C :   -0.371584
   2 C :   -0.108734
   3 C :   -0.176794
   4 H :    0.117189
   5 H :    0.109697
   6 C :    0.367714
   7 C :    0.306616
   8 N :   -0.429996
   9 N :   -0.420650
  10 H :    0.170959
  11 H :    0.235572
  12 H :    0.119641
  13 H :    0.207729
  14 H :    0.183914
  15 F :   -0.079811
  16 O :   -0.335030
  17 C :   -0.021117
  18 H :    0.047851
  19 H :    0.045264
  20 C :   -0.180244
  21 C :   -0.226992
  22 H :    0.128470
  23 H :    0.073585
  24 H :    0.095575
  25 H :    0.083571
  26 C :   -0.213845
  27 H :    0.043884
  28 H :    0.064230
  29 C :   -0.144949
  30 H :    0.058724
  31 H :    0.078685
  32 C :   -0.106744
  33 H :    0.069986
  34 H :    0.083849
  35 H :    0.070289
  36 H :    0.092767
  37 H :    0.071294
  38 H :    0.070772
Sum of atomic charges:    0.0000000

LOEWDIN ATOMIC CHARGES
----------------------
   0 C :   -0.283381
   1 C :   -0.288450
   2 C :   -0.247645
   3 C :   -0.224309
   4 H :    0.155946
   5 H :    0.139708
   6 C :   -0.498596
   7 C :   -0.462367
   8 N :   -0.021277
   9 N :   -0.003889
  10 H :    0.149442
  11 H :    0.139942
  12 H :    0.112144
  13 H :    0.163840
  14 H :    0.152125
  15 F :    0.363360
  16 O :    0.105928
  17 C :   -0.252886
  18 H :    0.136112
  19 H :    0.121325
  20 C :   -0.265446
  21 C :   -0.260536
  22 H :    0.140242
  23 H :    0.136835
  24 H :    0.141496
  25 H :    0.137415
  26 C :   -0.263929
  27 H :    0.120293
  28 H :    0.133644
  29 C :   -0.265590
  30 H :    0.129242
  31 H :    0.131007
  32 C :   -0.260660
  33 H :    0.131955
  34 H :    0.131263
  35 H :    0.132022
  36 H :    0.129922
  37 H :    0.132636
  38 H :    0.131115

  Mayer bond orders larger than 0.100000
B(  0-C ,  1-C ) :   1.0399 B(  0-C , 17-C ) :   0.9157 B(  0-C , 18-H ) :   0.9689
B(  0-C , 19-H ) :   0.9709 B(  1-C ,  7-C ) :   1.6230 B(  1-C , 12-H ) :   1.0144
B(  2-C ,  3-C ) :   0.9490 B(  2-C , 21-C ) :   0.9672 B(  2-C , 24-H ) :   0.9560
B(  2-C , 25-H ) :   0.9550 B(  3-C ,  4-H ) :   0.9410 B(  3-C ,  5-H ) :   0.9646
B(  3-C ,  6-C ) :   0.9712 B(  6-C , 15-F ) :   1.1496 B(  6-C , 16-O ) :   1.9076
B(  7-C ,  8-N ) :   1.1157 B(  7-C ,  9-N ) :   1.1886 B(  8-N , 13-H ) :   0.9216
B(  8-N , 14-H ) :   0.9325 B(  9-N , 10-H ) :   0.9380 B(  9-N , 11-H ) :   0.8533
B( 11-H , 16-O ) :   0.1347 B( 17-C , 26-C ) :   1.0048 B( 17-C , 27-H ) :   0.9443
B( 17-C , 28-H ) :   0.9597 B( 20-C , 21-C ) :   0.9446 B( 20-C , 32-C ) :   0.9695
B( 20-C , 35-H ) :   0.9570 B( 20-C , 36-H ) :   0.9694 B( 21-C , 22-H ) :   0.9712
B( 21-C , 23-H ) :   0.9604 B( 26-C , 29-C ) :   0.9669 B( 26-C , 30-H ) :   0.9511
B( 26-C , 31-H ) :   0.9782 B( 29-C , 32-C ) :   0.9674 B( 29-C , 33-H ) :   0.9644
B( 29-C , 34-H ) :   0.9678 B( 32-C , 37-H ) :   0.9635 B( 32-C , 38-H ) :   0.9626

Dispersion correction           -0.088544155
FINAL SINGLE POINT ENERGY      -755.690939438621

DIPOLE MOMENT
-------------
                                X             Y             Z
Electronic contribution:     11.46040       8.93918       5.92948
Nuclear contribution   :    -11.48003      -8.36271      -6.78621
                        -----------------------------------------
Total Dipole Moment    :     -0.01963       0.57646      -0.85674
                        -----------------------------------------
Magnitude (a.u.)       :      1.03281
Magnitude (Debye)      :      2.62520

Rotational constants in cm-1:     0.020055     0.013548     0.009477
Rotational constants in MHz :   601.234832   406.162779   284.104317

                             ****ORCA TERMINATED NORMALLY****
TOTAL RUN TIME: 0 days 0 hours 0 minutes 30 seconds 51 msec
