                         Program Version 5.0.0 -  RELEASE  -
|  1> !BLYP D3BJ RIJCOSX def2-TZVP def2/J TightSCF xyzfile
|  2>
|  3> *xyzfile 0 1 D2.xyz
|  4>
|  5> %MaxCore 64000
|  6>
|  7> %pal nprocs 18
|  8> end
|  9>
| 10> %scf
| 11>   MaxIter 150
| 12> end
| 13>
| 14>
| 15>                          ****END OF INPUT****

CARTESIAN COORDINATES (ANGSTROEM)
---------------------------------
  C      3.913853   -1.658291    3.015134
  N      5.039266   -0.901154    2.492821
  C      4.084215    1.742081   -2.114724
  C      4.265245    2.500518   -0.795890
  H      4.868534    3.392674   -0.981134
  H      3.307640    2.824571   -0.387809
  C      4.982240    1.650257    0.247422
  C      6.210384   -1.417261    2.178244
  C      6.535913   -2.677122    2.556078
  N      7.076754   -0.700820    1.478906
  H      7.954643   -1.121554    1.207554
  H      6.756161    0.106637    0.960278
  H      4.842168    0.017609    2.115191
  H      5.993876   -3.126918    3.282784
  H      7.498441   -2.975482    2.468776
  F      4.368065    1.389270    1.313706
  O      6.128919    1.233512   -0.045620
  C      3.139159   -2.376572    1.910609
  H      3.267235   -0.939401    3.520693
  H      4.247195   -2.355095    3.790065
  C      1.997274    0.430918   -1.399218
  C      3.412746    0.376886   -1.965497
  H      4.047407   -0.246590   -1.326706
  H      3.390774   -0.118719   -2.942839
  H      5.068475    1.598504   -2.565728
  H      3.503356    2.363939   -2.804565
  C      2.399946   -1.389579    1.009490
  H      2.440750   -3.087118    2.362976
  H      3.844475   -2.970462    1.318677
  C      2.070177   -1.936705   -0.372401
  H      1.481611   -1.061542    1.509912
  H      3.008628   -0.490001    0.897451
  C      1.322238   -0.935775   -1.256413
  H      1.472747   -2.850902   -0.283997
  H      3.003539   -2.234041   -0.862535
  H      1.376444    1.058920   -2.047420
  H      2.015341    0.929780   -0.426535
  H      0.316648   -0.787213   -0.848278
  H      1.185611   -1.379252   -2.248613

 Total Charge           Charge          ....    0
 Multiplicity           Mult            ....    1
 Number of Electrons    NEL             ....  126
 Basis Dimension        Dim             ....  634

ORBITAL ENERGIES
----------------

  NO   OCC          E(Eh)            E(eV)
   0   2.0000     -24.386740      -663.5969
   1   2.0000     -18.805420      -511.7215
   2   2.0000     -13.987348      -380.6151
   3   2.0000     -13.966968      -380.0605
   4   2.0000     -10.098171      -274.7852
   5   2.0000      -9.947208      -270.6773
   6   2.0000      -9.927095      -270.1300
   7   2.0000      -9.925908      -270.0977
   8   2.0000      -9.924107      -270.0487
   9   2.0000      -9.912826      -269.7417
  10   2.0000      -9.908347      -269.6198
  11   2.0000      -9.902757      -269.4677
  12   2.0000      -9.897295      -269.3191
  13   2.0000      -9.895815      -269.2788
  14   2.0000      -9.888496      -269.0796
  15   2.0000      -9.801286      -266.7065
  16   2.0000      -1.244733       -33.8709
  17   2.0000      -0.973797       -26.4984
  18   2.0000      -0.861606       -23.4455
  19   2.0000      -0.781973       -21.2786
  20   2.0000      -0.756668       -20.5900
  21   2.0000      -0.728846       -19.8329
  22   2.0000      -0.697305       -18.9746
  23   2.0000      -0.666173       -18.1275
  24   2.0000      -0.640110       -17.4183
  25   2.0000      -0.619906       -16.8685
  26   2.0000      -0.606631       -16.5073
  27   2.0000      -0.584888       -15.9156
  28   2.0000      -0.551599       -15.0098
  29   2.0000      -0.533235       -14.5101
  30   2.0000      -0.519324       -14.1315
  31   2.0000      -0.508210       -13.8291
  32   2.0000      -0.503293       -13.6953
  33   2.0000      -0.487651       -13.2697
  34   2.0000      -0.475220       -12.9314
  35   2.0000      -0.455166       -12.3857
  36   2.0000      -0.441053       -12.0017
  37   2.0000      -0.431319       -11.7368
  38   2.0000      -0.431149       -11.7322
  39   2.0000      -0.413101       -11.2411
  40   2.0000      -0.398943       -10.8558
  41   2.0000      -0.395263       -10.7557
  42   2.0000      -0.379844       -10.3361
  43   2.0000      -0.376042       -10.2326
  44   2.0000      -0.368658       -10.0317
  45   2.0000      -0.358455        -9.7541
  46   2.0000      -0.352298        -9.5865
  47   2.0000      -0.344334        -9.3698
  48   2.0000      -0.330663        -8.9978
  49   2.0000      -0.328245        -8.9320
  50   2.0000      -0.322716        -8.7816
  51   2.0000      -0.316682        -8.6174
  52   2.0000      -0.313163        -8.5216
  53   2.0000      -0.305636        -8.3168
  54   2.0000      -0.297628        -8.0989
  55   2.0000      -0.292539        -7.9604
  56   2.0000      -0.286431        -7.7942
  57   2.0000      -0.276737        -7.5304
  58   2.0000      -0.275373        -7.4933
  59   2.0000      -0.270256        -7.3540
  60   2.0000      -0.262106        -7.1323
  61   2.0000      -0.185083        -5.0364
  62   2.0000      -0.113077        -3.0770
  63   0.0000      -0.090830        -2.4716
  64   0.0000      -0.000283        -0.0077
  65   0.0000       0.019112         0.5201
  66   0.0000       0.021402         0.5824
  67   0.0000       0.025916         0.7052

MULLIKEN ATOMIC CHARGES
-----------------------
   0 C :   -0.095374
   1 N :   -0.274768
   2 C :   -0.109351
   3 C :   -0.178607
   4 H :    0.120190
   5 H :    0.109886
   6 C :    0.355602
   7 C :    0.306243
   8 C :   -0.488196
   9 N :   -0.419971
  10 H :    0.202411
  11 H :    0.221275
  12 H :    0.186551
  13 H :    0.055260
  14 H :    0.052441
  15 F :   -0.111017
  16 O :   -0.326836
  17 C :   -0.037215
  18 H :    0.079498
  19 H :    0.101730
  20 C :   -0.179395
  21 C :   -0.228854
  22 H :    0.123221
  23 H :    0.078723
  24 H :    0.100082
  25 H :    0.085681
  26 C :   -0.248619
  27 H :    0.064713
  28 H :    0.097838
  29 C :   -0.145383
  30 H :    0.063357
  31 H :    0.062056
  32 C :   -0.108820
  33 H :    0.077597
  34 H :    0.093165
  35 H :    0.074790
  36 H :    0.089489
  37 H :    0.074451
  38 H :    0.076154
Sum of atomic charges:    0.0000000

LOEWDIN ATOMIC CHARGES
----------------------
   0 C :   -0.272816
   1 N :    0.130017
   2 C :   -0.246645
   3 C :   -0.226382
   4 H :    0.156666
   5 H :    0.139419
   6 C :   -0.516241
   7 C :   -0.469087
   8 C :   -0.357233
   9 N :    0.003660
  10 H :    0.167955
  11 H :    0.130302
  12 H :    0.157493
  13 H :    0.090351
  14 H :    0.089133
  15 F :    0.349564
  16 O :    0.106670
  17 C :   -0.257775
  18 H :    0.127597
  19 H :    0.133001
  20 C :   -0.265385
  21 C :   -0.260177
  22 H :    0.139002
  23 H :    0.138328
  24 H :    0.142685
  25 H :    0.138189
  26 C :   -0.270193
  27 H :    0.130115
  28 H :    0.142847
  29 C :   -0.263391
  30 H :    0.130527
  31 H :    0.124928
  32 C :   -0.259596
  33 H :    0.134198
  34 H :    0.133939
  35 H :    0.133404
  36 H :    0.128650
  37 H :    0.133292
  38 H :    0.132988

  Mayer bond orders larger than 0.100000
B(  0-C ,  1-N ) :   0.9887 B(  0-C , 17-C ) :   0.9251 B(  0-C , 18-H ) :   0.9759
B(  0-C , 19-H ) :   0.9638 B(  1-N ,  7-C ) :   1.2166 B(  1-N , 12-H ) :   0.9098
B(  2-C ,  3-C ) :   0.9472 B(  2-C , 21-C ) :   0.9649 B(  2-C , 24-H ) :   0.9567
B(  2-C , 25-H ) :   0.9546 B(  3-C ,  4-H ) :   0.9414 B(  3-C ,  5-H ) :   0.9629
B(  3-C ,  6-C ) :   0.9774 B(  6-C , 15-F ) :   1.0930 B(  6-C , 16-O ) :   1.9115
B(  7-C ,  8-C ) :   1.5670 B(  7-C ,  9-N ) :   1.1957 B(  8-C , 13-H ) :   0.9990
B(  8-C , 14-H ) :   0.9905 B(  9-N , 10-H ) :   0.9350 B(  9-N , 11-H ) :   0.8573
B( 11-H , 16-O ) :   0.1280 B( 17-C , 26-C ) :   0.9724 B( 17-C , 27-H ) :   0.9531
B( 17-C , 28-H ) :   0.9570 B( 20-C , 21-C ) :   0.9409 B( 20-C , 32-C ) :   0.9664
B( 20-C , 35-H ) :   0.9572 B( 20-C , 36-H ) :   0.9709 B( 21-C , 22-H ) :   0.9714
B( 21-C , 23-H ) :   0.9609 B( 26-C , 29-C ) :   0.9661 B( 26-C , 30-H ) :   0.9470
B( 26-C , 31-H ) :   0.9842 B( 29-C , 32-C ) :   0.9644 B( 29-C , 33-H ) :   0.9659
B( 29-C , 34-H ) :   0.9684 B( 32-C , 37-H ) :   0.9648 B( 32-C , 38-H ) :   0.9631

Dispersion correction           -0.088026010
FINAL SINGLE POINT ENERGY      -755.690164674757

DIPOLE MOMENT
-------------
                                X             Y             Z
Electronic contribution:      9.91859      10.34245       5.68248
Nuclear contribution   :    -11.22009      -8.67117      -6.77523
                        -----------------------------------------
Total Dipole Moment    :     -1.30150       1.67128      -1.09275
                        -----------------------------------------
Magnitude (a.u.)       :      2.38353
Magnitude (Debye)      :      6.05844

Rotational constants in cm-1:     0.020086     0.013778     0.009581
Rotational constants in MHz :   602.172053   413.051122   287.243919

                             ****ORCA TERMINATED NORMALLY****
TOTAL RUN TIME: 0 days 0 hours 0 minutes 35 seconds 559 msec
