                         Program Version 5.0.0 -  RELEASE  -
|  1> !BLYP D3BJ RIJCOSX def2-TZVP def2/J TightSCF xyzfile
|  2>
|  3> *xyzfile 0 1 D6.xyz
|  4>
|  5> %MaxCore 64000
|  6>
|  7> %pal nprocs 18
|  8> end
|  9>
| 10> %scf
| 11>   MaxIter 150
| 12> end
| 13>
| 14>
| 15>                          ****END OF INPUT****

CARTESIAN COORDINATES (ANGSTROEM)
---------------------------------
  C      3.913853   -1.658291    3.015134
  N      5.039266   -0.901154    2.492821
  C      4.084215    1.742081   -2.114724
  C      4.265245    2.500518   -0.795890
  H      4.868534    3.392674   -0.981134
  H      3.307640    2.824571   -0.387809
  C      4.982240    1.650257    0.247422
  C      6.210384   -1.417261    2.178244
  N      6.535913   -2.677122    2.556078
  C      7.076754   -0.700820    1.478906
  H      7.954643   -1.121554    1.207554
  H      6.756161    0.106637    0.960278
  H      4.842168    0.017609    2.115191
  H      5.993876   -3.126918    3.282784
  H      7.498441   -2.975482    2.468776
  O      4.368065    1.389270    1.313706
  F      6.128919    1.233512   -0.045620
  C      3.139159   -2.376572    1.910609
  H      3.267235   -0.939401    3.520693
  H      4.247195   -2.355095    3.790065
  C      1.997274    0.430918   -1.399218
  C      3.412746    0.376886   -1.965497
  H      4.047407   -0.246590   -1.326706
  H      3.390774   -0.118719   -2.942839
  H      5.068475    1.598504   -2.565728
  H      3.503356    2.363939   -2.804565
  C      2.399946   -1.389579    1.009490
  H      2.440750   -3.087118    2.362976
  H      3.844475   -2.970462    1.318677
  C      2.070177   -1.936705   -0.372401
  H      1.481611   -1.061542    1.509912
  H      3.008628   -0.490001    0.897451
  C      1.322238   -0.935775   -1.256413
  H      1.472747   -2.850902   -0.283997
  H      3.003539   -2.234041   -0.862535
  H      1.376444    1.058920   -2.047420
  H      2.015341    0.929780   -0.426535
  H      0.316648   -0.787213   -0.848278
  H      1.185611   -1.379252   -2.248613

 Total Charge           Charge          ....    0
 Multiplicity           Mult            ....    1
 Number of Electrons    NEL             ....  126
 Basis Dimension        Dim             ....  634

ORBITAL ENERGIES
----------------

  NO   OCC          E(Eh)            E(eV)
   0   2.0000     -24.363359      -662.9607
   1   2.0000     -18.795990      -511.4649
   2   2.0000     -13.984913      -380.5488
   3   2.0000     -13.967938      -380.0869
   4   2.0000     -10.092133      -274.6209
   5   2.0000      -9.939879      -270.4779
   6   2.0000      -9.924809      -270.0678
   7   2.0000      -9.921441      -269.9761
   8   2.0000      -9.921046      -269.9654
   9   2.0000      -9.909494      -269.6510
  10   2.0000      -9.901778      -269.4411
  11   2.0000      -9.897905      -269.3357
  12   2.0000      -9.892570      -269.1905
  13   2.0000      -9.887497      -269.0525
  14   2.0000      -9.887014      -269.0393
  15   2.0000      -9.788247      -266.3517
  16   2.0000      -1.224454       -33.3191
  17   2.0000      -0.962545       -26.1922
  18   2.0000      -0.852943       -23.2097
  19   2.0000      -0.776800       -21.1378
  20   2.0000      -0.752856       -20.4862
  21   2.0000      -0.723542       -19.6886
  22   2.0000      -0.695034       -18.9128
  23   2.0000      -0.661733       -18.0067
  24   2.0000      -0.637749       -17.3540
  25   2.0000      -0.606039       -16.4912
  26   2.0000      -0.599986       -16.3265
  27   2.0000      -0.569219       -15.4892
  28   2.0000      -0.543769       -14.7967
  29   2.0000      -0.528966       -14.3939
  30   2.0000      -0.510171       -13.8825
  31   2.0000      -0.502082       -13.6623
  32   2.0000      -0.497144       -13.5280
  33   2.0000      -0.486922       -13.2498
  34   2.0000      -0.463393       -12.6096
  35   2.0000      -0.450344       -12.2545
  36   2.0000      -0.430716       -11.7204
  37   2.0000      -0.428161       -11.6508
  38   2.0000      -0.419226       -11.4077
  39   2.0000      -0.408154       -11.1064
  40   2.0000      -0.401809       -10.9338
  41   2.0000      -0.383457       -10.4344
  42   2.0000      -0.378742       -10.3061
  43   2.0000      -0.371032       -10.0963
  44   2.0000      -0.364786        -9.9263
  45   2.0000      -0.359339        -9.7781
  46   2.0000      -0.345190        -9.3931
  47   2.0000      -0.337497        -9.1837
  48   2.0000      -0.332738        -9.0543
  49   2.0000      -0.326456        -8.8833
  50   2.0000      -0.318424        -8.6648
  51   2.0000      -0.307779        -8.3751
  52   2.0000      -0.306100        -8.3294
  53   2.0000      -0.297358        -8.0915
  54   2.0000      -0.294577        -8.0159
  55   2.0000      -0.286173        -7.7872
  56   2.0000      -0.281751        -7.6668
  57   2.0000      -0.271845        -7.3973
  58   2.0000      -0.270226        -7.3532
  59   2.0000      -0.265501        -7.2246
  60   2.0000      -0.249918        -6.8006
  61   2.0000      -0.187567        -5.1040
  62   2.0000      -0.107125        -2.9150
  63   0.0000      -0.079838        -2.1725
  64   0.0000       0.004557         0.1240
  65   0.0000       0.017679         0.4811
  66   0.0000       0.023569         0.6413
  67   0.0000       0.027597         0.7510

MULLIKEN ATOMIC CHARGES
-----------------------
   0 C :   -0.134083
   1 N :   -0.260967
   2 C :   -0.145234
   3 C :   -0.171335
   4 H :    0.113264
   5 H :    0.121267
   6 C :    0.373179
   7 C :    0.330683
   8 N :   -0.435794
   9 C :   -0.512939
  10 H :    0.042438
  11 H :    0.071793
  12 H :    0.230814
  13 H :    0.189836
  14 H :    0.207071
  15 O :   -0.349809
  16 F :   -0.071596
  17 C :   -0.030152
  18 H :    0.085625
  19 H :    0.076704
  20 C :   -0.185205
  21 C :   -0.206407
  22 H :    0.118859
  23 H :    0.076387
  24 H :    0.097881
  25 H :    0.087724
  26 C :   -0.265160
  27 H :    0.056411
  28 H :    0.077535
  29 C :   -0.144004
  30 H :    0.060876
  31 H :    0.118265
  32 C :   -0.110477
  33 H :    0.072429
  34 H :    0.088442
  35 H :    0.071171
  36 H :    0.108536
  37 H :    0.073164
  38 H :    0.072808
Sum of atomic charges:    0.0000000

LOEWDIN ATOMIC CHARGES
----------------------
   0 C :   -0.290915
   1 N :    0.136069
   2 C :   -0.253989
   3 C :   -0.221224
   4 H :    0.150699
   5 H :    0.149648
   6 C :   -0.496856
   7 C :   -0.466313
   8 N :   -0.018665
   9 C :   -0.364921
  10 H :    0.088780
  11 H :    0.084403
  12 H :    0.162738
  13 H :    0.150990
  14 H :    0.167143
  15 O :    0.094004
  16 F :    0.375092
  17 C :   -0.262915
  18 H :    0.131875
  19 H :    0.119123
  20 C :   -0.263732
  21 C :   -0.259439
  22 H :    0.138924
  23 H :    0.137100
  24 H :    0.138611
  25 H :    0.138628
  26 C :   -0.266260
  27 H :    0.126400
  28 H :    0.136661
  29 C :   -0.265129
  30 H :    0.131028
  31 H :    0.135684
  32 C :   -0.259912
  33 H :    0.132113
  34 H :    0.132364
  35 H :    0.132442
  36 H :    0.134919
  37 H :    0.133192
  38 H :    0.131643

  Mayer bond orders larger than 0.100000
B(  0-C ,  1-N ) :   1.0110 B(  0-C , 17-C ) :   0.8986 B(  0-C , 18-H ) :   0.9746
B(  0-C , 19-H ) :   0.9787 B(  1-N ,  7-C ) :   1.2449 B(  1-N , 12-H ) :   0.8624
B(  2-C ,  3-C ) :   0.9367 B(  2-C , 21-C ) :   0.9562 B(  2-C , 24-H ) :   0.9649
B(  2-C , 25-H ) :   0.9547 B(  3-C ,  4-H ) :   0.9391 B(  3-C ,  5-H ) :   0.9735
B(  3-C ,  6-C ) :   0.9788 B(  6-C , 15-O ) :   1.9045 B(  6-C , 16-F ) :   1.1445
B(  7-C ,  8-N ) :   1.1159 B(  7-C ,  9-C ) :   1.5988 B(  8-N , 13-H ) :   0.9239
B(  8-N , 14-H ) :   0.9305 B(  9-C , 10-H ) :   0.9970 B(  9-C , 11-H ) :   1.0233
B( 12-H , 15-O ) :   0.1204 B( 17-C , 26-C ) :   0.9643 B( 17-C , 27-H ) :   0.9456
B( 17-C , 28-H ) :   0.9601 B( 20-C , 21-C ) :   0.9425 B( 20-C , 32-C ) :   0.9657
B( 20-C , 35-H ) :   0.9555 B( 20-C , 36-H ) :   0.9704 B( 21-C , 22-H ) :   0.9708
B( 21-C , 23-H ) :   0.9606 B( 26-C , 29-C ) :   0.9578 B( 26-C , 30-H ) :   0.9531
B( 26-C , 31-H ) :   0.9875 B( 29-C , 32-C ) :   0.9692 B( 29-C , 33-H ) :   0.9651
B( 29-C , 34-H ) :   0.9677 B( 32-C , 37-H ) :   0.9641 B( 32-C , 38-H ) :   0.9635

Dispersion correction           -0.088350809
FINAL SINGLE POINT ENERGY      -755.682663857080

DIPOLE MOMENT
-------------
                                X             Y             Z
Electronic contribution:     12.44936       8.51116       4.44447
Nuclear contribution   :    -13.25777      -8.13937      -5.31678
                        -----------------------------------------
Total Dipole Moment    :     -0.80841       0.37179      -0.87231
                        -----------------------------------------
Magnitude (a.u.)       :      1.24606
Magnitude (Debye)      :      3.16724

Rotational constants in cm-1:     0.020021     0.013636     0.009443
Rotational constants in MHz :   600.208195   408.782966   283.102361

                             ****ORCA TERMINATED NORMALLY****
TOTAL RUN TIME: 0 days 0 hours 0 minutes 33 seconds 942 msec
