                         Program Version 5.0.0 -  RELEASE  -
|  1> !BLYP D3BJ RIJCOSX def2-SVPD def2/J TightSCF
|  2> *xyz -1 1
|  3> C          0.96805        1.63064       -3.71575
|  4> C         -0.50835        1.72268       -4.12430
|  5> S         -1.32861        0.14674       -4.43578
|  6> H         -0.59151        2.29496       -5.04722
|  7> H         -1.11411        2.23561       -3.37436
|  8> O         -2.57135        0.47573       -5.06834
|  9> O         -1.51496       -0.40051       -3.06342
| 10> O         -0.37793       -0.62756       -5.20114
| 11> H          1.51840        1.12197       -4.47946
| 12> H          1.05062        1.08971       -2.79625
| 13> H          1.36450        2.61606       -3.58668
| 14> *
| 15> %MaxCore 64000
| 16>
| 17> %pal nprocs 4
| 18> end
| 19>
| 20> %scf
| 21>   MaxIter 150
| 22> end
| 23>
| 24>
| 25>                          ****END OF INPUT****

CARTESIAN COORDINATES (ANGSTROEM)
---------------------------------
  C      0.968050    1.630640   -3.715750
  C     -0.508350    1.722680   -4.124300
  S     -1.328610    0.146740   -4.435780
  H     -0.591510    2.294960   -5.047220
  H     -1.114110    2.235610   -3.374360
  O     -2.571350    0.475730   -5.068340
  O     -1.514960   -0.400510   -3.063420
  O     -0.377930   -0.627560   -5.201140
  H      1.518400    1.121970   -4.479460
  H      1.050620    1.089710   -2.796250
  H      1.364500    2.616060   -3.586680

 Total Charge           Charge          ....   -1
 Multiplicity           Mult            ....    1
 Number of Electrons    NEL             ....   58
 Basis Dimension        Dim             ....  176

ORBITAL ENERGIES
----------------

  NO   OCC          E(Eh)            E(eV)
   0   2.0000     -88.128018     -2398.0853
   1   2.0000     -18.575152      -505.4556
   2   2.0000     -18.571927      -505.3678
   3   2.0000     -18.556936      -504.9599
   4   2.0000      -9.780356      -266.1370
   5   2.0000      -9.778766      -266.0938
   6   2.0000      -7.664831      -208.5706
   7   2.0000      -5.699980      -155.1043
   8   2.0000      -5.699767      -155.0986
   9   2.0000      -5.699077      -155.0798
  10   2.0000      -0.836758       -22.7694
  11   2.0000      -0.706174       -19.2160
  12   2.0000      -0.676046       -18.3962
  13   2.0000      -0.545693       -14.8491
  14   2.0000      -0.432568       -11.7708
  15   2.0000      -0.316920        -8.6238
  16   2.0000      -0.262501        -7.1430
  17   2.0000      -0.259018        -7.0482
  18   2.0000      -0.223547        -6.0830
  19   2.0000      -0.208649        -5.6776
  20   2.0000      -0.204356        -5.5608
  21   2.0000      -0.181725        -4.9450
  22   2.0000      -0.167615        -4.5610
  23   2.0000      -0.102106        -2.7784
  24   2.0000      -0.100544        -2.7359
  25   2.0000      -0.071500        -1.9456
  26   2.0000      -0.064751        -1.7620
  27   2.0000      -0.050095        -1.3632
  28   2.0000      -0.017719        -0.4822
  29   0.0000       0.126781         3.4499
  30   0.0000       0.155255         4.2247
  31   0.0000       0.166673         4.5354
  32   0.0000       0.170864         4.6495
  33   0.0000       0.193195         5.2571

MULLIKEN ATOMIC CHARGES
-----------------------
   0 C :    1.163031
   1 C :   -0.048030
   2 S :    1.159552
   3 H :   -0.209576
   4 H :   -0.208637
   5 O :   -0.710690
   6 O :   -0.786537
   7 O :   -0.738495
   8 H :   -0.181363
   9 H :   -0.189378
  10 H :   -0.249877
Sum of atomic charges:   -1.0000000

LOEWDIN ATOMIC CHARGES
----------------------
   0 C :    0.117060
   1 C :   -0.128430
   2 S :    0.812888
   3 H :   -0.011697
   4 H :   -0.004427
   5 O :   -0.551146
   6 O :   -0.582241
   7 O :   -0.553456
   8 H :   -0.031511
   9 H :   -0.024143
  10 H :   -0.042896

  Mayer bond orders larger than 0.100000
B(  0-C ,  1-C ) :   1.2740 B(  0-C ,  3-H ) :   0.1307 B(  0-C ,  8-H ) :   0.7274
B(  0-C ,  9-H ) :   0.7212 B(  0-C , 10-H ) :   0.6132 B(  1-C ,  2-S ) :   0.8764
B(  1-C ,  3-H ) :   0.9211 B(  1-C ,  4-H ) :   0.9107 B(  1-C ,  8-H ) :   0.2539
B(  1-C ,  9-H ) :   0.2442 B(  1-C , 10-H ) :   0.2980 B(  2-S ,  5-O ) :   1.3888
B(  2-S ,  6-O ) :   1.3005 B(  2-S ,  7-O ) :   1.3370

Dispersion correction           -0.020497875
FINAL SINGLE POINT ENERGY      -702.710190001515

DIPOLE MOMENT
-------------
                                X             Y             Z
Electronic contribution:     -5.59646      -5.30976      -1.93585
Nuclear contribution   :      6.64523       6.80157       2.07300
                        -----------------------------------------
Total Dipole Moment    :      1.04876       1.49182       0.13715
                        -----------------------------------------
Magnitude (a.u.)       :      1.82872
Magnitude (Debye)      :      4.64824

Rotational constants in cm-1:     0.163070     0.082807     0.081541
Rotational constants in MHz :  4888.719902  2482.497026  2444.541148

                             ****ORCA TERMINATED NORMALLY****
TOTAL RUN TIME: 0 days 0 hours 0 minutes 10 seconds 509 msec
