                         Program Version 5.0.0 -  RELEASE  -
|  1> !BLYP D3BJ RIJCOSX def2-SVPD def2/J TightSCF
|  2> *xyz 1 1
|  3> C          1.36401        0.46874       -2.81376
|  4> N          0.42884        0.32140       -1.65531
|  5> C          0.96805        1.63064       -3.71575
|  6> H          0.74858       -0.40054       -1.00134
|  7> H         -0.46105        0.02333       -2.07773
|  8> H          0.31026        1.20137       -1.13495
|  9> H          1.29485       -0.46874       -3.36468
| 10> H          2.37622        0.59740       -2.43149
| 11> H          1.65923        1.70213       -4.52942
| 12> H          0.98421        2.54058       -3.15304
| 13> H         -0.01744        1.46536       -4.09838
| 14> *
| 15> %MaxCore 64000
| 16>
| 17> %pal nprocs 4
| 18> end
| 19>
| 20> %scf
| 21>   MaxIter 150
| 22> end
| 23>
| 24>
| 25>                          ****END OF INPUT****

CARTESIAN COORDINATES (ANGSTROEM)
---------------------------------
  C      1.364010    0.468740   -2.813760
  N      0.428840    0.321400   -1.655310
  C      0.968050    1.630640   -3.715750
  H      0.748580   -0.400540   -1.001340
  H     -0.461050    0.023330   -2.077730
  H      0.310260    1.201370   -1.134950
  H      1.294850   -0.468740   -3.364680
  H      2.376220    0.597400   -2.431490
  H      1.659230    1.702130   -4.529420
  H      0.984210    2.540580   -3.153040
  H     -0.017440    1.465360   -4.098380

 Total Charge           Charge          ....    1
 Multiplicity           Mult            ....    1
 Number of Electrons    NEL             ....   26
 Basis Dimension        Dim             ....  124

ORBITAL ENERGIES
----------------

  NO   OCC          E(Eh)            E(eV)
   0   2.0000     -14.358410      -390.7122
   1   2.0000     -10.177239      -276.9368
   2   2.0000     -10.101596      -274.8784
   3   2.0000      -1.121446       -30.5161
   4   2.0000      -0.885317       -24.0907
   5   2.0000      -0.775495       -21.1023
   6   2.0000      -0.749692       -20.4001
   7   2.0000      -0.732920       -19.9438
   8   2.0000      -0.643620       -17.5138
   9   2.0000      -0.594718       -16.1831
  10   2.0000      -0.539065       -14.6687
  11   2.0000      -0.523593       -14.2477
  12   2.0000      -0.508999       -13.8506
  13   0.0000      -0.221091        -6.0162
  14   0.0000      -0.163736        -4.4555
  15   0.0000      -0.159562        -4.3419
  16   0.0000      -0.146124        -3.9762
  17   0.0000      -0.114162        -3.1065

MULLIKEN ATOMIC CHARGES
-----------------------
   0 C :    0.486213
   1 N :   -0.623367
   2 C :    1.024751
   3 H :    0.278994
   4 H :    0.387981
   5 H :    0.344252
   6 H :   -0.212643
   7 H :   -0.276392
   8 H :   -0.152926
   9 H :   -0.137642
  10 H :   -0.119220
Sum of atomic charges:    1.0000000

LOEWDIN ATOMIC CHARGES
----------------------
   0 C :    0.055209
   1 N :    0.345172
   2 C :    0.189360
   3 H :    0.102025
   4 H :    0.101660
   5 H :    0.104757
   6 H :    0.049068
   7 H :    0.048015
   8 H :    0.012755
   9 H :   -0.004025
  10 H :   -0.003996

  Mayer bond orders larger than 0.100000
B(  0-C ,  1-N ) :   0.8332 B(  0-C ,  2-C ) :   1.3204 B(  0-C ,  6-H ) :   0.8098
B(  0-C ,  7-H ) :   0.8537 B(  0-C ,  8-H ) :   0.2504 B(  0-C ,  9-H ) :   0.1988
B(  0-C , 10-H ) :   0.2034 B(  1-N ,  3-H ) :   0.8187 B(  1-N ,  4-H ) :   0.7074
B(  1-N ,  5-H ) :   0.7594 B(  1-N ,  6-H ) :   0.1555 B(  2-C ,  8-H ) :   0.7104
B(  2-C ,  9-H ) :   0.7588 B(  2-C , 10-H ) :   0.7498

Dispersion correction           -0.012468106
FINAL SINGLE POINT ENERGY      -135.371008732820

DIPOLE MOMENT
-------------
                                X             Y             Z
Electronic contribution:     -0.33820      -0.93899       1.55400
Nuclear contribution   :     -0.20470       0.31427      -0.31587
                        -----------------------------------------
Total Dipole Moment    :     -0.54290      -0.62472       1.23814
                        -----------------------------------------
Magnitude (a.u.)       :      1.48929
Magnitude (Debye)      :      3.78549

Rotational constants in cm-1:     1.011480     0.279280     0.248378
Rotational constants in MHz : 30323.408050  8372.602834  7446.185305

                             ****ORCA TERMINATED NORMALLY****
TOTAL RUN TIME: 0 days 0 hours 0 minutes 7 seconds 242 msec
