                         Program Version 5.0.0 -  RELEASE  -
|  1> !BLYP D3BJ RIJCOSX def2-SVPD def2/J TightSCF xyzfile
|  2>
|  3> *xyzfile 0 1 B.xyz
|  4>
|  5> %MaxCore 64000
|  6>
|  7> %pal nprocs 4
|  8> end
|  9>
| 10> %scf
| 11>   MaxIter 150
| 12> end
| 13>
| 14>
| 15>                          ****END OF INPUT****

CARTESIAN COORDINATES (ANGSTROEM)
---------------------------------
  C      1.364014    0.468742   -2.813764
  N      0.428844    0.321402   -1.655312
  C      0.968045    1.630639   -3.715749
  C     -0.508347    1.722679   -4.124300
  S     -1.328608    0.146737   -4.435781
  H     -0.591511    2.294958   -5.047219
  H     -1.114114    2.235610   -3.374362
  H      0.748578   -0.400542   -1.001345
  H     -0.461053    0.023332   -2.077731
  H      0.310258    1.201375   -1.134948
  O     -2.571347    0.475733   -5.068341
  O     -1.514963   -0.400512   -3.063420
  H      1.294847   -0.468742   -3.364684
  H      2.376216    0.597400   -2.431495
  H      1.578688    1.520652   -4.612733
  H      1.266653    2.575988   -3.250448
  O     -0.377928   -0.627558   -5.201141

 Total Charge           Charge          ....    0
 Multiplicity           Mult            ....    1
 Number of Electrons    NEL             ....   74
 Basis Dimension        Dim             ....  248

ORBITAL ENERGIES
----------------

  NO   OCC          E(Eh)            E(eV)
   0   2.0000     -88.295934     -2402.6545
   1   2.0000     -18.745548      -510.0923
   2   2.0000     -18.730834      -509.6919
   3   2.0000     -18.728921      -509.6399
   4   2.0000     -14.155631      -385.1943
   5   2.0000     -10.013304      -272.4759
   6   2.0000      -9.965933      -271.1868
   7   2.0000      -9.943028      -270.5635
   8   2.0000      -7.832261      -213.1267
   9   2.0000      -5.867965      -159.6754
  10   2.0000      -5.866816      -159.6442
  11   2.0000      -5.866395      -159.6327
  12   2.0000      -1.004509       -27.3341
  13   2.0000      -0.936457       -25.4823
  14   2.0000      -0.863406       -23.4945
  15   2.0000      -0.861004       -23.4291
  16   2.0000      -0.742919       -20.2159
  17   2.0000      -0.663562       -18.0564
  18   2.0000      -0.588192       -16.0055
  19   2.0000      -0.566028       -15.4024
  20   2.0000      -0.557506       -15.1705
  21   2.0000      -0.487875       -13.2758
  22   2.0000      -0.469908       -12.7868
  23   2.0000      -0.437712       -11.9107
  24   2.0000      -0.421137       -11.4597
  25   2.0000      -0.409166       -11.1340
  26   2.0000      -0.378130       -10.2894
  27   2.0000      -0.369319       -10.0497
  28   2.0000      -0.358035        -9.7426
  29   2.0000      -0.346906        -9.4398
  30   2.0000      -0.332997        -9.0613
  31   2.0000      -0.271773        -7.3953
  32   2.0000      -0.263395        -7.1673
  33   2.0000      -0.238939        -6.5019
  34   2.0000      -0.226914        -6.1746
  35   2.0000      -0.223414        -6.0794
  36   2.0000      -0.188594        -5.1319
  37   0.0000      -0.065461        -1.7813
  38   0.0000      -0.019823        -0.5394
  39   0.0000      -0.011741        -0.3195
  40   0.0000       0.013159         0.3581
  41   0.0000       0.025256         0.6873

MULLIKEN ATOMIC CHARGES
-----------------------
   0 C :    0.897973
   1 N :   -0.063997
   2 C :    0.555023
   3 C :    0.526049
   4 S :    1.200314
   5 H :   -0.424926
   6 H :   -0.027380
   7 H :    0.211978
   8 H :   -0.175851
   9 H :    0.348461
  10 O :   -0.695621
  11 O :   -0.801830
  12 H :   -0.041254
  13 H :   -0.491291
  14 H :   -0.065747
  15 H :   -0.245709
  16 O :   -0.706193
Sum of atomic charges:   -0.0000000

LOEWDIN ATOMIC CHARGES
----------------------
   0 C :    0.095056
   1 N :    0.336858
   2 C :   -0.007099
   3 C :   -0.055288
   4 S :    0.906769
   5 H :    0.012722
   6 H :    0.007999
   7 H :    0.088946
   8 H :   -0.122361
   9 H :    0.090967
  10 O :   -0.479248
  11 O :   -0.489826
  12 H :    0.030559
  13 H :    0.028961
  14 H :    0.035572
  15 H :    0.019520
  16 O :   -0.500107

  Mayer bond orders larger than 0.100000
B(  0-C ,  1-N ) :   0.9166 B(  0-C ,  2-C ) :   1.1784 B(  0-C , 12-H ) :   0.7096
B(  0-C , 13-H ) :   0.6957 B(  0-C , 14-H ) :   0.2068 B(  0-C , 15-H ) :   0.1788
B(  1-N ,  7-H ) :   0.8110 B(  1-N ,  8-H ) :   1.2756 B(  1-N ,  9-H ) :   0.7756
B(  1-N , 12-H ) :   0.1646 B(  1-N , 13-H ) :   0.1348 B(  2-C ,  3-C ) :   1.2232
B(  2-C ,  5-H ) :   0.2090 B(  2-C ,  6-H ) :   0.1558 B(  2-C , 12-H ) :   0.1530
B(  2-C , 13-H ) :   0.1006 B(  2-C , 14-H ) :   0.7028 B(  2-C , 15-H ) :   0.6529
B(  3-C ,  4-S ) :   0.8573 B(  3-C ,  5-H ) :   0.7122 B(  3-C ,  6-H ) :   0.8280
B(  3-C , 11-O ) :   0.1489 B(  3-C , 14-H ) :   0.1635 B(  3-C , 15-H ) :   0.1336
B(  4-S ,  5-H ) :   0.1177 B(  4-S , 10-O ) :   1.5000 B(  4-S , 11-O ) :   1.1005
B(  4-S , 16-O ) :   1.3568 B(  8-H , 11-O ) :   0.3103 B( 12-H , 13-H ) :  -0.1370

Dispersion correction           -0.037763650
FINAL SINGLE POINT ENERGY      -797.798487373192

DIPOLE MOMENT
-------------
                                X             Y             Z
Electronic contribution:     -6.95410      -4.16413      -4.34407
Nuclear contribution   :      9.95459       5.57517       7.68169
                        -----------------------------------------
Total Dipole Moment    :      3.00049       1.41105       3.33762
                        -----------------------------------------
Magnitude (a.u.)       :      4.70465
Magnitude (Debye)      :     11.95826

Rotational constants in cm-1:     0.102119     0.045768     0.041299
Rotational constants in MHz :  3061.441288  1372.093000  1238.124534

                             ****ORCA TERMINATED NORMALLY****
TOTAL RUN TIME: 0 days 0 hours 0 minutes 14 seconds 94 msec
