                         Program Version 5.0.0 -  RELEASE  -
|  1> !BLYP D3BJ RIJCOSX def2-SVPD def2/J TightSCF
|  2> *xyz 0 1
|  3> C          1.36401        0.46874       -2.81376
|  4> C          0.42884        0.32140       -1.65531
|  5> C          0.96805        1.63064       -3.71575
|  6> H          0.74858       -0.40054       -1.00134
|  7> H         -0.46105        0.02333       -2.07773
|  8> H          0.31026        1.20137       -1.13495
|  9> H          1.29485       -0.46874       -3.36468
| 10> H          2.37622        0.59740       -2.43149
| 11> H          1.65923        1.70213       -4.52942
| 12> H          0.98421        2.54058       -3.15304
| 13> H         -0.01744        1.46536       -4.09838
| 14> *
| 15> %MaxCore 64000
| 16>
| 17> %pal nprocs 4
| 18> end
| 19>
| 20> %scf
| 21>   MaxIter 150
| 22> end
| 23>
| 24>
| 25>                          ****END OF INPUT****

CARTESIAN COORDINATES (ANGSTROEM)
---------------------------------
  C      1.364010    0.468740   -2.813760
  C      0.428840    0.321400   -1.655310
  C      0.968050    1.630640   -3.715750
  H      0.748580   -0.400540   -1.001340
  H     -0.461050    0.023330   -2.077730
  H      0.310260    1.201370   -1.134950
  H      1.294850   -0.468740   -3.364680
  H      2.376220    0.597400   -2.431490
  H      1.659230    1.702130   -4.529420
  H      0.984210    2.540580   -3.153040
  H     -0.017440    1.465360   -4.098380

 Total Charge           Charge          ....    0
 Multiplicity           Mult            ....    1
 Number of Electrons    NEL             ....   26
 Basis Dimension        Dim             ....  124

ORBITAL ENERGIES
----------------

  NO   OCC          E(Eh)            E(eV)
   0   2.0000      -9.909956      -269.6636
   1   2.0000      -9.902643      -269.4646
   2   2.0000      -9.887082      -269.0412
   3   2.0000      -0.705595       -19.2002
   4   2.0000      -0.611461       -16.6387
   5   2.0000      -0.514561       -14.0019
   6   2.0000      -0.417260       -11.3542
   7   2.0000      -0.392647       -10.6845
   8   2.0000      -0.353600        -9.6219
   9   2.0000      -0.342525        -9.3206
  10   2.0000      -0.293441        -7.9849
  11   2.0000      -0.289198        -7.8695
  12   2.0000      -0.285219        -7.7612
  13   0.0000       0.008072         0.2197
  14   0.0000       0.037934         1.0322
  15   0.0000       0.044677         1.2157
  16   0.0000       0.061363         1.6698
  17   0.0000       0.080926         2.2021

MULLIKEN ATOMIC CHARGES
-----------------------
   0 C :   -0.319314
   1 C :    1.350662
   2 C :    1.013549
   3 H :   -0.381350
   4 H :   -0.258616
   5 H :   -0.332942
   6 H :   -0.203499
   7 H :   -0.299190
   8 H :   -0.246258
   9 H :   -0.155979
  10 H :   -0.167063
Sum of atomic charges:   -0.0000000

LOEWDIN ATOMIC CHARGES
----------------------
   0 C :   -0.110186
   1 C :    0.130992
   2 C :    0.131014
   3 H :   -0.039513
   4 H :   -0.035427
   5 H :   -0.034873
   6 H :    0.016278
   7 H :    0.013585
   8 H :   -0.027189
   9 H :   -0.022701
  10 H :   -0.021978

  Mayer bond orders larger than 0.100000
B(  0-C ,  1-C ) :   1.2769 B(  0-C ,  2-C ) :   1.2885 B(  0-C ,  3-H ) :   0.2676
B(  0-C ,  4-H ) :   0.3489 B(  0-C ,  5-H ) :   0.2467 B(  0-C ,  6-H ) :   0.8196
B(  0-C ,  7-H ) :   0.8666 B(  0-C ,  8-H ) :   0.2397 B(  0-C ,  9-H ) :   0.2141
B(  0-C , 10-H ) :   0.2412 B(  1-C ,  3-H ) :   0.5620 B(  1-C ,  4-H ) :   0.5776
B(  1-C ,  5-H ) :   0.6046 B(  1-C ,  6-H ) :   0.1554 B(  1-C ,  7-H ) :   0.1040
B(  2-C ,  8-H ) :   0.7223 B(  2-C ,  9-H ) :   0.7484 B(  2-C , 10-H ) :   0.7380

Dispersion correction           -0.012552241
FINAL SINGLE POINT ENERGY      -118.963511888344

DIPOLE MOMENT
-------------
                                X             Y             Z
Electronic contribution:      0.36953      -0.18602      -0.01686
Nuclear contribution   :     -0.35842       0.15752       0.02695
                        -----------------------------------------
Total Dipole Moment    :      0.01111      -0.02850       0.01009
                        -----------------------------------------
Magnitude (a.u.)       :      0.03221
Magnitude (Debye)      :      0.08188

Rotational constants in cm-1:     1.019891     0.293671     0.260247
Rotational constants in MHz : 30575.551403  8804.039097  7802.009261

                             ****ORCA TERMINATED NORMALLY****
TOTAL RUN TIME: 0 days 0 hours 0 minutes 8 seconds 290 msec
