                         Program Version 5.0.0 -  RELEASE  -
|  1> !BLYP D3BJ RIJCOSX def2-SVPD def2/J TightSCF
|  2> *xyz 0 1
|  3> C          0.96805        1.63064       -3.71575
|  4> C         -0.50835        1.72268       -4.12430
|  5> S         -1.32861        0.14674       -4.43578
|  6> H         -0.59151        2.29496       -5.04722
|  7> H         -1.11411        2.23561       -3.37436
|  8> O         -2.57135        0.47573       -5.06834
|  9> F         -1.51496       -0.40051       -3.06342
| 10> O         -0.37793       -0.62756       -5.20114
| 11> H          1.51840        1.12197       -4.47946
| 12> H          1.05062        1.08971       -2.79625
| 13> H          1.36450        2.61606       -3.58668
| 14> *
| 15> %MaxCore 64000
| 16>
| 17> %pal nprocs 4
| 18> end
| 19>
| 20> %scf
| 21>   MaxIter 150
| 22> end
| 23>
| 24>
| 25>                          ****END OF INPUT****

CARTESIAN COORDINATES (ANGSTROEM)
---------------------------------
  C      0.968050    1.630640   -3.715750
  C     -0.508350    1.722680   -4.124300
  S     -1.328610    0.146740   -4.435780
  H     -0.591510    2.294960   -5.047220
  H     -1.114110    2.235610   -3.374360
  O     -2.571350    0.475730   -5.068340
  F     -1.514960   -0.400510   -3.063420
  O     -0.377930   -0.627560   -5.201140
  H      1.518400    1.121970   -4.479460
  H      1.050620    1.089710   -2.796250
  H      1.364500    2.616060   -3.586680

 Total Charge           Charge          ....    0
 Multiplicity           Mult            ....    1
 Number of Electrons    NEL             ....   58
 Basis Dimension        Dim             ....  176

ORBITAL ENERGIES
----------------

  NO   OCC          E(Eh)            E(eV)
   0   2.0000     -88.380758     -2404.9627
   1   2.0000     -24.396558      -663.8641
   2   2.0000     -18.806789      -511.7587
   3   2.0000     -18.803560      -511.6709
   4   2.0000      -9.980552      -271.5846
   5   2.0000      -9.943663      -270.5808
   6   2.0000      -7.918594      -215.4759
   7   2.0000      -5.957707      -162.1175
   8   2.0000      -5.951718      -161.9545
   9   2.0000      -5.949940      -161.9061
  10   2.0000      -1.227870       -33.4120
  11   2.0000      -1.024915       -27.8894
  12   2.0000      -0.934938       -25.4410
  13   2.0000      -0.737853       -20.0780
  14   2.0000      -0.647984       -17.6325
  15   2.0000      -0.601613       -16.3707
  16   2.0000      -0.514578       -14.0024
  17   2.0000      -0.493725       -13.4349
  18   2.0000      -0.485231       -13.2038
  19   2.0000      -0.440277       -11.9805
  20   2.0000      -0.423083       -11.5127
  21   2.0000      -0.403939       -10.9917
  22   2.0000      -0.386100       -10.5063
  23   2.0000      -0.359339        -9.7781
  24   2.0000      -0.355469        -9.6728
  25   2.0000      -0.335982        -9.1425
  26   2.0000      -0.295303        -8.0356
  27   2.0000      -0.288138        -7.8406
  28   2.0000      -0.274842        -7.4788
  29   0.0000      -0.030236        -0.8228
  30   0.0000       0.002229         0.0607
  31   0.0000       0.015821         0.4305
  32   0.0000       0.022102         0.6014
  33   0.0000       0.027273         0.7421

MULLIKEN ATOMIC CHARGES
-----------------------
   0 C :    1.195827
   1 C :   -0.074143
   2 S :    1.329814
   3 H :   -0.154122
   4 H :   -0.168038
   5 O :   -0.576069
   6 F :   -0.385892
   7 O :   -0.606617
   8 H :   -0.154639
   9 H :   -0.190388
  10 H :   -0.215731
Sum of atomic charges:   -0.0000000

LOEWDIN ATOMIC CHARGES
----------------------
   0 C :    0.149151
   1 C :   -0.083526
   2 S :    1.075796
   3 H :    0.022811
   4 H :    0.014845
   5 O :   -0.436305
   6 F :   -0.263861
   7 O :   -0.439714
   8 H :   -0.013968
   9 H :   -0.013110
  10 H :   -0.012118

  Mayer bond orders larger than 0.100000
B(  0-C ,  1-C ) :   1.3131 B(  0-C ,  3-H ) :   0.1162 B(  0-C ,  8-H ) :   0.7311
B(  0-C ,  9-H ) :   0.7116 B(  0-C , 10-H ) :   0.6139 B(  1-C ,  2-S ) :   0.9424
B(  1-C ,  3-H ) :   0.9224 B(  1-C ,  4-H ) :   0.9110 B(  1-C ,  8-H ) :   0.2498
B(  1-C ,  9-H ) :   0.2386 B(  1-C , 10-H ) :   0.2837 B(  2-S ,  5-O ) :   1.5906
B(  2-S ,  6-F ) :   0.6698 B(  2-S ,  7-O ) :   1.5490 B(  5-O ,  7-O ) :   0.1277

Dispersion correction           -0.019511205
FINAL SINGLE POINT ENERGY      -727.221739135697

DIPOLE MOMENT
-------------
                                X             Y             Z
Electronic contribution:     -6.54001      -6.62780       0.14333
Nuclear contribution   :      7.20921       7.65416       0.78523
                        -----------------------------------------
Total Dipole Moment    :      0.66920       1.02635       0.92857
                        -----------------------------------------
Magnitude (a.u.)       :      1.53736
Magnitude (Debye)      :      3.90765

Rotational constants in cm-1:     0.153780     0.081282     0.079816
Rotational constants in MHz :  4610.199589  2436.778679  2392.820729

                             ****ORCA TERMINATED NORMALLY****
TOTAL RUN TIME: 0 days 0 hours 0 minutes 10 seconds 386 msec
