                         Program Version 5.0.0 -  RELEASE  -
|  1> !BLYP D3BJ RIJCOSX def2-SVPD def2/J TightSCF
|  2> *xyz 0 1
|  3> C          0.96805        1.63064       -3.71575
|  4> C         -0.50835        1.72268       -4.12430
|  5> S         -1.32861        0.14674       -4.43578
|  6> H         -0.59151        2.29496       -5.04722
|  7> H         -1.11411        2.23561       -3.37436
|  8> O         -2.57135        0.47573       -5.06834
|  9> O         -1.51496       -0.40051       -3.06342
| 10> F         -0.37793       -0.62756       -5.20114
| 11> H          1.51840        1.12197       -4.47946
| 12> H          1.05062        1.08971       -2.79625
| 13> H          1.36450        2.61606       -3.58668
| 14> *
| 15> %MaxCore 64000
| 16>
| 17> %pal nprocs 4
| 18> end
| 19>
| 20> %scf
| 21>   MaxIter 150
| 22> end
| 23>
| 24>
| 25>                          ****END OF INPUT****

CARTESIAN COORDINATES (ANGSTROEM)
---------------------------------
  C      0.968050    1.630640   -3.715750
  C     -0.508350    1.722680   -4.124300
  S     -1.328610    0.146740   -4.435780
  H     -0.591510    2.294960   -5.047220
  H     -1.114110    2.235610   -3.374360
  O     -2.571350    0.475730   -5.068340
  O     -1.514960   -0.400510   -3.063420
  F     -0.377930   -0.627560   -5.201140
  H      1.518400    1.121970   -4.479460
  H      1.050620    1.089710   -2.796250
  H      1.364500    2.616060   -3.586680

 Total Charge           Charge          ....    0
 Multiplicity           Mult            ....    1
 Number of Electrons    NEL             ....   58
 Basis Dimension        Dim             ....  176

ORBITAL ENERGIES
----------------

  NO   OCC          E(Eh)            E(eV)
   0   2.0000     -88.383036     -2405.0247
   1   2.0000     -24.418505      -664.4613
   2   2.0000     -18.807292      -511.7724
   3   2.0000     -18.788693      -511.2663
   4   2.0000      -9.981459      -271.6093
   5   2.0000      -9.947142      -270.6755
   6   2.0000      -7.920869      -215.5378
   7   2.0000      -5.960312      -162.1883
   8   2.0000      -5.953708      -162.0086
   9   2.0000      -5.951981      -161.9616
  10   2.0000      -1.263895       -34.3923
  11   2.0000      -1.016503       -27.6605
  12   2.0000      -0.912022       -24.8174
  13   2.0000      -0.740101       -20.1392
  14   2.0000      -0.660558       -17.9747
  15   2.0000      -0.610419       -16.6103
  16   2.0000      -0.532835       -14.4992
  17   2.0000      -0.518249       -14.1023
  18   2.0000      -0.486099       -13.2274
  19   2.0000      -0.441185       -12.0052
  20   2.0000      -0.423608       -11.5270
  21   2.0000      -0.400627       -10.9016
  22   2.0000      -0.388765       -10.5788
  23   2.0000      -0.364718        -9.9245
  24   2.0000      -0.350914        -9.5488
  25   2.0000      -0.334098        -9.0913
  26   2.0000      -0.290963        -7.9175
  27   2.0000      -0.272372        -7.4116
  28   2.0000      -0.258571        -7.0361
  29   0.0000      -0.034399        -0.9361
  30   0.0000       0.002635         0.0717
  31   0.0000       0.018034         0.4907
  32   0.0000       0.019476         0.5300
  33   0.0000       0.024612         0.6697

MULLIKEN ATOMIC CHARGES
-----------------------
   0 C :    1.178140
   1 C :   -0.051561
   2 S :    1.317846
   3 H :   -0.164047
   4 H :   -0.160604
   5 O :   -0.562989
   6 O :   -0.636534
   7 F :   -0.362944
   8 H :   -0.174540
   9 H :   -0.167798
  10 H :   -0.214970
Sum of atomic charges:    0.0000000

LOEWDIN ATOMIC CHARGES
----------------------
   0 C :    0.147468
   1 C :   -0.081875
   2 S :    1.077114
   3 H :    0.011150
   4 H :    0.029117
   5 O :   -0.435412
   6 O :   -0.463782
   7 F :   -0.243933
   8 H :   -0.019052
   9 H :   -0.009311
  10 H :   -0.011486

  Mayer bond orders larger than 0.100000
B(  0-C ,  1-C ) :   1.3033 B(  0-C ,  3-H ) :   0.1204 B(  0-C ,  8-H ) :   0.7223
B(  0-C ,  9-H ) :   0.7328 B(  0-C , 10-H ) :   0.6159 B(  1-C ,  2-S ) :   0.9452
B(  1-C ,  3-H ) :   0.9264 B(  1-C ,  4-H ) :   0.9143 B(  1-C ,  8-H ) :   0.2377
B(  1-C ,  9-H ) :   0.2367 B(  1-C , 10-H ) :   0.2866 B(  2-S ,  5-O ) :   1.5945
B(  2-S ,  6-O ) :   1.5123 B(  2-S ,  7-F ) :   0.7265 B(  5-O ,  6-O ) :   0.1097

Dispersion correction           -0.019472425
FINAL SINGLE POINT ENERGY      -727.202497550004

DIPOLE MOMENT
-------------
                                X             Y             Z
Electronic contribution:     -4.64566      -6.97929      -3.42212
Nuclear contribution   :      6.02439       7.89075       3.01280
                        -----------------------------------------
Total Dipole Moment    :      1.37873       0.91146      -0.40932
                        -----------------------------------------
Magnitude (a.u.)       :      1.70270
Magnitude (Debye)      :      4.32793

Rotational constants in cm-1:     0.153652     0.082400     0.079295
Rotational constants in MHz :  4606.361242  2470.285703  2377.214112

                             ****ORCA TERMINATED NORMALLY****
TOTAL RUN TIME: 0 days 0 hours 0 minutes 9 seconds 635 msec
