                         Program Version 5.0.0 -  RELEASE  -
|  1> !wB97X-D3 RIJCOSX def2-SVPD def2/J TightSCF
|  2> *xyz -1 1
|  3> C          0.69721        3.22791       -0.52513
|  4> O          1.48929        2.37470        0.19919
|  5> H          0.26505        2.70007       -1.34946
|  6> H          1.28994        4.03943       -0.89255
|  7> H         -0.08148        3.61005        0.10138
|  8> *
|  9>
| 10> %MaxCore 64000
| 11> %pal nprocs 8
| 12> end
| 13>
| 14> %scf
| 15>   MaxIter 150
| 16> end
| 17>
| 18>
| 19>                          ****END OF INPUT****

CARTESIAN COORDINATES (ANGSTROEM)
---------------------------------
  C      0.697210    3.227910   -0.525130
  O      1.489290    2.374700    0.199190
  H      0.265050    2.700070   -1.349460
  H      1.289940    4.039430   -0.892550
  H     -0.081480    3.610050    0.101380

 Total Charge           Charge          ....   -1
 Multiplicity           Mult            ....    1
 Number of Electrons    NEL             ....   18
 Basis Dimension        Dim             ....   67

ORBITAL ENERGIES
----------------

  NO   OCC          E(Eh)            E(eV)
   0   2.0000     -18.887663      -513.9594
   1   2.0000     -10.074334      -274.1366
   2   2.0000      -0.761047       -20.7091
   3   2.0000      -0.500434       -13.6175
   4   2.0000      -0.295242        -8.0339
   5   2.0000      -0.295216        -8.0332
   6   2.0000      -0.193534        -5.2663
   7   2.0000      -0.040663        -1.1065
   8   2.0000      -0.040650        -1.1061
   9   0.0000       0.264264         7.1910
  10   0.0000       0.340177         9.2567
  11   0.0000       0.340181         9.2568
  12   0.0000       0.347873         9.4661
  13   0.0000       0.385416        10.4877

MULLIKEN ATOMIC CHARGES
-----------------------
   0 C :    0.776000
   1 O :   -1.044323
   2 H :   -0.244351
   3 H :   -0.243652
   4 H :   -0.243672
Sum of atomic charges:   -1.0000000

LOEWDIN ATOMIC CHARGES
----------------------
   0 C :   -0.114477
   1 O :   -0.661165
   2 H :   -0.074807
   3 H :   -0.074770
   4 H :   -0.074782

  Mayer bond orders larger than 0.100000
B(  0-C ,  1-O ) :   1.1997 B(  0-C ,  2-H ) :   0.9179 B(  0-C ,  3-H ) :   0.9179
B(  0-C ,  4-H ) :   0.9176

Dispersion correction           -0.000090821
FINAL SINGLE POINT ENERGY      -114.980429463411

DIPOLE MOMENT
-------------
                                X             Y             Z
Electronic contribution:      1.03896      -1.11902       0.94993
Nuclear contribution   :     -1.66672       1.79535      -1.52413
                        -----------------------------------------
Total Dipole Moment    :     -0.62775       0.67633      -0.57420
                        -----------------------------------------
Magnitude (a.u.)       :      1.08683
Magnitude (Debye)      :      2.76251

Rotational constants in cm-1:     5.477728     0.937442     0.937441
Rotational constants in MHz : 164218.159175 28103.818547 28103.787504

                             ****ORCA TERMINATED NORMALLY****
TOTAL RUN TIME: 0 days 0 hours 0 minutes 3 seconds 150 msec
