                         Program Version 5.0.0 -  RELEASE  -
|  1> !wB97X-D3 RIJCOSX def2-SVPD def2/J TightSCF
|  2> *xyz 1 1
|  3> C          3.95643        0.50147       -0.37910
|  4> N          3.80389        1.96157       -0.15675
|  5> H          4.20643        2.24441        0.74536
|  6> H          2.80827        2.21132       -0.09610
|  7> H          4.28076        2.50155       -0.89104
|  8> H          3.52890        0.23799       -1.32393
|  9> H          3.45469       -0.03240        0.40073
| 10> H          4.99562        0.24661       -0.37434
| 11> *
| 12>
| 13> %MaxCore 64000
| 14> %pal nprocs 8
| 15> end
| 16>
| 17> %scf
| 18>   MaxIter 150
| 19> end
| 20>
| 21>
| 22>                          ****END OF INPUT****

CARTESIAN COORDINATES (ANGSTROEM)
---------------------------------
  C      3.956430    0.501470   -0.379100
  N      3.803890    1.961570   -0.156750
  H      4.206430    2.244410    0.745360
  H      2.808270    2.211320   -0.096100
  H      4.280760    2.501550   -0.891040
  H      3.528900    0.237990   -1.323930
  H      3.454690   -0.032400    0.400730
  H      4.995620    0.246610   -0.374340

 Total Charge           Charge          ....    1
 Multiplicity           Mult            ....    1
 Number of Electrons    NEL             ....   18
 Basis Dimension        Dim             ....   88

ORBITAL ENERGIES
----------------

  NO   OCC          E(Eh)            E(eV)
   0   2.0000     -14.788852      -402.4251
   1   2.0000     -10.547753      -287.0190
   2   2.0000      -1.336333       -36.3635
   3   2.0000      -1.047769       -28.5113
   4   2.0000      -0.919525       -25.0215
   5   2.0000      -0.908036       -24.7089
   6   2.0000      -0.815585       -22.1932
   7   2.0000      -0.725480       -19.7413
   8   2.0000      -0.723733       -19.6938
   9   0.0000      -0.121875        -3.3164
  10   0.0000      -0.053600        -1.4585
  11   0.0000      -0.050738        -1.3807
  12   0.0000      -0.049552        -1.3484
  13   0.0000      -0.002379        -0.0647

MULLIKEN ATOMIC CHARGES
-----------------------
   0 C :    0.756826
   1 N :   -0.893331
   2 H :    0.388396
   3 H :    0.398164
   4 H :    0.397344
   5 H :   -0.015349
   6 H :   -0.015123
   7 H :   -0.016926
Sum of atomic charges:    1.0000000

LOEWDIN ATOMIC CHARGES
----------------------
   0 C :    0.278957
   1 N :    0.305434
   2 H :    0.109862
   3 H :    0.111774
   4 H :    0.113739
   5 H :    0.026804
   6 H :    0.026875
   7 H :    0.026554

  Mayer bond orders larger than 0.100000
B(  0-C ,  1-N ) :   0.7804 B(  0-C ,  5-H ) :   0.9219 B(  0-C ,  6-H ) :   0.9200
B(  0-C ,  7-H ) :   0.9239 B(  1-N ,  2-H ) :   0.7703 B(  1-N ,  3-H ) :   0.7530
B(  1-N ,  4-H ) :   0.7519

Dispersion correction           -0.000504075
FINAL SINGLE POINT ENERGY       -96.124585265639

DIPOLE MOMENT
-------------
                                X             Y             Z
Electronic contribution:     -0.11117       1.08246       0.14186
Nuclear contribution   :      0.02154      -0.23654       0.01355
                        -----------------------------------------
Total Dipole Moment    :     -0.08963       0.84593       0.15541
                        -----------------------------------------
Magnitude (a.u.)       :      0.86474
Magnitude (Debye)      :      2.19800

Rotational constants in cm-1:     2.873586     0.687737     0.684128
Rotational constants in MHz : 86147.950763 20617.847271 20509.632222

                             ****ORCA TERMINATED NORMALLY****
TOTAL RUN TIME: 0 days 0 hours 0 minutes 4 seconds 151 msec
