                         Program Version 5.0.0 -  RELEASE  -
|  1> !wB97X-D3 RIJCOSX def2-SVPD def2/J TightSCF
|  2> *xyz 0 1
|  3> C          0.69721        3.22791       -0.52513
|  4> F          1.48929        2.37470        0.19919
|  5> H          0.26505        2.70007       -1.34946
|  6> H          1.28994        4.03943       -0.89255
|  7> H         -0.08148        3.61005        0.10138
|  8> *
|  9>
| 10> %MaxCore 64000
| 11> %pal nprocs 8
| 12> end
| 13>
| 14> %scf
| 15>   MaxIter 150
| 16> end
| 17>
| 18>
| 19>                          ****END OF INPUT****

CARTESIAN COORDINATES (ANGSTROEM)
---------------------------------
  C      0.697210    3.227910   -0.525130
  F      1.489290    2.374700    0.199190
  H      0.265050    2.700070   -1.349460
  H      1.289940    4.039430   -0.892550
  H     -0.081480    3.610050    0.101380

 Total Charge           Charge          ....    0
 Multiplicity           Mult            ....    1
 Number of Electrons    NEL             ....   18
 Basis Dimension        Dim             ....   67

ORBITAL ENERGIES
----------------

  NO   OCC          E(Eh)            E(eV)
   0   2.0000     -24.786032      -674.4622
   1   2.0000     -10.360664      -281.9280
   2   2.0000      -1.297270       -35.3005
   3   2.0000      -0.815312       -22.1858
   4   2.0000      -0.599817       -16.3219
   5   2.0000      -0.594945       -16.1893
   6   2.0000      -0.594932       -16.1889
   7   2.0000      -0.450853       -12.2683
   8   2.0000      -0.450842       -12.2680
   9   0.0000       0.095875         2.6089
  10   0.0000       0.145848         3.9687
  11   0.0000       0.178662         4.8616
  12   0.0000       0.178671         4.8619
  13   0.0000       0.217132         5.9085

MULLIKEN ATOMIC CHARGES
-----------------------
   0 C :    0.769935
   1 F :   -0.497066
   2 H :   -0.091477
   3 H :   -0.090758
   4 H :   -0.090634
Sum of atomic charges:    0.0000000

LOEWDIN ATOMIC CHARGES
----------------------
   0 C :    0.269534
   1 F :   -0.258267
   2 H :   -0.003785
   3 H :   -0.003740
   4 H :   -0.003741

  Mayer bond orders larger than 0.100000
B(  0-C ,  1-F ) :   0.8268 B(  0-C ,  2-H ) :   0.9563 B(  0-C ,  3-H ) :   0.9563
B(  0-C ,  4-H ) :   0.9558

Dispersion correction           -0.000130378
FINAL SINGLE POINT ENERGY      -139.606879296920

DIPOLE MOMENT
-------------
                                X             Y             Z
Electronic contribution:      1.68579      -1.81587       1.54131
Nuclear contribution   :     -2.11402       2.27717      -1.93317
                        -----------------------------------------
Total Dipole Moment    :     -0.42823       0.46130      -0.39186
                        -----------------------------------------
Magnitude (a.u.)       :      0.74144
Magnitude (Debye)      :      1.88460

Rotational constants in cm-1:     5.477728     0.872600     0.872599
Rotational constants in MHz : 164218.159175 26159.886777 26159.859881

                             ****ORCA TERMINATED NORMALLY****
TOTAL RUN TIME: 0 days 0 hours 0 minutes 2 seconds 998 msec
