                         Program Version 5.0.0 -  RELEASE  -
|  1> !wB97X-D3 RIJCOSX def2-SVPD def2/J TightSCF
|  2> *xyz 0 1
|  3> C          3.95643        0.50147       -0.37910
|  4> C          3.80389        1.96157       -0.15675
|  5> H          4.20643        2.24441        0.74536
|  6> H          2.80827        2.21132       -0.09610
|  7> H          4.28076        2.50155       -0.89104
|  8> H          3.52890        0.23799       -1.32393
|  9> H          3.45469       -0.03240        0.40073
| 10> H          4.99562        0.24661       -0.37434
| 11> *
| 12>
| 13> %MaxCore 64000
| 14> %pal nprocs 8
| 15> end
| 16>
| 17> %scf
| 18>   MaxIter 150
| 19> end
| 20>
| 21>
| 22>                          ****END OF INPUT****

CARTESIAN COORDINATES (ANGSTROEM)
---------------------------------
  C      3.956430    0.501470   -0.379100
  C      3.803890    1.961570   -0.156750
  H      4.206430    2.244410    0.745360
  H      2.808270    2.211320   -0.096100
  H      4.280760    2.501550   -0.891040
  H      3.528900    0.237990   -1.323930
  H      3.454690   -0.032400    0.400730
  H      4.995620    0.246610   -0.374340

 Total Charge           Charge          ....    0
 Multiplicity           Mult            ....    1
 Number of Electrons    NEL             ....   18
 Basis Dimension        Dim             ....   88

ORBITAL ENERGIES
----------------

  NO   OCC          E(Eh)            E(eV)
   0   2.0000     -10.265766      -279.3457
   1   2.0000     -10.252077      -278.9732
   2   2.0000      -0.879463       -23.9314
   3   2.0000      -0.726897       -19.7799
   4   2.0000      -0.552724       -15.0404
   5   2.0000      -0.545995       -14.8573
   6   2.0000      -0.465091       -12.6558
   7   2.0000      -0.443193       -12.0599
   8   2.0000      -0.436651       -11.8819
   9   0.0000       0.099030         2.6947
  10   0.0000       0.128935         3.5085
  11   0.0000       0.180885         4.9221
  12   0.0000       0.182631         4.9696
  13   0.0000       0.202163         5.5011

MULLIKEN ATOMIC CHARGES
-----------------------
   0 C :    0.149095
   1 C :    0.444969
   2 H :   -0.155771
   3 H :   -0.150248
   4 H :   -0.152248
   5 H :   -0.047662
   6 H :   -0.042105
   7 H :   -0.046030
Sum of atomic charges:    0.0000000

LOEWDIN ATOMIC CHARGES
----------------------
   0 C :    0.070350
   1 C :    0.072360
   2 H :   -0.034358
   3 H :   -0.032150
   4 H :   -0.030338
   5 H :   -0.015409
   6 H :   -0.014914
   7 H :   -0.015541

  Mayer bond orders larger than 0.100000
B(  0-C ,  1-C ) :   1.4264 B(  0-C ,  2-H ) :   0.1469 B(  0-C ,  3-H ) :   0.1537
B(  0-C ,  4-H ) :   0.1518 B(  0-C ,  5-H ) :   0.8839 B(  0-C ,  6-H ) :   0.8840
B(  0-C ,  7-H ) :   0.8876 B(  1-C ,  2-H ) :   0.8083 B(  1-C ,  3-H ) :   0.8141
B(  1-C ,  4-H ) :   0.8239 B(  1-C ,  5-H ) :   0.1338 B(  1-C ,  6-H ) :   0.1349
B(  1-C ,  7-H ) :   0.1325 B(  2-H ,  3-H ) :   0.1091

Dispersion correction           -0.000493281
FINAL SINGLE POINT ENERGY       -79.736747468922

DIPOLE MOMENT
-------------
                                X             Y             Z
Electronic contribution:      0.00216       0.01066      -0.03639
Nuclear contribution   :     -0.00471       0.01526       0.05114
                        -----------------------------------------
Total Dipole Moment    :     -0.00255       0.02592       0.01475
                        -----------------------------------------
Magnitude (a.u.)       :      0.02993
Magnitude (Debye)      :      0.07609

Rotational constants in cm-1:     2.873610     0.717865     0.713933
Rotational constants in MHz : 86148.646881 21521.066032 21403.176468

                             ****ORCA TERMINATED NORMALLY****
TOTAL RUN TIME: 0 days 0 hours 0 minutes 4 seconds 122 msec
