                         Program Version 5.0.0 -  RELEASE  -
|  1> !PBE D3BJ RIJCOSX def2-SVPD def2/J TightSCF
|  2> *xyz -1 1
|  3> C          3.90595        2.81985       -3.75292
|  4> C          3.80351        1.37472       -3.26081
|  5> C          3.93993        0.32036       -4.36773
|  6> H          4.10504       -0.65508       -3.90773
|  7> H          3.02280        0.28052       -4.95712
|  8> C          5.10585        0.66802       -5.30546
|  9> H          4.57483        1.21516       -2.50044
| 10> H          2.84351        1.26085       -2.75146
| 11> O          4.80913        1.15019       -6.41436
| 12> O          6.26737        0.56500       -4.81948
| 13> H          3.15892        2.99660       -4.49832
| 14> H          4.87575        2.98549       -4.17357
| 15> H          3.75481        3.48808       -2.93101
| 16> *
| 17>
| 18> %MaxCore 64000
| 19>
| 20> %pal nprocs 4
| 21> end
| 22>
| 23> %scf
| 24>   MaxIter 150
| 25> end
| 26>
| 27>
| 28>                          ****END OF INPUT****

CARTESIAN COORDINATES (ANGSTROEM)
---------------------------------
  C      3.905950    2.819850   -3.752920
  C      3.803510    1.374720   -3.260810
  C      3.939930    0.320360   -4.367730
  H      4.105040   -0.655080   -3.907730
  H      3.022800    0.280520   -4.957120
  C      5.105850    0.668020   -5.305460
  H      4.574830    1.215160   -2.500440
  H      2.843510    1.260850   -2.751460
  O      4.809130    1.150190   -6.414360
  O      6.267370    0.565000   -4.819480
  H      3.158920    2.996600   -4.498320
  H      4.875750    2.985490   -4.173570
  H      3.754810    3.488080   -2.931010

 Total Charge           Charge          ....   -1
 Multiplicity           Mult            ....    1
 Number of Electrons    NEL             ....   48
 Basis Dimension        Dim             ....  182

ORBITAL ENERGIES
----------------

  NO   OCC          E(Eh)            E(eV)
   0   2.0000     -18.511018      -503.7104
   1   2.0000     -18.508052      -503.6297
   2   2.0000      -9.775368      -266.0013
   3   2.0000      -9.748500      -265.2702
   4   2.0000      -9.735592      -264.9189
   5   2.0000      -9.721219      -264.5278
   6   2.0000      -0.730065       -19.8661
   7   2.0000      -0.641767       -17.4634
   8   2.0000      -0.557046       -15.1580
   9   2.0000      -0.465868       -12.6769
  10   2.0000      -0.377595       -10.2749
  11   2.0000      -0.273010        -7.4290
  12   2.0000      -0.254365        -6.9216
  13   2.0000      -0.238040        -6.4774
  14   2.0000      -0.203242        -5.5305
  15   2.0000      -0.183143        -4.9836
  16   2.0000      -0.167919        -4.5693
  17   2.0000      -0.160012        -4.3542
  18   2.0000      -0.150559        -4.0969
  19   2.0000      -0.130236        -3.5439
  20   2.0000      -0.125376        -3.4116
  21   2.0000      -0.019041        -0.5181
  22   2.0000      -0.001115        -0.0303
  23   2.0000       0.012564         0.3419
  24   0.0000       0.131076         3.5668
  25   0.0000       0.156586         4.2609
  26   0.0000       0.171263         4.6603
  27   0.0000       0.182421         4.9639
  28   0.0000       0.201130         5.4730

MULLIKEN ATOMIC CHARGES
-----------------------
   0 C :    0.655859
   1 C :   -0.464617
   2 C :    0.203006
   3 H :   -0.046599
   4 H :    0.007734
   5 C :    0.295606
   6 H :   -0.012511
   7 H :   -0.174850
   8 O :   -0.602954
   9 O :   -0.676344
  10 H :   -0.045648
  11 H :    0.005078
  12 H :   -0.143762
Sum of atomic charges:   -1.0000000

LOEWDIN ATOMIC CHARGES
----------------------
   0 C :    0.110349
   1 C :   -0.092028
   2 C :   -0.004398
   3 H :    0.000734
   4 H :   -0.000984
   5 C :   -0.334162
   6 H :    0.012440
   7 H :   -0.005419
   8 O :   -0.297556
   9 O :   -0.310478
  10 H :   -0.020374
  11 H :   -0.018435
  12 H :   -0.039689

  Mayer bond orders larger than 0.100000
B(  0-C ,  1-C ) :   1.3768 B(  0-C ,  7-H ) :   0.1237 B(  0-C , 10-H ) :   0.7727
B(  0-C , 11-H ) :   0.8057 B(  0-C , 12-H ) :   0.7595 B(  1-C ,  2-C ) :   1.2268
B(  1-C ,  3-H ) :   0.1464 B(  1-C ,  4-H ) :   0.1573 B(  1-C ,  6-H ) :   0.9057
B(  1-C ,  7-H ) :   0.9644 B(  1-C , 10-H ) :   0.2189 B(  1-C , 11-H ) :   0.2212
B(  1-C , 12-H ) :   0.2375 B(  2-C ,  3-H ) :   0.8405 B(  2-C ,  4-H ) :   0.8550
B(  2-C ,  5-C ) :   1.0409 B(  2-C ,  6-H ) :   0.1100 B(  3-H ,  5-C ) :   0.1294
B(  4-H ,  5-C ) :   0.1805 B(  5-C ,  8-O ) :   1.4903 B(  5-C ,  9-O ) :   1.4667

Dispersion correction           -0.010043755
FINAL SINGLE POINT ENERGY      -306.590719502575

DIPOLE MOMENT
-------------
                                X             Y             Z
Electronic contribution:      4.22170      -2.83969      -4.87967
Nuclear contribution   :     -5.80393       3.20473       6.46101
                        -----------------------------------------
Total Dipole Moment    :     -1.58223       0.36503       1.58134
                        -----------------------------------------
Magnitude (a.u.)       :      2.26657
Magnitude (Debye)      :      5.76117

Rotational constants in cm-1:     0.184459     0.088019     0.082330
Rotational constants in MHz :  5529.929668  2638.753248  2468.201746

                             ****ORCA TERMINATED NORMALLY****
TOTAL RUN TIME: 0 days 0 hours 0 minutes 6 seconds 66 msec
