                         Program Version 5.0.0 -  RELEASE  -
|  1> !PBE D3BJ RIJCOSX def2-SVPD def2/J TightSCF
|  2> *xyz 1 1
|  3> C          3.90595        2.81985       -3.75292
|  4> N          5.29562        3.13151       -4.10533
|  5> C          3.80351        1.37472       -3.26081
|  6> C          3.93993        0.32036       -4.36773
|  7> C          5.70862        3.46889       -5.32419
|  8> N          6.90470        3.03895       -5.71708
|  9> N          4.98188        4.29357       -6.09746
| 10> H          5.00055        4.10131       -7.08776
| 11> H          4.08469        4.59690       -5.73965
| 12> H          5.96336        2.52611       -3.64239
| 13> H          7.04716        2.06686       -5.47360
| 14> H          7.19815        3.30799       -6.64523
| 15> H          3.28202        2.94919       -4.64026
| 16> H          3.56525        3.51457       -2.98252
| 17> H          4.57483        1.21516       -2.50044
| 18> H          2.84351        1.26085       -2.75146
| 19> H          3.18417        0.48061       -5.10803
| 20> H          3.82485       -0.65632       -3.94614
| 21> H          4.90589        0.40174       -4.82073
| 22> *
| 23>
| 24> %MaxCore 64000
| 25>
| 26> %pal nprocs 4
| 27> end
| 28>
| 29> %scf
| 30>   MaxIter 150
| 31> end
| 32>
| 33>
| 34>                          ****END OF INPUT****

CARTESIAN COORDINATES (ANGSTROEM)
---------------------------------
  C      3.905950    2.819850   -3.752920
  N      5.295620    3.131510   -4.105330
  C      3.803510    1.374720   -3.260810
  C      3.939930    0.320360   -4.367730
  C      5.708620    3.468890   -5.324190
  N      6.904700    3.038950   -5.717080
  N      4.981880    4.293570   -6.097460
  H      5.000550    4.101310   -7.087760
  H      4.084690    4.596900   -5.739650
  H      5.963360    2.526110   -3.642390
  H      7.047160    2.066860   -5.473600
  H      7.198150    3.307990   -6.645230
  H      3.282020    2.949190   -4.640260
  H      3.565250    3.514570   -2.982520
  H      4.574830    1.215160   -2.500440
  H      2.843510    1.260850   -2.751460
  H      3.184170    0.480610   -5.108030
  H      3.824850   -0.656320   -3.946140
  H      4.905890    0.401740   -4.820730

 Total Charge           Charge          ....    1
 Multiplicity           Mult            ....    1
 Number of Electrons    NEL             ....   56
 Basis Dimension        Dim             ....  236

ORBITAL ENERGIES
----------------

  NO   OCC          E(Eh)            E(eV)
   0   2.0000     -14.225044      -387.0831
   1   2.0000     -14.224782      -387.0760
   2   2.0000     -14.223365      -387.0374
   3   2.0000     -10.217649      -278.0364
   4   2.0000     -10.101269      -274.8695
   5   2.0000     -10.049354      -273.4568
   6   2.0000     -10.023565      -272.7551
   7   2.0000      -1.127535       -30.6818
   8   2.0000      -1.022034       -27.8110
   9   2.0000      -1.014153       -27.5965
  10   2.0000      -0.869878       -23.6706
  11   2.0000      -0.796644       -21.6778
  12   2.0000      -0.760116       -20.6838
  13   2.0000      -0.726061       -19.7571
  14   2.0000      -0.707592       -19.2546
  15   2.0000      -0.679722       -18.4962
  16   2.0000      -0.649239       -17.6667
  17   2.0000      -0.638260       -17.3679
  18   2.0000      -0.598032       -16.2733
  19   2.0000      -0.585452       -15.9310
  20   2.0000      -0.543923       -14.8009
  21   2.0000      -0.538103       -14.6425
  22   2.0000      -0.514586       -14.0026
  23   2.0000      -0.472434       -12.8556
  24   2.0000      -0.454986       -12.3808
  25   2.0000      -0.453693       -12.3456
  26   2.0000      -0.445408       -12.1202
  27   2.0000      -0.418404       -11.3853
  28   0.0000      -0.224336        -6.1045
  29   0.0000      -0.176134        -4.7929
  30   0.0000      -0.146960        -3.9990
  31   0.0000      -0.129889        -3.5345
  32   0.0000      -0.116552        -3.1715

MULLIKEN ATOMIC CHARGES
-----------------------
   0 C :    0.782886
   1 N :   -0.363138
   2 C :   -0.315301
   3 C :    0.871228
   4 C :    0.880110
   5 N :    0.075858
   6 N :    0.046351
   7 H :   -0.042617
   8 H :    0.009639
   9 H :   -0.112131
  10 H :   -0.035580
  11 H :   -0.006115
  12 H :   -0.026793
  13 H :   -0.333821
  14 H :   -0.037279
  15 H :   -0.108581
  16 H :    0.038324
  17 H :   -0.044096
  18 H :   -0.278944
Sum of atomic charges:    1.0000000

LOEWDIN ATOMIC CHARGES
----------------------
   0 C :    0.069329
   1 N :    0.071270
   2 C :   -0.047531
   3 C :    0.147012
   4 C :   -0.077024
   5 N :    0.285474
   6 N :    0.296040
   7 H :    0.035067
   8 H :    0.022078
   9 H :    0.041646
  10 H :    0.028512
  11 H :    0.034827
  12 H :    0.025459
  13 H :    0.038282
  14 H :    0.030381
  15 H :    0.040043
  16 H :   -0.007551
  17 H :    0.000420
  18 H :   -0.033733

  Mayer bond orders larger than 0.100000
B(  0-C ,  1-N ) :   0.9032 B(  0-C ,  2-C ) :   1.1629 B(  0-C , 12-H ) :   0.7402
B(  0-C , 13-H ) :   0.9043 B(  0-C , 15-H ) :   0.1590 B(  1-N ,  2-C ) :   0.1215
B(  1-N ,  4-C ) :   1.1565 B(  1-N ,  5-N ) :   0.2267 B(  1-N ,  6-N ) :   0.1178
B(  1-N ,  9-H ) :   1.1148 B(  1-N , 12-H ) :   0.1215 B(  1-N , 13-H ) :   0.1350
B(  2-C ,  3-C ) :   1.2776 B(  2-C , 14-H ) :   0.9081 B(  2-C , 15-H ) :   0.9495
B(  2-C , 16-H ) :   0.2130 B(  2-C , 17-H ) :   0.2185 B(  2-C , 18-H ) :   0.2434
B(  3-C , 16-H ) :   0.7266 B(  3-C , 17-H ) :   0.7404 B(  3-C , 18-H ) :   0.8048
B(  4-C ,  5-N ) :   0.9688 B(  4-C ,  6-N ) :   0.9787 B(  4-C ,  9-H ) :  -0.1902
B(  5-N ,  6-N ) :   0.1462 B(  5-N , 10-H ) :   1.0294 B(  5-N , 11-H ) :   0.9883
B(  6-N ,  7-H ) :   1.1455 B(  6-N ,  8-H ) :   0.9451 B(  7-H ,  8-H ) :  -0.1221
B( 12-H , 13-H ) :  -0.1164 B( 16-H , 18-H ) :   0.1141

Dispersion correction           -0.015900427
FINAL SINGLE POINT ENERGY      -323.090585746266

DIPOLE MOMENT
-------------
                                X             Y             Z
Electronic contribution:      4.01856       5.70036      -2.02173
Nuclear contribution   :     -3.60155      -5.39511       0.90505
                        -----------------------------------------
Total Dipole Moment    :      0.41701       0.30525      -1.11668
                        -----------------------------------------
Magnitude (a.u.)       :      1.23047
Magnitude (Debye)      :      3.12760

Rotational constants in cm-1:     0.145371     0.050507     0.045444
Rotational constants in MHz :  4358.114605  1514.164418  1362.368391

                             ****ORCA TERMINATED NORMALLY****
TOTAL RUN TIME: 0 days 0 hours 0 minutes 11 seconds 52 msec
