                         Program Version 5.0.0 -  RELEASE  -
|  1> !PBE D3BJ RIJCOSX def2-SVPD def2/J TightSCF xyzfile
|  2>
|  3> *xyzfile 0 1 B.xyz
|  4>
|  5> %MaxCore 64000
|  6>
|  7> %pal nprocs 4
|  8> end
|  9>
| 10> %scf
| 11>   MaxIter 150
| 12> end
| 13>
| 14>
| 15>                          ****END OF INPUT****

CARTESIAN COORDINATES (ANGSTROEM)
---------------------------------
  C      3.905947    2.819855   -3.752920
  N      5.295615    3.131515   -4.105334
  C      3.803511    1.374716   -3.260807
  C      3.939934    0.320362   -4.367729
  H      4.105043   -0.655085   -3.907733
  H      3.022801    0.280517   -4.957117
  C      5.105846    0.668022   -5.305463
  C      5.708619    3.468885   -5.324190
  N      6.904696    3.038954   -5.717084
  N      4.981884    4.293570   -6.097457
  H      5.000546    4.101311   -7.087761
  H      4.084693    4.596899   -5.739652
  H      5.963358    2.526112   -3.642391
  H      7.047164    2.066861   -5.473604
  H      7.198145    3.307994   -6.645225
  H      3.282025    2.949187   -4.640259
  H      3.565254    3.514574   -2.982523
  H      4.574833    1.215157   -2.500443
  H      2.843514    1.260845   -2.751465
  O      4.809132    1.150187   -6.414361
  O      6.267366    0.564999   -4.819481

 Total Charge           Charge          ....    0
 Multiplicity           Mult            ....    1
 Number of Electrons    NEL             ....   78
 Basis Dimension        Dim             ....  294

ORBITAL ENERGIES
----------------

  NO   OCC          E(Eh)            E(eV)
   0   2.0000     -18.689992      -508.5805
   1   2.0000     -18.684828      -508.4400
   2   2.0000     -14.064249      -382.7077
   3   2.0000     -14.057838      -382.5332
   4   2.0000     -14.034343      -381.8939
   5   2.0000     -10.049672      -273.4655
   6   2.0000      -9.956709      -270.9358
   7   2.0000      -9.949323      -270.7348
   8   2.0000      -9.909340      -269.6468
   9   2.0000      -9.875439      -268.7244
  10   2.0000      -0.959074       -26.0977
  11   2.0000      -0.909873       -24.7589
  12   2.0000      -0.858593       -23.3635
  13   2.0000      -0.840377       -22.8678
  14   2.0000      -0.821692       -22.3594
  15   2.0000      -0.720659       -19.6101
  16   2.0000      -0.644655       -17.5420
  17   2.0000      -0.597381       -16.2556
  18   2.0000      -0.563377       -15.3303
  19   2.0000      -0.553677       -15.0663
  20   2.0000      -0.521729       -14.1970
  21   2.0000      -0.486208       -13.2304
  22   2.0000      -0.468328       -12.7439
  23   2.0000      -0.447808       -12.1855
  24   2.0000      -0.434798       -11.8315
  25   2.0000      -0.421035       -11.4570
  26   2.0000      -0.384876       -10.4730
  27   2.0000      -0.373951       -10.1757
  28   2.0000      -0.363426        -9.8893
  29   2.0000      -0.346371        -9.4252
  30   2.0000      -0.336608        -9.1596
  31   2.0000      -0.329377        -8.9628
  32   2.0000      -0.300280        -8.1710
  33   2.0000      -0.294855        -8.0234
  34   2.0000      -0.277280        -7.5452
  35   2.0000      -0.255774        -6.9600
  36   2.0000      -0.200352        -5.4519
  37   2.0000      -0.177687        -4.8351
  38   2.0000      -0.164771        -4.4836
  39   0.0000      -0.054992        -1.4964
  40   0.0000      -0.024533        -0.6676
  41   0.0000      -0.001255        -0.0342
  42   0.0000       0.009961         0.2710
  43   0.0000       0.023602         0.6422

MULLIKEN ATOMIC CHARGES
-----------------------
   0 C :    0.838817
   1 N :   -0.375162
   2 C :    0.057934
   3 C :    0.354749
   4 H :   -0.100819
   5 H :   -0.007257
   6 C :    0.281168
   7 C :    0.847358
   8 N :    0.164095
   9 N :   -0.048578
  10 H :   -0.041843
  11 H :    0.000308
  12 H :   -0.126295
  13 H :   -0.111209
  14 H :    0.000724
  15 H :   -0.000974
  16 H :   -0.385788
  17 H :    0.061889
  18 H :   -0.189581
  19 O :   -0.550976
  20 O :   -0.668560
Sum of atomic charges:   -0.0000000

LOEWDIN ATOMIC CHARGES
----------------------
   0 C :    0.068755
   1 N :    0.074427
   2 C :   -0.012599
   3 C :    0.036399
   4 H :    0.024825
   5 H :    0.019285
   6 C :   -0.279656
   7 C :   -0.105745
   8 N :    0.293551
   9 N :    0.274482
  10 H :    0.021012
  11 H :    0.004138
  12 H :    0.020875
  13 H :   -0.067594
  14 H :    0.023247
  15 H :    0.024065
  16 H :    0.019391
  17 H :    0.027955
  18 H :    0.022448
  19 O :   -0.239844
  20 O :   -0.249417

  Mayer bond orders larger than 0.100000
B(  0-C ,  1-N ) :   0.8597 B(  0-C ,  2-C ) :   1.1953 B(  0-C , 12-H ) :  -0.1026
B(  0-C , 15-H ) :   0.7137 B(  0-C , 16-H ) :   0.8369 B(  0-C , 18-H ) :   0.1959
B(  1-N ,  2-C ) :   0.1719 B(  1-N ,  7-C ) :   1.0652 B(  1-N ,  8-N ) :   0.1943
B(  1-N ,  9-N ) :   0.1327 B(  1-N , 12-H ) :   1.1253 B(  1-N , 15-H ) :   0.1228
B(  1-N , 16-H ) :   0.1191 B(  2-C ,  3-C ) :   1.2355 B(  2-C ,  4-H ) :   0.1819
B(  2-C ,  5-H ) :   0.1325 B(  2-C , 17-H ) :   0.8089 B(  2-C , 18-H ) :   0.9126
B(  3-C ,  4-H ) :   0.7853 B(  3-C ,  5-H ) :   0.8072 B(  3-C ,  6-C ) :   1.0365
B(  4-H ,  6-C ) :   0.1352 B(  5-H ,  6-C ) :   0.2676 B(  6-C , 19-O ) :   1.5572
B(  6-C , 20-O ) :   1.3454 B(  7-C ,  8-N ) :   0.9764 B(  7-C ,  9-N ) :   0.8178
B(  7-C , 12-H ) :  -0.2298 B(  7-C , 19-O ) :   0.1092 B(  8-N ,  9-N ) :   0.1863
B(  8-N , 13-H ) :   0.9392 B(  8-N , 14-H ) :   0.9292 B(  9-N , 10-H ) :   1.1412
B(  9-N , 11-H ) :   0.9318 B( 10-H , 11-H ) :  -0.1227 B( 13-H , 20-O ) :   0.1886
B( 15-H , 16-H ) :  -0.1263

Dispersion correction           -0.022948169
FINAL SINGLE POINT ENERGY      -510.975721170178

DIPOLE MOMENT
-------------
                                X             Y             Z
Electronic contribution:      4.21139       0.36769      -3.43630
Nuclear contribution   :     -4.94498       2.03334       3.78956
                        -----------------------------------------
Total Dipole Moment    :     -0.73359       2.40103       0.35325
                        -----------------------------------------
Magnitude (a.u.)       :      2.53533
Magnitude (Debye)      :      6.44430

Rotational constants in cm-1:     0.062533     0.042832     0.033687
Rotational constants in MHz :  1874.701390  1284.063603  1009.911042

                             ****ORCA TERMINATED NORMALLY****
TOTAL RUN TIME: 0 days 0 hours 0 minutes 21 seconds 920 msec
