                         Program Version 5.0.0 -  RELEASE  -
|  1> !PBE D3BJ RIJCOSX def2-SVPD def2/J TightSCF
|  2> *xyz 0 1
|  3> C          3.90595        2.81985       -3.75292
|  4> C          3.80351        1.37472       -3.26081
|  5> C          3.93993        0.32036       -4.36773
|  6> H          4.10504       -0.65508       -3.90773
|  7> H          3.02280        0.28052       -4.95712
|  8> C          5.10585        0.66802       -5.30546
|  9> H          4.57483        1.21516       -2.50044
| 10> H          2.84351        1.26085       -2.75146
| 11> F          4.80913        1.15019       -6.41436
| 12> O          6.26737        0.56500       -4.81948
| 13> H          3.15892        2.99660       -4.49832
| 14> H          4.87575        2.98549       -4.17357
| 15> H          3.75481        3.48808       -2.93101
| 16> *
| 17>
| 18> %MaxCore 64000
| 19>
| 20> %pal nprocs 4
| 21> end
| 22>
| 23> %scf
| 24>   MaxIter 150
| 25> end
| 26>
| 27>
| 28>                          ****END OF INPUT****

CARTESIAN COORDINATES (ANGSTROEM)
---------------------------------
  C      3.905950    2.819850   -3.752920
  C      3.803510    1.374720   -3.260810
  C      3.939930    0.320360   -4.367730
  H      4.105040   -0.655080   -3.907730
  H      3.022800    0.280520   -4.957120
  C      5.105850    0.668020   -5.305460
  H      4.574830    1.215160   -2.500440
  H      2.843510    1.260850   -2.751460
  F      4.809130    1.150190   -6.414360
  O      6.267370    0.565000   -4.819480
  H      3.158920    2.996600   -4.498320
  H      4.875750    2.985490   -4.173570
  H      3.754810    3.488080   -2.931010

 Total Charge           Charge          ....    0
 Multiplicity           Mult            ....    1
 Number of Electrons    NEL             ....   48
 Basis Dimension        Dim             ....  182

ORBITAL ENERGIES
----------------

  NO   OCC          E(Eh)            E(eV)
   0   2.0000     -24.349820      -662.5923
   1   2.0000     -18.771865      -510.8084
   2   2.0000     -10.067708      -273.9563
   3   2.0000      -9.925051      -270.0744
   4   2.0000      -9.913969      -269.7728
   5   2.0000      -9.891234      -269.1542
   6   2.0000      -1.212766       -33.0010
   7   2.0000      -0.934912       -25.4403
   8   2.0000      -0.736636       -20.0449
   9   2.0000      -0.655896       -17.8478
  10   2.0000      -0.601735       -16.3740
  11   2.0000      -0.550308       -14.9746
  12   2.0000      -0.497309       -13.5325
  13   2.0000      -0.475482       -12.9385
  14   2.0000      -0.452926       -12.3247
  15   2.0000      -0.417465       -11.3598
  16   2.0000      -0.408663       -11.1203
  17   2.0000      -0.373529       -10.1642
  18   2.0000      -0.354674        -9.6512
  19   2.0000      -0.333909        -9.0861
  20   2.0000      -0.316015        -8.5992
  21   2.0000      -0.307236        -8.3603
  22   2.0000      -0.306576        -8.3424
  23   2.0000      -0.243996        -6.6395
  24   0.0000      -0.073392        -1.9971
  25   0.0000      -0.003316        -0.0902
  26   0.0000       0.026822         0.7299
  27   0.0000       0.030199         0.8218
  28   0.0000       0.039962         1.0874

MULLIKEN ATOMIC CHARGES
-----------------------
   0 C :    0.674186
   1 C :   -0.373926
   2 C :    0.154358
   3 H :   -0.017371
   4 H :    0.023673
   5 C :    0.701777
   6 H :   -0.007731
   7 H :   -0.145601
   8 F :   -0.313855
   9 O :   -0.501259
  10 H :   -0.053327
  11 H :   -0.025645
  12 H :   -0.115279
Sum of atomic charges:   -0.0000000

LOEWDIN ATOMIC CHARGES
----------------------
   0 C :    0.128061
   1 C :   -0.062798
   2 C :    0.040876
   3 H :    0.035529
   4 H :    0.022454
   5 C :   -0.048917
   6 H :    0.031247
   7 H :    0.022973
   8 F :   -0.005257
   9 O :   -0.120352
  10 H :   -0.012139
  11 H :   -0.017675
  12 H :   -0.014002

  Mayer bond orders larger than 0.100000
B(  0-C ,  1-C ) :   1.3954 B(  0-C ,  7-H ) :   0.1156 B(  0-C , 10-H ) :   0.7795
B(  0-C , 11-H ) :   0.8146 B(  0-C , 12-H ) :   0.7647 B(  1-C ,  2-C ) :   1.2390
B(  1-C ,  3-H ) :   0.1391 B(  1-C ,  4-H ) :   0.1474 B(  1-C ,  6-H ) :   0.8997
B(  1-C ,  7-H ) :   0.9498 B(  1-C , 10-H ) :   0.2035 B(  1-C , 11-H ) :   0.2050
B(  1-C , 12-H ) :   0.2191 B(  2-C ,  3-H ) :   0.8340 B(  2-C ,  4-H ) :   0.8582
B(  2-C ,  5-C ) :   1.0731 B(  2-C ,  6-H ) :   0.1020 B(  3-H ,  5-C ) :   0.1021
B(  5-C ,  8-F ) :   0.7453 B(  5-C ,  9-O ) :   1.7683 B(  8-F ,  9-O ) :   0.1192

Dispersion correction           -0.009632537
FINAL SINGLE POINT ENERGY      -331.102808254982

DIPOLE MOMENT
-------------
                                X             Y             Z
Electronic contribution:      4.84738      -3.18550      -8.24548
Nuclear contribution   :     -5.98367       3.22001       8.44002
                        -----------------------------------------
Total Dipole Moment    :     -1.13629       0.03451       0.19454
                        -----------------------------------------
Magnitude (a.u.)       :      1.15334
Magnitude (Debye)      :      2.93156

Rotational constants in cm-1:     0.177409     0.085514     0.078973
Rotational constants in MHz :  5318.577687  2563.657993  2367.557452

                             ****ORCA TERMINATED NORMALLY****
TOTAL RUN TIME: 0 days 0 hours 0 minutes 6 seconds 481 msec
