                         Program Version 5.0.0 -  RELEASE  -
|  1> !PBE D3BJ RIJCOSX def2-SVPD def2/J TightSCF
|  2> *xyz 0 1
|  3> C          3.90595        2.81985       -3.75292
|  4> C          5.29562        3.13151       -4.10533
|  5> C          3.80351        1.37472       -3.26081
|  6> C          3.93993        0.32036       -4.36773
|  7> C          5.70862        3.46889       -5.32419
|  8> N          6.90470        3.03895       -5.71708
|  9> N          4.98188        4.29357       -6.09746
| 10> H          5.00055        4.10131       -7.08776
| 11> H          4.08469        4.59690       -5.73965
| 12> H          5.96336        2.52611       -3.64239
| 13> H          7.04716        2.06686       -5.47360
| 14> H          7.19815        3.30799       -6.64523
| 15> H          3.28202        2.94919       -4.64026
| 16> H          3.56525        3.51457       -2.98252
| 17> H          4.57483        1.21516       -2.50044
| 18> H          2.84351        1.26085       -2.75146
| 19> H          3.18417        0.48061       -5.10803
| 20> H          3.82485       -0.65632       -3.94614
| 21> H          4.90589        0.40174       -4.82073
| 22> *
| 23>
| 24> %MaxCore 64000
| 25>
| 26> %pal nprocs 4
| 27> end
| 28>
| 29> %scf
| 30>   MaxIter 150
| 31> end
| 32>
| 33>
| 34>                          ****END OF INPUT****

CARTESIAN COORDINATES (ANGSTROEM)
---------------------------------
  C      3.905950    2.819850   -3.752920
  C      5.295620    3.131510   -4.105330
  C      3.803510    1.374720   -3.260810
  C      3.939930    0.320360   -4.367730
  C      5.708620    3.468890   -5.324190
  N      6.904700    3.038950   -5.717080
  N      4.981880    4.293570   -6.097460
  H      5.000550    4.101310   -7.087760
  H      4.084690    4.596900   -5.739650
  H      5.963360    2.526110   -3.642390
  H      7.047160    2.066860   -5.473600
  H      7.198150    3.307990   -6.645230
  H      3.282020    2.949190   -4.640260
  H      3.565250    3.514570   -2.982520
  H      4.574830    1.215160   -2.500440
  H      2.843510    1.260850   -2.751460
  H      3.184170    0.480610   -5.108030
  H      3.824850   -0.656320   -3.946140
  H      4.905890    0.401740   -4.820730

 Total Charge           Charge          ....    0
 Multiplicity           Mult            ....    1
 Number of Electrons    NEL             ....   56
 Basis Dimension        Dim             ....  236

ORBITAL ENERGIES
----------------

  NO   OCC          E(Eh)            E(eV)
   0   2.0000     -14.006149      -381.1267
   1   2.0000     -14.003120      -381.0443
   2   2.0000      -9.932931      -270.2888
   3   2.0000      -9.880689      -268.8672
   4   2.0000      -9.874386      -268.6957
   5   2.0000      -9.873466      -268.6707
   6   2.0000      -9.825576      -267.3675
   7   2.0000      -0.877902       -23.8889
   8   2.0000      -0.794832       -21.6285
   9   2.0000      -0.712100       -19.3772
  10   2.0000      -0.649649       -17.6779
  11   2.0000      -0.592575       -16.1248
  12   2.0000      -0.534814       -14.5530
  13   2.0000      -0.511259       -13.9121
  14   2.0000      -0.484452       -13.1826
  15   2.0000      -0.460293       -12.5252
  16   2.0000      -0.431849       -11.7512
  17   2.0000      -0.398835       -10.8529
  18   2.0000      -0.390531       -10.6269
  19   2.0000      -0.368931       -10.0391
  20   2.0000      -0.340645        -9.2694
  21   2.0000      -0.328006        -8.9255
  22   2.0000      -0.308902        -8.4056
  23   2.0000      -0.292762        -7.9665
  24   2.0000      -0.279825        -7.6144
  25   2.0000      -0.274047        -7.4572
  26   2.0000      -0.233814        -6.3624
  27   2.0000      -0.142479        -3.8770
  28   0.0000      -0.011688        -0.3180
  29   0.0000       0.014928         0.4062
  30   0.0000       0.020945         0.5700
  31   0.0000       0.026585         0.7234
  32   0.0000       0.043599         1.1864

MULLIKEN ATOMIC CHARGES
-----------------------
   0 C :    0.344943
   1 C :   -0.018461
   2 C :   -0.247503
   3 C :    0.887361
   4 C :    0.234075
   5 N :    0.143010
   6 N :    0.029227
   7 H :   -0.116206
   8 H :    0.013910
   9 H :   -0.218028
  10 H :   -0.036280
  11 H :   -0.124639
  12 H :   -0.167065
  13 H :   -0.214021
  14 H :   -0.061701
  15 H :   -0.142736
  16 H :    0.016044
  17 H :   -0.045692
  18 H :   -0.276237
Sum of atomic charges:    0.0000000

LOEWDIN ATOMIC CHARGES
----------------------
   0 C :   -0.069421
   1 C :   -0.013675
   2 C :   -0.080281
   3 C :    0.129168
   4 C :   -0.254344
   5 N :    0.204405
   6 N :    0.213095
   7 H :   -0.016362
   8 H :   -0.009173
   9 H :   -0.053880
  10 H :   -0.005203
  11 H :   -0.015257
  12 H :    0.003387
  13 H :    0.008694
  14 H :    0.019358
  15 H :    0.013357
  16 H :   -0.019533
  17 H :   -0.021961
  18 H :   -0.032373

  Mayer bond orders larger than 0.100000
B(  0-C ,  1-C ) :   0.9467 B(  0-C ,  2-C ) :   1.2137 B(  0-C ,  9-H ) :   0.2266
B(  0-C , 12-H ) :   0.7790 B(  0-C , 13-H ) :   0.8510 B(  0-C , 14-H ) :   0.1557
B(  0-C , 15-H ) :   0.1990 B(  1-C ,  4-C ) :   1.8163 B(  1-C ,  5-N ) :   0.3414
B(  1-C ,  6-N ) :   0.1940 B(  1-C ,  9-H ) :   0.5131 B(  1-C , 12-H ) :   0.1170
B(  1-C , 13-H ) :   0.1577 B(  2-C ,  3-C ) :   1.2522 B(  2-C , 14-H ) :   0.9006
B(  2-C , 15-H ) :   0.9041 B(  2-C , 16-H ) :   0.2209 B(  2-C , 17-H ) :   0.2118
B(  2-C , 18-H ) :   0.2648 B(  3-C , 16-H ) :   0.7315 B(  3-C , 17-H ) :   0.7177
B(  3-C , 18-H ) :   0.8192 B(  4-C ,  5-N ) :   0.9500 B(  4-C ,  6-N ) :   0.9928
B(  4-C ,  9-H ) :   0.3480 B(  5-N ,  6-N ) :   0.1240 B(  5-N , 10-H ) :   1.0082
B(  5-N , 11-H ) :   0.9405 B(  6-N ,  7-H ) :   1.1169 B(  6-N ,  8-H ) :   0.9580
B( 16-H , 18-H ) :   0.1085

Dispersion correction           -0.016420763
FINAL SINGLE POINT ENERGY      -306.627308599986

DIPOLE MOMENT
-------------
                                X             Y             Z
Electronic contribution:      3.44125       4.96383      -2.09738
Nuclear contribution   :     -3.52450      -5.28471       1.03374
                        -----------------------------------------
Total Dipole Moment    :     -0.08325      -0.32089      -1.06364
                        -----------------------------------------
Magnitude (a.u.)       :      1.11410
Magnitude (Debye)      :      2.83183

Rotational constants in cm-1:     0.147126     0.050704     0.045476
Rotational constants in MHz :  4410.719889  1520.080198  1363.327077

                             ****ORCA TERMINATED NORMALLY****
TOTAL RUN TIME: 0 days 0 hours 0 minutes 10 seconds 379 msec
