                         Program Version 5.0.0 -  RELEASE  -
|  1> !PBE D3BJ RIJCOSX def2-SVPD def2/J TightSCF
|  2> *xyz 0 1
|  3> C          3.90595        2.81985       -3.75292
|  4> C          3.80351        1.37472       -3.26081
|  5> C          3.93993        0.32036       -4.36773
|  6> H          4.10504       -0.65508       -3.90773
|  7> H          3.02280        0.28052       -4.95712
|  8> C          5.10585        0.66802       -5.30546
|  9> H          4.57483        1.21516       -2.50044
| 10> H          2.84351        1.26085       -2.75146
| 11> O          4.80913        1.15019       -6.41436
| 12> F          6.26737        0.56500       -4.81948
| 13> H          3.15892        2.99660       -4.49832
| 14> H          4.87575        2.98549       -4.17357
| 15> H          3.75481        3.48808       -2.93101
| 16> *
| 17>
| 18> %MaxCore 64000
| 19>
| 20> %pal nprocs 4
| 21> end
| 22>
| 23> %scf
| 24>   MaxIter 150
| 25> end
| 26>
| 27>
| 28>                          ****END OF INPUT****

CARTESIAN COORDINATES (ANGSTROEM)
---------------------------------
  C      3.905950    2.819850   -3.752920
  C      3.803510    1.374720   -3.260810
  C      3.939930    0.320360   -4.367730
  H      4.105040   -0.655080   -3.907730
  H      3.022800    0.280520   -4.957120
  C      5.105850    0.668020   -5.305460
  H      4.574830    1.215160   -2.500440
  H      2.843510    1.260850   -2.751460
  O      4.809130    1.150190   -6.414360
  F      6.267370    0.565000   -4.819480
  H      3.158920    2.996600   -4.498320
  H      4.875750    2.985490   -4.173570
  H      3.754810    3.488080   -2.931010

 Total Charge           Charge          ....    0
 Multiplicity           Mult            ....    1
 Number of Electrons    NEL             ....   48
 Basis Dimension        Dim             ....  182

ORBITAL ENERGIES
----------------

  NO   OCC          E(Eh)            E(eV)
   0   2.0000     -24.343425      -662.4183
   1   2.0000     -18.774296      -510.8746
   2   2.0000     -10.065743      -273.9028
   3   2.0000      -9.924479      -270.0588
   4   2.0000      -9.915999      -269.8281
   5   2.0000      -9.889762      -269.1141
   6   2.0000      -1.199536       -32.6410
   7   2.0000      -0.945314       -25.7233
   8   2.0000      -0.737737       -20.0748
   9   2.0000      -0.654240       -17.8028
  10   2.0000      -0.594539       -16.1782
  11   2.0000      -0.549913       -14.9639
  12   2.0000      -0.491820       -13.3831
  13   2.0000      -0.475694       -12.9443
  14   2.0000      -0.441103       -12.0030
  15   2.0000      -0.423798       -11.5321
  16   2.0000      -0.408774       -11.1233
  17   2.0000      -0.372344       -10.1320
  18   2.0000      -0.352038        -9.5794
  19   2.0000      -0.332967        -9.0605
  20   2.0000      -0.323004        -8.7894
  21   2.0000      -0.314706        -8.5636
  22   2.0000      -0.306132        -8.3303
  23   2.0000      -0.244923        -6.6647
  24   0.0000      -0.069641        -1.8950
  25   0.0000      -0.005837        -0.1588
  26   0.0000       0.027794         0.7563
  27   0.0000       0.032514         0.8847
  28   0.0000       0.037586         1.0228

MULLIKEN ATOMIC CHARGES
-----------------------
   0 C :    0.695010
   1 C :   -0.411466
   2 C :    0.178247
   3 H :   -0.022622
   4 H :    0.014187
   5 C :    0.704902
   6 H :   -0.028449
   7 H :   -0.144250
   8 O :   -0.445059
   9 F :   -0.365301
  10 H :   -0.031287
  11 H :   -0.015048
  12 H :   -0.128863
Sum of atomic charges:    0.0000000

LOEWDIN ATOMIC CHARGES
----------------------
   0 C :    0.129581
   1 C :   -0.068371
   2 C :    0.043593
   3 H :    0.027246
   4 H :    0.034637
   5 C :   -0.049444
   6 H :    0.024957
   7 H :    0.023552
   8 O :   -0.110109
   9 F :   -0.016022
  10 H :   -0.006281
  11 H :   -0.018231
  12 H :   -0.015109

  Mayer bond orders larger than 0.100000
B(  0-C ,  1-C ) :   1.3964 B(  0-C ,  7-H ) :   0.1133 B(  0-C , 10-H ) :   0.7761
B(  0-C , 11-H ) :   0.8108 B(  0-C , 12-H ) :   0.7545 B(  1-C ,  2-C ) :   1.2203
B(  1-C ,  3-H ) :   0.1430 B(  1-C ,  4-H ) :   0.1446 B(  1-C ,  6-H ) :   0.9053
B(  1-C ,  7-H ) :   0.9463 B(  1-C , 10-H ) :   0.2097 B(  1-C , 11-H ) :   0.2040
B(  1-C , 12-H ) :   0.2273 B(  2-C ,  3-H ) :   0.8379 B(  2-C ,  4-H ) :   0.8711
B(  2-C ,  5-C ) :   1.0453 B(  4-H ,  5-C ) :   0.1235 B(  5-C ,  8-O ) :   1.7969
B(  5-C ,  9-F ) :   0.7034 B(  8-O ,  9-F ) :   0.1241

Dispersion correction           -0.009628559
FINAL SINGLE POINT ENERGY      -331.107723102100

DIPOLE MOMENT
-------------
                                X             Y             Z
Electronic contribution:      7.28006      -4.16687      -5.57344
Nuclear contribution   :     -7.63086       3.88103       6.63849
                        -----------------------------------------
Total Dipole Moment    :     -0.35080      -0.28584       1.06505
                        -----------------------------------------
Magnitude (a.u.)       :      1.15719
Magnitude (Debye)      :      2.94134

Rotational constants in cm-1:     0.177064     0.085023     0.079676
Rotational constants in MHz :  5308.232158  2548.918275  2388.614336

                             ****ORCA TERMINATED NORMALLY****
TOTAL RUN TIME: 0 days 0 hours 0 minutes 6 seconds 282 msec
