                         Program Version 5.0.0 -  RELEASE  -
|  1> !PBE D3BJ RIJCOSX def2-SVPD def2/J TightSCF
|  2> *xyz 0 1
|  3> C          3.90595        2.81985       -3.75292
|  4> N          5.29562        3.13151       -4.10533
|  5> C          3.80351        1.37472       -3.26081
|  6> C          3.93993        0.32036       -4.36773
|  7> C          5.70862        3.46889       -5.32419
|  8> C          6.90470        3.03895       -5.71708
|  9> N          4.98188        4.29357       -6.09746
| 10> H          5.00055        4.10131       -7.08776
| 11> H          4.08469        4.59690       -5.73965
| 12> H          5.96336        2.52611       -3.64239
| 13> H          7.04716        2.06686       -5.47360
| 14> H          7.19815        3.30799       -6.64523
| 15> H          3.28202        2.94919       -4.64026
| 16> H          3.56525        3.51457       -2.98252
| 17> H          4.57483        1.21516       -2.50044
| 18> H          2.84351        1.26085       -2.75146
| 19> H          3.18417        0.48061       -5.10803
| 20> H          3.82485       -0.65632       -3.94614
| 21> H          4.90589        0.40174       -4.82073
| 22> *
| 23>
| 24> %MaxCore 64000
| 25>
| 26> %pal nprocs 4
| 27> end
| 28>
| 29> %scf
| 30>   MaxIter 150
| 31> end
| 32>
| 33>
| 34>                          ****END OF INPUT****

CARTESIAN COORDINATES (ANGSTROEM)
---------------------------------
  C      3.905950    2.819850   -3.752920
  N      5.295620    3.131510   -4.105330
  C      3.803510    1.374720   -3.260810
  C      3.939930    0.320360   -4.367730
  C      5.708620    3.468890   -5.324190
  C      6.904700    3.038950   -5.717080
  N      4.981880    4.293570   -6.097460
  H      5.000550    4.101310   -7.087760
  H      4.084690    4.596900   -5.739650
  H      5.963360    2.526110   -3.642390
  H      7.047160    2.066860   -5.473600
  H      7.198150    3.307990   -6.645230
  H      3.282020    2.949190   -4.640260
  H      3.565250    3.514570   -2.982520
  H      4.574830    1.215160   -2.500440
  H      2.843510    1.260850   -2.751460
  H      3.184170    0.480610   -5.108030
  H      3.824850   -0.656320   -3.946140
  H      4.905890    0.401740   -4.820730

 Total Charge           Charge          ....    0
 Multiplicity           Mult            ....    1
 Number of Electrons    NEL             ....   56
 Basis Dimension        Dim             ....  236

ORBITAL ENERGIES
----------------

  NO   OCC          E(Eh)            E(eV)
   0   2.0000     -14.004911      -381.0930
   1   2.0000     -14.004286      -381.0760
   2   2.0000      -9.936348      -270.3818
   3   2.0000      -9.932962      -270.2896
   4   2.0000      -9.907178      -269.5880
   5   2.0000      -9.889148      -269.0974
   6   2.0000      -9.810905      -266.9683
   7   2.0000      -0.881972       -23.9997
   8   2.0000      -0.805496       -21.9187
   9   2.0000      -0.715291       -19.4641
  10   2.0000      -0.655100       -17.8262
  11   2.0000      -0.604451       -16.4480
  12   2.0000      -0.544767       -14.8239
  13   2.0000      -0.535779       -14.5793
  14   2.0000      -0.484046       -13.1716
  15   2.0000      -0.449032       -12.2188
  16   2.0000      -0.428008       -11.6467
  17   2.0000      -0.418287       -11.3822
  18   2.0000      -0.398544       -10.8449
  19   2.0000      -0.364003        -9.9050
  20   2.0000      -0.352352        -9.5880
  21   2.0000      -0.343344        -9.3429
  22   2.0000      -0.324622        -8.8334
  23   2.0000      -0.313387        -8.5277
  24   2.0000      -0.310642        -8.4530
  25   2.0000      -0.293021        -7.9735
  26   2.0000      -0.221331        -6.0227
  27   2.0000      -0.144792        -3.9400
  28   0.0000      -0.007881        -0.2145
  29   0.0000       0.009921         0.2700
  30   0.0000       0.017696         0.4815
  31   0.0000       0.024418         0.6644
  32   0.0000       0.032295         0.8788

MULLIKEN ATOMIC CHARGES
-----------------------
   0 C :    0.756349
   1 N :   -0.370212
   2 C :   -0.343008
   3 C :    0.872191
   4 C :    0.222290
   5 C :    0.537079
   6 N :    0.093110
   7 H :   -0.055773
   8 H :   -0.077793
   9 H :   -0.066294
  10 H :   -0.317393
  11 H :   -0.336366
  12 H :   -0.051013
  13 H :   -0.370298
  14 H :   -0.053608
  15 H :   -0.143350
  16 H :    0.030969
  17 H :   -0.059297
  18 H :   -0.267582
Sum of atomic charges:   -0.0000000

LOEWDIN ATOMIC CHARGES
----------------------
   0 C :    0.036913
   1 N :    0.011072
   2 C :   -0.069603
   3 C :    0.135243
   4 C :   -0.261732
   5 C :    0.149232
   6 N :    0.216071
   7 H :    0.001364
   8 H :   -0.023219
   9 H :    0.015240
  10 H :   -0.108592
  11 H :   -0.103887
  12 H :    0.011754
  13 H :    0.012390
  14 H :    0.019642
  15 H :    0.018209
  16 H :   -0.016805
  17 H :   -0.017956
  18 H :   -0.025335

  Mayer bond orders larger than 0.100000
B(  0-C ,  1-N ) :   0.8991 B(  0-C ,  2-C ) :   1.1596 B(  0-C , 12-H ) :   0.7410
B(  0-C , 13-H ) :   0.8904 B(  0-C , 15-H ) :   0.1635 B(  1-N ,  2-C ) :   0.1177
B(  1-N ,  4-C ) :   1.1576 B(  1-N ,  5-C ) :   0.2497 B(  1-N ,  9-H ) :   1.0481
B(  1-N , 12-H ) :   0.1346 B(  1-N , 13-H ) :   0.1356 B(  2-C ,  3-C ) :   1.2768
B(  2-C , 14-H ) :   0.9000 B(  2-C , 15-H ) :   0.9568 B(  2-C , 16-H ) :   0.2186
B(  2-C , 17-H ) :   0.2289 B(  2-C , 18-H ) :   0.2592 B(  3-C , 16-H ) :   0.7084
B(  3-C , 17-H ) :   0.7201 B(  3-C , 18-H ) :   0.8169 B(  4-C ,  5-C ) :   1.7093
B(  4-C ,  6-N ) :   0.9321 B(  4-C ,  9-H ) :  -0.1487 B(  4-C , 10-H ) :   0.2163
B(  4-C , 11-H ) :   0.3686 B(  5-C ,  6-N ) :   0.2709 B(  5-C , 10-H ) :   0.8496
B(  5-C , 11-H ) :   0.4826 B(  6-N ,  7-H ) :   1.0998 B(  6-N ,  8-H ) :   0.8982
B(  6-N , 11-H ) :   0.1240 B(  7-H ,  8-H ) :  -0.1196 B( 10-H , 11-H ) :   0.1495
B( 12-H , 13-H ) :  -0.1168 B( 16-H , 18-H ) :   0.1481

Dispersion correction           -0.016292092
FINAL SINGLE POINT ENERGY      -306.615164618385

DIPOLE MOMENT
-------------
                                X             Y             Z
Electronic contribution:      1.80499       4.89923      -0.58871
Nuclear contribution   :     -3.17203      -5.30499       0.68068
                        -----------------------------------------
Total Dipole Moment    :     -1.36703      -0.40576       0.09197
                        -----------------------------------------
Magnitude (a.u.)       :      1.42894
Magnitude (Debye)      :      3.63209

Rotational constants in cm-1:     0.149640     0.051631     0.046708
Rotational constants in MHz :  4486.107270  1547.846261  1400.277765

                             ****ORCA TERMINATED NORMALLY****
TOTAL RUN TIME: 0 days 0 hours 0 minutes 11 seconds 361 msec
