                         Program Version 5.0.0 -  RELEASE  -
|  1> !PBE D3BJ RIJCOSX def2-SVPD def2/J TightSCF
|  2> *xyz 0 1
|  3> C          3.90595        2.81985       -3.75292
|  4> N          5.29562        3.13151       -4.10533
|  5> C          3.80351        1.37472       -3.26081
|  6> C          3.93993        0.32036       -4.36773
|  7> C          5.70862        3.46889       -5.32419
|  8> N          6.90470        3.03895       -5.71708
|  9> C          4.98188        4.29357       -6.09746
| 10> H          5.00055        4.10131       -7.08776
| 11> H          4.08469        4.59690       -5.73965
| 12> H          5.96336        2.52611       -3.64239
| 13> H          7.04716        2.06686       -5.47360
| 14> H          7.19815        3.30799       -6.64523
| 15> H          3.28202        2.94919       -4.64026
| 16> H          3.56525        3.51457       -2.98252
| 17> H          4.57483        1.21516       -2.50044
| 18> H          2.84351        1.26085       -2.75146
| 19> H          3.18417        0.48061       -5.10803
| 20> H          3.82485       -0.65632       -3.94614
| 21> H          4.90589        0.40174       -4.82073
| 22> *
| 23>
| 24> %MaxCore 64000
| 25>
| 26> %pal nprocs 4
| 27> end
| 28>
| 29> %scf
| 30>   MaxIter 150
| 31> end
| 32>
| 33>
| 34>                          ****END OF INPUT****

CARTESIAN COORDINATES (ANGSTROEM)
---------------------------------
  C      3.905950    2.819850   -3.752920
  N      5.295620    3.131510   -4.105330
  C      3.803510    1.374720   -3.260810
  C      3.939930    0.320360   -4.367730
  C      5.708620    3.468890   -5.324190
  N      6.904700    3.038950   -5.717080
  C      4.981880    4.293570   -6.097460
  H      5.000550    4.101310   -7.087760
  H      4.084690    4.596900   -5.739650
  H      5.963360    2.526110   -3.642390
  H      7.047160    2.066860   -5.473600
  H      7.198150    3.307990   -6.645230
  H      3.282020    2.949190   -4.640260
  H      3.565250    3.514570   -2.982520
  H      4.574830    1.215160   -2.500440
  H      2.843510    1.260850   -2.751460
  H      3.184170    0.480610   -5.108030
  H      3.824850   -0.656320   -3.946140
  H      4.905890    0.401740   -4.820730

 Total Charge           Charge          ....    0
 Multiplicity           Mult            ....    1
 Number of Electrons    NEL             ....   56
 Basis Dimension        Dim             ....  236

ORBITAL ENERGIES
----------------

  NO   OCC          E(Eh)            E(eV)
   0   2.0000     -14.006807      -381.1446
   1   2.0000     -14.003672      -381.0593
   2   2.0000      -9.935770      -270.3660
   3   2.0000      -9.927893      -270.1517
   4   2.0000      -9.905720      -269.5484
   5   2.0000      -9.890802      -269.1424
   6   2.0000      -9.816171      -267.1116
   7   2.0000      -0.886946       -24.1350
   8   2.0000      -0.807497       -21.9731
   9   2.0000      -0.710700       -19.3391
  10   2.0000      -0.641606       -17.4590
  11   2.0000      -0.623073       -16.9547
  12   2.0000      -0.548310       -14.9203
  13   2.0000      -0.511323       -13.9138
  14   2.0000      -0.484476       -13.1833
  15   2.0000      -0.466447       -12.6927
  16   2.0000      -0.424761       -11.5583
  17   2.0000      -0.419893       -11.4259
  18   2.0000      -0.389082       -10.5875
  19   2.0000      -0.369899       -10.0655
  20   2.0000      -0.351371        -9.5613
  21   2.0000      -0.339688        -9.2434
  22   2.0000      -0.326193        -8.8762
  23   2.0000      -0.313623        -8.5341
  24   2.0000      -0.308924        -8.4063
  25   2.0000      -0.294125        -8.0036
  26   2.0000      -0.219308        -5.9677
  27   2.0000      -0.148578        -4.0430
  28   0.0000      -0.012748        -0.3469
  29   0.0000       0.013532         0.3682
  30   0.0000       0.018990         0.5168
  31   0.0000       0.025731         0.7002
  32   0.0000       0.033685         0.9166

MULLIKEN ATOMIC CHARGES
-----------------------
   0 C :    0.762663
   1 N :   -0.271904
   2 C :   -0.291482
   3 C :    0.862199
   4 C :    0.144539
   5 N :    0.042842
   6 C :    0.460287
   7 H :   -0.412182
   8 H :   -0.092129
   9 H :   -0.204925
  10 H :   -0.093112
  11 H :    0.008419
  12 H :    0.009423
  13 H :   -0.421275
  14 H :   -0.076416
  15 H :   -0.127128
  16 H :    0.021935
  17 H :   -0.053454
  18 H :   -0.268300
Sum of atomic charges:    0.0000000

LOEWDIN ATOMIC CHARGES
----------------------
   0 C :    0.048982
   1 N :    0.012307
   2 C :   -0.070200
   3 C :    0.132306
   4 C :   -0.272784
   5 N :    0.204421
   6 C :    0.166254
   7 H :   -0.104003
   8 H :   -0.108651
   9 H :    0.004595
  10 H :   -0.020190
  11 H :    0.000548
  12 H :    0.017718
  13 H :    0.017510
  14 H :    0.016188
  15 H :    0.019714
  16 H :   -0.014658
  17 H :   -0.018421
  18 H :   -0.031635

  Mayer bond orders larger than 0.100000
B(  0-C ,  1-N ) :   0.9465 B(  0-C ,  2-C ) :   1.1484 B(  0-C , 12-H ) :   0.7595
B(  0-C , 13-H ) :   0.9082 B(  0-C , 15-H ) :   0.1730 B(  1-N ,  2-C ) :   0.1215
B(  1-N ,  4-C ) :   1.1602 B(  1-N ,  5-N ) :   0.1927 B(  1-N ,  6-C ) :   0.2266
B(  1-N ,  9-H ) :   1.0058 B(  1-N , 12-H ) :   0.1309 B(  1-N , 13-H ) :   0.1207
B(  2-C ,  3-C ) :   1.2714 B(  2-C , 14-H ) :   0.9080 B(  2-C , 15-H ) :   0.9383
B(  2-C , 16-H ) :   0.2202 B(  2-C , 17-H ) :   0.2257 B(  2-C , 18-H ) :   0.2531
B(  3-C , 16-H ) :   0.7299 B(  3-C , 17-H ) :   0.7232 B(  3-C , 18-H ) :   0.8179
B(  4-C ,  5-N ) :   1.0042 B(  4-C ,  6-C ) :   1.7998 B(  4-C ,  7-H ) :   0.2027
B(  4-C ,  8-H ) :   0.3124 B(  4-C ,  9-H ) :  -0.1092 B(  5-N ,  6-C ) :   0.1643
B(  5-N , 10-H ) :   0.9525 B(  5-N , 11-H ) :   0.9788 B(  6-C ,  7-H ) :   0.8511
B(  6-C ,  8-H ) :   0.4884 B(  7-H ,  8-H ) :   0.2793 B( 12-H , 13-H ) :  -0.1030
B( 16-H , 18-H ) :   0.1180

Dispersion correction           -0.016311922
FINAL SINGLE POINT ENERGY      -306.619287799578

DIPOLE MOMENT
-------------
                                X             Y             Z
Electronic contribution:      3.62418       3.74722      -0.28525
Nuclear contribution   :     -3.59323      -5.03016       0.59736
                        -----------------------------------------
Total Dipole Moment    :      0.03095      -1.28294       0.31211
                        -----------------------------------------
Magnitude (a.u.)       :      1.32072
Magnitude (Debye)      :      3.35701

Rotational constants in cm-1:     0.148888     0.051791     0.046487
Rotational constants in MHz :  4463.542717  1552.665696  1393.643356

                             ****ORCA TERMINATED NORMALLY****
TOTAL RUN TIME: 0 days 0 hours 0 minutes 9 seconds 883 msec
