                         Program Version 5.0.0 -  RELEASE  -
|  1> !PBE D3BJ RIJCOSX def2-SVPD def2/J TightSCF xyzfile
|  2>
|  3> *xyzfile 0 1 D4.xyz
|  4>
|  5> %MaxCore 64000
|  6>
|  7> %pal nprocs 4
|  8> end
|  9>
| 10> %scf
| 11>   MaxIter 150
| 12> end
| 13>
| 14>
| 15>                          ****END OF INPUT****

CARTESIAN COORDINATES (ANGSTROEM)
---------------------------------
  C      3.905947    2.819855   -3.752920
  C      5.295615    3.131515   -4.105334
  C      3.803511    1.374716   -3.260807
  C      3.939934    0.320362   -4.367729
  H      4.105043   -0.655085   -3.907733
  H      3.022801    0.280517   -4.957117
  C      5.105846    0.668022   -5.305463
  C      5.708619    3.468885   -5.324190
  N      6.904696    3.038954   -5.717084
  N      4.981884    4.293570   -6.097457
  H      5.000546    4.101311   -7.087761
  H      4.084693    4.596899   -5.739652
  H      5.963358    2.526112   -3.642391
  H      7.047164    2.066861   -5.473604
  H      7.198145    3.307994   -6.645225
  H      3.282025    2.949187   -4.640259
  H      3.565254    3.514574   -2.982523
  H      4.574833    1.215157   -2.500443
  H      2.843514    1.260845   -2.751465
  O      4.809132    1.150187   -6.414361
  F      6.267366    0.564999   -4.819481

 Total Charge           Charge          ....    0
 Multiplicity           Mult            ....    1
 Number of Electrons    NEL             ....   78
 Basis Dimension        Dim             ....  294

ORBITAL ENERGIES
----------------

  NO   OCC          E(Eh)            E(eV)
   0   2.0000     -24.348615      -662.5595
   1   2.0000     -18.768242      -510.7098
   2   2.0000     -14.005733      -381.1154
   3   2.0000     -13.994655      -380.8139
   4   2.0000     -10.063062      -273.8298
   5   2.0000      -9.937199      -270.4049
   6   2.0000      -9.919446      -269.9218
   7   2.0000      -9.904281      -269.5092
   8   2.0000      -9.885415      -268.9958
   9   2.0000      -9.830478      -267.5009
  10   2.0000      -1.207075       -32.8462
  11   2.0000      -0.943035       -25.6613
  12   2.0000      -0.875400       -23.8209
  13   2.0000      -0.792065       -21.5532
  14   2.0000      -0.738208       -20.0877
  15   2.0000      -0.676003       -18.3950
  16   2.0000      -0.624039       -16.9810
  17   2.0000      -0.592984       -16.1359
  18   2.0000      -0.547516       -14.8987
  19   2.0000      -0.531869       -14.4729
  20   2.0000      -0.497425       -13.5356
  21   2.0000      -0.485646       -13.2151
  22   2.0000      -0.477385       -12.9903
  23   2.0000      -0.458853       -12.4860
  24   2.0000      -0.441087       -12.0026
  25   2.0000      -0.423155       -11.5146
  26   2.0000      -0.415237       -11.2992
  27   2.0000      -0.395082       -10.7507
  28   2.0000      -0.381572       -10.3831
  29   2.0000      -0.349397        -9.5076
  30   2.0000      -0.341890        -9.3033
  31   2.0000      -0.331152        -9.0111
  32   2.0000      -0.321361        -8.7447
  33   2.0000      -0.305186        -8.3045
  34   2.0000      -0.295696        -8.0463
  35   2.0000      -0.287940        -7.8352
  36   2.0000      -0.244938        -6.6651
  37   2.0000      -0.225842        -6.1455
  38   2.0000      -0.148042        -4.0284
  39   0.0000      -0.065917        -1.7937
  40   0.0000      -0.004426        -0.1204
  41   0.0000       0.010506         0.2859
  42   0.0000       0.017758         0.4832
  43   0.0000       0.024670         0.6713

MULLIKEN ATOMIC CHARGES
-----------------------
   0 C :    0.424277
   1 C :   -0.068337
   2 C :    0.160878
   3 C :    0.322326
   4 H :   -0.089827
   5 H :    0.002280
   6 C :    0.616737
   7 C :    0.247399
   8 N :    0.242720
   9 N :    0.005040
  10 H :   -0.074361
  11 H :    0.001324
  12 H :   -0.212702
  13 H :   -0.109113
  14 H :   -0.035107
  15 H :   -0.131136
  16 H :   -0.252044
  17 H :    0.015397
  18 H :   -0.185962
  19 O :   -0.456656
  20 F :   -0.423131
Sum of atomic charges:    0.0000000

LOEWDIN ATOMIC CHARGES
----------------------
   0 C :   -0.047117
   1 C :   -0.015032
   2 C :   -0.023365
   3 C :    0.061198
   4 H :    0.027800
   5 H :    0.034463
   6 C :   -0.041521
   7 C :   -0.256825
   8 N :    0.233628
   9 N :    0.234391
  10 H :   -0.007119
  11 H :   -0.005275
  12 H :   -0.055328
  13 H :   -0.053143
  14 H :   -0.000472
  15 H :    0.012606
  16 H :    0.011641
  17 H :    0.028001
  18 H :    0.020912
  19 O :   -0.125657
  20 F :   -0.033786

  Mayer bond orders larger than 0.100000
B(  0-C ,  1-C ) :   0.9996 B(  0-C ,  2-C ) :   1.2259 B(  0-C , 12-H ) :   0.2145
B(  0-C , 15-H ) :   0.7595 B(  0-C , 16-H ) :   0.7898 B(  0-C , 18-H ) :   0.2160
B(  1-C ,  2-C ) :   0.1864 B(  1-C ,  7-C ) :   1.6666 B(  1-C ,  8-N ) :   0.3881
B(  1-C ,  9-N ) :   0.1808 B(  1-C , 12-H ) :   0.4431 B(  1-C , 15-H ) :   0.1120
B(  1-C , 16-H ) :   0.1782 B(  2-C ,  3-C ) :   1.1928 B(  2-C ,  4-H ) :   0.1921
B(  2-C ,  5-H ) :   0.1176 B(  2-C , 17-H ) :   0.8020 B(  2-C , 18-H ) :   0.8628
B(  3-C ,  4-H ) :   0.7928 B(  3-C ,  5-H ) :   0.8284 B(  3-C ,  6-C ) :   1.1195
B(  4-H ,  6-C ) :   0.1116 B(  5-H ,  6-C ) :   0.2034 B(  6-C , 19-O ) :   1.7197
B(  6-C , 20-F ) :   0.5931 B(  7-C ,  8-N ) :   0.8607 B(  7-C ,  9-N ) :   0.9761
B(  7-C , 12-H ) :   0.2798 B(  7-C , 14-H ) :   0.1901 B(  8-N ,  9-N ) :   0.1701
B(  8-N , 13-H ) :   0.9044 B(  8-N , 14-H ) :   0.8187 B(  9-N , 10-H ) :   1.0796
B(  9-N , 11-H ) :   0.9604 B( 10-H , 11-H ) :  -0.1080 B( 15-H , 16-H ) :  -0.1161

Dispersion correction           -0.022865208
FINAL SINGLE POINT ENERGY      -518.852864612638

DIPOLE MOMENT
-------------
                                X             Y             Z
Electronic contribution:      5.89084      -4.37564      -3.90572
Nuclear contribution   :     -6.25608       3.89116       3.75052
                        -----------------------------------------
Total Dipole Moment    :     -0.36524      -0.48448      -0.15520
                        -----------------------------------------
Magnitude (a.u.)       :      0.62627
Magnitude (Debye)      :      1.59184

Rotational constants in cm-1:     0.061229     0.042568     0.033282
Rotational constants in MHz :  1835.590871  1276.154029   997.769927

                             ****ORCA TERMINATED NORMALLY****
TOTAL RUN TIME: 0 days 0 hours 0 minutes 19 seconds 130 msec
