                         Program Version 5.0.0 -  RELEASE  -
|  1> !PBE D3BJ RIJCOSX def2-SVPD def2/J TightSCF xyzfile
|  2>
|  3> *xyzfile 0 1 D6.xyz
|  4>
|  5> %MaxCore 64000
|  6>
|  7> %pal nprocs 4
|  8> end
|  9>
| 10> %scf
| 11>   MaxIter 150
| 12> end
| 13>
| 14>
| 15>                          ****END OF INPUT****

CARTESIAN COORDINATES (ANGSTROEM)
---------------------------------
  C      3.905947    2.819855   -3.752920
  N      5.295615    3.131515   -4.105334
  C      3.803511    1.374716   -3.260807
  C      3.939934    0.320362   -4.367729
  H      4.105043   -0.655085   -3.907733
  H      3.022801    0.280517   -4.957117
  C      5.105846    0.668022   -5.305463
  C      5.708619    3.468885   -5.324190
  N      6.904696    3.038954   -5.717084
  C      4.981884    4.293570   -6.097457
  H      5.000546    4.101311   -7.087761
  H      4.084693    4.596899   -5.739652
  H      5.963358    2.526112   -3.642391
  H      7.047164    2.066861   -5.473604
  H      7.198145    3.307994   -6.645225
  H      3.282025    2.949187   -4.640259
  H      3.565254    3.514574   -2.982523
  H      4.574833    1.215157   -2.500443
  H      2.843514    1.260845   -2.751465
  O      4.809132    1.150187   -6.414361
  F      6.267366    0.564999   -4.819481

 Total Charge           Charge          ....    0
 Multiplicity           Mult            ....    1
 Number of Electrons    NEL             ....   78
 Basis Dimension        Dim             ....  294

ORBITAL ENERGIES
----------------

  NO   OCC          E(Eh)            E(eV)
   0   2.0000     -24.361923      -662.9216
   1   2.0000     -18.780949      -511.0556
   2   2.0000     -14.015064      -381.3693
   3   2.0000     -13.991649      -380.7321
   4   2.0000     -10.071605      -274.0623
   5   2.0000      -9.939744      -270.4742
   6   2.0000      -9.934827      -270.3404
   7   2.0000      -9.934085      -270.3202
   8   2.0000      -9.928399      -270.1655
   9   2.0000      -9.814046      -267.0538
  10   2.0000      -1.220809       -33.2199
  11   2.0000      -0.953593       -25.9486
  12   2.0000      -0.888667       -24.1819
  13   2.0000      -0.808856       -22.0101
  14   2.0000      -0.739521       -20.1234
  15   2.0000      -0.666094       -18.1253
  16   2.0000      -0.633157       -17.2291
  17   2.0000      -0.613936       -16.7060
  18   2.0000      -0.572572       -15.5805
  19   2.0000      -0.519624       -14.1397
  20   2.0000      -0.515553       -14.0289
  21   2.0000      -0.504605       -13.7310
  22   2.0000      -0.472948       -12.8696
  23   2.0000      -0.457213       -12.4414
  24   2.0000      -0.449451       -12.2302
  25   2.0000      -0.435237       -11.8434
  26   2.0000      -0.431288       -11.7359
  27   2.0000      -0.386646       -10.5212
  28   2.0000      -0.378135       -10.2896
  29   2.0000      -0.362513        -9.8645
  30   2.0000      -0.350214        -9.5298
  31   2.0000      -0.344873        -9.3845
  32   2.0000      -0.339092        -9.2272
  33   2.0000      -0.326012        -8.8712
  34   2.0000      -0.320646        -8.7252
  35   2.0000      -0.291654        -7.9363
  36   2.0000      -0.252533        -6.8718
  37   2.0000      -0.219470        -5.9721
  38   2.0000      -0.147096        -4.0027
  39   0.0000      -0.076719        -2.0876
  40   0.0000      -0.013253        -0.3606
  41   0.0000       0.013929         0.3790
  42   0.0000       0.015793         0.4297
  43   0.0000       0.026426         0.7191

MULLIKEN ATOMIC CHARGES
-----------------------
   0 C :    0.854821
   1 N :   -0.235876
   2 C :    0.127693
   3 C :    0.315815
   4 H :   -0.089099
   5 H :    0.009166
   6 C :    0.576099
   7 C :    0.158553
   8 N :    0.163072
   9 C :    0.416551
  10 H :   -0.429950
  11 H :   -0.154551
  12 H :   -0.217249
  13 H :   -0.145400
  14 H :    0.050376
  15 H :    0.023086
  16 H :   -0.452780
  17 H :    0.007372
  18 H :   -0.164723
  19 O :   -0.402494
  20 F :   -0.410484
Sum of atomic charges:   -0.0000000

LOEWDIN ATOMIC CHARGES
----------------------
   0 C :    0.068482
   1 N :    0.025423
   2 C :   -0.014003
   3 C :    0.061716
   4 H :    0.029728
   5 H :    0.037735
   6 C :   -0.045274
   7 C :   -0.281702
   8 N :    0.229764
   9 C :    0.176177
  10 H :   -0.092407
  11 H :   -0.105192
  12 H :    0.001860
  13 H :   -0.066312
  14 H :    0.012355
  15 H :    0.026946
  16 H :    0.021083
  17 H :    0.024727
  18 H :    0.026454
  19 O :   -0.099507
  20 F :   -0.038052

  Mayer bond orders larger than 0.100000
B(  0-C ,  1-N ) :   0.8729 B(  0-C ,  2-C ) :   1.1519 B(  0-C , 15-H ) :   0.7277
B(  0-C , 16-H ) :   0.8564 B(  0-C , 18-H ) :   0.2029 B(  1-N ,  2-C ) :   0.1934
B(  1-N ,  7-C ) :   1.2044 B(  1-N ,  8-N ) :   0.1229 B(  1-N ,  9-C ) :   0.2523
B(  1-N , 12-H ) :   0.9890 B(  1-N , 15-H ) :   0.1472 B(  2-C ,  3-C ) :   1.2125
B(  2-C ,  4-H ) :   0.1904 B(  2-C ,  5-H ) :   0.1157 B(  2-C , 17-H ) :   0.8099
B(  2-C , 18-H ) :   0.8931 B(  3-C ,  4-H ) :   0.7882 B(  3-C ,  5-H ) :   0.8121
B(  3-C ,  6-C ) :   1.1218 B(  4-H ,  6-C ) :   0.1133 B(  5-H ,  6-C ) :   0.2290
B(  6-C , 19-O ) :   1.7593 B(  6-C , 20-F ) :   0.6009 B(  7-C ,  8-N ) :   0.9913
B(  7-C ,  9-C ) :   1.7842 B(  7-C , 10-H ) :   0.2080 B(  7-C , 11-H ) :   0.3290
B(  7-C , 12-H ) :  -0.1824 B(  7-C , 13-H ) :   0.1343 B(  7-C , 14-H ) :   0.1141
B(  7-C , 15-H ) :   0.1037 B(  8-N ,  9-C ) :   0.1803 B(  8-N , 13-H ) :   0.8415
B(  8-N , 14-H ) :   0.8941 B(  9-C , 10-H ) :   0.8539 B(  9-C , 11-H ) :   0.5301
B( 10-H , 11-H ) :   0.1591 B( 15-H , 16-H ) :  -0.1279

Dispersion correction           -0.022754360
FINAL SINGLE POINT ENERGY      -518.837175479228

DIPOLE MOMENT
-------------
                                X             Y             Z
Electronic contribution:      6.01388      -5.51163      -2.35592
Nuclear contribution   :     -6.29470       4.03423       3.50525
                        -----------------------------------------
Total Dipole Moment    :     -0.28083      -1.47740       1.14934
                        -----------------------------------------
Magnitude (a.u.)       :      1.89276
Magnitude (Debye)      :      4.81102

Rotational constants in cm-1:     0.061094     0.043661     0.033867
Rotational constants in MHz :  1831.559881  1308.929520  1015.295167

                             ****ORCA TERMINATED NORMALLY****
TOTAL RUN TIME: 0 days 0 hours 0 minutes 23 seconds 341 msec
