                         Program Version 5.0.0 -  RELEASE  -
|  1> !M062X D3Zero RIJCOSX def2-SVPD def2/J TightSCF
|  2> *xyz -1 1
|  3> C          1.69499        1.54179       -5.57045
|  4> S          1.78029       -0.03313       -6.42874
|  5> O          2.56929        0.21366       -7.60736
|  6> O          0.41688       -0.46297       -6.61859
|  7> O          2.50513       -0.93326       -5.48257
|  8> H          1.18489        2.25500       -6.18367
|  9> H          2.68564        1.89081       -5.36624
| 10> H          1.16361        1.41804       -4.65000
| 11> *
| 12> %MaxCore 64000
| 13>
| 14> %pal nprocs 8
| 15> end
| 16>
| 17> %scf
| 18>   MaxIter 150
| 19> end
| 20>
| 21>
| 22>                          ****END OF INPUT****

CARTESIAN COORDINATES (ANGSTROEM)
---------------------------------
  C      1.694990    1.541790   -5.570450
  S      1.780290   -0.033130   -6.428740
  O      2.569290    0.213660   -7.607360
  O      0.416880   -0.462970   -6.618590
  O      2.505130   -0.933260   -5.482570
  H      1.184890    2.255000   -6.183670
  H      2.685640    1.890810   -5.366240
  H      1.163610    1.418040   -4.650000

 Total Charge           Charge          ....   -1
 Multiplicity           Mult            ....    1
 Number of Electrons    NEL             ....   50
 Basis Dimension        Dim             ....  140

ORBITAL ENERGIES
----------------

  NO   OCC          E(Eh)            E(eV)
   0   2.0000     -89.936921     -2447.3080
   1   2.0000     -19.417855      -528.3867
   2   2.0000     -19.416697      -528.3552
   3   2.0000     -19.399365      -527.8836
   4   2.0000     -10.403125      -283.0834
   5   2.0000      -8.260202      -224.7715
   6   2.0000      -6.185522      -168.3166
   7   2.0000      -6.185357      -168.3121
   8   2.0000      -6.185130      -168.3059
   9   2.0000      -1.048459       -28.5300
  10   2.0000      -0.908409       -24.7191
  11   2.0000      -0.873408       -23.7666
  12   2.0000      -0.671801       -18.2806
  13   2.0000      -0.469882       -12.7862
  14   2.0000      -0.382882       -10.4188
  15   2.0000      -0.364709        -9.9242
  16   2.0000      -0.364145        -9.9089
  17   2.0000      -0.322879        -8.7860
  18   2.0000      -0.319679        -8.6989
  19   2.0000      -0.226707        -6.1690
  20   2.0000      -0.223186        -6.0732
  21   2.0000      -0.188301        -5.1239
  22   2.0000      -0.176028        -4.7900
  23   2.0000      -0.165347        -4.4993
  24   2.0000      -0.133624        -3.6361
  25   0.0000       0.163607         4.4520
  26   0.0000       0.186160         5.0657
  27   0.0000       0.186499         5.0749
  28   0.0000       0.193182         5.2567
  29   0.0000       0.225556         6.1377

MULLIKEN ATOMIC CHARGES
-----------------------
   0 C :    0.460022
   1 S :    1.199959
   2 O :   -0.796259
   3 O :   -0.797650
   4 O :   -0.846302
   5 H :   -0.077171
   6 H :   -0.068437
   7 H :   -0.074164
Sum of atomic charges:   -1.0000000

LOEWDIN ATOMIC CHARGES
----------------------
   0 C :    0.056396
   1 S :    0.871633
   2 O :   -0.595650
   3 O :   -0.594857
   4 O :   -0.624657
   5 H :   -0.039387
   6 H :   -0.036452
   7 H :   -0.037026

  Mayer bond orders larger than 0.100000
B(  0-C ,  1-S ) :   0.9260 B(  0-C ,  5-H ) :   0.9274 B(  0-C ,  6-H ) :   0.9281
B(  0-C ,  7-H ) :   0.9319 B(  1-S ,  2-O ) :   1.3065 B(  1-S ,  3-O ) :   1.3039
B(  1-S ,  4-O ) :   1.2658 B(  1-S ,  5-H ) :   0.1089 B(  1-S ,  6-H ) :   0.1204
B(  1-S ,  7-H ) :   0.1200

Dispersion correction           -0.000042812
FINAL SINGLE POINT ENERGY      -663.358740309795

DIPOLE MOMENT
-------------
                                X             Y             Z
Electronic contribution:      0.11390      -3.65334      -2.16543
Nuclear contribution   :     -0.31747       5.08000       2.69095
                        -----------------------------------------
Total Dipole Moment    :     -0.20358       1.42665       0.52552
                        -----------------------------------------
Magnitude (a.u.)       :      1.53393
Magnitude (Debye)      :      3.89895

Rotational constants in cm-1:     0.172246     0.157831     0.154490
Rotational constants in MHz :  5163.797750  4731.657963  4631.481993

                             ****ORCA TERMINATED NORMALLY****
TOTAL RUN TIME: 0 days 0 hours 0 minutes 8 seconds 294 msec
