                         Program Version 5.0.0 -  RELEASE  -
|  1> !M062X D3Zero RIJCOSX def2-SVPD def2/J TightSCF
|  2> *xyz 1 1
|  3> C          1.96337       -1.74915       -1.89689
|  4> N          2.73849       -2.01517       -3.09711
|  5> C          4.04974       -2.15472       -3.15204
|  6> N          4.65821       -1.98629       -4.31866
|  7> N          4.76423       -2.45444       -2.05049
|  8> H          4.28736       -2.77626       -1.21750
|  9> H          5.75082       -2.65835       -2.12599
| 10> H          2.34518       -1.69027       -3.97145
| 11> H          4.10900       -1.59268       -5.07176
| 12> H          5.64910       -2.15646       -4.42724
| 13> H          0.92556       -1.68522       -2.14942
| 14> H          2.28268       -0.82430       -1.46378
| 15> H          2.11118       -2.54207       -1.19381
| 16> *
| 17> %MaxCore 64000
| 18>
| 19> %pal nprocs 8
| 20> end
| 21>
| 22> %scf
| 23>   MaxIter 150
| 24> end
| 25>
| 26>
| 27>                          ****END OF INPUT****

CARTESIAN COORDINATES (ANGSTROEM)
---------------------------------
  C      1.963370   -1.749150   -1.896890
  N      2.738490   -2.015170   -3.097110
  C      4.049740   -2.154720   -3.152040
  N      4.658210   -1.986290   -4.318660
  N      4.764230   -2.454440   -2.050490
  H      4.287360   -2.776260   -1.217500
  H      5.750820   -2.658350   -2.125990
  H      2.345180   -1.690270   -3.971450
  H      4.109000   -1.592680   -5.071760
  H      5.649100   -2.156460   -4.427240
  H      0.925560   -1.685220   -2.149420
  H      2.282680   -0.824300   -1.463780
  H      2.111180   -2.542070   -1.193810

 Total Charge           Charge          ....    1
 Multiplicity           Mult            ....    1
 Number of Electrons    NEL             ....   40
 Basis Dimension        Dim             ....  164

ORBITAL ENERGIES
----------------

  NO   OCC          E(Eh)            E(eV)
   0   2.0000     -14.993032      -407.9811
   1   2.0000     -14.991568      -407.9413
   2   2.0000     -14.990565      -407.9140
   3   2.0000     -10.896906      -296.5199
   4   2.0000     -10.758190      -292.7452
   5   2.0000      -1.325986       -36.0819
   6   2.0000      -1.204979       -32.7891
   7   2.0000      -1.191264       -32.4159
   8   2.0000      -0.996558       -27.1177
   9   2.0000      -0.911421       -24.8010
  10   2.0000      -0.866897       -23.5895
  11   2.0000      -0.836519       -22.7628
  12   2.0000      -0.769441       -20.9376
  13   2.0000      -0.762935       -20.7605
  14   2.0000      -0.734409       -19.9843
  15   2.0000      -0.716103       -19.4862
  16   2.0000      -0.663420       -18.0526
  17   2.0000      -0.645844       -17.5743
  18   2.0000      -0.547178       -14.8895
  19   2.0000      -0.521600       -14.1935
  20   0.0000      -0.137395        -3.7387
  21   0.0000      -0.135695        -3.6925
  22   0.0000      -0.098511        -2.6806
  23   0.0000      -0.095497        -2.5986
  24   0.0000      -0.065415        -1.7800

MULLIKEN ATOMIC CHARGES
-----------------------
   0 C :    1.030118
   1 N :   -0.604859
   2 C :    1.468791
   3 N :   -0.169958
   4 N :   -0.084017
   5 H :   -0.039418
   6 H :   -0.099466
   7 H :   -0.169400
   8 H :    0.018848
   9 H :   -0.076231
  10 H :   -0.216151
  11 H :   -0.006071
  12 H :   -0.052187
Sum of atomic charges:    1.0000000

LOEWDIN ATOMIC CHARGES
----------------------
   0 C :    0.262279
   1 N :    0.002521
   2 C :   -0.026832
   3 N :    0.256919
   4 N :    0.274685
   5 H :    0.025565
   6 H :    0.038921
   7 H :    0.054156
   8 H :    0.040674
   9 H :    0.045964
  10 H :    0.015231
  11 H :    0.011281
  12 H :   -0.001364

  Mayer bond orders larger than 0.100000
B(  0-C ,  1-N ) :   0.9249 B(  0-C , 10-H ) :   0.8406 B(  0-C , 11-H ) :   0.8413
B(  0-C , 12-H ) :   0.8394 B(  1-N ,  2-C ) :   1.0408 B(  1-N ,  3-N ) :   0.2542
B(  1-N ,  4-N ) :   0.2062 B(  1-N ,  7-H ) :   1.2447 B(  1-N , 10-H ) :   0.1815
B(  1-N , 11-H ) :   0.1072 B(  1-N , 12-H ) :   0.1502 B(  2-C ,  3-N ) :   0.7676
B(  2-C ,  4-N ) :   0.9193 B(  2-C ,  5-H ) :  -0.1527 B(  2-C ,  6-H ) :  -0.1447
B(  2-C ,  7-H ) :  -0.1911 B(  2-C ,  8-H ) :  -0.1296 B(  2-C ,  9-H ) :  -0.1711
B(  3-N ,  4-N ) :   0.1483 B(  3-N ,  8-H ) :   1.1327 B(  3-N ,  9-H ) :   1.2767
B(  4-N ,  5-H ) :   1.1162 B(  4-N ,  6-H ) :   1.2351 B(  5-H ,  6-H ) :  -0.1967
B(  8-H ,  9-H ) :  -0.1821

Dispersion correction           -0.000174538
FINAL SINGLE POINT ENERGY      -244.796561603264

DIPOLE MOMENT
-------------
                                X             Y             Z
Electronic contribution:      2.04084      -0.55320      -1.79882
Nuclear contribution   :     -1.59972       0.59064       1.48941
                        -----------------------------------------
Total Dipole Moment    :      0.44112       0.03744      -0.30941
                        -----------------------------------------
Magnitude (a.u.)       :      0.54012
Magnitude (Debye)      :      1.37287

Rotational constants in cm-1:     0.309236     0.134358     0.096189
Rotational constants in MHz :  9270.657746  4027.948155  2883.671905

                             ****ORCA TERMINATED NORMALLY****
TOTAL RUN TIME: 0 days 0 hours 0 minutes 10 seconds 336 msec
