                         Program Version 5.0.0 -  RELEASE  -
|  1> !M062X D3Zero RIJCOSX def2-SVPD def2/J TightSCF
|  2> *xyz 0 1
|  3> C          1.69499        1.54179       -5.57045
|  4> S          1.78029       -0.03313       -6.42874
|  5> F          2.56929        0.21366       -7.60736
|  6> O          0.41688       -0.46297       -6.61859
|  7> O          2.50513       -0.93326       -5.48257
|  8> H          1.18489        2.25500       -6.18367
|  9> H          2.68564        1.89081       -5.36624
| 10> H          1.16361        1.41804       -4.65000
| 11> *
| 12> %MaxCore 64000
| 13>
| 14> %pal nprocs 8
| 15> end
| 16>
| 17> %scf
| 18>   MaxIter 150
| 19> end
| 20>
| 21>
| 22>                          ****END OF INPUT****

CARTESIAN COORDINATES (ANGSTROEM)
---------------------------------
  C      1.694990    1.541790   -5.570450
  S      1.780290   -0.033130   -6.428740
  F      2.569290    0.213660   -7.607360
  O      0.416880   -0.462970   -6.618590
  O      2.505130   -0.933260   -5.482570
  H      1.184890    2.255000   -6.183670
  H      2.685640    1.890810   -5.366240
  H      1.163610    1.418040   -4.650000

 Total Charge           Charge          ....    0
 Multiplicity           Mult            ....    1
 Number of Electrons    NEL             ....   50
 Basis Dimension        Dim             ....  140

ORBITAL ENERGIES
----------------

  NO   OCC          E(Eh)            E(eV)
   0   2.0000     -90.206003     -2454.6301
   1   2.0000     -25.386036      -690.7892
   2   2.0000     -19.659623      -534.9655
   3   2.0000     -19.640493      -534.4450
   4   2.0000     -10.615357      -288.8586
   5   2.0000      -8.530118      -232.1163
   6   2.0000      -6.458612      -175.7478
   7   2.0000      -6.453121      -175.5983
   8   2.0000      -6.452334      -175.5769
   9   2.0000      -1.525836       -41.5201
  10   2.0000      -1.230508       -33.4838
  11   2.0000      -1.117045       -30.3963
  12   2.0000      -0.900855       -24.5135
  13   2.0000      -0.822385       -22.3782
  14   2.0000      -0.706464       -19.2239
  15   2.0000      -0.696880       -18.9631
  16   2.0000      -0.647201       -17.6112
  17   2.0000      -0.560301       -15.2466
  18   2.0000      -0.556425       -15.1411
  19   2.0000      -0.541448       -14.7335
  20   2.0000      -0.515471       -14.0267
  21   2.0000      -0.466215       -12.6864
  22   2.0000      -0.414819       -11.2878
  23   2.0000      -0.397526       -10.8172
  24   2.0000      -0.382412       -10.4060
  25   0.0000       0.004644         0.1264
  26   0.0000       0.038931         1.0594
  27   0.0000       0.044499         1.2109
  28   0.0000       0.047370         1.2890
  29   0.0000       0.067441         1.8352

MULLIKEN ATOMIC CHARGES
-----------------------
   0 C :    0.371846
   1 S :    1.347733
   2 F :   -0.395225
   3 O :   -0.656133
   4 O :   -0.705858
   5 H :    0.013710
   6 H :    0.018439
   7 H :    0.005486
Sum of atomic charges:   -0.0000000

LOEWDIN ATOMIC CHARGES
----------------------
   0 C :    0.127144
   1 S :    1.141223
   2 F :   -0.267070
   3 O :   -0.476450
   4 O :   -0.505125
   5 H :   -0.012474
   6 H :   -0.010215
   7 H :    0.002968

  Mayer bond orders larger than 0.100000
B(  0-C ,  1-S ) :   0.9937 B(  0-C ,  5-H ) :   0.9300 B(  0-C ,  6-H ) :   0.9300
B(  0-C ,  7-H ) :   0.9346 B(  1-S ,  2-F ) :   0.6617 B(  1-S ,  3-O ) :   1.5249
B(  1-S ,  4-O ) :   1.4837 B(  1-S ,  7-H ) :   0.1167

Dispersion correction           -0.000047795
FINAL SINGLE POINT ENERGY      -687.838039159589

DIPOLE MOMENT
-------------
                                X             Y             Z
Electronic contribution:      1.40374      -3.16882      -4.14359
Nuclear contribution   :     -1.09446       4.91008       3.93848
                        -----------------------------------------
Total Dipole Moment    :      0.30927       1.74126      -0.20511
                        -----------------------------------------
Magnitude (a.u.)       :      1.78037
Magnitude (Debye)      :      4.52534

Rotational constants in cm-1:     0.163326     0.155515     0.146672
Rotational constants in MHz :  4896.387829  4662.220576  4397.127261

                             ****ORCA TERMINATED NORMALLY****
TOTAL RUN TIME: 0 days 0 hours 0 minutes 7 seconds 877 msec
