                         Program Version 5.0.0 -  RELEASE  -
|  1> !M062X D3Zero RIJCOSX def2-SVPD def2/J TightSCF
|  2> *xyz 0 1
|  3> C          1.96337       -1.74915       -1.89689
|  4> C          2.73849       -2.01517       -3.09711
|  5> C          4.04974       -2.15472       -3.15204
|  6> N          4.65821       -1.98629       -4.31866
|  7> N          4.76423       -2.45444       -2.05049
|  8> H          4.28736       -2.77626       -1.21750
|  9> H          5.75082       -2.65835       -2.12599
| 10> H          2.34518       -1.69027       -3.97145
| 11> H          4.10900       -1.59268       -5.07176
| 12> H          5.64910       -2.15646       -4.42724
| 13> H          0.92556       -1.68522       -2.14942
| 14> H          2.28268       -0.82430       -1.46378
| 15> H          2.11118       -2.54207       -1.19381
| 16> *
| 17> %MaxCore 64000
| 18>
| 19> %pal nprocs 8
| 20> end
| 21>
| 22> %scf
| 23>   MaxIter 150
| 24> end
| 25>
| 26>
| 27>                          ****END OF INPUT****

CARTESIAN COORDINATES (ANGSTROEM)
---------------------------------
  C      1.963370   -1.749150   -1.896890
  C      2.738490   -2.015170   -3.097110
  C      4.049740   -2.154720   -3.152040
  N      4.658210   -1.986290   -4.318660
  N      4.764230   -2.454440   -2.050490
  H      4.287360   -2.776260   -1.217500
  H      5.750820   -2.658350   -2.125990
  H      2.345180   -1.690270   -3.971450
  H      4.109000   -1.592680   -5.071760
  H      5.649100   -2.156460   -4.427240
  H      0.925560   -1.685220   -2.149420
  H      2.282680   -0.824300   -1.463780
  H      2.111180   -2.542070   -1.193810

 Total Charge           Charge          ....    0
 Multiplicity           Mult            ....    1
 Number of Electrons    NEL             ....   40
 Basis Dimension        Dim             ....  164

ORBITAL ENERGIES
----------------

  NO   OCC          E(Eh)            E(eV)
   0   2.0000     -14.763378      -401.7319
   1   2.0000     -14.759041      -401.6139
   2   2.0000     -10.593291      -288.2581
   3   2.0000     -10.513801      -286.0951
   4   2.0000     -10.470570      -284.9187
   5   2.0000      -1.058764       -28.8104
   6   2.0000      -0.962073       -26.1793
   7   2.0000      -0.842183       -22.9170
   8   2.0000      -0.739215       -20.1151
   9   2.0000      -0.661849       -18.0098
  10   2.0000      -0.616040       -16.7633
  11   2.0000      -0.581727       -15.8296
  12   2.0000      -0.540781       -14.7154
  13   2.0000      -0.491786       -13.3822
  14   2.0000      -0.482389       -13.1265
  15   2.0000      -0.445872       -12.1328
  16   2.0000      -0.421781       -11.4772
  17   2.0000      -0.399267       -10.8646
  18   2.0000      -0.330115        -8.9829
  19   2.0000      -0.209427        -5.6988
  20   0.0000       0.035355         0.9621
  21   0.0000       0.062910         1.7119
  22   0.0000       0.072517         1.9733
  23   0.0000       0.099847         2.7170
  24   0.0000       0.102742         2.7957

MULLIKEN ATOMIC CHARGES
-----------------------
   0 C :    0.841192
   1 C :   -0.633001
   2 C :    0.952937
   3 N :   -0.094949
   4 N :   -0.116697
   5 H :   -0.044221
   6 H :   -0.244304
   7 H :   -0.303208
   8 H :    0.012324
   9 H :   -0.181944
  10 H :   -0.047288
  11 H :   -0.096933
  12 H :   -0.043906
Sum of atomic charges:   -0.0000000

LOEWDIN ATOMIC CHARGES
----------------------
   0 C :    0.086636
   1 C :   -0.073817
   2 C :   -0.227326
   3 N :    0.165585
   4 N :    0.191657
   5 H :   -0.006113
   6 H :   -0.010635
   7 H :   -0.058479
   8 H :    0.007021
   9 H :   -0.005240
  10 H :   -0.018509
  11 H :   -0.018291
  12 H :   -0.032488

  Mayer bond orders larger than 0.100000
B(  0-C ,  1-C ) :   1.1821 B(  0-C ,  7-H ) :   0.1765 B(  0-C , 10-H ) :   0.7464
B(  0-C , 11-H ) :   0.7712 B(  0-C , 12-H ) :   0.7094 B(  1-C ,  2-C ) :   1.6777
B(  1-C ,  3-N ) :   0.2874 B(  1-C ,  4-N ) :   0.2430 B(  1-C ,  7-H ) :   0.9470
B(  1-C , 10-H ) :   0.2833 B(  1-C , 11-H ) :   0.1276 B(  1-C , 12-H ) :   0.2899
B(  2-C ,  3-N ) :   0.8363 B(  2-C ,  4-N ) :   0.8366 B(  2-C ,  6-H ) :  -0.1953
B(  2-C ,  7-H ) :   0.2292 B(  2-C ,  9-H ) :  -0.1193 B(  3-N ,  8-H ) :   1.1241
B(  3-N ,  9-H ) :   1.2805 B(  4-N ,  5-H ) :   1.0785 B(  4-N ,  6-H ) :   1.3432
B(  5-H ,  6-H ) :  -0.1966 B(  8-H ,  9-H ) :  -0.1788

Dispersion correction           -0.000173564
FINAL SINGLE POINT ENERGY      -228.332128163807

DIPOLE MOMENT
-------------
                                X             Y             Z
Electronic contribution:      2.72049      -0.66211      -1.58348
Nuclear contribution   :     -1.78367       0.60166       1.44982
                        -----------------------------------------
Total Dipole Moment    :      0.93683      -0.06046      -0.13367
                        -----------------------------------------
Magnitude (a.u.)       :      0.94824
Magnitude (Debye)      :      2.41025

Rotational constants in cm-1:     0.313991     0.135452     0.097139
Rotational constants in MHz :  9413.212964  4060.745953  2912.144668

                             ****ORCA TERMINATED NORMALLY****
TOTAL RUN TIME: 0 days 0 hours 0 minutes 11 seconds 82 msec
