                         Program Version 5.0.0 -  RELEASE  -
|  1> !M062X D3Zero RIJCOSX def2-SVPD def2/J TightSCF
|  2> *xyz 0 1
|  3> C          1.69499        1.54179       -5.57045
|  4> S          1.78029       -0.03313       -6.42874
|  5> O          2.56929        0.21366       -7.60736
|  6> F          0.41688       -0.46297       -6.61859
|  7> O          2.50513       -0.93326       -5.48257
|  8> H          1.18489        2.25500       -6.18367
|  9> H          2.68564        1.89081       -5.36624
| 10> H          1.16361        1.41804       -4.65000
| 11> *
| 12> %MaxCore 64000
| 13>
| 14> %pal nprocs 8
| 15> end
| 16>
| 17> %scf
| 18>   MaxIter 150
| 19> end
| 20>
| 21>
| 22>                          ****END OF INPUT****

CARTESIAN COORDINATES (ANGSTROEM)
---------------------------------
  C      1.694990    1.541790   -5.570450
  S      1.780290   -0.033130   -6.428740
  O      2.569290    0.213660   -7.607360
  F      0.416880   -0.462970   -6.618590
  O      2.505130   -0.933260   -5.482570
  H      1.184890    2.255000   -6.183670
  H      2.685640    1.890810   -5.366240
  H      1.163610    1.418040   -4.650000

 Total Charge           Charge          ....    0
 Multiplicity           Mult            ....    1
 Number of Electrons    NEL             ....   50
 Basis Dimension        Dim             ....  140

ORBITAL ENERGIES
----------------

  NO   OCC          E(Eh)            E(eV)
   0   2.0000     -90.205779     -2454.6240
   1   2.0000     -25.386482      -690.8013
   2   2.0000     -19.658539      -534.9360
   3   2.0000     -19.640464      -534.4442
   4   2.0000     -10.615439      -288.8608
   5   2.0000      -8.529917      -232.1108
   6   2.0000      -6.458382      -175.7415
   7   2.0000      -6.452928      -175.5931
   8   2.0000      -6.452140      -175.5716
   9   2.0000      -1.524742       -41.4903
  10   2.0000      -1.231598       -33.5135
  11   2.0000      -1.116709       -30.3872
  12   2.0000      -0.900404       -24.5012
  13   2.0000      -0.822406       -22.3788
  14   2.0000      -0.706087       -19.2136
  15   2.0000      -0.696445       -18.9512
  16   2.0000      -0.646841       -17.6014
  17   2.0000      -0.560467       -15.2511
  18   2.0000      -0.556432       -15.1413
  19   2.0000      -0.541907       -14.7460
  20   2.0000      -0.515316       -14.0225
  21   2.0000      -0.466401       -12.6914
  22   2.0000      -0.414115       -11.2686
  23   2.0000      -0.397424       -10.8144
  24   2.0000      -0.381868       -10.3912
  25   0.0000       0.004347         0.1183
  26   0.0000       0.038881         1.0580
  27   0.0000       0.044415         1.2086
  28   0.0000       0.047286         1.2867
  29   0.0000       0.066501         1.8096

MULLIKEN ATOMIC CHARGES
-----------------------
   0 C :    0.373531
   1 S :    1.347881
   2 O :   -0.655344
   3 F :   -0.398553
   4 O :   -0.705005
   5 H :    0.013380
   6 H :    0.010168
   7 H :    0.013942
Sum of atomic charges:    0.0000000

LOEWDIN ATOMIC CHARGES
----------------------
   0 C :    0.127325
   1 S :    1.141543
   2 O :   -0.477400
   3 F :   -0.266807
   4 O :   -0.504924
   5 H :   -0.012484
   6 H :    0.003375
   7 H :   -0.010629

  Mayer bond orders larger than 0.100000
B(  0-C ,  1-S ) :   0.9936 B(  0-C ,  5-H ) :   0.9296 B(  0-C ,  6-H ) :   0.9306
B(  0-C ,  7-H ) :   0.9340 B(  1-S ,  2-O ) :   1.5268 B(  1-S ,  3-F ) :   0.6562
B(  1-S ,  4-O ) :   1.4828 B(  1-S ,  6-H ) :   0.1166

Dispersion correction           -0.000047874
FINAL SINGLE POINT ENERGY      -687.837343841980

DIPOLE MOMENT
-------------
                                X             Y             Z
Electronic contribution:     -2.19409      -4.29854      -2.48793
Nuclear contribution   :      1.05593       5.58608       2.95063
                        -----------------------------------------
Total Dipole Moment    :     -1.13816       1.28754       0.46271
                        -----------------------------------------
Magnitude (a.u.)       :      1.77968
Magnitude (Debye)      :      4.52359

Rotational constants in cm-1:     0.163930     0.155251     0.146268
Rotational constants in MHz :  4914.487830  4654.318941  4385.000376

                             ****ORCA TERMINATED NORMALLY****
TOTAL RUN TIME: 0 days 0 hours 0 minutes 7 seconds 769 msec
