                         Program Version 5.0.0 -  RELEASE  -
|  1> !M062X D3Zero RIJCOSX def2-SVPD def2/J TightSCF
|  2> *xyz 0 1
|  3> C          1.96337       -1.74915       -1.89689
|  4> N          2.73849       -2.01517       -3.09711
|  5> C          4.04974       -2.15472       -3.15204
|  6> C          4.65821       -1.98629       -4.31866
|  7> N          4.76423       -2.45444       -2.05049
|  8> H          4.28736       -2.77626       -1.21750
|  9> H          5.75082       -2.65835       -2.12599
| 10> H          2.34518       -1.69027       -3.97145
| 11> H          4.10900       -1.59268       -5.07176
| 12> H          5.64910       -2.15646       -4.42724
| 13> H          0.92556       -1.68522       -2.14942
| 14> H          2.28268       -0.82430       -1.46378
| 15> H          2.11118       -2.54207       -1.19381
| 16> *
| 17> %MaxCore 64000
| 18>
| 19> %pal nprocs 8
| 20> end
| 21>
| 22> %scf
| 23>   MaxIter 150
| 24> end
| 25>
| 26>
| 27>                          ****END OF INPUT****

CARTESIAN COORDINATES (ANGSTROEM)
---------------------------------
  C      1.963370   -1.749150   -1.896890
  N      2.738490   -2.015170   -3.097110
  C      4.049740   -2.154720   -3.152040
  C      4.658210   -1.986290   -4.318660
  N      4.764230   -2.454440   -2.050490
  H      4.287360   -2.776260   -1.217500
  H      5.750820   -2.658350   -2.125990
  H      2.345180   -1.690270   -3.971450
  H      4.109000   -1.592680   -5.071760
  H      5.649100   -2.156460   -4.427240
  H      0.925560   -1.685220   -2.149420
  H      2.282680   -0.824300   -1.463780
  H      2.111180   -2.542070   -1.193810

 Total Charge           Charge          ....    0
 Multiplicity           Mult            ....    1
 Number of Electrons    NEL             ....   40
 Basis Dimension        Dim             ....  164

ORBITAL ENERGIES
----------------

  NO   OCC          E(Eh)            E(eV)
   0   2.0000     -14.761983      -401.6940
   1   2.0000     -14.761162      -401.6716
   2   2.0000     -10.596875      -288.3556
   3   2.0000     -10.583158      -287.9824
   4   2.0000     -10.462762      -284.7062
   5   2.0000      -1.068340       -29.0710
   6   2.0000      -0.975055       -26.5326
   7   2.0000      -0.833464       -22.6797
   8   2.0000      -0.749542       -20.3961
   9   2.0000      -0.677981       -18.4488
  10   2.0000      -0.608690       -16.5633
  11   2.0000      -0.564594       -15.3634
  12   2.0000      -0.544832       -14.8256
  13   2.0000      -0.528549       -14.3825
  14   2.0000      -0.469020       -12.7627
  15   2.0000      -0.455292       -12.3891
  16   2.0000      -0.454021       -12.3545
  17   2.0000      -0.429420       -11.6851
  18   2.0000      -0.319625        -8.6974
  19   2.0000      -0.214699        -5.8423
  20   0.0000       0.031315         0.8521
  21   0.0000       0.063897         1.7387
  22   0.0000       0.070639         1.9222
  23   0.0000       0.100079         2.7233
  24   0.0000       0.103914         2.8276

MULLIKEN ATOMIC CHARGES
-----------------------
   0 C :    1.041199
   1 N :   -0.572094
   2 C :    0.786674
   3 C :    0.268927
   4 N :    0.004965
   5 H :   -0.134643
   6 H :   -0.116855
   7 H :   -0.195450
   8 H :   -0.250954
   9 H :   -0.407200
  10 H :   -0.269729
  11 H :   -0.041610
  12 H :   -0.113231
Sum of atomic charges:    0.0000000

LOEWDIN ATOMIC CHARGES
----------------------
   0 C :    0.206730
   1 N :   -0.062886
   2 C :   -0.240310
   3 C :    0.145200
   4 N :    0.188650
   5 H :   -0.020099
   6 H :    0.006478
   7 H :    0.027762
   8 H :   -0.101486
   9 H :   -0.099828
  10 H :   -0.011110
  11 H :   -0.014846
  12 H :   -0.024254

  Mayer bond orders larger than 0.100000
B(  0-C ,  1-N ) :   0.9247 B(  0-C , 10-H ) :   0.8306 B(  0-C , 11-H ) :   0.8359
B(  0-C , 12-H ) :   0.8331 B(  1-N ,  2-C ) :   1.0497 B(  1-N ,  3-C ) :   0.2280
B(  1-N ,  4-N ) :   0.1449 B(  1-N ,  7-H ) :   1.2016 B(  1-N , 10-H ) :   0.1758
B(  1-N , 11-H ) :   0.1154 B(  1-N , 12-H ) :   0.1685 B(  2-C ,  3-C ) :   1.4020
B(  2-C ,  4-N ) :   0.9102 B(  2-C ,  6-H ) :  -0.1007 B(  2-C ,  7-H ) :  -0.1468
B(  2-C ,  9-H ) :   0.1156 B(  3-C ,  4-N ) :   0.1890 B(  3-C ,  8-H ) :   0.8802
B(  3-C ,  9-H ) :   0.8761 B(  4-N ,  5-H ) :   1.1115 B(  4-N ,  6-H ) :   1.2005
B(  5-H ,  6-H ) :  -0.1967

Dispersion correction           -0.000170594
FINAL SINGLE POINT ENERGY      -228.325023068689

DIPOLE MOMENT
-------------
                                X             Y             Z
Electronic contribution:      0.86642      -0.64085      -0.33527
Nuclear contribution   :     -1.39484       0.60751       1.20240
                        -----------------------------------------
Total Dipole Moment    :     -0.52842      -0.03334       0.86713
                        -----------------------------------------
Magnitude (a.u.)       :      1.01599
Magnitude (Debye)      :      2.58245

Rotational constants in cm-1:     0.316419     0.139940     0.099730
Rotational constants in MHz :  9485.991536  4195.289338  2989.818216

                             ****ORCA TERMINATED NORMALLY****
TOTAL RUN TIME: 0 days 0 hours 0 minutes 10 seconds 992 msec
