                         Program Version 5.0.0 -  RELEASE  -
|  1> !M062X D3Zero RIJCOSX def2-SVPD def2/J TightSCF
|  2> *xyz 0 1
|  3> C          1.69499        1.54179       -5.57045
|  4> S          1.78029       -0.03313       -6.42874
|  5> O          2.56929        0.21366       -7.60736
|  6> O          0.41688       -0.46297       -6.61859
|  7> F          2.50513       -0.93326       -5.48257
|  8> H          1.18489        2.25500       -6.18367
|  9> H          2.68564        1.89081       -5.36624
| 10> H          1.16361        1.41804       -4.65000
| 11> *
| 12> %MaxCore 64000
| 13>
| 14> %pal nprocs 8
| 15> end
| 16>
| 17> %scf
| 18>   MaxIter 150
| 19> end
| 20>
| 21>
| 22>                          ****END OF INPUT****

CARTESIAN COORDINATES (ANGSTROEM)
---------------------------------
  C      1.694990    1.541790   -5.570450
  S      1.780290   -0.033130   -6.428740
  O      2.569290    0.213660   -7.607360
  O      0.416880   -0.462970   -6.618590
  F      2.505130   -0.933260   -5.482570
  H      1.184890    2.255000   -6.183670
  H      2.685640    1.890810   -5.366240
  H      1.163610    1.418040   -4.650000

 Total Charge           Charge          ....    0
 Multiplicity           Mult            ....    1
 Number of Electrons    NEL             ....   50
 Basis Dimension        Dim             ....  140

ORBITAL ENERGIES
----------------

  NO   OCC          E(Eh)            E(eV)
   0   2.0000     -90.203829     -2454.5710
   1   2.0000     -25.359156      -690.0577
   2   2.0000     -19.658935      -534.9468
   3   2.0000     -19.657720      -534.9138
   4   2.0000     -10.614097      -288.8243
   5   2.0000      -8.527641      -232.0489
   6   2.0000      -6.455857      -175.6728
   7   2.0000      -6.450956      -175.5394
   8   2.0000      -6.450170      -175.5181
   9   2.0000      -1.479462       -40.2582
  10   2.0000      -1.243417       -33.8351
  11   2.0000      -1.145612       -31.1737
  12   2.0000      -0.896451       -24.3937
  13   2.0000      -0.798459       -21.7272
  14   2.0000      -0.681685       -18.5496
  15   2.0000      -0.664689       -18.0871
  16   2.0000      -0.644802       -17.5459
  17   2.0000      -0.564420       -15.3587
  18   2.0000      -0.558492       -15.1973
  19   2.0000      -0.539733       -14.6869
  20   2.0000      -0.523813       -14.2537
  21   2.0000      -0.473505       -12.8847
  22   2.0000      -0.422947       -11.5090
  23   2.0000      -0.412327       -11.2200
  24   2.0000      -0.401855       -10.9350
  25   0.0000       0.008199         0.2231
  26   0.0000       0.040747         1.1088
  27   0.0000       0.045835         1.2472
  28   0.0000       0.046557         1.2669
  29   0.0000       0.066606         1.8125

MULLIKEN ATOMIC CHARGES
-----------------------
   0 C :    0.370852
   1 S :    1.361994
   2 O :   -0.672413
   3 O :   -0.673025
   4 F :   -0.421675
   5 H :    0.004913
   6 H :    0.016855
   7 H :    0.012498
Sum of atomic charges:   -0.0000000

LOEWDIN ATOMIC CHARGES
----------------------
   0 C :    0.127626
   1 S :    1.137460
   2 O :   -0.478358
   3 O :   -0.477136
   4 F :   -0.289719
   5 H :    0.001277
   6 H :   -0.010290
   7 H :   -0.010860

  Mayer bond orders larger than 0.100000
B(  0-C ,  1-S ) :   0.9942 B(  0-C ,  5-H ) :   0.9286 B(  0-C ,  6-H ) :   0.9320
B(  0-C ,  7-H ) :   0.9358 B(  1-S ,  2-O ) :   1.5224 B(  1-S ,  3-O ) :   1.5200
B(  1-S ,  4-F ) :   0.6064 B(  1-S ,  5-H ) :   0.1086

Dispersion correction           -0.000047798
FINAL SINGLE POINT ENERGY      -687.860998965850

DIPOLE MOMENT
-------------
                                X             Y             Z
Electronic contribution:      1.31402      -5.10546      -0.55935
Nuclear contribution   :     -1.03036       6.05593       1.81567
                        -----------------------------------------
Total Dipole Moment    :      0.28366       0.95047       1.25632
                        -----------------------------------------
Magnitude (a.u.)       :      1.60069
Magnitude (Debye)      :      4.06862

Rotational constants in cm-1:     0.164224     0.152173     0.148737
Rotational constants in MHz :  4923.310232  4562.031098  4459.033187

                             ****ORCA TERMINATED NORMALLY****
TOTAL RUN TIME: 0 days 0 hours 0 minutes 7 seconds 845 msec
