                         Program Version 5.0.0 -  RELEASE  -
|  1> !M062X D3Zero RIJCOSX def2-SVPD def2/J TightSCF
|  2> *xyz 0 1
|  3> C          1.96337       -1.74915       -1.89689
|  4> N          2.73849       -2.01517       -3.09711
|  5> C          4.04974       -2.15472       -3.15204
|  6> N          4.65821       -1.98629       -4.31866
|  7> C          4.76423       -2.45444       -2.05049
|  8> H          4.28736       -2.77626       -1.21750
|  9> H          5.75082       -2.65835       -2.12599
| 10> H          2.34518       -1.69027       -3.97145
| 11> H          4.10900       -1.59268       -5.07176
| 12> H          5.64910       -2.15646       -4.42724
| 13> H          0.92556       -1.68522       -2.14942
| 14> H          2.28268       -0.82430       -1.46378
| 15> H          2.11118       -2.54207       -1.19381
| 16> *
| 17> %MaxCore 64000
| 18>
| 19> %pal nprocs 8
| 20> end
| 21>
| 22> %scf
| 23>   MaxIter 150
| 24> end
| 25>
| 26>
| 27>                          ****END OF INPUT****

CARTESIAN COORDINATES (ANGSTROEM)
---------------------------------
  C      1.963370   -1.749150   -1.896890
  N      2.738490   -2.015170   -3.097110
  C      4.049740   -2.154720   -3.152040
  N      4.658210   -1.986290   -4.318660
  C      4.764230   -2.454440   -2.050490
  H      4.287360   -2.776260   -1.217500
  H      5.750820   -2.658350   -2.125990
  H      2.345180   -1.690270   -3.971450
  H      4.109000   -1.592680   -5.071760
  H      5.649100   -2.156460   -4.427240
  H      0.925560   -1.685220   -2.149420
  H      2.282680   -0.824300   -1.463780
  H      2.111180   -2.542070   -1.193810

 Total Charge           Charge          ....    0
 Multiplicity           Mult            ....    1
 Number of Electrons    NEL             ....   40
 Basis Dimension        Dim             ....  164

ORBITAL ENERGIES
----------------

  NO   OCC          E(Eh)            E(eV)
   0   2.0000     -14.766078      -401.8054
   1   2.0000     -14.763203      -401.7272
   2   2.0000     -10.598491      -288.3996
   3   2.0000     -10.576744      -287.8078
   4   2.0000     -10.464729      -284.7598
   5   2.0000      -1.074504       -29.2387
   6   2.0000      -0.978857       -26.6361
   7   2.0000      -0.806703       -21.9515
   8   2.0000      -0.780990       -21.2518
   9   2.0000      -0.645231       -17.5576
  10   2.0000      -0.621559       -16.9135
  11   2.0000      -0.598904       -16.2970
  12   2.0000      -0.524507       -14.2726
  13   2.0000      -0.516933       -14.0665
  14   2.0000      -0.482819       -13.1382
  15   2.0000      -0.448580       -12.2065
  16   2.0000      -0.440405       -11.9840
  17   2.0000      -0.433184       -11.7875
  18   2.0000      -0.314920        -8.5694
  19   2.0000      -0.217825        -5.9273
  20   0.0000       0.033542         0.9127
  21   0.0000       0.055793         1.5182
  22   0.0000       0.070725         1.9245
  23   0.0000       0.101698         2.7674
  24   0.0000       0.105892         2.8815

MULLIKEN ATOMIC CHARGES
-----------------------
   0 C :    1.054858
   1 N :   -0.549877
   2 C :    0.709428
   3 N :   -0.031600
   4 C :    0.347994
   5 H :   -0.084984
   6 H :   -0.589607
   7 H :   -0.312225
   8 H :   -0.108532
   9 H :   -0.100001
  10 H :   -0.296289
  11 H :   -0.068267
  12 H :    0.029101
Sum of atomic charges:    0.0000000

LOEWDIN ATOMIC CHARGES
----------------------
   0 C :    0.214661
   1 N :   -0.066065
   2 C :   -0.246568
   3 N :    0.172746
   4 C :    0.165178
   5 H :   -0.114514
   6 H :   -0.107287
   7 H :    0.014236
   8 H :   -0.007485
   9 H :    0.013379
  10 H :   -0.012452
  11 H :   -0.009874
  12 H :   -0.015954

  Mayer bond orders larger than 0.100000
B(  0-C ,  1-N ) :   0.9195 B(  0-C ,  7-H ) :  -0.1138 B(  0-C , 10-H ) :   0.8540
B(  0-C , 11-H ) :   0.8278 B(  0-C , 12-H ) :   0.8301 B(  1-N ,  2-C ) :   0.9740
B(  1-N ,  3-N ) :   0.1600 B(  1-N ,  4-C ) :   0.3130 B(  1-N ,  7-H ) :   1.2830
B(  1-N , 10-H ) :   0.1672 B(  1-N , 11-H ) :   0.1496 B(  2-C ,  3-N ) :   0.8380
B(  2-C ,  4-C ) :   1.7033 B(  2-C ,  5-H ) :   0.2334 B(  2-C ,  6-H ) :   0.1077
B(  2-C ,  7-H ) :  -0.1612 B(  2-C ,  9-H ) :  -0.1156 B(  3-N ,  4-C ) :   0.2034
B(  3-N ,  8-H ) :   1.1528 B(  3-N ,  9-H ) :   1.2487 B(  4-C ,  5-H ) :   0.6931
B(  4-C ,  6-H ) :   0.9662 B(  8-H ,  9-H ) :  -0.1755

Dispersion correction           -0.000172072
FINAL SINGLE POINT ENERGY      -228.325991057784

DIPOLE MOMENT
-------------
                                X             Y             Z
Electronic contribution:      0.79012      -0.12716      -2.53142
Nuclear contribution   :     -1.37336       0.51269       1.66180
                        -----------------------------------------
Total Dipole Moment    :     -0.58325       0.38552      -0.86961
                        -----------------------------------------
Magnitude (a.u.)       :      1.11581
Magnitude (Debye)      :      2.83617

Rotational constants in cm-1:     0.331915     0.135033     0.098638
Rotational constants in MHz :  9950.555862  4048.179255  2957.099162

                             ****ORCA TERMINATED NORMALLY****
TOTAL RUN TIME: 0 days 0 hours 0 minutes 10 seconds 758 msec
