                         Program Version 5.0.0 -  RELEASE  -
|  1> !M062X D3Zero RIJCOSX def2-SVPD def2/J TightSCF xyzfile
|  2>
|  3> *xyzfile 0 1 D4.xyz
|  4>
|  5> %MaxCore 64000
|  6>
|  7> %pal nprocs 4
|  8> end
|  9>
| 10> %scf
| 11>   MaxIter 150
| 12> end
| 13>
| 14>
| 15>                          ****END OF INPUT****

CARTESIAN COORDINATES (ANGSTROEM)
---------------------------------
  C      1.963365   -1.749150   -1.896887
  C      2.738490   -2.015170   -3.097113
  C      0.611877    1.657634   -4.500288
  C      1.694991    1.541794   -5.570447
  H      2.697326    1.734659   -5.183996
  H      1.506656    2.272239   -6.358076
  S      1.780287   -0.033128   -6.428739
  C      4.049736   -2.154717   -3.152044
  N      4.658206   -1.986293   -4.318655
  N      4.764231   -2.454435   -2.050491
  H      4.287363   -2.776259   -1.217496
  H      5.750825   -2.658351   -2.125988
  H      2.345176   -1.690274   -3.971447
  H      4.109004   -1.592677   -5.071760
  H      5.649095   -2.156462   -4.427237
  O      2.569287    0.213657   -7.607360
  F      0.416880   -0.462969   -6.618595
  C      2.088520   -0.300912   -1.415204
  H      2.231272   -2.451616   -1.102643
  H      0.930249   -1.977801   -2.155438
  C      0.680356    0.655418   -3.348038
  H     -0.356865    1.549231   -4.991128
  H      0.650228    2.675438   -4.096000
  C      1.968993    0.733582   -2.535654
  H      3.051356   -0.168602   -0.911868
  H      1.316501   -0.136231   -0.657252
  O      2.505129   -0.933263   -5.482570
  H      2.824195    0.624726   -3.208464
  H      2.058919    1.730331   -2.093112
  H      0.542252   -0.344731   -3.766662
  H     -0.174219    0.829692   -2.685182

 Total Charge           Charge          ....    0
 Multiplicity           Mult            ....    1
 Number of Electrons    NEL             ....  120
 Basis Dimension        Dim             ....  432

ORBITAL ENERGIES
----------------

  NO   OCC          E(Eh)            E(eV)
   0   2.0000     -90.209718     -2454.7312
   1   2.0000     -25.390403      -690.9080
   2   2.0000     -19.663905      -535.0821
   3   2.0000     -19.648775      -534.6703
   4   2.0000     -14.746443      -401.2711
   5   2.0000     -14.729631      -400.8136
   6   2.0000     -10.618228      -288.9367
   7   2.0000     -10.582842      -287.9738
   8   2.0000     -10.573757      -287.7266
   9   2.0000     -10.554472      -287.2018
  10   2.0000     -10.538381      -286.7639
  11   2.0000     -10.526408      -286.4381
  12   2.0000     -10.514103      -286.1033
  13   2.0000     -10.439480      -284.0727
  14   2.0000      -8.533121      -232.1980
  15   2.0000      -6.461630      -175.8299
  16   2.0000      -6.456443      -175.6887
  17   2.0000      -6.455055      -175.6510
  18   2.0000      -1.527530       -41.5662
  19   2.0000      -1.238874       -33.7115
  20   2.0000      -1.129798       -30.7434
  21   2.0000      -1.037718       -28.2377
  22   2.0000      -0.941922       -25.6310
  23   2.0000      -0.936964       -25.4961
  24   2.0000      -0.887320       -24.1452
  25   2.0000      -0.849231       -23.1087
  26   2.0000      -0.821234       -22.3469
  27   2.0000      -0.783891       -21.3307
  28   2.0000      -0.739202       -20.1147
  29   2.0000      -0.712746       -19.3948
  30   2.0000      -0.702614       -19.1191
  31   2.0000      -0.688345       -18.7308
  32   2.0000      -0.668290       -18.1851
  33   2.0000      -0.632595       -17.2138
  34   2.0000      -0.625574       -17.0227
  35   2.0000      -0.598685       -16.2910
  36   2.0000      -0.573367       -15.6021
  37   2.0000      -0.572128       -15.5684
  38   2.0000      -0.554279       -15.0827
  39   2.0000      -0.548411       -14.9230
  40   2.0000      -0.543783       -14.7971
  41   2.0000      -0.518026       -14.0962
  42   2.0000      -0.507802       -13.8180
  43   2.0000      -0.502035       -13.6611
  44   2.0000      -0.488969       -13.3055
  45   2.0000      -0.469132       -12.7657
  46   2.0000      -0.455178       -12.3860
  47   2.0000      -0.447595       -12.1797
  48   2.0000      -0.440276       -11.9805
  49   2.0000      -0.434695       -11.8286
  50   2.0000      -0.422623       -11.5002
  51   2.0000      -0.411296       -11.1919
  52   2.0000      -0.400794       -10.9062
  53   2.0000      -0.394441       -10.7333
  54   2.0000      -0.383372       -10.4321
  55   2.0000      -0.376357       -10.2412
  56   2.0000      -0.362278        -9.8581
  57   2.0000      -0.344177        -9.3655
  58   2.0000      -0.308539        -8.3958
  59   2.0000      -0.189964        -5.1692
  60   0.0000       0.006461         0.1758
  61   0.0000       0.030452         0.8286
  62   0.0000       0.035377         0.9627
  63   0.0000       0.043107         1.1730
  64   0.0000       0.054301         1.4776

MULLIKEN ATOMIC CHARGES
-----------------------
   0 C :    0.284606
   1 C :    0.112183
   2 C :    0.465720
   3 C :    0.121575
   4 H :    0.107741
   5 H :   -0.091157
   6 S :    1.607065
   7 C :    0.868160
   8 N :    0.028737
   9 N :   -0.115077
  10 H :   -0.012297
  11 H :   -0.259126
  12 H :   -0.512330
  13 H :   -0.154034
  14 H :   -0.262229
  15 O :   -0.709722
  16 F :   -0.484385
  17 C :    0.654005
  18 H :   -0.390550
  19 H :    0.127359
  20 C :    0.083276
  21 H :   -0.027929
  22 H :   -0.047134
  23 C :   -0.117879
  24 H :   -0.048493
  25 H :    0.032410
  26 O :   -0.725600
  27 H :    0.048871
  28 H :   -0.255113
  29 H :   -0.104444
  30 H :   -0.224210
Sum of atomic charges:    0.0000000

LOEWDIN ATOMIC CHARGES
----------------------
   0 C :   -0.050855
   1 C :   -0.025910
   2 C :   -0.035240
   3 C :   -0.029334
   4 H :    0.035123
   5 H :    0.023165
   6 S :    1.218022
   7 C :   -0.195203
   8 N :    0.197185
   9 N :    0.189014
  10 H :   -0.010704
  11 H :   -0.013608
  12 H :   -0.137558
  13 H :   -0.070968
  14 H :   -0.005412
  15 O :   -0.460041
  16 F :   -0.249495
  17 C :   -0.020515
  18 H :    0.000371
  19 H :    0.008691
  20 C :   -0.022307
  21 H :    0.024048
  22 H :    0.036848
  23 C :   -0.025861
  24 H :    0.018675
  25 H :    0.015374
  26 O :   -0.487412
  27 H :    0.009531
  28 H :    0.023338
  29 H :    0.006645
  30 H :    0.034391

  Mayer bond orders larger than 0.100000
B(  0-C ,  1-C ) :   1.0219 B(  0-C ,  7-C ) :   0.1309 B(  0-C , 12-H ) :   0.4263
B(  0-C , 17-C ) :   1.0947 B(  0-C , 18-H ) :   0.8463 B(  0-C , 19-H ) :   0.6590
B(  0-C , 23-C ) :   0.1265 B(  0-C , 24-H ) :   0.1316 B(  0-C , 25-H ) :   0.2002
B(  1-C ,  7-C ) :   1.7217 B(  1-C ,  8-N ) :   0.2425 B(  1-C ,  9-N ) :   0.2550
B(  1-C , 18-H ) :   0.2323 B(  1-C , 19-H ) :   0.2976 B(  1-C , 26-O ) :  -0.1319
B(  1-C , 27-H ) :  -0.1179 B(  1-C , 28-H ) :   0.1357 B(  2-C ,  3-C ) :   1.2502
B(  2-C ,  5-H ) :   0.1666 B(  2-C , 20-C ) :   1.2458 B(  2-C , 21-H ) :   0.6678
B(  2-C , 22-H ) :   0.8055 B(  3-C ,  4-H ) :   0.8882 B(  3-C ,  5-H ) :   0.8924
B(  3-C ,  6-S ) :   1.0273 B(  3-C , 22-H ) :   0.1160 B(  6-S , 15-O ) :   1.5489
B(  6-S , 16-F ) :   0.5120 B(  6-S , 26-O ) :   1.3080 B(  7-C ,  8-N ) :   0.6906
B(  7-C ,  9-N ) :   0.8047 B(  7-C , 11-H ) :  -0.2022 B(  7-C , 12-H ) :   0.6445
B(  7-C , 13-H ) :  -0.1413 B(  7-C , 14-H ) :  -0.2734 B(  8-N , 12-H ) :   0.1091
B(  8-N , 13-H ) :   1.1952 B(  8-N , 14-H ) :   1.3901 B(  9-N , 10-H ) :   1.0544
B(  9-N , 11-H ) :   1.3739 B( 10-H , 11-H ) :  -0.2275 B( 12-H , 23-C ) :   0.1248
B( 12-H , 27-H ) :   0.1318 B( 12-H , 28-H ) :  -0.1524 B( 13-H , 14-H ) :  -0.2070
B( 16-F , 26-O ) :   0.1206 B( 17-C , 23-C ) :   1.2386 B( 17-C , 24-H ) :   0.7389
B( 17-C , 25-H ) :   0.6660 B( 20-C , 21-H ) :   0.2730 B( 20-C , 23-C ) :   1.1806
B( 20-C , 27-H ) :   0.1068 B( 20-C , 28-H ) :   0.1473 B( 20-C , 29-H ) :   0.9402
B( 20-C , 30-H ) :   0.8776 B( 21-H , 22-H ) :  -0.1395 B( 23-C , 24-H ) :   0.2544
B( 23-C , 25-H ) :   0.1490 B( 23-C , 27-H ) :   0.9224 B( 23-C , 28-H ) :   0.9255
B( 23-C , 29-H ) :   0.1154 B( 23-C , 30-H ) :   0.1571 B( 24-H , 25-H ) :  -0.1385

Dispersion correction           -0.001902221
FINAL SINGLE POINT ENERGY     -1072.044744679657

DIPOLE MOMENT
-------------
                                X             Y             Z
Electronic contribution:     -3.03642      -2.10449     -21.68975
Nuclear contribution   :      2.64598       3.36033      21.85869
                        -----------------------------------------
Total Dipole Moment    :     -0.39044       1.25585       0.16894
                        -----------------------------------------
Magnitude (a.u.)       :      1.32595
Magnitude (Debye)      :      3.37029

Rotational constants in cm-1:     0.028973     0.014435     0.011026
Rotational constants in MHz :   868.588266   432.748309   330.548534

                             ****ORCA TERMINATED NORMALLY****
TOTAL RUN TIME: 0 days 0 hours 2 minutes 57 seconds 624 msec
