                         Program Version 5.0.0 -  RELEASE  -
|  1> !M062X D3Zero RIJCOSX def2-SVPD def2/J TightSCF xyzfile
|  2>
|  3> *xyzfile 0 1 D6.xyz
|  4>
|  5> %MaxCore 64000
|  6>
|  7> %pal nprocs 4
|  8> end
|  9>
| 10> %scf
| 11>   MaxIter 150
| 12> end
| 13>
| 14>
| 15>                          ****END OF INPUT****

CARTESIAN COORDINATES (ANGSTROEM)
---------------------------------
  C      1.963365   -1.749150   -1.896887
  N      2.738490   -2.015170   -3.097113
  C      0.611877    1.657634   -4.500288
  C      1.694991    1.541794   -5.570447
  H      2.697326    1.734659   -5.183996
  H      1.506656    2.272239   -6.358076
  S      1.780287   -0.033128   -6.428739
  C      4.049736   -2.154717   -3.152044
  N      4.658206   -1.986293   -4.318655
  C      4.764231   -2.454435   -2.050491
  H      4.287363   -2.776259   -1.217496
  H      5.750825   -2.658351   -2.125988
  H      2.345176   -1.690274   -3.971447
  H      4.109004   -1.592677   -5.071760
  H      5.649095   -2.156462   -4.427237
  O      2.569287    0.213657   -7.607360
  F      0.416880   -0.462969   -6.618595
  C      2.088520   -0.300912   -1.415204
  H      2.231272   -2.451616   -1.102643
  H      0.930249   -1.977801   -2.155438
  C      0.680356    0.655418   -3.348038
  H     -0.356865    1.549231   -4.991128
  H      0.650228    2.675438   -4.096000
  C      1.968993    0.733582   -2.535654
  H      3.051356   -0.168602   -0.911868
  H      1.316501   -0.136231   -0.657252
  O      2.505129   -0.933263   -5.482570
  H      2.824195    0.624726   -3.208464
  H      2.058919    1.730331   -2.093112
  H      0.542252   -0.344731   -3.766662
  H     -0.174219    0.829692   -2.685182

 Total Charge           Charge          ....    0
 Multiplicity           Mult            ....    1
 Number of Electrons    NEL             ....  120
 Basis Dimension        Dim             ....  432

ORBITAL ENERGIES
----------------

  NO   OCC          E(Eh)            E(eV)
   0   2.0000     -90.227709     -2455.2208
   1   2.0000     -25.405822      -691.3276
   2   2.0000     -19.679857      -535.5161
   3   2.0000     -19.671251      -535.2820
   4   2.0000     -14.729578      -400.8122
   5   2.0000     -14.728679      -400.7877
   6   2.0000     -10.632075      -289.3135
   7   2.0000     -10.596552      -288.3468
   8   2.0000     -10.575106      -287.7633
   9   2.0000     -10.571230      -287.6578
  10   2.0000     -10.571009      -287.6518
  11   2.0000     -10.554464      -287.2016
  12   2.0000     -10.541401      -286.8461
  13   2.0000     -10.441812      -284.1362
  14   2.0000      -8.550985      -232.6841
  15   2.0000      -6.479515      -176.3166
  16   2.0000      -6.474386      -176.1770
  17   2.0000      -6.472884      -176.1361
  18   2.0000      -1.543091       -41.9896
  19   2.0000      -1.256324       -34.1863
  20   2.0000      -1.149643       -31.2834
  21   2.0000      -1.047873       -28.5141
  22   2.0000      -0.958545       -26.0833
  23   2.0000      -0.949645       -25.8412
  24   2.0000      -0.892405       -24.2836
  25   2.0000      -0.855732       -23.2857
  26   2.0000      -0.821618       -22.3574
  27   2.0000      -0.778117       -21.1736
  28   2.0000      -0.766420       -20.8553
  29   2.0000      -0.731152       -19.8957
  30   2.0000      -0.716390       -19.4940
  31   2.0000      -0.707866       -19.2620
  32   2.0000      -0.671140       -18.2626
  33   2.0000      -0.654928       -17.8215
  34   2.0000      -0.614094       -16.7103
  35   2.0000      -0.601048       -16.3553
  36   2.0000      -0.588146       -16.0043
  37   2.0000      -0.584997       -15.9186
  38   2.0000      -0.573677       -15.6105
  39   2.0000      -0.563803       -15.3419
  40   2.0000      -0.542819       -14.7708
  41   2.0000      -0.530549       -14.4370
  42   2.0000      -0.513161       -13.9638
  43   2.0000      -0.504571       -13.7301
  44   2.0000      -0.494867       -13.4660
  45   2.0000      -0.483583       -13.1590
  46   2.0000      -0.464079       -12.6282
  47   2.0000      -0.459079       -12.4922
  48   2.0000      -0.444610       -12.0985
  49   2.0000      -0.435926       -11.8621
  50   2.0000      -0.433397       -11.7933
  51   2.0000      -0.427556       -11.6344
  52   2.0000      -0.415346       -11.3021
  53   2.0000      -0.406686       -11.0665
  54   2.0000      -0.404016       -10.9938
  55   2.0000      -0.395004       -10.7486
  56   2.0000      -0.391987       -10.6665
  57   2.0000      -0.379104       -10.3159
  58   2.0000      -0.287063        -7.8114
  59   2.0000      -0.194027        -5.2797
  60   0.0000      -0.004176        -0.1136
  61   0.0000       0.021628         0.5885
  62   0.0000       0.027196         0.7400
  63   0.0000       0.036199         0.9850
  64   0.0000       0.047179         1.2838

MULLIKEN ATOMIC CHARGES
-----------------------
   0 C :    0.960735
   1 N :    0.115548
   2 C :    0.467761
   3 C :    0.118785
   4 H :    0.114218
   5 H :   -0.087052
   6 S :    1.613822
   7 C :    0.854240
   8 N :    0.296744
   9 C :    0.381681
  10 H :    0.043038
  11 H :   -0.698462
  12 H :   -0.936903
  13 H :   -0.290463
  14 H :   -0.240991
  15 O :   -0.695750
  16 F :   -0.481008
  17 C :    0.504793
  18 H :   -0.321753
  19 H :   -0.187390
  20 C :    0.058062
  21 H :   -0.015889
  22 H :   -0.040177
  23 C :    0.040749
  24 H :   -0.132279
  25 H :   -0.046760
  26 O :   -0.813637
  27 H :    0.081633
  28 H :   -0.359549
  29 H :   -0.085083
  30 H :   -0.218663
Sum of atomic charges:   -0.0000000

LOEWDIN ATOMIC CHARGES
----------------------
   0 C :    0.069510
   1 N :   -0.003957
   2 C :   -0.032904
   3 C :   -0.026639
   4 H :    0.036826
   5 H :    0.025674
   6 S :    1.222042
   7 C :   -0.222109
   8 N :    0.202661
   9 C :    0.155682
  10 H :   -0.120135
  11 H :   -0.112058
  12 H :   -0.088835
  13 H :   -0.083642
  14 H :    0.012357
  15 O :   -0.449108
  16 F :   -0.247205
  17 C :   -0.007995
  18 H :    0.015079
  19 H :    0.014763
  20 C :   -0.027428
  21 H :    0.025490
  22 H :    0.039385
  23 C :   -0.024511
  24 H :    0.019406
  25 H :    0.020677
  26 O :   -0.486880
  27 H :    0.009644
  28 H :    0.026491
  29 H :    0.001708
  30 H :    0.036012

  Mayer bond orders larger than 0.100000
B(  0-C ,  1-N ) :   0.9634 B(  0-C , 12-H ) :  -0.4426 B(  0-C , 17-C ) :   1.0147
B(  0-C , 18-H ) :   0.9120 B(  0-C , 19-H ) :   0.7097 B(  0-C , 23-C ) :   0.1082
B(  1-N ,  7-C ) :   0.9128 B(  1-N ,  9-C ) :   0.4835 B(  1-N , 12-H ) :   0.9900
B(  1-N , 13-H ) :   0.1218 B(  1-N , 19-H ) :   0.1486 B(  1-N , 26-O ) :  -0.1256
B(  2-C ,  3-C ) :   1.2507 B(  2-C ,  5-H ) :   0.1634 B(  2-C , 20-C ) :   1.2482
B(  2-C , 21-H ) :   0.6608 B(  2-C , 22-H ) :   0.8120 B(  3-C ,  4-H ) :   0.8921
B(  3-C ,  5-H ) :   0.8963 B(  3-C ,  6-S ) :   1.0198 B(  3-C , 22-H ) :   0.1175
B(  6-S , 15-O ) :   1.5627 B(  6-S , 16-F ) :   0.5164 B(  6-S , 26-O ) :   1.2986
B(  7-C ,  8-N ) :   0.7437 B(  7-C ,  9-C ) :   1.5133 B(  7-C , 10-H ) :   0.3376
B(  7-C , 11-H ) :   0.2453 B(  7-C , 12-H ) :  -0.4316 B(  7-C , 13-H ) :  -0.1075
B(  7-C , 14-H ) :  -0.2084 B(  8-N ,  9-C ) :   0.2310 B(  8-N , 13-H ) :   1.0842
B(  8-N , 14-H ) :   1.3252 B(  9-C , 10-H ) :   0.5338 B(  9-C , 11-H ) :   0.8127
B(  9-C , 12-H ) :  -0.1304 B( 10-H , 18-H ) :   0.1815 B( 10-H , 19-H ) :  -0.1277
B( 12-H , 19-H ) :   0.1317 B( 12-H , 23-C ) :  -0.1136 B( 12-H , 26-O ) :   0.1087
B( 12-H , 27-H ) :   0.1360 B( 12-H , 28-H ) :  -0.1213 B( 13-H , 14-H ) :  -0.2090
B( 13-H , 26-O ) :   0.1708 B( 16-F , 26-O ) :   0.1285 B( 17-C , 23-C ) :   1.2634
B( 17-C , 24-H ) :   0.7990 B( 17-C , 25-H ) :   0.8367 B( 18-H , 19-H ) :  -0.2361
B( 20-C , 21-H ) :   0.2722 B( 20-C , 23-C ) :   1.1644 B( 20-C , 27-H ) :   0.1140
B( 20-C , 28-H ) :   0.1381 B( 20-C , 29-H ) :   0.9561 B( 20-C , 30-H ) :   0.8814
B( 21-H , 22-H ) :  -0.1354 B( 23-C , 24-H ) :   0.2244 B( 23-C , 25-H ) :   0.1156
B( 23-C , 27-H ) :   0.8508 B( 23-C , 28-H ) :   0.9543 B( 23-C , 30-H ) :   0.1348
B( 24-H , 25-H ) :  -0.1417

Dispersion correction           -0.001913574
FINAL SINGLE POINT ENERGY     -1072.053055652629

DIPOLE MOMENT
-------------
                                X             Y             Z
Electronic contribution:     -4.87304      -1.34269     -22.67486
Nuclear contribution   :      2.90585       3.30398      21.99296
                        -----------------------------------------
Total Dipole Moment    :     -1.96719       1.96129      -0.68190
                        -----------------------------------------
Magnitude (a.u.)       :      2.86033
Magnitude (Debye)      :      7.27038

Rotational constants in cm-1:     0.029065     0.014689     0.011200
Rotational constants in MHz :   871.338526   440.374927   335.770911

                             ****ORCA TERMINATED NORMALLY****
TOTAL RUN TIME: 0 days 0 hours 3 minutes 7 seconds 769 msec
