                         Program Version 5.0.0 -  RELEASE  -
|  1> !M062X D3Zero RIJCOSX def2-SVPD def2/J TightSCF xyzfile
|  2>
|  3> *xyzfile 0 1 D7.xyz
|  4>
|  5> %MaxCore 64000
|  6>
|  7> %pal nprocs 4
|  8> end
|  9>
| 10> %scf
| 11>   MaxIter 150
| 12> end
| 13>
| 14>
| 15>                          ****END OF INPUT****

CARTESIAN COORDINATES (ANGSTROEM)
---------------------------------
  C      1.963365   -1.749150   -1.896887
  C      2.738490   -2.015170   -3.097113
  C      0.611877    1.657634   -4.500288
  C      1.694991    1.541794   -5.570447
  H      2.697326    1.734659   -5.183996
  H      1.506656    2.272239   -6.358076
  S      1.780287   -0.033128   -6.428739
  C      4.049736   -2.154717   -3.152044
  N      4.658206   -1.986293   -4.318655
  N      4.764231   -2.454435   -2.050491
  H      4.287363   -2.776259   -1.217496
  H      5.750825   -2.658351   -2.125988
  H      2.345176   -1.690274   -3.971447
  H      4.109004   -1.592677   -5.071760
  H      5.649095   -2.156462   -4.427237
  O      2.569287    0.213657   -7.607360
  O      0.416880   -0.462969   -6.618595
  C      2.088520   -0.300912   -1.415204
  H      2.231272   -2.451616   -1.102643
  H      0.930249   -1.977801   -2.155438
  C      0.680356    0.655418   -3.348038
  H     -0.356865    1.549231   -4.991128
  H      0.650228    2.675438   -4.096000
  C      1.968993    0.733582   -2.535654
  H      3.051356   -0.168602   -0.911868
  H      1.316501   -0.136231   -0.657252
  F      2.505129   -0.933263   -5.482570
  H      2.824195    0.624726   -3.208464
  H      2.058919    1.730331   -2.093112
  H      0.542252   -0.344731   -3.766662
  H     -0.174219    0.829692   -2.685182

 Total Charge           Charge          ....    0
 Multiplicity           Mult            ....    1
 Number of Electrons    NEL             ....  120
 Basis Dimension        Dim             ....  432

ORBITAL ENERGIES
----------------

  NO   OCC          E(Eh)            E(eV)
   0   2.0000     -90.199903     -2454.4641
   1   2.0000     -25.365354      -690.2264
   2   2.0000     -19.657904      -534.9187
   3   2.0000     -19.657473      -534.9070
   4   2.0000     -14.765938      -401.8016
   5   2.0000     -14.760438      -401.6519
   6   2.0000     -10.612376      -288.7774
   7   2.0000     -10.598356      -288.3959
   8   2.0000     -10.575574      -287.7760
   9   2.0000     -10.555739      -287.2363
  10   2.0000     -10.546813      -286.9934
  11   2.0000     -10.537049      -286.7277
  12   2.0000     -10.529029      -286.5095
  13   2.0000     -10.468514      -284.8628
  14   2.0000      -8.523202      -231.9281
  15   2.0000      -6.451652      -175.5584
  16   2.0000      -6.446543      -175.4194
  17   2.0000      -6.445417      -175.3887
  18   2.0000      -1.489248       -40.5245
  19   2.0000      -1.243463       -33.8364
  20   2.0000      -1.144363       -31.1397
  21   2.0000      -1.062647       -28.9161
  22   2.0000      -0.966321       -26.2949
  23   2.0000      -0.932953       -25.3869
  24   2.0000      -0.894647       -24.3446
  25   2.0000      -0.847906       -23.0727
  26   2.0000      -0.828335       -22.5401
  27   2.0000      -0.786247       -21.3949
  28   2.0000      -0.751888       -20.4599
  29   2.0000      -0.711240       -19.3538
  30   2.0000      -0.683835       -18.6081
  31   2.0000      -0.672407       -18.2971
  32   2.0000      -0.659190       -17.9375
  33   2.0000      -0.652440       -17.7538
  34   2.0000      -0.627197       -17.0669
  35   2.0000      -0.618821       -16.8390
  36   2.0000      -0.581654       -15.8276
  37   2.0000      -0.574371       -15.6294
  38   2.0000      -0.563421       -15.3315
  39   2.0000      -0.548232       -14.9181
  40   2.0000      -0.542185       -14.7536
  41   2.0000      -0.535701       -14.5772
  42   2.0000      -0.517834       -14.0910
  43   2.0000      -0.503479       -13.7004
  44   2.0000      -0.491883       -13.3848
  45   2.0000      -0.472347       -12.8532
  46   2.0000      -0.469137       -12.7659
  47   2.0000      -0.460402       -12.5282
  48   2.0000      -0.453659       -12.3447
  49   2.0000      -0.434274       -11.8172
  50   2.0000      -0.426861       -11.6155
  51   2.0000      -0.409727       -11.1492
  52   2.0000      -0.408945       -11.1280
  53   2.0000      -0.400648       -10.9022
  54   2.0000      -0.397305       -10.8112
  55   2.0000      -0.384930       -10.4745
  56   2.0000      -0.374864       -10.2006
  57   2.0000      -0.369411       -10.0522
  58   2.0000      -0.332530        -9.0486
  59   2.0000      -0.214227        -5.8294
  60   0.0000       0.017958         0.4887
  61   0.0000       0.030883         0.8404
  62   0.0000       0.038630         1.0512
  63   0.0000       0.040127         1.0919
  64   0.0000       0.054497         1.4829

MULLIKEN ATOMIC CHARGES
-----------------------
   0 C :    0.281275
   1 C :    0.141209
   2 C :    0.493088
   3 C :    0.121774
   4 H :    0.146649
   5 H :   -0.157795
   6 S :    1.601094
   7 C :    0.882959
   8 N :    0.085365
   9 N :   -0.115230
  10 H :   -0.002282
  11 H :   -0.255906
  12 H :   -0.536017
  13 H :   -0.213863
  14 H :   -0.252117
  15 O :   -0.737894
  16 O :   -0.754038
  17 C :    0.631501
  18 H :   -0.382260
  19 H :    0.131560
  20 C :    0.062616
  21 H :   -0.021258
  22 H :   -0.039286
  23 C :   -0.114941
  24 H :   -0.052797
  25 H :    0.036613
  26 F :   -0.449263
  27 H :    0.041699
  28 H :   -0.233849
  29 H :   -0.150137
  30 H :   -0.188468
Sum of atomic charges:   -0.0000000

LOEWDIN ATOMIC CHARGES
----------------------
   0 C :   -0.046730
   1 C :   -0.024090
   2 C :   -0.029781
   3 C :   -0.035349
   4 H :    0.020909
   5 H :    0.032623
   6 S :    1.171360
   7 C :   -0.193731
   8 N :    0.194698
   9 N :    0.196014
  10 H :   -0.006075
  11 H :   -0.008960
  12 H :   -0.109169
  13 H :   -0.047552
  14 H :    0.001795
  15 O :   -0.466766
  16 O :   -0.457280
  17 C :   -0.019087
  18 H :    0.004013
  19 H :    0.013351
  20 C :   -0.020493
  21 H :    0.029612
  22 H :    0.036104
  23 C :   -0.030880
  24 H :    0.018794
  25 H :    0.018527
  26 F :   -0.315360
  27 H :    0.004435
  28 H :    0.025265
  29 H :    0.007458
  30 H :    0.036348

  Mayer bond orders larger than 0.100000
B(  0-C ,  1-C ) :   1.0584 B(  0-C ,  7-C ) :   0.1325 B(  0-C , 12-H ) :   0.4266
B(  0-C , 17-C ) :   1.1059 B(  0-C , 18-H ) :   0.8289 B(  0-C , 19-H ) :   0.6599
B(  0-C , 23-C ) :   0.1331 B(  0-C , 24-H ) :   0.1215 B(  0-C , 25-H ) :   0.1847
B(  1-C ,  7-C ) :   1.6576 B(  1-C ,  8-N ) :   0.2559 B(  1-C ,  9-N ) :   0.2371
B(  1-C , 12-H ) :  -0.1156 B(  1-C , 18-H ) :   0.2584 B(  1-C , 19-H ) :   0.3079
B(  2-C ,  3-C ) :   1.2451 B(  2-C ,  4-H ) :   0.1087 B(  2-C ,  5-H ) :   0.1662
B(  2-C , 20-C ) :   1.2507 B(  2-C , 21-H ) :   0.6812 B(  2-C , 22-H ) :   0.7853
B(  3-C ,  4-H ) :   0.8698 B(  3-C ,  5-H ) :   0.8382 B(  3-C ,  6-S ) :   1.0377
B(  3-C , 21-H ) :   0.1125 B(  3-C , 22-H ) :   0.1151 B(  6-S , 15-O ) :   1.4936
B(  6-S , 16-O ) :   1.4416 B(  6-S , 26-F ) :   0.5327 B(  7-C ,  8-N ) :   0.7182
B(  7-C ,  9-N ) :   0.8284 B(  7-C , 11-H ) :  -0.2113 B(  7-C , 12-H ) :   0.6659
B(  7-C , 13-H ) :  -0.1257 B(  7-C , 14-H ) :  -0.2621 B(  8-N , 13-H ) :   1.2082
B(  8-N , 14-H ) :   1.3705 B(  9-N , 10-H ) :   1.0432 B(  9-N , 11-H ) :   1.3784
B( 10-H , 11-H ) :  -0.2276 B( 12-H , 23-C ) :   0.1295 B( 12-H , 27-H ) :   0.1025
B( 12-H , 28-H ) :  -0.1079 B( 12-H , 29-H ) :   0.1035 B( 13-H , 14-H ) :  -0.1869
B( 13-H , 26-F ) :   0.1263 B( 17-C , 23-C ) :   1.2352 B( 17-C , 24-H ) :   0.7540
B( 17-C , 25-H ) :   0.6750 B( 19-H , 29-H ) :   0.1011 B( 20-C , 21-H ) :   0.2748
B( 20-C , 23-C ) :   1.1784 B( 20-C , 28-H ) :   0.1504 B( 20-C , 29-H ) :   0.9634
B( 20-C , 30-H ) :   0.8623 B( 21-H , 22-H ) :  -0.1276 B( 23-C , 24-H ) :   0.2573
B( 23-C , 25-H ) :   0.1477 B( 23-C , 27-H ) :   0.9223 B( 23-C , 28-H ) :   0.9307
B( 23-C , 30-H ) :   0.1702 B( 24-H , 25-H ) :  -0.1363

Dispersion correction           -0.001915123
FINAL SINGLE POINT ENERGY     -1072.063726753229

DIPOLE MOMENT
-------------
                                X             Y             Z
Electronic contribution:      0.76943      -3.07955     -19.32569
Nuclear contribution   :      0.26049       3.89757      20.56096
                        -----------------------------------------
Total Dipole Moment    :      1.02992       0.81802       1.23528
                        -----------------------------------------
Magnitude (a.u.)       :      1.80438
Magnitude (Debye)      :      4.58637

Rotational constants in cm-1:     0.029090     0.014735     0.011139
Rotational constants in MHz :   872.086433   441.731892   333.928051

                             ****ORCA TERMINATED NORMALLY****
TOTAL RUN TIME: 0 days 0 hours 2 minutes 55 seconds 113 msec
