                         Program Version 5.0.0 -  RELEASE  -
|  1> !M062X D3Zero RIJCOSX def2-SVPD def2/J TightSCF xyzfile
|  2>
|  3> *xyzfile 0 1 D8.xyz
|  4>
|  5> %MaxCore 64000
|  6>
|  7> %pal nprocs 4
|  8> end
|  9>
| 10> %scf
| 11>   MaxIter 150
| 12> end
| 13>
| 14>
| 15>                          ****END OF INPUT****

CARTESIAN COORDINATES (ANGSTROEM)
---------------------------------
  C      1.963365   -1.749150   -1.896887
  N      2.738490   -2.015170   -3.097113
  C      0.611877    1.657634   -4.500288
  C      1.694991    1.541794   -5.570447
  H      2.697326    1.734659   -5.183996
  H      1.506656    2.272239   -6.358076
  S      1.780287   -0.033128   -6.428739
  C      4.049736   -2.154717   -3.152044
  C      4.658206   -1.986293   -4.318655
  N      4.764231   -2.454435   -2.050491
  H      4.287363   -2.776259   -1.217496
  H      5.750825   -2.658351   -2.125988
  H      2.345176   -1.690274   -3.971447
  H      4.109004   -1.592677   -5.071760
  H      5.649095   -2.156462   -4.427237
  O      2.569287    0.213657   -7.607360
  O      0.416880   -0.462969   -6.618595
  C      2.088520   -0.300912   -1.415204
  H      2.231272   -2.451616   -1.102643
  H      0.930249   -1.977801   -2.155438
  C      0.680356    0.655418   -3.348038
  H     -0.356865    1.549231   -4.991128
  H      0.650228    2.675438   -4.096000
  C      1.968993    0.733582   -2.535654
  H      3.051356   -0.168602   -0.911868
  H      1.316501   -0.136231   -0.657252
  F      2.505129   -0.933263   -5.482570
  H      2.824195    0.624726   -3.208464
  H      2.058919    1.730331   -2.093112
  H      0.542252   -0.344731   -3.766662
  H     -0.174219    0.829692   -2.685182

 Total Charge           Charge          ....    0
 Multiplicity           Mult            ....    1
 Number of Electrons    NEL             ....  120
 Basis Dimension        Dim             ....  432

ORBITAL ENERGIES
----------------

  NO   OCC          E(Eh)            E(eV)
   0   2.0000     -90.201511     -2454.5079
   1   2.0000     -25.366213      -690.2498
   2   2.0000     -19.659679      -534.9671
   3   2.0000     -19.657557      -534.9093
   4   2.0000     -14.763270      -401.7290
   5   2.0000     -14.757547      -401.5733
   6   2.0000     -10.615573      -288.8644
   7   2.0000     -10.598318      -288.3949
   8   2.0000     -10.593236      -288.2566
   9   2.0000     -10.583602      -287.9945
  10   2.0000     -10.570331      -287.6333
  11   2.0000     -10.562640      -287.4241
  12   2.0000     -10.557889      -287.2948
  13   2.0000     -10.461318      -284.6669
  14   2.0000      -8.524638      -231.9672
  15   2.0000      -6.453090      -175.5975
  16   2.0000      -6.447990      -175.4587
  17   2.0000      -6.446907      -175.4293
  18   2.0000      -1.489847       -40.5408
  19   2.0000      -1.244341       -33.8602
  20   2.0000      -1.145207       -31.1627
  21   2.0000      -1.071507       -29.1572
  22   2.0000      -0.980353       -26.6768
  23   2.0000      -0.940302       -25.5869
  24   2.0000      -0.893655       -24.3176
  25   2.0000      -0.859885       -23.3987
  26   2.0000      -0.814261       -22.1572
  27   2.0000      -0.801532       -21.8108
  28   2.0000      -0.758824       -20.6486
  29   2.0000      -0.720379       -19.6025
  30   2.0000      -0.686683       -18.6856
  31   2.0000      -0.680723       -18.5234
  32   2.0000      -0.666463       -18.1354
  33   2.0000      -0.659874       -17.9561
  34   2.0000      -0.635437       -17.2911
  35   2.0000      -0.609738       -16.5918
  36   2.0000      -0.581896       -15.8342
  37   2.0000      -0.574908       -15.6440
  38   2.0000      -0.563704       -15.3392
  39   2.0000      -0.556590       -15.1456
  40   2.0000      -0.548087       -14.9142
  41   2.0000      -0.542656       -14.7664
  42   2.0000      -0.520417       -14.1613
  43   2.0000      -0.509405       -13.8616
  44   2.0000      -0.494692       -13.4612
  45   2.0000      -0.480797       -13.0832
  46   2.0000      -0.473036       -12.8720
  47   2.0000      -0.462717       -12.5912
  48   2.0000      -0.452165       -12.3040
  49   2.0000      -0.444158       -12.0862
  50   2.0000      -0.436302       -11.8724
  51   2.0000      -0.432262       -11.7624
  52   2.0000      -0.420796       -11.4504
  53   2.0000      -0.410391       -11.1673
  54   2.0000      -0.404744       -11.0136
  55   2.0000      -0.399977       -10.8839
  56   2.0000      -0.395651       -10.7662
  57   2.0000      -0.392514       -10.6808
  58   2.0000      -0.318480        -8.6663
  59   2.0000      -0.216970        -5.9041
  60   0.0000       0.018660         0.5078
  61   0.0000       0.029857         0.8125
  62   0.0000       0.035610         0.9690
  63   0.0000       0.038916         1.0590
  64   0.0000       0.053303         1.4504

MULLIKEN ATOMIC CHARGES
-----------------------
   0 C :    1.016694
   1 N :    0.002307
   2 C :    0.493659
   3 C :    0.112443
   4 H :    0.148837
   5 H :   -0.150787
   6 S :    1.607320
   7 C :    0.946925
   8 C :    0.591906
   9 N :    0.078931
  10 H :   -0.033138
  11 H :   -0.194343
  12 H :   -0.745695
  13 H :   -0.327260
  14 H :   -0.654980
  15 O :   -0.729287
  16 O :   -0.753473
  17 C :    0.439229
  18 H :   -0.435167
  19 H :   -0.137787
  20 C :    0.051290
  21 H :   -0.008939
  22 H :   -0.032786
  23 C :    0.035381
  24 H :   -0.037940
  25 H :   -0.113842
  26 F :   -0.588652
  27 H :    0.117752
  28 H :   -0.367329
  29 H :   -0.153138
  30 H :   -0.178132
Sum of atomic charges:    0.0000000

LOEWDIN ATOMIC CHARGES
----------------------
   0 C :    0.064745
   1 N :   -0.005064
   2 C :   -0.028353
   3 C :   -0.033772
   4 H :    0.022952
   5 H :    0.033653
   6 S :    1.171887
   7 C :   -0.216229
   8 C :    0.175311
   9 N :    0.194435
  10 H :   -0.020885
  11 H :    0.007289
  12 H :   -0.046225
  13 H :   -0.141733
  14 H :   -0.092591
  15 O :   -0.457710
  16 O :   -0.461690
  17 C :   -0.013176
  18 H :    0.010697
  19 H :    0.019303
  20 C :   -0.025085
  21 H :    0.030574
  22 H :    0.037303
  23 C :   -0.027420
  24 H :    0.019718
  25 H :    0.021559
  26 F :   -0.315060
  27 H :    0.006895
  28 H :    0.028351
  29 H :    0.003554
  30 H :    0.036767

  Mayer bond orders larger than 0.100000
B(  0-C ,  1-N ) :   0.9215 B(  0-C , 12-H ) :  -0.3979 B(  0-C , 17-C ) :   1.0402
B(  0-C , 18-H ) :   0.8852 B(  0-C , 19-H ) :   0.6386 B(  0-C , 23-C ) :   0.1124
B(  1-N ,  7-C ) :   1.0560 B(  1-N ,  8-C ) :   0.2272 B(  1-N ,  9-N ) :   0.2142
B(  1-N , 12-H ) :   1.1261 B(  1-N , 19-H ) :   0.1395 B(  2-C ,  3-C ) :   1.2503
B(  2-C ,  5-H ) :   0.1580 B(  2-C , 20-C ) :   1.2547 B(  2-C , 21-H ) :   0.6745
B(  2-C , 22-H ) :   0.7852 B(  3-C ,  4-H ) :   0.8793 B(  3-C ,  5-H ) :   0.8459
B(  3-C ,  6-S ) :   1.0237 B(  3-C , 21-H ) :   0.1150 B(  3-C , 22-H ) :   0.1201
B(  6-S , 15-O ) :   1.4999 B(  6-S , 16-O ) :   1.4226 B(  6-S , 26-F ) :   0.5470
B(  7-C ,  8-C ) :   1.3017 B(  7-C ,  9-N ) :   0.8500 B(  7-C , 11-H ) :  -0.1732
B(  7-C , 12-H ) :  -0.4145 B(  7-C , 13-H ) :   0.1026 B(  7-C , 14-H ) :   0.2487
B(  8-C ,  9-N ) :   0.2854 B(  8-C , 13-H ) :   0.5388 B(  8-C , 14-H ) :   0.7322
B(  9-N , 10-H ) :   0.9545 B(  9-N , 11-H ) :   1.2708 B(  9-N , 18-H ) :   0.1027
B( 10-H , 11-H ) :  -0.2232 B( 12-H , 19-H ) :   0.2188 B( 12-H , 24-H ) :   0.1331
B( 13-H , 14-H ) :  -0.3241 B( 13-H , 26-F ) :   0.3211 B( 17-C , 18-H ) :   0.1231
B( 17-C , 19-H ) :   0.1022 B( 17-C , 23-C ) :   1.2585 B( 17-C , 24-H ) :   0.7656
B( 17-C , 25-H ) :   0.9136 B( 18-H , 19-H ) :  -0.1935 B( 19-H , 23-C ) :  -0.1032
B( 20-C , 21-H ) :   0.2793 B( 20-C , 23-C ) :   1.1540 B( 20-C , 28-H ) :   0.1270
B( 20-C , 29-H ) :   0.9749 B( 20-C , 30-H ) :   0.8700 B( 21-H , 22-H ) :  -0.1247
B( 23-C , 24-H ) :   0.2145 B( 23-C , 25-H ) :   0.1069 B( 23-C , 27-H ) :   0.8519
B( 23-C , 28-H ) :   0.9978 B( 23-C , 30-H ) :   0.1469 B( 24-H , 25-H ) :  -0.1276

Dispersion correction           -0.001910975
FINAL SINGLE POINT ENERGY     -1072.059555523937

DIPOLE MOMENT
-------------
                                X             Y             Z
Electronic contribution:     -0.86048      -2.89444     -18.27159
Nuclear contribution   :      0.50676       3.90127      20.40426
                        -----------------------------------------
Total Dipole Moment    :     -0.35372       1.00684       2.13267
                        -----------------------------------------
Magnitude (a.u.)       :      2.38477
Magnitude (Debye)      :      6.06161

Rotational constants in cm-1:     0.029548     0.014706     0.011197
Rotational constants in MHz :   885.834387   440.871746   335.667619

                             ****ORCA TERMINATED NORMALLY****
TOTAL RUN TIME: 0 days 0 hours 3 minutes 8 seconds 122 msec
