                         Program Version 5.0.0 -  RELEASE  -
|  1> !wB97X-D3 RIJCOSX def2-SVPD def2/J TightSCF
|  2> *xyz -1 1
|  3> C          3.84189       -6.95161       -3.63283
|  4> S          4.31812       -6.91593       -5.36869
|  5> O          5.40615       -5.89948       -5.51297
|  6> O          3.11191       -6.44508       -6.04379
|  7> O          4.76340       -8.23942       -5.69863
|  8> H          3.06224       -7.67071       -3.49159
|  9> H          3.49217       -5.98401       -3.33897
| 10> H          4.68822       -7.22131       -3.03626
| 11> *
| 12>
| 13> %MaxCore 64000
| 14>
| 15> %pal nprocs 8
| 16> end
| 17>
| 18> %scf
| 19>   MaxIter 150
| 20> end
| 21>
| 22>
| 23>                          ****END OF INPUT****

CARTESIAN COORDINATES (ANGSTROEM)
---------------------------------
  C      3.841890   -6.951610   -3.632830
  S      4.318120   -6.915930   -5.368690
  O      5.406150   -5.899480   -5.512970
  O      3.111910   -6.445080   -6.043790
  O      4.763400   -8.239420   -5.698630
  H      3.062240   -7.670710   -3.491590
  H      3.492170   -5.984010   -3.338970
  H      4.688220   -7.221310   -3.036260

 Total Charge           Charge          ....   -1
 Multiplicity           Mult            ....    1
 Number of Electrons    NEL             ....   50
 Basis Dimension        Dim             ....  140

ORBITAL ENERGIES
----------------

  NO   OCC          E(Eh)            E(eV)
   0   2.0000     -88.978436     -2421.2263
   1   2.0000     -19.029887      -517.8295
   2   2.0000     -19.019390      -517.5439
   3   2.0000     -19.012840      -517.3657
   4   2.0000     -10.146283      -276.0944
   5   2.0000      -8.051687      -219.0975
   6   2.0000      -6.011206      -163.5732
   7   2.0000      -6.011108      -163.5706
   8   2.0000      -6.010881      -163.5644
   9   2.0000      -1.044981       -28.4354
  10   2.0000      -0.905238       -24.6328
  11   2.0000      -0.874661       -23.8007
  12   2.0000      -0.697417       -18.9777
  13   2.0000      -0.496349       -13.5063
  14   2.0000      -0.407051       -11.0764
  15   2.0000      -0.394827       -10.7438
  16   2.0000      -0.392452       -10.6792
  17   2.0000      -0.349808        -9.5188
  18   2.0000      -0.346789        -9.4366
  19   2.0000      -0.249767        -6.7965
  20   2.0000      -0.247520        -6.7354
  21   2.0000      -0.212541        -5.7835
  22   2.0000      -0.202729        -5.5165
  23   2.0000      -0.194610        -5.2956
  24   2.0000      -0.157119        -4.2754
  25   0.0000       0.213364         5.8059
  26   0.0000       0.237038         6.4501
  27   0.0000       0.237268         6.4564
  28   0.0000       0.241894         6.5823
  29   0.0000       0.274262         7.4630

MULLIKEN ATOMIC CHARGES
-----------------------
   0 C :    0.407509
   1 S :    1.110254
   2 O :   -0.815688
   3 O :   -0.786214
   4 O :   -0.754538
   5 H :   -0.047385
   6 H :   -0.049726
   7 H :   -0.064212
Sum of atomic charges:   -1.0000000

LOEWDIN ATOMIC CHARGES
----------------------
   0 C :    0.052987
   1 S :    0.845422
   2 O :   -0.610755
   3 O :   -0.599516
   4 O :   -0.581812
   5 H :   -0.035346
   6 H :   -0.034225
   7 H :   -0.036757

  Mayer bond orders larger than 0.100000
B(  0-C ,  1-S ) :   0.9400 B(  0-C ,  5-H ) :   0.9231 B(  0-C ,  6-H ) :   0.9292
B(  0-C ,  7-H ) :   0.9316 B(  1-S ,  2-O ) :   1.3044 B(  1-S ,  3-O ) :   1.3386
B(  1-S ,  4-O ) :   1.3593 B(  1-S ,  5-H ) :   0.1070 B(  1-S ,  6-H ) :   0.1177
B(  1-S ,  7-H ) :   0.1118

Dispersion correction           -0.001521422
FINAL SINGLE POINT ENERGY      -663.413280146785

DIPOLE MOMENT
-------------
                                X             Y             Z
Electronic contribution:      1.07205      -0.06838      -4.06980
Nuclear contribution   :     -1.53523      -0.17928       5.57610
                        -----------------------------------------
Total Dipole Moment    :     -0.46319      -0.24766       1.50630
                        -----------------------------------------
Magnitude (a.u.)       :      1.59524
Magnitude (Debye)      :      4.05479

Rotational constants in cm-1:     0.172657     0.156250     0.152500
Rotational constants in MHz :  5176.120042  4684.252187  4571.835124

                             ****ORCA TERMINATED NORMALLY****
TOTAL RUN TIME: 0 days 0 hours 0 minutes 9 seconds 914 msec
