                         Program Version 5.0.0 -  RELEASE  -
|  1> !wB97X-D3 RIJCOSX def2-SVPD def2/J TightSCF
|  2> *xyz 1 1
|  3> C          5.55821       -1.99291       -6.21505
|  4> C          4.18188       -2.58967       -6.29891
|  5> N          3.14587       -1.76843       -6.48675
|  6> N          4.01910       -3.86431       -6.22743
|  7> H          4.76849       -4.59115       -5.99077
|  8> H          3.12241       -4.33339       -6.31462
|  9> H          3.28164       -0.77779       -6.56655
| 10> H          2.21255       -2.13419       -6.56225
| 11> H          5.49055       -0.92791       -6.29315
| 12> H          6.16046       -2.37160       -7.01429
| 13> H          6.00378       -2.25423       -5.27799
| 14> *
| 15>
| 16> %MaxCore 64000
| 17>
| 18> %pal nprocs 8
| 19> end
| 20>
| 21> %scf
| 22>   MaxIter 150
| 23> end
| 24>
| 25>
| 26>                          ****END OF INPUT****

CARTESIAN COORDINATES (ANGSTROEM)
---------------------------------
  C      5.558210   -1.992910   -6.215050
  C      4.181880   -2.589670   -6.298910
  N      3.145870   -1.768430   -6.486750
  N      4.019100   -3.864310   -6.227430
  H      4.768490   -4.591150   -5.990770
  H      3.122410   -4.333390   -6.314620
  H      3.281640   -0.777790   -6.566550
  H      2.212550   -2.134190   -6.562250
  H      5.490550   -0.927910   -6.293150
  H      6.160460   -2.371600   -7.014290
  H      6.003780   -2.254230   -5.277990

 Total Charge           Charge          ....    1
 Multiplicity           Mult            ....    1
 Number of Electrons    NEL             ....   32
 Basis Dimension        Dim             ....  136

ORBITAL ENERGIES
----------------

  NO   OCC          E(Eh)            E(eV)
   0   2.0000     -14.696124      -399.9019
   1   2.0000     -14.684955      -399.5979
   2   2.0000     -10.627481      -289.1885
   3   2.0000     -10.487576      -285.3815
   4   2.0000      -1.321113       -35.9493
   5   2.0000      -1.220079       -33.2000
   6   2.0000      -1.064351       -28.9624
   7   2.0000      -0.955244       -25.9935
   8   2.0000      -0.887301       -24.1447
   9   2.0000      -0.868994       -23.6465
  10   2.0000      -0.802539       -21.8382
  11   2.0000      -0.765901       -20.8412
  12   2.0000      -0.712461       -19.3871
  13   2.0000      -0.698588       -19.0095
  14   2.0000      -0.675222       -18.3737
  15   2.0000      -0.593146       -16.1403
  16   0.0000      -0.132249        -3.5987
  17   0.0000      -0.085347        -2.3224
  18   0.0000      -0.040905        -1.1131
  19   0.0000      -0.038856        -1.0573
  20   0.0000      -0.017777        -0.4837

MULLIKEN ATOMIC CHARGES
-----------------------
   0 C :    0.439531
   1 C :    0.470441
   2 N :   -0.061844
   3 N :    0.016023
   4 H :    0.102389
   5 H :   -0.113524
   6 H :    0.044729
   7 H :   -0.088812
   8 H :    0.060846
   9 H :    0.059262
  10 H :    0.070958
Sum of atomic charges:    1.0000000

LOEWDIN ATOMIC CHARGES
----------------------
   0 C :    0.230235
   1 C :   -0.057210
   2 N :    0.276539
   3 N :    0.243749
   4 H :    0.114732
   5 H :    0.051709
   6 H :    0.043361
   7 H :    0.042988
   8 H :    0.007160
   9 H :    0.024125
  10 H :    0.022612

  Mayer bond orders larger than 0.100000
B(  0-C ,  1-C ) :   1.2694 B(  0-C ,  8-H ) :   0.8193 B(  0-C ,  9-H ) :   0.8067
B(  0-C , 10-H ) :   0.7888 B(  1-C ,  2-N ) :   0.9362 B(  1-C ,  3-N ) :   1.1266
B(  1-C ,  5-H ) :  -0.1870 B(  1-C ,  7-H ) :  -0.2183 B(  1-C ,  8-H ) :   0.2011
B(  1-C ,  9-H ) :   0.1457 B(  1-C , 10-H ) :   0.1537 B(  2-N ,  3-N ) :   0.1520
B(  2-N ,  6-H ) :   1.0989 B(  2-N ,  7-H ) :   1.3172 B(  3-N ,  4-H ) :   1.1157
B(  3-N ,  5-H ) :   1.2508 B(  4-H ,  5-H ) :  -0.1497 B(  6-H ,  7-H ) :  -0.1759
B(  8-H , 10-H ) :   0.1082

Dispersion correction           -0.001690608
FINAL SINGLE POINT ENERGY      -189.536941871925

DIPOLE MOMENT
-------------
                                X             Y             Z
Electronic contribution:     -1.91214      -0.89414      -0.11585
Nuclear contribution   :      1.48163       0.51565       0.12876
                        -----------------------------------------
Total Dipole Moment    :     -0.43051      -0.37848       0.01291
                        -----------------------------------------
Magnitude (a.u.)       :      0.57337
Magnitude (Debye)      :      1.45740

Rotational constants in cm-1:     0.329497     0.300036     0.161709
Rotational constants in MHz :  9878.065920  8994.849253  4847.907140

                             ****ORCA TERMINATED NORMALLY****
TOTAL RUN TIME: 0 days 0 hours 0 minutes 9 seconds 310 msec
