                         Program Version 5.0.0 -  RELEASE  -
|  1> !wB97X-D3 RIJCOSX def2-SVPD def2/J TightSCF
|  2> *xyz 0 1
|  3> C          3.84189       -6.95161       -3.63283
|  4> S          4.31812       -6.91593       -5.36869
|  5> F          5.40615       -5.89948       -5.51297
|  6> O          3.11191       -6.44508       -6.04379
|  7> O          4.76340       -8.23942       -5.69863
|  8> H          3.06224       -7.67071       -3.49159
|  9> H          3.49217       -5.98401       -3.33897
| 10> H          4.68822       -7.22131       -3.03626
| 11> *
| 12>
| 13> %MaxCore 64000
| 14>
| 15> %pal nprocs 8
| 16> end
| 17>
| 18> %scf
| 19>   MaxIter 150
| 20> end
| 21>
| 22>
| 23>                          ****END OF INPUT****

CARTESIAN COORDINATES (ANGSTROEM)
---------------------------------
  C      3.841890   -6.951610   -3.632830
  S      4.318120   -6.915930   -5.368690
  F      5.406150   -5.899480   -5.512970
  O      3.111910   -6.445080   -6.043790
  O      4.763400   -8.239420   -5.698630
  H      3.062240   -7.670710   -3.491590
  H      3.492170   -5.984010   -3.338970
  H      4.688220   -7.221310   -3.036260

 Total Charge           Charge          ....    0
 Multiplicity           Mult            ....    1
 Number of Electrons    NEL             ....   50
 Basis Dimension        Dim             ....  140

ORBITAL ENERGIES
----------------

  NO   OCC          E(Eh)            E(eV)
   0   2.0000     -89.242436     -2428.4101
   1   2.0000     -24.904909      -677.6970
   2   2.0000     -19.269402      -524.3471
   3   2.0000     -19.258511      -524.0507
   4   2.0000     -10.355183      -281.7789
   5   2.0000      -8.316229      -226.2961
   6   2.0000      -6.279710      -170.8796
   7   2.0000      -6.273497      -170.7105
   8   2.0000      -6.272746      -170.6901
   9   2.0000      -1.458303       -39.6825
  10   2.0000      -1.238410       -33.6988
  11   2.0000      -1.139554       -31.0088
  12   2.0000      -0.916877       -24.9495
  13   2.0000      -0.814328       -22.1590
  14   2.0000      -0.699701       -19.0398
  15   2.0000      -0.673139       -18.3170
  16   2.0000      -0.661759       -18.0074
  17   2.0000      -0.585242       -15.9252
  18   2.0000      -0.584345       -15.9008
  19   2.0000      -0.572006       -15.5651
  20   2.0000      -0.547640       -14.9020
  21   2.0000      -0.495627       -13.4867
  22   2.0000      -0.446433       -12.1481
  23   2.0000      -0.434547       -11.8246
  24   2.0000      -0.420927       -11.4540
  25   0.0000       0.060237         1.6391
  26   0.0000       0.094966         2.5842
  27   0.0000       0.099125         2.6973
  28   0.0000       0.100562         2.7364
  29   0.0000       0.103797         2.8245

MULLIKEN ATOMIC CHARGES
-----------------------
   0 C :    0.325571
   1 S :    1.289663
   2 F :   -0.398486
   3 O :   -0.660949
   4 O :   -0.632056
   5 H :    0.029337
   6 H :    0.030131
   7 H :    0.016788
Sum of atomic charges:   -0.0000000

LOEWDIN ATOMIC CHARGES
----------------------
   0 C :    0.122252
   1 S :    1.118744
   2 F :   -0.277526
   3 O :   -0.481984
   4 O :   -0.464948
   5 H :    0.003570
   6 H :   -0.008800
   7 H :   -0.011307

  Mayer bond orders larger than 0.100000
B(  0-C ,  1-S ) :   0.9967 B(  0-C ,  5-H ) :   0.9229 B(  0-C ,  6-H ) :   0.9285
B(  0-C ,  7-H ) :   0.9315 B(  1-S ,  2-F ) :   0.6455 B(  1-S ,  3-O ) :   1.5407
B(  1-S ,  4-O ) :   1.5592 B(  1-S ,  5-H ) :   0.1043

Dispersion correction           -0.001526478
FINAL SINGLE POINT ENERGY      -687.913737143979

DIPOLE MOMENT
-------------
                                X             Y             Z
Electronic contribution:      2.89849       1.61256      -4.26467
Nuclear contribution   :     -2.64549      -1.17311       5.81218
                        -----------------------------------------
Total Dipole Moment    :      0.25301       0.43945       1.54752
                        -----------------------------------------
Magnitude (a.u.)       :      1.62848
Magnitude (Debye)      :      4.13926

Rotational constants in cm-1:     0.165958     0.149400     0.146699
Rotational constants in MHz :  4975.281722  4478.884828  4397.931002

                             ****ORCA TERMINATED NORMALLY****
TOTAL RUN TIME: 0 days 0 hours 0 minutes 9 seconds 941 msec
