                         Program Version 5.0.0 -  RELEASE  -
|  1> !wB97X-D3 RIJCOSX def2-SVPD def2/J TightSCF
|  2> *xyz 0 1
|  3> C          5.55821       -1.99291       -6.21505
|  4> C          4.18188       -2.58967       -6.29891
|  5> C          3.14587       -1.76843       -6.48675
|  6> N          4.01910       -3.86431       -6.22743
|  7> H          4.76849       -4.59115       -5.99077
|  8> H          3.12241       -4.33339       -6.31462
|  9> H          3.28164       -0.77779       -6.56655
| 10> H          2.21255       -2.13419       -6.56225
| 11> H          5.49055       -0.92791       -6.29315
| 12> H          6.16046       -2.37160       -7.01429
| 13> H          6.00378       -2.25423       -5.27799
| 14> *
| 15>
| 16> %MaxCore 64000
| 17>
| 18> %pal nprocs 8
| 19> end
| 20>
| 21> %scf
| 22>   MaxIter 150
| 23> end
| 24>
| 25>
| 26>                          ****END OF INPUT****

CARTESIAN COORDINATES (ANGSTROEM)
---------------------------------
  C      5.558210   -1.992910   -6.215050
  C      4.181880   -2.589670   -6.298910
  C      3.145870   -1.768430   -6.486750
  N      4.019100   -3.864310   -6.227430
  H      4.768490   -4.591150   -5.990770
  H      3.122410   -4.333390   -6.314620
  H      3.281640   -0.777790   -6.566550
  H      2.212550   -2.134190   -6.562250
  H      5.490550   -0.927910   -6.293150
  H      6.160460   -2.371600   -7.014290
  H      6.003780   -2.254230   -5.277990

 Total Charge           Charge          ....    0
 Multiplicity           Mult            ....    1
 Number of Electrons    NEL             ....   32
 Basis Dimension        Dim             ....  136

ORBITAL ENERGIES
----------------

  NO   OCC          E(Eh)            E(eV)
   0   2.0000     -14.446314      -393.1042
   1   2.0000     -10.315751      -280.7059
   2   2.0000     -10.279282      -279.7135
   3   2.0000     -10.217446      -278.0308
   4   2.0000      -1.043358       -28.3912
   5   2.0000      -0.864152       -23.5148
   6   2.0000      -0.792481       -21.5645
   7   2.0000      -0.691043       -18.8042
   8   2.0000      -0.615162       -16.7394
   9   2.0000      -0.575240       -15.6531
  10   2.0000      -0.533894       -14.5280
  11   2.0000      -0.495553       -13.4847
  12   2.0000      -0.487111       -13.2550
  13   2.0000      -0.444938       -12.1074
  14   2.0000      -0.437762       -11.9121
  15   2.0000      -0.274397        -7.4667
  16   0.0000       0.089639         2.4392
  17   0.0000       0.123863         3.3705
  18   0.0000       0.127630         3.4730
  19   0.0000       0.131195         3.5700
  20   0.0000       0.160856         4.3771

MULLIKEN ATOMIC CHARGES
-----------------------
   0 C :    0.716050
   1 C :   -0.430512
   2 C :    0.512077
   3 N :    0.147919
   4 H :   -0.062065
   5 H :   -0.193547
   6 H :   -0.226466
   7 H :   -0.458522
   8 H :    0.043968
   9 H :   -0.027636
  10 H :   -0.021268
Sum of atomic charges:   -0.0000000

LOEWDIN ATOMIC CHARGES
----------------------
   0 C :    0.161776
   1 C :   -0.297866
   2 C :    0.168232
   3 N :    0.126911
   4 H :    0.053542
   5 H :    0.009582
   6 H :   -0.093484
   7 H :   -0.092027
   8 H :   -0.013417
   9 H :   -0.010769
  10 H :   -0.012480

  Mayer bond orders larger than 0.100000
B(  0-C ,  1-C ) :   1.2926 B(  0-C ,  8-H ) :   0.8171 B(  0-C ,  9-H ) :   0.7152
B(  0-C , 10-H ) :   0.7021 B(  1-C ,  2-C ) :   1.7167 B(  1-C ,  3-N ) :   1.1665
B(  1-C ,  7-H ) :   0.1300 B(  1-C ,  8-H ) :   0.1941 B(  1-C ,  9-H ) :   0.2520
B(  1-C , 10-H ) :   0.2542 B(  2-C ,  3-N ) :   0.2205 B(  2-C ,  6-H ) :   1.0016
B(  2-C ,  7-H ) :   0.7874 B(  3-N ,  4-H ) :   1.1953 B(  3-N ,  5-H ) :   1.2117
B(  4-H ,  5-H ) :  -0.1320 B(  8-H ,  9-H ) :   0.1001 B(  8-H , 10-H ) :   0.1038

Dispersion correction           -0.001701739
FINAL SINGLE POINT ENERGY      -173.077893320817

DIPOLE MOMENT
-------------
                                X             Y             Z
Electronic contribution:     -0.88165      -1.47729       0.04204
Nuclear contribution   :      1.24351       0.69391       0.08872
                        -----------------------------------------
Total Dipole Moment    :      0.36187      -0.78338       0.13076
                        -----------------------------------------
Magnitude (a.u.)       :      0.87277
Magnitude (Debye)      :      2.21840

Rotational constants in cm-1:     0.350694     0.303314     0.167659
Rotational constants in MHz : 10513.535482  9093.138449  5026.287342

                             ****ORCA TERMINATED NORMALLY****
TOTAL RUN TIME: 0 days 0 hours 0 minutes 9 seconds 747 msec
