                         Program Version 5.0.0 -  RELEASE  -
|  1> !wB97X-D3 RIJCOSX def2-SVPD def2/J TightSCF
|  2> *xyz 0 1
|  3> C          3.84189       -6.95161       -3.63283
|  4> S          4.31812       -6.91593       -5.36869
|  5> O          5.40615       -5.89948       -5.51297
|  6> F          3.11191       -6.44508       -6.04379
|  7> O          4.76340       -8.23942       -5.69863
|  8> H          3.06224       -7.67071       -3.49159
|  9> H          3.49217       -5.98401       -3.33897
| 10> H          4.68822       -7.22131       -3.03626
| 11> *
| 12>
| 13> %MaxCore 64000
| 14>
| 15> %pal nprocs 8
| 16> end
| 17>
| 18> %scf
| 19>   MaxIter 150
| 20> end
| 21>
| 22>
| 23>                          ****END OF INPUT****

CARTESIAN COORDINATES (ANGSTROEM)
---------------------------------
  C      3.841890   -6.951610   -3.632830
  S      4.318120   -6.915930   -5.368690
  O      5.406150   -5.899480   -5.512970
  F      3.111910   -6.445080   -6.043790
  O      4.763400   -8.239420   -5.698630
  H      3.062240   -7.670710   -3.491590
  H      3.492170   -5.984010   -3.338970
  H      4.688220   -7.221310   -3.036260

 Total Charge           Charge          ....    0
 Multiplicity           Mult            ....    1
 Number of Electrons    NEL             ....   50
 Basis Dimension        Dim             ....  140

ORBITAL ENERGIES
----------------

  NO   OCC          E(Eh)            E(eV)
   0   2.0000     -89.244266     -2428.4599
   1   2.0000     -24.918802      -678.0751
   2   2.0000     -19.269264      -524.3433
   3   2.0000     -19.251710      -523.8657
   4   2.0000     -10.356126      -281.8045
   5   2.0000      -8.318101      -226.3470
   6   2.0000      -6.281805      -170.9366
   7   2.0000      -6.275320      -170.7601
   8   2.0000      -6.274326      -170.7331
   9   2.0000      -1.485531       -40.4233
  10   2.0000      -1.232374       -33.5346
  11   2.0000      -1.120934       -30.5022
  12   2.0000      -0.921591       -25.0778
  13   2.0000      -0.826455       -22.4890
  14   2.0000      -0.710778       -19.3413
  15   2.0000      -0.692119       -18.8335
  16   2.0000      -0.666028       -18.1235
  17   2.0000      -0.586797       -15.9675
  18   2.0000      -0.584358       -15.9012
  19   2.0000      -0.570166       -15.5150
  20   2.0000      -0.543308       -14.7842
  21   2.0000      -0.493074       -13.4172
  22   2.0000      -0.444168       -12.0864
  23   2.0000      -0.427081       -11.6215
  24   2.0000      -0.408643       -11.1197
  25   0.0000       0.060539         1.6474
  26   0.0000       0.093805         2.5526
  27   0.0000       0.099851         2.7171
  28   0.0000       0.101255         2.7553
  29   0.0000       0.113166         3.0794

MULLIKEN ATOMIC CHARGES
-----------------------
   0 C :    0.321316
   1 S :    1.283513
   2 O :   -0.679535
   3 F :   -0.381304
   4 O :   -0.622352
   5 H :    0.035901
   6 H :    0.028672
   7 H :    0.013790
Sum of atomic charges:   -0.0000000

LOEWDIN ATOMIC CHARGES
----------------------
   0 C :    0.121900
   1 S :    1.119224
   2 O :   -0.491442
   3 F :   -0.268797
   4 O :   -0.465060
   5 H :   -0.009344
   6 H :   -0.009125
   7 H :    0.002643

  Mayer bond orders larger than 0.100000
B(  0-C ,  1-S ) :   0.9951 B(  0-C ,  5-H ) :   0.9215 B(  0-C ,  6-H ) :   0.9282
B(  0-C ,  7-H ) :   0.9343 B(  1-S ,  2-O ) :   1.5091 B(  1-S ,  3-F ) :   0.6903
B(  1-S ,  4-O ) :   1.5640 B(  1-S ,  7-H ) :   0.1093

Dispersion correction           -0.001533927
FINAL SINGLE POINT ENERGY      -687.902811227707

DIPOLE MOMENT
-------------
                                X             Y             Z
Electronic contribution:     -0.96282       0.68560      -5.16521
Nuclear contribution   :     -0.35339      -0.62802       6.34251
                        -----------------------------------------
Total Dipole Moment    :     -1.31621       0.05758       1.17730
                        -----------------------------------------
Magnitude (a.u.)       :      1.76685
Magnitude (Debye)      :      4.49098

Rotational constants in cm-1:     0.162638     0.154373     0.145390
Rotational constants in MHz :  4875.774584  4627.990015  4358.691210

                             ****ORCA TERMINATED NORMALLY****
TOTAL RUN TIME: 0 days 0 hours 0 minutes 10 seconds 68 msec
