                         Program Version 5.0.0 -  RELEASE  -
|  1> !wB97X-D3 RIJCOSX def2-SVPD def2/J TightSCF
|  2> *xyz 0 1
|  3> C          5.55821       -1.99291       -6.21505
|  4> C          4.18188       -2.58967       -6.29891
|  5> N          3.14587       -1.76843       -6.48675
|  6> C          4.01910       -3.86431       -6.22743
|  7> H          4.76849       -4.59115       -5.99077
|  8> H          3.12241       -4.33339       -6.31462
|  9> H          3.28164       -0.77779       -6.56655
| 10> H          2.21255       -2.13419       -6.56225
| 11> H          5.49055       -0.92791       -6.29315
| 12> H          6.16046       -2.37160       -7.01429
| 13> H          6.00378       -2.25423       -5.27799
| 14> *
| 15>
| 16> %MaxCore 64000
| 17>
| 18> %pal nprocs 8
| 19> end
| 20>
| 21> %scf
| 22>   MaxIter 150
| 23> end
| 24>
| 25>
| 26>                          ****END OF INPUT****

CARTESIAN COORDINATES (ANGSTROEM)
---------------------------------
  C      5.558210   -1.992910   -6.215050
  C      4.181880   -2.589670   -6.298910
  N      3.145870   -1.768430   -6.486750
  C      4.019100   -3.864310   -6.227430
  H      4.768490   -4.591150   -5.990770
  H      3.122410   -4.333390   -6.314620
  H      3.281640   -0.777790   -6.566550
  H      2.212550   -2.134190   -6.562250
  H      5.490550   -0.927910   -6.293150
  H      6.160460   -2.371600   -7.014290
  H      6.003780   -2.254230   -5.277990

 Total Charge           Charge          ....    0
 Multiplicity           Mult            ....    1
 Number of Electrons    NEL             ....   32
 Basis Dimension        Dim             ....  136

ORBITAL ENERGIES
----------------

  NO   OCC          E(Eh)            E(eV)
   0   2.0000     -14.435498      -392.8099
   1   2.0000     -10.312703      -280.6229
   2   2.0000     -10.280099      -279.7357
   3   2.0000     -10.223588      -278.1980
   4   2.0000      -1.033635       -28.1266
   5   2.0000      -0.867467       -23.6050
   6   2.0000      -0.798787       -21.7361
   7   2.0000      -0.673114       -18.3164
   8   2.0000      -0.628272       -17.0962
   9   2.0000      -0.580385       -15.7931
  10   2.0000      -0.531379       -14.4596
  11   2.0000      -0.493870       -13.4389
  12   2.0000      -0.490746       -13.3539
  13   2.0000      -0.440624       -11.9900
  14   2.0000      -0.432397       -11.7661
  15   2.0000      -0.281667        -7.6646
  16   0.0000       0.092571         2.5190
  17   0.0000       0.125616         3.4182
  18   0.0000       0.127980         3.4825
  19   0.0000       0.131268         3.5720
  20   0.0000       0.163650         4.4531

MULLIKEN ATOMIC CHARGES
-----------------------
   0 C :    0.686742
   1 C :   -0.072170
   2 N :    0.109581
   3 C :    0.039193
   4 H :   -0.073848
   5 H :   -0.365237
   6 H :   -0.131248
   7 H :   -0.148302
   8 H :   -0.103078
   9 H :    0.011223
  10 H :    0.047142
Sum of atomic charges:    0.0000000

LOEWDIN ATOMIC CHARGES
----------------------
   0 C :    0.163961
   1 C :   -0.286254
   2 N :    0.162443
   3 C :    0.131035
   4 H :   -0.037247
   5 H :   -0.086445
   6 H :   -0.012624
   7 H :    0.002157
   8 H :   -0.026278
   9 H :   -0.005127
  10 H :   -0.005622

  Mayer bond orders larger than 0.100000
B(  0-C ,  1-C ) :   1.0994 B(  0-C ,  8-H ) :   0.7612 B(  0-C ,  9-H ) :   0.7973
B(  0-C , 10-H ) :   0.7495 B(  1-C ,  2-N ) :   0.9850 B(  1-C ,  3-C ) :   1.6282
B(  1-C ,  7-H ) :  -0.1276 B(  1-C ,  8-H ) :   0.2445 B(  1-C ,  9-H ) :   0.1540
B(  1-C , 10-H ) :   0.1761 B(  2-N ,  3-C ) :   0.2628 B(  2-N ,  6-H ) :   1.1406
B(  2-N ,  7-H ) :   1.2675 B(  3-C ,  4-H ) :   0.9518 B(  3-C ,  5-H ) :   0.8860
B(  6-H ,  7-H ) :  -0.1611

Dispersion correction           -0.001688502
FINAL SINGLE POINT ENERGY      -173.087118045804

DIPOLE MOMENT
-------------
                                X             Y             Z
Electronic contribution:     -1.62249       0.41942      -0.20911
Nuclear contribution   :      1.43935       0.22387       0.14687
                        -----------------------------------------
Total Dipole Moment    :     -0.18314       0.64329      -0.06223
                        -----------------------------------------
Magnitude (a.u.)       :      0.67174
Magnitude (Debye)      :      1.70743

Rotational constants in cm-1:     0.350137     0.303099     0.167465
Rotational constants in MHz : 10496.847516  9086.685989  5020.487860

                             ****ORCA TERMINATED NORMALLY****
TOTAL RUN TIME: 0 days 0 hours 0 minutes 9 seconds 526 msec
