                         Program Version 5.0.0 -  RELEASE  -
|  1> !wB97X-D3 RIJCOSX def2-SVPD def2/J TightSCF
|  2> *xyz 0 1
|  3> C          3.84189       -6.95161       -3.63283
|  4> S          4.31812       -6.91593       -5.36869
|  5> O          5.40615       -5.89948       -5.51297
|  6> O          3.11191       -6.44508       -6.04379
|  7> F          4.76340       -8.23942       -5.69863
|  8> H          3.06224       -7.67071       -3.49159
|  9> H          3.49217       -5.98401       -3.33897
| 10> H          4.68822       -7.22131       -3.03626
| 11> *
| 12>
| 13> %MaxCore 64000
| 14>
| 15> %pal nprocs 8
| 16> end
| 17>
| 18> %scf
| 19>   MaxIter 150
| 20> end
| 21>
| 22>
| 23>                          ****END OF INPUT****

CARTESIAN COORDINATES (ANGSTROEM)
---------------------------------
  C      3.841890   -6.951610   -3.632830
  S      4.318120   -6.915930   -5.368690
  O      5.406150   -5.899480   -5.512970
  O      3.111910   -6.445080   -6.043790
  F      4.763400   -8.239420   -5.698630
  H      3.062240   -7.670710   -3.491590
  H      3.492170   -5.984010   -3.338970
  H      4.688220   -7.221310   -3.036260

 Total Charge           Charge          ....    0
 Multiplicity           Mult            ....    1
 Number of Electrons    NEL             ....   50
 Basis Dimension        Dim             ....  140

ORBITAL ENERGIES
----------------

  NO   OCC          E(Eh)            E(eV)
   0   2.0000     -89.245522     -2428.4941
   1   2.0000     -24.933183      -678.4664
   2   2.0000     -19.258921      -524.0619
   3   2.0000     -19.252275      -523.8810
   4   2.0000     -10.356560      -281.8163
   5   2.0000      -8.319422      -226.3830
   6   2.0000      -6.283255      -170.9761
   7   2.0000      -6.276446      -170.7908
   8   2.0000      -6.275552      -170.7665
   9   2.0000      -1.508635       -41.0520
  10   2.0000      -1.220677       -33.2163
  11   2.0000      -1.112812       -30.2812
  12   2.0000      -0.921713       -25.0811
  13   2.0000      -0.838446       -22.8153
  14   2.0000      -0.722668       -19.6648
  15   2.0000      -0.708166       -19.2702
  16   2.0000      -0.667811       -18.1721
  17   2.0000      -0.585572       -15.9342
  18   2.0000      -0.580966       -15.8089
  19   2.0000      -0.572562       -15.5802
  20   2.0000      -0.538252       -14.6466
  21   2.0000      -0.486088       -13.2271
  22   2.0000      -0.433274       -11.7900
  23   2.0000      -0.425970       -11.5912
  24   2.0000      -0.401741       -10.9319
  25   0.0000       0.058512         1.5922
  26   0.0000       0.092850         2.5266
  27   0.0000       0.098860         2.6901
  28   0.0000       0.100799         2.7429
  29   0.0000       0.111028         3.0212

MULLIKEN ATOMIC CHARGES
-----------------------
   0 C :    0.325190
   1 S :    1.279314
   2 O :   -0.672569
   3 O :   -0.644279
   4 F :   -0.367017
   5 H :    0.035689
   6 H :    0.025355
   7 H :    0.018316
Sum of atomic charges:   -0.0000000

LOEWDIN ATOMIC CHARGES
----------------------
   0 C :    0.121635
   1 S :    1.121375
   2 O :   -0.490791
   3 O :   -0.481573
   4 F :   -0.254517
   5 H :   -0.009520
   6 H :    0.004366
   7 H :   -0.010974

  Mayer bond orders larger than 0.100000
B(  0-C ,  1-S ) :   0.9961 B(  0-C ,  5-H ) :   0.9196 B(  0-C ,  6-H ) :   0.9313
B(  0-C ,  7-H ) :   0.9309 B(  1-S ,  2-O ) :   1.5092 B(  1-S ,  3-O ) :   1.5464
B(  1-S ,  4-F ) :   0.7133 B(  1-S ,  6-H ) :   0.1129

Dispersion correction           -0.001530844
FINAL SINGLE POINT ENERGY      -687.889900250269

DIPOLE MOMENT
-------------
                                X             Y             Z
Electronic contribution:      1.80318      -2.30592      -4.58175
Nuclear contribution   :     -2.00334       1.16464       5.99767
                        -----------------------------------------
Total Dipole Moment    :     -0.20016      -1.14127       1.41592
                        -----------------------------------------
Magnitude (a.u.)       :      1.82959
Magnitude (Debye)      :      4.65045

Rotational constants in cm-1:     0.163678     0.154408     0.144413
Rotational constants in MHz :  4906.945035  4629.020676  4329.393152

                             ****ORCA TERMINATED NORMALLY****
TOTAL RUN TIME: 0 days 0 hours 0 minutes 10 seconds 5 msec
