                         Program Version 5.0.0 -  RELEASE  -
|  1> !wB97X-D3 RIJCOSX def2-SVPD def2/J TightSCF xyzfile
|  2>
|  3> *xyzfile 0 1 D1.xyz
|  4>
|  5> %MaxCore 64000
|  6>
|  7> %pal nprocs 18
|  8> end
|  9>
| 10> %scf
| 11>   MaxIter 150
| 12> end
| 13>
| 14>
| 15>                          ****END OF INPUT****

CARTESIAN COORDINATES (ANGSTROEM)
---------------------------------
  C      5.558206   -1.992914   -6.215054
  C      4.930199   -7.375319   -2.649623
  C      3.841892   -6.951611   -3.632829
  H      3.458144   -5.954425   -3.407121
  H      2.988484   -7.643606   -3.567078
  S      4.318115   -6.915930   -5.368692
  C      4.181880   -2.589671   -6.298911
  C      3.145873   -1.768431   -6.486753
  N      4.019102   -3.864307   -6.227427
  H      4.768490   -4.591153   -5.990773
  H      3.122405   -4.333392   -6.314620
  H      3.281635   -0.777786   -6.566549
  H      2.212549   -2.134193   -6.562246
  F      5.406154   -5.899480   -5.512972
  O      3.111910   -6.445079   -6.043792
  C      6.419260   -2.542944   -5.077630
  C      5.872267   -5.002756   -2.427819
  C      6.173994   -6.485522   -2.606315
  H      6.734852   -6.613767   -3.534015
  H      6.821463   -6.831018   -1.793617
  H      4.469612   -7.406168   -1.655876
  H      5.230134   -8.398678   -2.885906
  C      5.896512   -2.169314   -3.694552
  H      7.428880   -2.143665   -5.208078
  H      6.505894   -3.627541   -5.175502
  C      6.807804   -2.623428   -2.551019
  H      4.894708   -2.589732   -3.557501
  H      5.778823   -1.081255   -3.635790
  C      7.111544   -4.122463   -2.520363
  H      7.751615   -2.071393   -2.614406
  H      6.345837   -2.326401   -1.604086
  H      5.362882   -4.828697   -1.471335
  H      5.174429   -4.702577   -3.211298
  H      7.778329   -4.329347   -1.677651
  H      7.673189   -4.402845   -3.417586
  O      4.763396   -8.239424   -5.698629
  H      6.036826   -2.198189   -7.176852
  H      5.467610   -0.907371   -6.127968

 Total Charge           Charge          ....    0
 Multiplicity           Mult            ....    1
 Number of Electrons    NEL             ....  136
 Basis Dimension        Dim             ....  512

ORBITAL ENERGIES
----------------

  NO   OCC          E(Eh)            E(eV)
   0   2.0000     -89.254892     -2428.7491
   1   2.0000     -24.931336      -678.4162
   2   2.0000     -19.282587      -524.7059
   3   2.0000     -19.274865      -524.4957
   4   2.0000     -14.420378      -392.3984
   5   2.0000     -10.367211      -282.1061
   6   2.0000     -10.329061      -281.0680
   7   2.0000     -10.311846      -280.5996
   8   2.0000     -10.302742      -280.3519
   9   2.0000     -10.301436      -280.3163
  10   2.0000     -10.295203      -280.1467
  11   2.0000     -10.289666      -279.9960
  12   2.0000     -10.288700      -279.9698
  13   2.0000     -10.284325      -279.8507
  14   2.0000     -10.282459      -279.7999
  15   2.0000     -10.206700      -277.7384
  16   2.0000      -8.328071      -226.6183
  17   2.0000      -6.292055      -171.2155
  18   2.0000      -6.285358      -171.0333
  19   2.0000      -6.283956      -170.9951
  20   2.0000      -1.488643       -40.5080
  21   2.0000      -1.253824       -34.1183
  22   2.0000      -1.155214       -31.4350
  23   2.0000      -1.029683       -28.0191
  24   2.0000      -0.968664       -26.3587
  25   2.0000      -0.933934       -25.4136
  26   2.0000      -0.905322       -24.6351
  27   2.0000      -0.872960       -23.7545
  28   2.0000      -0.854318       -23.2472
  29   2.0000      -0.823770       -22.4159
  30   2.0000      -0.809278       -22.0216
  31   2.0000      -0.769925       -20.9507
  32   2.0000      -0.735003       -20.0005
  33   2.0000      -0.726640       -19.7729
  34   2.0000      -0.717583       -19.5264
  35   2.0000      -0.695800       -18.9337
  36   2.0000      -0.679383       -18.4869
  37   2.0000      -0.666811       -18.1449
  38   2.0000      -0.663197       -18.0465
  39   2.0000      -0.616664       -16.7803
  40   2.0000      -0.610791       -16.6205
  41   2.0000      -0.595801       -16.2126
  42   2.0000      -0.591112       -16.0850
  43   2.0000      -0.580997       -15.8097
  44   2.0000      -0.569239       -15.4898
  45   2.0000      -0.565948       -15.4002
  46   2.0000      -0.555177       -15.1071
  47   2.0000      -0.536783       -14.6066
  48   2.0000      -0.533847       -14.5267
  49   2.0000      -0.523808       -14.2535
  50   2.0000      -0.511131       -13.9086
  51   2.0000      -0.508599       -13.8397
  52   2.0000      -0.493693       -13.4341
  53   2.0000      -0.477691       -12.9986
  54   2.0000      -0.472453       -12.8561
  55   2.0000      -0.467613       -12.7244
  56   2.0000      -0.465482       -12.6664
  57   2.0000      -0.454178       -12.3588
  58   2.0000      -0.452673       -12.3179
  59   2.0000      -0.441170       -12.0048
  60   2.0000      -0.436868       -11.8878
  61   2.0000      -0.432609       -11.7719
  62   2.0000      -0.432193       -11.7606
  63   2.0000      -0.424195       -11.5429
  64   2.0000      -0.413159       -11.2426
  65   2.0000      -0.406496       -11.0613
  66   2.0000      -0.402483       -10.9521
  67   2.0000      -0.262190        -7.1345
  68   0.0000       0.057459         1.5635
  69   0.0000       0.076924         2.0932
  70   0.0000       0.085775         2.3341
  71   0.0000       0.089540         2.4365
  72   0.0000       0.096155         2.6165

MULLIKEN ATOMIC CHARGES
-----------------------
   0 C :    0.715782
   1 C :    0.458211
   2 C :   -0.078035
   3 H :    0.279814
   4 H :   -0.168566
   5 S :    1.505986
   6 C :   -0.334479
   7 C :    0.410623
   8 N :    0.954423
   9 H :   -0.366257
  10 H :   -0.280113
  11 H :   -0.299295
  12 H :   -0.341818
  13 F :   -0.643797
  14 O :   -0.715958
  15 C :    0.287595
  16 C :    0.010617
  17 C :    0.145885
  18 H :    0.033909
  19 H :   -0.274295
  20 H :    0.103292
  21 H :    0.015231
  22 C :   -0.105732
  23 H :   -0.140233
  24 H :   -0.563107
  25 C :    0.582732
  26 H :    0.135435
  27 H :   -0.287672
  28 C :    0.085528
  29 H :    0.048863
  30 H :   -0.040367
  31 H :    0.023749
  32 H :   -0.367780
  33 H :   -0.293131
  34 H :    0.090320
  35 O :   -0.739269
  36 H :   -0.115330
  37 H :    0.267239
Sum of atomic charges:   -0.0000000

LOEWDIN ATOMIC CHARGES
----------------------
   0 C :    0.015451
   1 C :   -0.029049
   2 C :   -0.034387
   3 H :    0.020893
   4 H :    0.046756
   5 S :    1.149650
   6 C :   -0.253220
   7 C :    0.174358
   8 N :    0.183109
   9 H :   -0.067404
  10 H :   -0.018473
  11 H :   -0.096060
  12 H :   -0.090112
  13 F :   -0.274531
  14 O :   -0.453173
  15 C :   -0.030365
  16 C :   -0.035720
  17 C :   -0.030356
  18 H :    0.016217
  19 H :    0.034693
  20 H :    0.038854
  21 H :    0.032132
  22 C :   -0.030471
  23 H :    0.029775
  24 H :   -0.012919
  25 C :   -0.032297
  26 H :    0.015426
  27 H :    0.029047
  28 C :   -0.034381
  29 H :    0.024144
  30 H :    0.023486
  31 H :    0.042349
  32 H :   -0.017974
  33 H :    0.026492
  34 H :    0.017437
  35 O :   -0.437562
  36 H :    0.031085
  37 H :    0.027100

  Mayer bond orders larger than 0.100000
B(  0-C ,  6-C ) :   1.0013 B(  0-C ,  8-N ) :   0.1555 B(  0-C , 15-C ) :   1.1561
B(  0-C , 24-H ) :   0.1400 B(  0-C , 36-H ) :   0.5456 B(  0-C , 37-H ) :   0.6753
B(  1-C ,  2-C ) :   1.2321 B(  1-C ,  4-H ) :   0.1551 B(  1-C , 17-C ) :   1.2233
B(  1-C , 20-H ) :   0.7208 B(  1-C , 21-H ) :   0.7020 B(  2-C ,  3-H ) :   0.8231
B(  2-C ,  4-H ) :   0.8633 B(  2-C ,  5-S ) :   1.0384 B(  2-C , 20-H ) :   0.1611
B(  2-C , 21-H ) :   0.1197 B(  4-H ,  5-S ) :   0.1242 B(  5-S , 13-F ) :   0.5522
B(  5-S , 14-O ) :   1.5041 B(  5-S , 35-O ) :   1.5042 B(  6-C ,  7-C ) :   1.7710
B(  6-C ,  8-N ) :   1.2644 B(  6-C , 10-H ) :  -0.1868 B(  6-C , 11-H ) :   0.1441
B(  6-C , 12-H ) :   0.2870 B(  6-C , 24-H ) :  -0.1076 B(  6-C , 36-H ) :   0.2823
B(  6-C , 37-H ) :   0.1166 B(  7-C ,  8-N ) :   0.1457 B(  7-C , 11-H ) :   0.9011
B(  7-C , 12-H ) :   0.6514 B(  8-N ,  9-H ) :   0.6823 B(  8-N , 10-H ) :   0.9502
B(  8-N , 13-F ) :  -0.1604 B(  9-H , 10-H ) :  -0.1707 B(  9-H , 13-F ) :   0.1648
B( 10-H , 14-O ) :   0.1561 B( 13-F , 14-O ) :   0.1070 B( 13-F , 24-H ) :   0.1393
B( 15-C , 22-C ) :   1.1860 B( 15-C , 23-H ) :   0.7957 B( 15-C , 24-H ) :   0.6825
B( 15-C , 26-H ) :   0.1111 B( 15-C , 27-H ) :   0.1833 B( 15-C , 36-H ) :   0.2375
B( 15-C , 37-H ) :   0.1405 B( 16-C , 17-C ) :   1.1858 B( 16-C , 18-H ) :   0.1194
B( 16-C , 19-H ) :   0.1762 B( 16-C , 28-C ) :   1.2072 B( 16-C , 31-H ) :   0.7917
B( 16-C , 32-H ) :   1.0140 B( 16-C , 33-H ) :   0.1917 B( 16-C , 34-H ) :   0.1236
B( 17-C , 18-H ) :   0.8708 B( 17-C , 19-H ) :   0.9165 B( 17-C , 20-H ) :   0.1027
B( 17-C , 21-H ) :   0.2381 B( 17-C , 28-C ) :   0.1032 B( 22-C , 23-H ) :   0.1453
B( 22-C , 24-H ) :   0.1899 B( 22-C , 25-C ) :   1.0842 B( 22-C , 26-H ) :   0.8437
B( 22-C , 27-H ) :   1.0462 B( 22-C , 29-H ) :   0.1374 B( 22-C , 30-H ) :   0.2148
B( 25-C , 28-C ) :   1.1321 B( 25-C , 29-H ) :   0.7076 B( 25-C , 30-H ) :   0.7377
B( 26-H , 32-H ) :   0.1455 B( 28-C , 29-H ) :   0.2080 B( 28-C , 30-H ) :   0.1247
B( 28-C , 31-H ) :   0.1031 B( 28-C , 33-H ) :   0.9939 B( 28-C , 34-H ) :   0.8276
B( 31-H , 32-H ) :   0.1107

Dispersion correction           -0.020748681
FINAL SINGLE POINT ENERGY     -1134.741279582515

DIPOLE MOMENT
-------------
                                X             Y             Z
Electronic contribution:     -6.99709     -18.76498     -13.15104
Nuclear contribution   :      7.78491      18.17172      15.09294
                        -----------------------------------------
Total Dipole Moment    :      0.78782      -0.59325       1.94189
                        -----------------------------------------
Magnitude (a.u.)       :      2.17797
Magnitude (Debye)      :      5.53596

Rotational constants in cm-1:     0.018190     0.012573     0.008405
Rotational constants in MHz :   545.327178   376.916509   251.974803

                             ****ORCA TERMINATED NORMALLY****
TOTAL RUN TIME: 0 days 0 hours 2 minutes 27 seconds 177 msec
