                         Program Version 5.0.0 -  RELEASE  -
|  1> !wB97X-D3 RIJCOSX def2-SVPD def2/J TightSCF xyzfile
|  2>
|  3> *xyzfile 0 1 D5.xyz
|  4>
|  5> %MaxCore 64000
|  6>
|  7> %pal nprocs 18
|  8> end
|  9>
| 10> %scf
| 11>   MaxIter 150
| 12> end
| 13>
| 14>
| 15>                          ****END OF INPUT****

CARTESIAN COORDINATES (ANGSTROEM)
---------------------------------
  C      5.558206   -1.992914   -6.215054
  C      4.930199   -7.375319   -2.649623
  C      3.841892   -6.951611   -3.632829
  H      3.458144   -5.954425   -3.407121
  H      2.988484   -7.643606   -3.567078
  S      4.318115   -6.915930   -5.368692
  C      4.181880   -2.589671   -6.298911
  C      3.145873   -1.768431   -6.486753
  N      4.019102   -3.864307   -6.227427
  H      4.768490   -4.591153   -5.990773
  H      3.122405   -4.333392   -6.314620
  H      3.281635   -0.777786   -6.566549
  H      2.212549   -2.134193   -6.562246
  O      5.406154   -5.899480   -5.512972
  O      3.111910   -6.445079   -6.043792
  C      6.419260   -2.542944   -5.077630
  C      5.872267   -5.002756   -2.427819
  C      6.173994   -6.485522   -2.606315
  H      6.734852   -6.613767   -3.534015
  H      6.821463   -6.831018   -1.793617
  H      4.469612   -7.406168   -1.655876
  H      5.230134   -8.398678   -2.885906
  C      5.896512   -2.169314   -3.694552
  H      7.428880   -2.143665   -5.208078
  H      6.505894   -3.627541   -5.175502
  C      6.807804   -2.623428   -2.551019
  H      4.894708   -2.589732   -3.557501
  H      5.778823   -1.081255   -3.635790
  C      7.111544   -4.122463   -2.520363
  H      7.751615   -2.071393   -2.614406
  H      6.345837   -2.326401   -1.604086
  H      5.362882   -4.828697   -1.471335
  H      5.174429   -4.702577   -3.211298
  H      7.778329   -4.329347   -1.677651
  H      7.673189   -4.402845   -3.417586
  F      4.763396   -8.239424   -5.698629
  H      6.036826   -2.198189   -7.176852
  H      5.467610   -0.907371   -6.127968

 Total Charge           Charge          ....    0
 Multiplicity           Mult            ....    1
 Number of Electrons    NEL             ....  136
 Basis Dimension        Dim             ....  512

ORBITAL ENERGIES
----------------

  NO   OCC          E(Eh)            E(eV)
   0   2.0000     -89.268468     -2429.1185
   1   2.0000     -24.952510      -678.9923
   2   2.0000     -19.282542      -524.7046
   3   2.0000     -19.281559      -524.6779
   4   2.0000     -14.390622      -391.5887
   5   2.0000     -10.374064      -282.2926
   6   2.0000     -10.333805      -281.1971
   7   2.0000     -10.303834      -280.3816
   8   2.0000     -10.291316      -280.0409
   9   2.0000     -10.283982      -279.8414
  10   2.0000     -10.283062      -279.8163
  11   2.0000     -10.278585      -279.6945
  12   2.0000     -10.270737      -279.4810
  13   2.0000     -10.270437      -279.4728
  14   2.0000     -10.266008      -279.3523
  15   2.0000     -10.188550      -277.2445
  16   2.0000      -8.341312      -226.9786
  17   2.0000      -6.305148      -171.5718
  18   2.0000      -6.298944      -171.4030
  19   2.0000      -6.296980      -171.3495
  20   2.0000      -1.526709       -41.5439
  21   2.0000      -1.249835       -34.0097
  22   2.0000      -1.145236       -31.1635
  23   2.0000      -1.005642       -27.3649
  24   2.0000      -0.971110       -26.4253
  25   2.0000      -0.925291       -25.1784
  26   2.0000      -0.899062       -24.4647
  27   2.0000      -0.869875       -23.6705
  28   2.0000      -0.851056       -23.1584
  29   2.0000      -0.818822       -22.2813
  30   2.0000      -0.795729       -21.6529
  31   2.0000      -0.761773       -20.7289
  32   2.0000      -0.738638       -20.0994
  33   2.0000      -0.729620       -19.8540
  34   2.0000      -0.713979       -19.4284
  35   2.0000      -0.699889       -19.0449
  36   2.0000      -0.678908       -18.4740
  37   2.0000      -0.661104       -17.9895
  38   2.0000      -0.650655       -17.7052
  39   2.0000      -0.618468       -16.8294
  40   2.0000      -0.614242       -16.7144
  41   2.0000      -0.607275       -16.5248
  42   2.0000      -0.587222       -15.9791
  43   2.0000      -0.568065       -15.4578
  44   2.0000      -0.564034       -15.3481
  45   2.0000      -0.554577       -15.0908
  46   2.0000      -0.542177       -14.7534
  47   2.0000      -0.532125       -14.4799
  48   2.0000      -0.522720       -14.2239
  49   2.0000      -0.520009       -14.1502
  50   2.0000      -0.503918       -13.7123
  51   2.0000      -0.497976       -13.5506
  52   2.0000      -0.489764       -13.3272
  53   2.0000      -0.474759       -12.9188
  54   2.0000      -0.466714       -12.6999
  55   2.0000      -0.456321       -12.4171
  56   2.0000      -0.453749       -12.3471
  57   2.0000      -0.445423       -12.1206
  58   2.0000      -0.444419       -12.0933
  59   2.0000      -0.434238       -11.8162
  60   2.0000      -0.423938       -11.5359
  61   2.0000      -0.421193       -11.4612
  62   2.0000      -0.417582       -11.3630
  63   2.0000      -0.407489       -11.0883
  64   2.0000      -0.399530       -10.8718
  65   2.0000      -0.389771       -10.6062
  66   2.0000      -0.385681       -10.4949
  67   2.0000      -0.242257        -6.5921
  68   0.0000       0.048611         1.3228
  69   0.0000       0.075273         2.0483
  70   0.0000       0.082063         2.2331
  71   0.0000       0.087126         2.3708
  72   0.0000       0.094507         2.5717

MULLIKEN ATOMIC CHARGES
-----------------------
   0 C :    0.711419
   1 C :    0.452335
   2 C :   -0.126997
   3 H :    0.278460
   4 H :   -0.136836
   5 S :    1.663402
   6 C :   -0.366515
   7 C :    0.441700
   8 N :    0.943403
   9 H :   -0.359400
  10 H :   -0.296576
  11 H :   -0.311633
  12 H :   -0.364428
  13 O :   -0.973565
  14 O :   -0.724370
  15 C :    0.320655
  16 C :   -0.031040
  17 C :    0.214800
  18 H :    0.076025
  19 H :   -0.293922
  20 H :    0.083382
  21 H :    0.001653
  22 C :   -0.102562
  23 H :   -0.124316
  24 H :   -0.584911
  25 C :    0.587577
  26 H :    0.146892
  27 H :   -0.291717
  28 C :    0.061968
  29 H :    0.046611
  30 H :   -0.047040
  31 H :    0.027235
  32 H :   -0.324775
  33 H :   -0.295127
  34 H :    0.108613
  35 F :   -0.543310
  36 H :   -0.123546
  37 H :    0.256458
Sum of atomic charges:   -0.0000000

LOEWDIN ATOMIC CHARGES
----------------------
   0 C :    0.014856
   1 C :   -0.031270
   2 C :   -0.032423
   3 H :    0.034397
   4 H :    0.035292
   5 S :    1.200099
   6 C :   -0.255316
   7 C :    0.163402
   8 N :    0.185029
   9 H :   -0.106900
  10 H :   -0.020955
  11 H :   -0.102607
  12 H :   -0.096200
  13 O :   -0.452994
  14 O :   -0.450554
  15 C :   -0.026378
  16 C :   -0.032622
  17 C :   -0.031304
  18 H :    0.011505
  19 H :    0.032121
  20 H :    0.039030
  21 H :    0.026823
  22 C :   -0.030789
  23 H :    0.027482
  24 H :   -0.010731
  25 C :   -0.033829
  26 H :    0.015434
  27 H :    0.027045
  28 C :   -0.032527
  29 H :    0.022859
  30 H :    0.021514
  31 H :    0.039478
  32 H :   -0.014615
  33 H :    0.024187
  34 H :    0.020337
  35 F :   -0.233234
  36 H :    0.030062
  37 H :    0.024298

  Mayer bond orders larger than 0.100000
B(  0-C ,  6-C ) :   1.0011 B(  0-C ,  8-N ) :   0.1527 B(  0-C , 15-C ) :   1.1587
B(  0-C , 24-H ) :   0.1466 B(  0-C , 36-H ) :   0.5437 B(  0-C , 37-H ) :   0.6722
B(  1-C ,  2-C ) :   1.2278 B(  1-C ,  4-H ) :   0.1522 B(  1-C , 17-C ) :   1.2191
B(  1-C , 20-H ) :   0.7381 B(  1-C , 21-H ) :   0.6858 B(  2-C ,  3-H ) :   0.8074
B(  2-C ,  4-H ) :   0.8922 B(  2-C ,  5-S ) :   1.0237 B(  2-C , 20-H ) :   0.1561
B(  2-C , 21-H ) :   0.1028 B(  2-C , 35-F ) :   0.1209 B(  4-H ,  5-S ) :   0.1126
B(  5-S , 13-O ) :   1.2047 B(  5-S , 14-O ) :   1.4750 B(  5-S , 35-F ) :   0.5273
B(  6-C ,  7-C ) :   1.7808 B(  6-C ,  8-N ) :   1.2873 B(  6-C , 10-H ) :  -0.1695
B(  6-C , 11-H ) :   0.1571 B(  6-C , 12-H ) :   0.2933 B(  6-C , 24-H ) :  -0.1087
B(  6-C , 36-H ) :   0.2875 B(  6-C , 37-H ) :   0.1206 B(  7-C ,  8-N ) :   0.1389
B(  7-C , 11-H ) :   0.8755 B(  7-C , 12-H ) :   0.6483 B(  8-N ,  9-H ) :   0.6789
B(  8-N , 10-H ) :   0.9307 B(  8-N , 13-O ) :  -0.1654 B(  9-H , 10-H ) :  -0.1944
B(  9-H , 13-O ) :   0.1859 B( 10-H , 14-O ) :   0.1662 B( 13-O , 14-O ) :   0.1394
B( 13-O , 24-H ) :   0.1827 B( 13-O , 35-F ) :   0.1220 B( 15-C , 22-C ) :   1.1865
B( 15-C , 23-H ) :   0.7724 B( 15-C , 24-H ) :   0.6263 B( 15-C , 26-H ) :   0.1159
B( 15-C , 27-H ) :   0.1975 B( 15-C , 36-H ) :   0.2369 B( 15-C , 37-H ) :   0.1549
B( 16-C , 17-C ) :   1.1889 B( 16-C , 18-H ) :   0.1227 B( 16-C , 19-H ) :   0.1599
B( 16-C , 28-C ) :   1.2248 B( 16-C , 31-H ) :   0.7884 B( 16-C , 32-H ) :   1.0074
B( 16-C , 33-H ) :   0.1940 B( 16-C , 34-H ) :   0.1294 B( 17-C , 18-H ) :   0.8478
B( 17-C , 19-H ) :   0.9020 B( 17-C , 20-H ) :   0.1073 B( 17-C , 21-H ) :   0.2401
B( 17-C , 28-C ) :   0.1137 B( 22-C , 23-H ) :   0.1482 B( 22-C , 24-H ) :   0.1975
B( 22-C , 25-C ) :   1.0797 B( 22-C , 26-H ) :   0.8340 B( 22-C , 27-H ) :   1.0484
B( 22-C , 29-H ) :   0.1389 B( 22-C , 30-H ) :   0.2159 B( 25-C , 28-C ) :   1.1317
B( 25-C , 29-H ) :   0.7055 B( 25-C , 30-H ) :   0.7335 B( 26-H , 32-H ) :   0.1441
B( 28-C , 29-H ) :   0.2062 B( 28-C , 30-H ) :   0.1265 B( 28-C , 31-H ) :   0.1044
B( 28-C , 33-H ) :   0.9941 B( 28-C , 34-H ) :   0.8182 B( 31-H , 32-H ) :   0.1251

Dispersion correction           -0.020833071
FINAL SINGLE POINT ENERGY     -1134.730054866930

DIPOLE MOMENT
-------------
                                X             Y             Z
Electronic contribution:     -8.08634     -23.39075     -13.55134
Nuclear contribution   :      8.54118      20.92489      15.31138
                        -----------------------------------------
Total Dipole Moment    :      0.45484      -2.46586       1.76004
                        -----------------------------------------
Magnitude (a.u.)       :      3.06350
Magnitude (Debye)      :      7.78681

Rotational constants in cm-1:     0.018156     0.012306     0.008278
Rotational constants in MHz :   544.309022   368.914527   248.178402

                             ****ORCA TERMINATED NORMALLY****
TOTAL RUN TIME: 0 days 0 hours 2 minutes 11 seconds 957 msec
