                         Program Version 5.0.0 -  RELEASE  -
|  1> !CAM-B3LYP RIJCOSX def2-TZVP def2/J TightSCF
|  2> *xyz -1 1
|  3> C         -1.91658       -2.48508       -3.64367
|  4> C         -1.36353       -1.98134       -2.29361
|  5> O         -0.35039       -2.74969       -1.79601
|  6> H         -2.22622       -1.90839       -1.60204
|  7> H         -1.05135       -0.91567       -2.44333
|  8> H         -1.11522       -2.57167       -4.34739
|  9> H         -2.64227       -1.79099       -4.01314
| 10> H         -2.37564       -3.44180       -3.50640
| 11> *
| 12>
| 13> %MaxCore 64000
| 14> %pal nprocs 4
| 15> end
| 16>
| 17> %scf
| 18>   MaxIter 150
| 19> end
| 20>
| 21>
| 22>                          ****END OF INPUT****

CARTESIAN COORDINATES (ANGSTROEM)
---------------------------------
  C     -1.916580   -2.485080   -3.643670
  C     -1.363530   -1.981340   -2.293610
  O     -0.350390   -2.749690   -1.796010
  H     -2.226220   -1.908390   -1.602040
  H     -1.051350   -0.915670   -2.443330
  H     -1.115220   -2.571670   -4.347390
  H     -2.642270   -1.790990   -4.013140
  H     -2.375640   -3.441800   -3.506400

 Total Charge           Charge          ....   -1
 Multiplicity           Mult            ....    1
 Number of Electrons    NEL             ....   26
 Basis Dimension        Dim             ....  123

ORBITAL ENERGIES
----------------

  NO   OCC          E(Eh)            E(eV)
   0   2.0000     -18.840102      -512.6652
   1   2.0000     -10.048280      -273.4276
   2   2.0000     -10.026998      -272.8485
   3   2.0000      -0.745781       -20.2937
   4   2.0000      -0.599604       -16.3161
   5   2.0000      -0.439754       -11.9663
   6   2.0000      -0.312857        -8.5133
   7   2.0000      -0.290328        -7.9002
   8   2.0000      -0.231328        -6.2948
   9   2.0000      -0.214457        -5.8357
  10   2.0000      -0.165163        -4.4943
  11   2.0000      -0.018203        -0.4953
  12   2.0000      -0.015530        -0.4226
  13   0.0000       0.252725         6.8770
  14   0.0000       0.289533         7.8786
  15   0.0000       0.314919         8.5694
  16   0.0000       0.320485         8.7208
  17   0.0000       0.353154         9.6098

MULLIKEN ATOMIC CHARGES
-----------------------
   0 C :   -0.168409
   1 C :    0.059722
   2 O :   -0.777392
   3 H :   -0.071157
   4 H :   -0.074549
   5 H :    0.027961
   6 H :   -0.023204
   7 H :    0.027029
Sum of atomic charges:   -1.0000000

LOEWDIN ATOMIC CHARGES
----------------------
   0 C :   -0.362533
   1 C :   -0.554318
   2 O :   -0.433270
   3 H :    0.052200
   4 H :    0.050448
   5 H :    0.086933
   6 H :    0.074285
   7 H :    0.086255

  Mayer bond orders larger than 0.100000
B(  0-C ,  1-C ) :   0.8749 B(  0-C ,  2-O ) :  -0.2253 B(  0-C ,  5-H ) :   0.9702
B(  0-C ,  6-H ) :   0.9370 B(  0-C ,  7-H ) :   0.9734 B(  1-C ,  2-O ) :   1.6203
B(  1-C ,  3-H ) :   0.9255 B(  1-C ,  4-H ) :   0.9299

FINAL SINGLE POINT ENERGY      -154.407224210605

DIPOLE MOMENT
-------------
                                X             Y             Z
Electronic contribution:      2.14012      -0.96196       1.87442
Nuclear contribution   :     -3.14382       1.30299      -2.83231
                        -----------------------------------------
Total Dipole Moment    :     -1.00370       0.34103      -0.95789
                        -----------------------------------------
Magnitude (a.u.)       :      1.42873
Magnitude (Debye)      :      3.63154

Rotational constants in cm-1:     1.288206     0.322942     0.285188
Rotational constants in MHz : 38619.437223  9681.562038  8549.712012

                             ****ORCA TERMINATED NORMALLY****
TOTAL RUN TIME: 0 days 0 hours 0 minutes 14 seconds 123 msec
