                         Program Version 5.0.0 -  RELEASE  -
|  1> !CAM-B3LYP RIJCOSX def2-TZVP def2/J TightSCF
|  2> *xyz 1 1
|  3> C          1.64703       -2.34528       -5.02041
|  4> C          2.20996       -2.81239       -3.66571
|  5> C          2.48901       -1.66851       -2.73754
|  6> N          3.59631       -0.94761       -2.95225
|  7> N          1.66394       -1.41369       -1.77781
|  8> H          0.81164       -1.96318       -1.70275
|  9> H          1.84550       -0.63508       -1.15875
| 10> H          4.20535       -1.17600       -3.73383
| 11> H          3.81723       -0.12585       -2.40604
| 12> H          3.14311       -3.36280       -3.81152
| 13> H          1.48768       -3.45893       -3.16521
| 14> H          1.46566       -3.19589       -5.64368
| 15> H          2.35406       -1.69850       -5.49654
| 16> H          0.73014       -1.81680       -4.86253
| 17> *
| 18>
| 19> %MaxCore 64000
| 20> %pal nprocs 4
| 21> end
| 22>
| 23> %scf
| 24>   MaxIter 150
| 25> end
| 26>
| 27>
| 28>                          ****END OF INPUT****

CARTESIAN COORDINATES (ANGSTROEM)
---------------------------------
  C      1.647030   -2.345280   -5.020410
  C      2.209960   -2.812390   -3.665710
  C      2.489010   -1.668510   -2.737540
  N      3.596310   -0.947610   -2.952250
  N      1.663940   -1.413690   -1.777810
  H      0.811640   -1.963180   -1.702750
  H      1.845500   -0.635080   -1.158750
  H      4.205350   -1.176000   -3.733830
  H      3.817230   -0.125850   -2.406040
  H      3.143110   -3.362800   -3.811520
  H      1.487680   -3.458930   -3.165210
  H      1.465660   -3.195890   -5.643680
  H      2.354060   -1.698500   -5.496540
  H      0.730140   -1.816800   -4.862530

 Total Charge           Charge          ....    1
 Multiplicity           Mult            ....    1
 Number of Electrons    NEL             ....   40
 Basis Dimension        Dim             ....  209

ORBITAL ENERGIES
----------------

  NO   OCC          E(Eh)            E(eV)
   0   2.0000     -14.640602      -398.3910
   1   2.0000     -14.630846      -398.1256
   2   2.0000     -10.569512      -287.6110
   3   2.0000     -10.442635      -284.1585
   4   2.0000     -10.397662      -282.9348
   5   2.0000      -1.290330       -35.1117
   6   2.0000      -1.192135       -32.4396
   7   2.0000      -1.051613       -28.6158
   8   2.0000      -0.939178       -25.5563
   9   2.0000      -0.893666       -24.3179
  10   2.0000      -0.848506       -23.0890
  11   2.0000      -0.824999       -22.4494
  12   2.0000      -0.774173       -21.0663
  13   2.0000      -0.720557       -19.6073
  14   2.0000      -0.692970       -18.8567
  15   2.0000      -0.682680       -18.5767
  16   2.0000      -0.610468       -16.6117
  17   2.0000      -0.602126       -16.3847
  18   2.0000      -0.596971       -16.2444
  19   2.0000      -0.557234       -15.1631
  20   0.0000      -0.157650        -4.2899
  21   0.0000      -0.123805        -3.3689
  22   0.0000      -0.077355        -2.1049
  23   0.0000      -0.075960        -2.0670
  24   0.0000      -0.042754        -1.1634

MULLIKEN ATOMIC CHARGES
-----------------------
   0 C :   -0.333690
   1 C :   -0.273703
   2 C :    0.327839
   3 N :   -0.355782
   4 N :   -0.293678
   5 H :    0.300588
   6 H :    0.279563
   7 H :    0.299213
   8 H :    0.278486
   9 H :    0.177019
  10 H :    0.142741
  11 H :    0.174600
  12 H :    0.134737
  13 H :    0.142067
Sum of atomic charges:    1.0000000

LOEWDIN ATOMIC CHARGES
----------------------
   0 C :   -0.260565
   1 C :   -0.218728
   2 C :   -0.285298
   3 N :    0.091943
   4 N :    0.132027
   5 H :    0.216553
   6 H :    0.203849
   7 H :    0.208945
   8 H :    0.195077
   9 H :    0.166258
  10 H :    0.158102
  11 H :    0.138765
  12 H :    0.124616
  13 H :    0.128456

  Mayer bond orders larger than 0.100000
B(  0-C ,  1-C ) :   0.9343 B(  0-C , 11-H ) :   0.9696 B(  0-C , 12-H ) :   0.9701
B(  0-C , 13-H ) :   0.9614 B(  1-C ,  2-C ) :   0.9528 B(  1-C ,  9-H ) :   0.9541
B(  1-C , 10-H ) :   0.9738 B(  2-C ,  3-N ) :   1.4129 B(  2-C ,  4-N ) :   1.4994
B(  3-N ,  7-H ) :   0.8905 B(  3-N ,  8-H ) :   0.8964 B(  4-N ,  5-H ) :   0.8836
B(  4-N ,  6-H ) :   0.8920

FINAL SINGLE POINT ENERGY      -228.996985590923

DIPOLE MOMENT
-------------
                                X             Y             Z
Electronic contribution:      1.19351       1.65502       3.63035
Nuclear contribution   :     -0.98617      -1.03178      -2.77619
                        -----------------------------------------
Total Dipole Moment    :      0.20734       0.62325       0.85416
                        -----------------------------------------
Magnitude (a.u.)       :      1.07750
Magnitude (Debye)      :      2.73880

Rotational constants in cm-1:     0.257311     0.127495     0.099037
Rotational constants in MHz :  7713.982239  3822.189706  2969.039713

                             ****ORCA TERMINATED NORMALLY****
TOTAL RUN TIME: 0 days 0 hours 0 minutes 34 seconds 455 msec
