                         Program Version 5.0.0 -  RELEASE  -
|  1> !CAM-B3LYP RIJCOSX def2-TZVP def2/J TightSCF
|  2> *xyz 0 1
|  3> C         -1.91658       -2.48508       -3.64367
|  4> C         -1.36353       -1.98134       -2.29361
|  5> F         -0.35039       -2.74969       -1.79601
|  6> H         -2.22622       -1.90839       -1.60204
|  7> H         -1.05135       -0.91567       -2.44333
|  8> H         -1.11522       -2.57167       -4.34739
|  9> H         -2.64227       -1.79099       -4.01314
| 10> H         -2.37564       -3.44180       -3.50640
| 11> *
| 12>
| 13> %MaxCore 64000
| 14> %pal nprocs 4
| 15> end
| 16>
| 17> %scf
| 18>   MaxIter 150
| 19> end
| 20>
| 21>
| 22>                          ****END OF INPUT****

CARTESIAN COORDINATES (ANGSTROEM)
---------------------------------
  C     -1.916580   -2.485080   -3.643670
  C     -1.363530   -1.981340   -2.293610
  F     -0.350390   -2.749690   -1.796010
  H     -2.226220   -1.908390   -1.602040
  H     -1.051350   -0.915670   -2.443330
  H     -1.115220   -2.571670   -4.347390
  H     -2.642270   -1.790990   -4.013140
  H     -2.375640   -3.441800   -3.506400

 Total Charge           Charge          ....    0
 Multiplicity           Mult            ....    1
 Number of Electrons    NEL             ....   26
 Basis Dimension        Dim             ....  123

ORBITAL ENERGIES
----------------

  NO   OCC          E(Eh)            E(eV)
   0   2.0000     -24.742416      -673.2754
   1   2.0000     -10.323961      -280.9293
   2   2.0000     -10.238486      -278.6034
   3   2.0000      -1.281766       -34.8786
   4   2.0000      -0.846225       -23.0270
   5   2.0000      -0.710243       -19.3267
   6   2.0000      -0.581486       -15.8230
   7   2.0000      -0.568763       -15.4768
   8   2.0000      -0.531424       -14.4608
   9   2.0000      -0.476260       -12.9597
  10   2.0000      -0.469938       -12.7877
  11   2.0000      -0.402777       -10.9601
  12   2.0000      -0.396232       -10.7820
  13   0.0000       0.077835         2.1180
  14   0.0000       0.116622         3.1735
  15   0.0000       0.136957         3.7268
  16   0.0000       0.141186         3.8419
  17   0.0000       0.153297         4.1714

MULLIKEN ATOMIC CHARGES
-----------------------
   0 C :   -0.329832
   1 C :    0.041703
   2 F :   -0.240080
   3 H :    0.090634
   4 H :    0.090178
   5 H :    0.119360
   6 H :    0.110158
   7 H :    0.117879
Sum of atomic charges:    0.0000000

LOEWDIN ATOMIC CHARGES
----------------------
   0 C :   -0.309852
   1 C :   -0.372490
   2 F :    0.096036
   3 H :    0.115946
   4 H :    0.117501
   5 H :    0.116625
   6 H :    0.120681
   7 H :    0.115553

  Mayer bond orders larger than 0.100000
B(  0-C ,  1-C ) :   0.9661 B(  0-C ,  5-H ) :   0.9721 B(  0-C ,  6-H ) :   0.9609
B(  0-C ,  7-H ) :   0.9733 B(  1-C ,  2-F ) :   0.9928 B(  1-C ,  3-H ) :   0.9725
B(  1-C ,  4-H ) :   0.9746

FINAL SINGLE POINT ENERGY      -179.061148108299

DIPOLE MOMENT
-------------
                                X             Y             Z
Electronic contribution:      3.61490      -1.35359       3.42717
Nuclear contribution   :     -4.15401       1.70894      -3.75000
                        -----------------------------------------
Total Dipole Moment    :     -0.53912       0.35534      -0.32283
                        -----------------------------------------
Magnitude (a.u.)       :      0.72190
Magnitude (Debye)      :      1.83492

Rotational constants in cm-1:     1.266842     0.300492     0.266603
Rotational constants in MHz : 37978.968232  9008.526876  7992.551454

                             ****ORCA TERMINATED NORMALLY****
TOTAL RUN TIME: 0 days 0 hours 0 minutes 13 seconds 19 msec
