                         Program Version 5.0.0 -  RELEASE  -
|  1> !CAM-B3LYP RIJCOSX def2-TZVP def2/J TightSCF
|  2> *xyz 0 1
|  3> C          1.64703       -2.34528       -5.02041
|  4> C          2.20996       -2.81239       -3.66571
|  5> C          2.48901       -1.66851       -2.73754
|  6> C          3.59631       -0.94761       -2.95225
|  7> N          1.66394       -1.41369       -1.77781
|  8> H          0.81164       -1.96318       -1.70275
|  9> H          1.84550       -0.63508       -1.15875
| 10> H          4.20535       -1.17600       -3.73383
| 11> H          3.81723       -0.12585       -2.40604
| 12> H          3.14311       -3.36280       -3.81152
| 13> H          1.48768       -3.45893       -3.16521
| 14> H          1.46566       -3.19589       -5.64368
| 15> H          2.35406       -1.69850       -5.49654
| 16> H          0.73014       -1.81680       -4.86253
| 17> *
| 18>
| 19> %MaxCore 64000
| 20> %pal nprocs 4
| 21> end
| 22>
| 23> %scf
| 24>   MaxIter 150
| 25> end
| 26>
| 27>
| 28>                          ****END OF INPUT****

CARTESIAN COORDINATES (ANGSTROEM)
---------------------------------
  C      1.647030   -2.345280   -5.020410
  C      2.209960   -2.812390   -3.665710
  C      2.489010   -1.668510   -2.737540
  C      3.596310   -0.947610   -2.952250
  N      1.663940   -1.413690   -1.777810
  H      0.811640   -1.963180   -1.702750
  H      1.845500   -0.635080   -1.158750
  H      4.205350   -1.176000   -3.733830
  H      3.817230   -0.125850   -2.406040
  H      3.143110   -3.362800   -3.811520
  H      1.487680   -3.458930   -3.165210
  H      1.465660   -3.195890   -5.643680
  H      2.354060   -1.698500   -5.496540
  H      0.730140   -1.816800   -4.862530

 Total Charge           Charge          ....    0
 Multiplicity           Mult            ....    1
 Number of Electrons    NEL             ....   40
 Basis Dimension        Dim             ....  209

ORBITAL ENERGIES
----------------

  NO   OCC          E(Eh)            E(eV)
   0   2.0000     -14.392062      -391.6279
   1   2.0000     -10.263687      -279.2891
   2   2.0000     -10.242665      -278.7171
   3   2.0000     -10.225960      -278.2625
   4   2.0000     -10.169264      -276.7197
   5   2.0000      -1.022261       -27.8171
   6   2.0000      -0.861405       -23.4400
   7   2.0000      -0.788334       -21.4516
   8   2.0000      -0.716894       -19.5077
   9   2.0000      -0.641923       -17.4676
  10   2.0000      -0.603355       -16.4181
  11   2.0000      -0.551179       -14.9984
  12   2.0000      -0.511642       -13.9225
  13   2.0000      -0.480442       -13.0735
  14   2.0000      -0.461451       -12.5567
  15   2.0000      -0.448153       -12.1949
  16   2.0000      -0.416933       -11.3453
  17   2.0000      -0.400883       -10.9086
  18   2.0000      -0.398689       -10.8489
  19   2.0000      -0.241185        -6.5630
  20   0.0000       0.061280         1.6675
  21   0.0000       0.089390         2.4324
  22   0.0000       0.106356         2.8941
  23   0.0000       0.112173         3.0524
  24   0.0000       0.128540         3.4977

MULLIKEN ATOMIC CHARGES
-----------------------
   0 C :   -0.319517
   1 C :   -0.227149
   2 C :    0.222685
   3 C :   -0.446147
   4 N :   -0.409606
   5 H :    0.224728
   6 H :    0.228235
   7 H :    0.096367
   8 H :    0.087799
   9 H :    0.124841
  10 H :    0.077530
  11 H :    0.111336
  12 H :    0.122359
  13 H :    0.106538
Sum of atomic charges:    0.0000000

LOEWDIN ATOMIC CHARGES
----------------------
   0 C :   -0.290107
   1 C :   -0.235719
   2 C :   -0.372815
   3 C :   -0.293174
   4 N :    0.016211
   5 H :    0.174237
   6 H :    0.177336
   7 H :    0.104028
   8 H :    0.093208
   9 H :    0.148403
  10 H :    0.130762
  11 H :    0.112945
  12 H :    0.119082
  13 H :    0.115604

  Mayer bond orders larger than 0.100000
B(  0-C ,  1-C ) :   0.9449 B(  0-C , 11-H ) :   0.9803 B(  0-C , 12-H ) :   0.9779
B(  0-C , 13-H ) :   0.9772 B(  1-C ,  2-C ) :   0.9136 B(  1-C ,  9-H ) :   0.9902
B(  1-C , 10-H ) :   0.9888 B(  2-C ,  3-C ) :   1.7219 B(  2-C ,  4-N ) :   1.2013
B(  3-C ,  7-H ) :   1.0008 B(  3-C ,  8-H ) :   0.9930 B(  4-N ,  5-H ) :   0.9248
B(  4-N ,  6-H ) :   0.9210

FINAL SINGLE POINT ENERGY      -212.521661579143

DIPOLE MOMENT
-------------
                                X             Y             Z
Electronic contribution:     -0.07560       0.64598       3.03385
Nuclear contribution   :     -0.69146      -0.83112      -2.71336
                        -----------------------------------------
Total Dipole Moment    :     -0.76707      -0.18513       0.32048
                        -----------------------------------------
Magnitude (a.u.)       :      0.85169
Magnitude (Debye)      :      2.16483

Rotational constants in cm-1:     0.270661     0.129240     0.102040
Rotational constants in MHz :  8114.202941  3874.518141  3059.074383

                             ****ORCA TERMINATED NORMALLY****
TOTAL RUN TIME: 0 days 0 hours 0 minutes 40 seconds 293 msec
