                         Program Version 5.0.0 -  RELEASE  -
|  1> !CAM-B3LYP RIJCOSX def2-TZVP def2/J TightSCF
|  2> *xyz 0 1
|  3> C          1.64703       -2.34528       -5.02041
|  4> C          2.20996       -2.81239       -3.66571
|  5> C          2.48901       -1.66851       -2.73754
|  6> N          3.59631       -0.94761       -2.95225
|  7> C          1.66394       -1.41369       -1.77781
|  8> H          0.81164       -1.96318       -1.70275
|  9> H          1.84550       -0.63508       -1.15875
| 10> H          4.20535       -1.17600       -3.73383
| 11> H          3.81723       -0.12585       -2.40604
| 12> H          3.14311       -3.36280       -3.81152
| 13> H          1.48768       -3.45893       -3.16521
| 14> H          1.46566       -3.19589       -5.64368
| 15> H          2.35406       -1.69850       -5.49654
| 16> H          0.73014       -1.81680       -4.86253
| 17> *
| 18>
| 19> %MaxCore 64000
| 20> %pal nprocs 4
| 21> end
| 22>
| 23> %scf
| 24>   MaxIter 150
| 25> end
| 26>
| 27>
| 28>                          ****END OF INPUT****

CARTESIAN COORDINATES (ANGSTROEM)
---------------------------------
  C      1.647030   -2.345280   -5.020410
  C      2.209960   -2.812390   -3.665710
  C      2.489010   -1.668510   -2.737540
  N      3.596310   -0.947610   -2.952250
  C      1.663940   -1.413690   -1.777810
  H      0.811640   -1.963180   -1.702750
  H      1.845500   -0.635080   -1.158750
  H      4.205350   -1.176000   -3.733830
  H      3.817230   -0.125850   -2.406040
  H      3.143110   -3.362800   -3.811520
  H      1.487680   -3.458930   -3.165210
  H      1.465660   -3.195890   -5.643680
  H      2.354060   -1.698500   -5.496540
  H      0.730140   -1.816800   -4.862530

 Total Charge           Charge          ....    0
 Multiplicity           Mult            ....    1
 Number of Electrons    NEL             ....   40
 Basis Dimension        Dim             ....  209

ORBITAL ENERGIES
----------------

  NO   OCC          E(Eh)            E(eV)
   0   2.0000     -14.384901      -391.4330
   1   2.0000     -10.260273      -279.1962
   2   2.0000     -10.240931      -278.6699
   3   2.0000     -10.226998      -278.2908
   4   2.0000     -10.172643      -276.8117
   5   2.0000      -1.003319       -27.3017
   6   2.0000      -0.861371       -23.4391
   7   2.0000      -0.802810       -21.8456
   8   2.0000      -0.712290       -19.3824
   9   2.0000      -0.637703       -17.3528
  10   2.0000      -0.591083       -16.0842
  11   2.0000      -0.551340       -15.0027
  12   2.0000      -0.503661       -13.7053
  13   2.0000      -0.491978       -13.3874
  14   2.0000      -0.464855       -12.6493
  15   2.0000      -0.450544       -12.2599
  16   2.0000      -0.416815       -11.3421
  17   2.0000      -0.397957       -10.8290
  18   2.0000      -0.391809       -10.6617
  19   2.0000      -0.253306        -6.8928
  20   0.0000       0.062224         1.6932
  21   0.0000       0.092915         2.5283
  22   0.0000       0.109821         2.9884
  23   0.0000       0.116307         3.1649
  24   0.0000       0.125367         3.4114

MULLIKEN ATOMIC CHARGES
-----------------------
   0 C :   -0.322051
   1 C :   -0.235490
   2 C :    0.262246
   3 N :   -0.470817
   4 C :   -0.411793
   5 H :    0.096582
   6 H :    0.086371
   7 H :    0.225805
   8 H :    0.223697
   9 H :    0.099688
  10 H :    0.109424
  11 H :    0.114933
  12 H :    0.099967
  13 H :    0.121438
Sum of atomic charges:    0.0000000

LOEWDIN ATOMIC CHARGES
----------------------
   0 C :   -0.293639
   1 C :   -0.235885
   2 C :   -0.360501
   3 N :   -0.018730
   4 C :   -0.265637
   5 H :    0.110489
   6 H :    0.101001
   7 H :    0.168067
   8 H :    0.167748
   9 H :    0.135376
  10 H :    0.146120
  11 H :    0.114174
  12 H :    0.112219
  13 H :    0.119198

  Mayer bond orders larger than 0.100000
B(  0-C ,  1-C ) :   0.9371 B(  0-C , 11-H ) :   0.9812 B(  0-C , 12-H ) :   0.9768
B(  0-C , 13-H ) :   0.9791 B(  1-C ,  2-C ) :   0.9349 B(  1-C ,  9-H ) :   0.9809
B(  1-C , 10-H ) :   0.9932 B(  2-C ,  3-N ) :   1.1216 B(  2-C ,  4-C ) :   1.7733
B(  3-N ,  7-H ) :   0.9310 B(  3-N ,  8-H ) :   0.9268 B(  4-C ,  5-H ) :   0.9987
B(  4-C ,  6-H ) :   0.9957

FINAL SINGLE POINT ENERGY      -212.526297243120

DIPOLE MOMENT
-------------
                                X             Y             Z
Electronic contribution:      1.66379       1.07817       1.98754
Nuclear contribution   :     -1.13902      -0.93906      -2.44135
                        -----------------------------------------
Total Dipole Moment    :      0.52477       0.13911      -0.45381
                        -----------------------------------------
Magnitude (a.u.)       :      0.70759
Magnitude (Debye)      :      1.79854

Rotational constants in cm-1:     0.267243     0.130607     0.102304
Rotational constants in MHz :  8011.748167  3915.504600  3066.999841

                             ****ORCA TERMINATED NORMALLY****
TOTAL RUN TIME: 0 days 0 hours 0 minutes 40 seconds 298 msec
