                         Program Version 5.0.0 -  RELEASE  -
|  1> !CAM-B3LYP RIJCOSX def2-TZVP def2/J TightSCF xyzfile
|  2>
|  3> *xyzfile 0 1 D1.xyz
|  4>
|  5> %MaxCore 64000
|  6>
|  7> %pal nprocs 18
|  8> end
|  9>
| 10> %scf
| 11>   MaxIter 150
| 12> end
| 13>
| 14>
| 15>                          ****END OF INPUT****

CARTESIAN COORDINATES (ANGSTROEM)
---------------------------------
  C      1.647032   -2.345276   -5.020411
  C      0.217628   -1.814022   -4.924389
  C      2.209964   -2.812388   -3.665708
  C     -0.811356   -2.908780   -4.607625
  C     -1.916579   -2.485081   -3.643665
  H     -2.554525   -1.712428   -4.091993
  C     -1.363531   -1.981337   -2.293608
  H     -2.553448   -3.355667   -3.458815
  F     -0.350395   -2.749689   -1.796006
  H      2.308385   -1.588704   -5.457128
  H      1.674286   -3.203478   -5.697392
  C      2.489007   -1.668510   -2.737538
  C      3.596314   -0.947608   -2.952247
  N      1.663936   -1.413685   -1.777806
  H      0.811642   -1.963178   -1.702755
  H      1.845503   -0.635078   -1.158749
  H      4.205351   -1.176003   -3.733825
  H      3.817230   -0.125845   -2.406041
  H     -1.244829   -3.280884   -5.541040
  H     -0.306331   -3.757746   -4.142734
  H     -0.036244   -1.318555   -5.865303
  H      0.175004   -1.035382   -4.158095
  H      3.143106   -3.362803   -3.811524
  H      1.487683   -3.458935   -3.165211
  H     -2.226220   -1.908386   -1.602039
  H     -1.051353   -0.915671   -2.443331

 Total Charge           Charge          ....    0
 Multiplicity           Mult            ....    1
 Number of Electrons    NEL             ....   80
 Basis Dimension        Dim             ....  406

ORBITAL ENERGIES
----------------

  NO   OCC          E(Eh)            E(eV)
   0   2.0000     -24.790926      -674.5954
   1   2.0000     -14.356026      -390.6473
   2   2.0000     -10.343409      -281.4585
   3   2.0000     -10.261313      -279.2245
   4   2.0000     -10.247760      -278.8557
   5   2.0000     -10.244584      -278.7693
   6   2.0000     -10.236134      -278.5394
   7   2.0000     -10.232896      -278.4513
   8   2.0000     -10.228927      -278.3433
   9   2.0000     -10.153993      -276.3042
  10   2.0000      -1.339372       -36.4462
  11   2.0000      -1.000273       -27.2188
  12   2.0000      -0.905719       -24.6459
  13   2.0000      -0.863025       -23.4841
  14   2.0000      -0.817385       -22.2422
  15   2.0000      -0.772360       -21.0170
  16   2.0000      -0.746289       -20.3076
  17   2.0000      -0.690240       -18.7824
  18   2.0000      -0.665847       -18.1186
  19   2.0000      -0.651946       -17.7404
  20   2.0000      -0.609972       -16.5982
  21   2.0000      -0.604231       -16.4420
  22   2.0000      -0.584863       -15.9149
  23   2.0000      -0.557827       -15.1792
  24   2.0000      -0.537325       -14.6213
  25   2.0000      -0.530008       -14.4222
  26   2.0000      -0.509636       -13.8679
  27   2.0000      -0.488085       -13.2815
  28   2.0000      -0.487366       -13.2619
  29   2.0000      -0.455934       -12.4066
  30   2.0000      -0.437280       -11.8990
  31   2.0000      -0.429764       -11.6945
  32   2.0000      -0.426547       -11.6069
  33   2.0000      -0.421035       -11.4569
  34   2.0000      -0.404946       -11.0191
  35   2.0000      -0.396034       -10.7766
  36   2.0000      -0.384127       -10.4526
  37   2.0000      -0.374134       -10.1807
  38   2.0000      -0.371723       -10.1151
  39   2.0000      -0.223922        -6.0932
  40   0.0000       0.065499         1.7823
  41   0.0000       0.079526         2.1640
  42   0.0000       0.087646         2.3850
  43   0.0000       0.099388         2.7045
  44   0.0000       0.104969         2.8564

MULLIKEN ATOMIC CHARGES
-----------------------
   0 C :   -0.162247
   1 C :   -0.222250
   2 C :   -0.266764
   3 C :   -0.219482
   4 C :   -0.203200
   5 H :    0.114919
   6 C :   -0.063486
   7 H :    0.114866
   8 F :   -0.214510
   9 H :    0.114654
  10 H :    0.093597
  11 C :    0.209515
  12 C :   -0.459148
  13 N :   -0.450603
  14 H :    0.280142
  15 H :    0.208206
  16 H :    0.088915
  17 H :    0.081446
  18 H :    0.113876
  19 H :    0.120513
  20 H :    0.106783
  21 H :    0.114242
  22 H :    0.128508
  23 H :    0.109411
  24 H :    0.125865
  25 H :    0.136231
Sum of atomic charges:   -0.0000000

LOEWDIN ATOMIC CHARGES
----------------------
   0 C :   -0.254543
   1 C :   -0.259834
   2 C :   -0.214126
   3 C :   -0.268880
   4 C :   -0.274733
   5 H :    0.143860
   6 C :   -0.351413
   7 H :    0.137605
   8 F :    0.165608
   9 H :    0.139390
  10 H :    0.133651
  11 C :   -0.374585
  12 C :   -0.307385
  13 N :    0.015246
  14 H :    0.120745
  15 H :    0.168149
  16 H :    0.100976
  17 H :    0.091025
  18 H :    0.136833
  19 H :    0.140284
  20 H :    0.133848
  21 H :    0.138249
  22 H :    0.149282
  23 H :    0.134791
  24 H :    0.127565
  25 H :    0.128392

  Mayer bond orders larger than 0.100000
B(  0-C ,  1-C ) :   0.9640 B(  0-C ,  2-C ) :   0.9325 B(  0-C ,  9-H ) :   0.9693
B(  0-C , 10-H ) :   0.9730 B(  1-C ,  3-C ) :   0.9064 B(  1-C , 20-H ) :   0.9733
B(  1-C , 21-H ) :   0.9883 B(  2-C , 11-C ) :   0.9013 B(  2-C , 22-H ) :   0.9864
B(  2-C , 23-H ) :   1.0088 B(  3-C ,  4-C ) :   0.9458 B(  3-C , 18-H ) :   0.9747
B(  3-C , 19-H ) :   0.9863 B(  4-C ,  5-H ) :   0.9573 B(  4-C ,  6-C ) :   0.9661
B(  4-C ,  7-H ) :   0.9776 B(  6-C ,  8-F ) :   0.9051 B(  6-C , 24-H ) :   0.9763
B(  6-C , 25-H ) :   0.9831 B(  8-F , 14-H ) :   0.1111 B( 11-C , 12-C ) :   1.7044
B( 11-C , 13-N ) :   1.2361 B( 12-C , 16-H ) :   0.9995 B( 12-C , 17-H ) :   0.9951
B( 13-N , 14-H ) :   0.8478 B( 13-N , 15-H ) :   0.9285

FINAL SINGLE POINT ENERGY      -468.969107312982

DIPOLE MOMENT
-------------
                                X             Y             Z
Electronic contribution:     -1.31964      -1.73879       6.92760
Nuclear contribution   :     -0.37390       1.73388      -6.94752
                        -----------------------------------------
Total Dipole Moment    :     -1.69354      -0.00491      -0.01992
                        -----------------------------------------
Magnitude (a.u.)       :      1.69366
Magnitude (Debye)      :      4.30495

Rotational constants in cm-1:     0.062220     0.032742     0.024374
Rotational constants in MHz :  1865.297979   981.573941   730.711364

                             ****ORCA TERMINATED NORMALLY****
TOTAL RUN TIME: 0 days 0 hours 1 minutes 5 seconds 811 msec
