                         Program Version 5.0.0 -  RELEASE  -
|  1> !LC-PBE RIJCOSX def2-TZVP def2/J TightSCF
|  2> *xyz -1 1
|  3> C          0.84888        2.66797       -4.30235
|  4> C          2.09343        1.86104       -4.65684
|  5> H          2.44481        2.04157       -5.67499
|  6> H          2.90175        2.13786       -3.98034
|  7> S          1.87964        0.07859       -4.46297
|  8> O          3.20757       -0.46611       -4.42026
|  9> O          1.07506       -0.05616       -3.26876
| 10> O          1.13166       -0.31996       -5.67903
| 11> H          0.05064        2.40112       -4.96303
| 12> H          1.06043        3.71210       -4.40203
| 13> H          0.56237        2.45684       -3.29327
| 14> *
| 15>
| 16> %MaxCore 64000
| 17>
| 18> %pal nprocs 4
| 19> end
| 20>
| 21> %scf
| 22>   MaxIter 150
| 23> end
| 24>
| 25>
| 26>                          ****END OF INPUT****

CARTESIAN COORDINATES (ANGSTROEM)
---------------------------------
  C      0.848880    2.667970   -4.302350
  C      2.093430    1.861040   -4.656840
  H      2.444810    2.041570   -5.674990
  H      2.901750    2.137860   -3.980340
  S      1.879640    0.078590   -4.462970
  O      3.207570   -0.466110   -4.420260
  O      1.075060   -0.056160   -3.268760
  O      1.131660   -0.319960   -5.679030
  H      0.050640    2.401120   -4.963030
  H      1.060430    3.712100   -4.402030
  H      0.562370    2.456840   -3.293270

 Total Charge           Charge          ....   -1
 Multiplicity           Mult            ....    1
 Number of Electrons    NEL             ....   58
 Basis Dimension        Dim             ....  222

ORBITAL ENERGIES
----------------

  NO   OCC          E(Eh)            E(eV)
   0   2.0000     -88.265479     -2401.8258
   1   2.0000     -18.755214      -510.3553
   2   2.0000     -18.751655      -510.2585
   3   2.0000     -18.737818      -509.8819
   4   2.0000      -9.972751      -271.3723
   5   2.0000      -9.964064      -271.1360
   6   2.0000      -7.876127      -214.3203
   7   2.0000      -5.893173      -160.3614
   8   2.0000      -5.891472      -160.3151
   9   2.0000      -5.891139      -160.3060
  10   2.0000      -1.097638       -29.8682
  11   2.0000      -0.955700       -26.0059
  12   2.0000      -0.929568       -25.2948
  13   2.0000      -0.806359       -21.9421
  14   2.0000      -0.666003       -18.1229
  15   2.0000      -0.529263       -14.4020
  16   2.0000      -0.464266       -12.6333
  17   2.0000      -0.460090       -12.5197
  18   2.0000      -0.417550       -11.3621
  19   2.0000      -0.404792       -11.0150
  20   2.0000      -0.392282       -10.6745
  21   2.0000      -0.360935        -9.8215
  22   2.0000      -0.341431        -9.2908
  23   2.0000      -0.291518        -7.9326
  24   2.0000      -0.290209        -7.8970
  25   2.0000      -0.251706        -6.8493
  26   2.0000      -0.238428        -6.4880
  27   2.0000      -0.226582        -6.1656
  28   2.0000      -0.194911        -5.3038
  29   0.0000       0.257908         7.0180
  30   0.0000       0.301602         8.2070
  31   0.0000       0.316890         8.6230
  32   0.0000       0.322658         8.7800
  33   0.0000       0.352012         9.5787

MULLIKEN ATOMIC CHARGES
-----------------------
   0 C :   -0.427606
   1 C :   -0.309026
   2 H :    0.124031
   3 H :    0.116733
   4 S :    0.729922
   5 O :   -0.518842
   6 O :   -0.536095
   7 O :   -0.575816
   8 H :    0.143140
   9 H :    0.098577
  10 H :    0.154982
Sum of atomic charges:   -1.0000000

LOEWDIN ATOMIC CHARGES
----------------------
   0 C :   -0.366236
   1 C :   -0.442703
   2 H :    0.125415
   3 H :    0.124531
   4 S :    0.381933
   5 O :   -0.367892
   6 O :   -0.376013
   7 O :   -0.430977
   8 H :    0.122420
   9 H :    0.106094
  10 H :    0.123428

  Mayer bond orders larger than 0.100000
B(  0-C ,  1-C ) :   0.9442 B(  0-C ,  8-H ) :   0.9722 B(  0-C ,  9-H ) :   0.9717
B(  0-C , 10-H ) :   0.9690 B(  1-C ,  2-H ) :   0.9659 B(  1-C ,  3-H ) :   0.9599
B(  1-C ,  4-S ) :   0.9058 B(  4-S ,  5-O ) :   1.8560 B(  4-S ,  6-O ) :   1.7839
B(  4-S ,  7-O ) :   1.7695

FINAL SINGLE POINT ENERGY      -702.102408549576

DIPOLE MOMENT
-------------
                                X             Y             Z
Electronic contribution:      1.62957      -7.65248       0.05661
Nuclear contribution   :     -1.55288       9.51857       0.00420
                        -----------------------------------------
Total Dipole Moment    :      0.07669       1.86609       0.06081
                        -----------------------------------------
Magnitude (a.u.)       :      1.86865
Magnitude (Debye)      :      4.74974

Rotational constants in cm-1:     0.163401     0.083833     0.082462
Rotational constants in MHz :  4898.624208  2513.264548  2472.149188

                             ****ORCA TERMINATED NORMALLY****
TOTAL RUN TIME: 0 days 0 hours 0 minutes 30 seconds 747 msec
