                         Program Version 5.0.0 -  RELEASE  -
|  1> !LC-PBE RIJCOSX def2-TZVP def2/J TightSCF
|  2> *xyz 1 1
|  3> C         -0.46129        2.23469       -4.98962
|  4> C          0.84888        2.66797       -4.30235
|  5> C         -0.42384        2.39877       -6.47432
|  6> N         -0.95947        3.49265       -7.00740
|  7> N          0.14558        1.48689       -7.20399
|  8> H          0.56537        0.69681       -6.72386
|  9> H          0.22068        1.58177       -8.20752
| 10> H         -1.40624        4.18151       -6.40326
| 11> H         -0.93421        3.68160       -7.99947
| 12> H         -1.28888        2.82674       -4.59500
| 13> H         -0.65170        1.18634       -4.75655
| 14> H          1.66208        2.08894       -4.68750
| 15> H          0.76716        2.51042       -3.24717
| 16> H          1.02677        3.70527       -4.49537
| 17> *
| 18>
| 19> %MaxCore 64000
| 20>
| 21> %pal nprocs 4
| 22> end
| 23>
| 24> %scf
| 25>   MaxIter 150
| 26> end
| 27>
| 28>
| 29>                          ****END OF INPUT****

CARTESIAN COORDINATES (ANGSTROEM)
---------------------------------
  C     -0.461290    2.234690   -4.989620
  C      0.848880    2.667970   -4.302350
  C     -0.423840    2.398770   -6.474320
  N     -0.959470    3.492650   -7.007400
  N      0.145580    1.486890   -7.203990
  H      0.565370    0.696810   -6.723860
  H      0.220680    1.581770   -8.207520
  H     -1.406240    4.181510   -6.403260
  H     -0.934210    3.681600   -7.999470
  H     -1.288880    2.826740   -4.595000
  H     -0.651700    1.186340   -4.756550
  H      1.662080    2.088940   -4.687500
  H      0.767160    2.510420   -3.247170
  H      1.026770    3.705270   -4.495370

 Total Charge           Charge          ....    1
 Multiplicity           Mult            ....    1
 Number of Electrons    NEL             ....   40
 Basis Dimension        Dim             ....  209

ORBITAL ENERGIES
----------------

  NO   OCC          E(Eh)            E(eV)
   0   2.0000     -14.462412      -393.5422
   1   2.0000     -14.458051      -393.4236
   2   2.0000     -10.447038      -284.2784
   3   2.0000     -10.314977      -280.6848
   4   2.0000     -10.268356      -279.4162
   5   2.0000      -1.383743       -37.6536
   6   2.0000      -1.278917       -34.8011
   7   2.0000      -1.146956       -31.2103
   8   2.0000      -1.024087       -27.8668
   9   2.0000      -0.974379       -26.5142
  10   2.0000      -0.927288       -25.2328
  11   2.0000      -0.901694       -24.5363
  12   2.0000      -0.840248       -22.8643
  13   2.0000      -0.799787       -21.7633
  14   2.0000      -0.766777       -20.8651
  15   2.0000      -0.757356       -20.6087
  16   2.0000      -0.678425       -18.4609
  17   2.0000      -0.667327       -18.1589
  18   2.0000      -0.659538       -17.9470
  19   2.0000      -0.623300       -16.9609
  20   0.0000      -0.113066        -3.0767
  21   0.0000      -0.071652        -1.9497
  22   0.0000      -0.027211        -0.7405
  23   0.0000      -0.025551        -0.6953
  24   0.0000       0.005455         0.1484

MULLIKEN ATOMIC CHARGES
-----------------------
   0 C :   -0.383847
   1 C :   -0.419628
   2 C :    0.312074
   3 N :   -0.374981
   4 N :   -0.331767
   5 H :    0.324005
   6 H :    0.304917
   7 H :    0.322513
   8 H :    0.302916
   9 H :    0.188375
  10 H :    0.209948
  11 H :    0.166853
  12 H :    0.203470
  13 H :    0.175153
Sum of atomic charges:    1.0000000

LOEWDIN ATOMIC CHARGES
----------------------
   0 C :   -0.238301
   1 C :   -0.280752
   2 C :   -0.295132
   3 N :    0.094062
   4 N :    0.120171
   5 H :    0.220004
   6 H :    0.207448
   7 H :    0.215673
   8 H :    0.201001
   9 H :    0.169162
  10 H :    0.172892
  11 H :    0.132440
  12 H :    0.145549
  13 H :    0.135782

  Mayer bond orders larger than 0.100000
B(  0-C ,  1-C ) :   0.9390 B(  0-C ,  2-C ) :   0.9620 B(  0-C ,  9-H ) :   0.9646
B(  0-C , 10-H ) :   0.9528 B(  1-C , 11-H ) :   0.9606 B(  1-C , 12-H ) :   0.9632
B(  1-C , 13-H ) :   0.9551 B(  2-C ,  3-N ) :   1.4446 B(  2-C ,  4-N ) :   1.4804
B(  3-N ,  7-H ) :   0.8793 B(  3-N ,  8-H ) :   0.8881 B(  4-N ,  5-H ) :   0.8774
B(  4-N ,  6-H ) :   0.8855

FINAL SINGLE POINT ENERGY      -228.368364124639

DIPOLE MOMENT
-------------
                                X             Y             Z
Electronic contribution:     -1.56303      -0.27306      -3.88482
Nuclear contribution   :      1.33202       0.27544       2.83701
                        -----------------------------------------
Total Dipole Moment    :     -0.23101       0.00238      -1.04782
                        -----------------------------------------
Magnitude (a.u.)       :      1.07298
Magnitude (Debye)      :      2.72730

Rotational constants in cm-1:     0.258570     0.126296     0.098869
Rotational constants in MHz :  7751.748523  3786.267300  2964.011691

                             ****ORCA TERMINATED NORMALLY****
TOTAL RUN TIME: 0 days 0 hours 0 minutes 28 seconds 53 msec
