                         Program Version 5.0.0 -  RELEASE  -
|  1> !LC-PBE RIJCOSX def2-TZVP def2/J TightSCF
|  2> *xyz 0 1
|  3> C          0.84888        2.66797       -4.30235
|  4> C          2.09343        1.86104       -4.65684
|  5> H          2.44481        2.04157       -5.67499
|  6> H          2.90175        2.13786       -3.98034
|  7> S          1.87964        0.07859       -4.46297
|  8> F          3.20757       -0.46611       -4.42026
|  9> O          1.07506       -0.05616       -3.26876
| 10> O          1.13166       -0.31996       -5.67903
| 11> H          0.05064        2.40112       -4.96303
| 12> H          1.06043        3.71210       -4.40203
| 13> H          0.56237        2.45684       -3.29327
| 14> *
| 15>
| 16> %MaxCore 64000
| 17>
| 18> %pal nprocs 4
| 19> end
| 20>
| 21> %scf
| 22>   MaxIter 150
| 23> end
| 24>
| 25>
| 26>                          ****END OF INPUT****

CARTESIAN COORDINATES (ANGSTROEM)
---------------------------------
  C      0.848880    2.667970   -4.302350
  C      2.093430    1.861040   -4.656840
  H      2.444810    2.041570   -5.674990
  H      2.901750    2.137860   -3.980340
  S      1.879640    0.078590   -4.462970
  F      3.207570   -0.466110   -4.420260
  O      1.075060   -0.056160   -3.268760
  O      1.131660   -0.319960   -5.679030
  H      0.050640    2.401120   -4.963030
  H      1.060430    3.712100   -4.402030
  H      0.562370    2.456840   -3.293270

 Total Charge           Charge          ....    0
 Multiplicity           Mult            ....    1
 Number of Electrons    NEL             ....   58
 Basis Dimension        Dim             ....  222

ORBITAL ENERGIES
----------------

  NO   OCC          E(Eh)            E(eV)
   0   2.0000     -88.534371     -2409.1427
   1   2.0000     -24.621019      -669.9720
   2   2.0000     -18.991929      -516.7967
   3   2.0000     -18.978774      -516.4387
   4   2.0000     -10.178152      -276.9616
   5   2.0000     -10.128922      -275.6220
   6   2.0000      -8.145624      -221.6537
   7   2.0000      -6.165872      -167.7819
   8   2.0000      -6.159071      -167.5968
   9   2.0000      -6.158444      -167.5798
  10   2.0000      -1.554109       -42.2895
  11   2.0000      -1.276852       -34.7449
  12   2.0000      -1.168902       -31.8074
  13   2.0000      -0.998831       -27.1796
  14   2.0000      -0.902355       -24.5543
  15   2.0000      -0.838535       -22.8177
  16   2.0000      -0.750382       -20.4189
  17   2.0000      -0.748885       -20.3782
  18   2.0000      -0.707576       -19.2541
  19   2.0000      -0.640697       -17.4343
  20   2.0000      -0.631892       -17.1947
  21   2.0000      -0.584826       -15.9139
  22   2.0000      -0.570003       -15.5106
  23   2.0000      -0.543159       -14.7801
  24   2.0000      -0.527710       -14.3597
  25   2.0000      -0.517638       -14.0857
  26   2.0000      -0.471787       -12.8380
  27   2.0000      -0.453349       -12.3363
  28   2.0000      -0.442881       -12.0514
  29   0.0000       0.109281         2.9737
  30   0.0000       0.128281         3.4907
  31   0.0000       0.152141         4.1400
  32   0.0000       0.155106         4.2207
  33   0.0000       0.167919         4.5693

MULLIKEN ATOMIC CHARGES
-----------------------
   0 C :   -0.447571
   1 C :   -0.313512
   2 H :    0.187023
   3 H :    0.168480
   4 S :    0.768023
   5 F :   -0.063413
   6 O :   -0.390437
   7 O :   -0.426915
   8 H :    0.178340
   9 H :    0.159483
  10 H :    0.180498
Sum of atomic charges:   -0.0000000

LOEWDIN ATOMIC CHARGES
----------------------
   0 C :   -0.327113
   1 C :   -0.411008
   2 H :    0.146708
   3 H :    0.141872
   4 S :    0.503240
   5 F :    0.119973
   6 O :   -0.262546
   7 O :   -0.312374
   8 H :    0.135354
   9 H :    0.131405
  10 H :    0.134489

  Mayer bond orders larger than 0.100000
B(  0-C ,  1-C ) :   0.9585 B(  0-C ,  8-H ) :   0.9622 B(  0-C ,  9-H ) :   0.9600
B(  0-C , 10-H ) :   0.9596 B(  1-C ,  2-H ) :   0.9378 B(  1-C ,  3-H ) :   0.9372
B(  1-C ,  4-S ) :   0.9344 B(  4-S ,  5-F ) :   1.1966 B(  4-S ,  6-O ) :   1.9304
B(  4-S ,  7-O ) :   1.9050

FINAL SINGLE POINT ENERGY      -726.587458271959

DIPOLE MOMENT
-------------
                                X             Y             Z
Electronic contribution:      4.23017      -9.30441       0.10564
Nuclear contribution   :     -3.08754      10.54185      -0.04092
                        -----------------------------------------
Total Dipole Moment    :      1.14263       1.23745       0.06472
                        -----------------------------------------
Magnitude (a.u.)       :      1.68554
Magnitude (Debye)      :      4.28431

Rotational constants in cm-1:     0.158925     0.081210     0.079022
Rotational constants in MHz :  4764.450166  2434.603461  2369.014434

                             ****ORCA TERMINATED NORMALLY****
TOTAL RUN TIME: 0 days 0 hours 0 minutes 27 seconds 675 msec
