                         Program Version 5.0.0 -  RELEASE  -
|  1> !LC-PBE RIJCOSX def2-TZVP def2/J TightSCF
|  2> *xyz 0 1
|  3> C         -0.46129        2.23469       -4.98962
|  4> C          0.84888        2.66797       -4.30235
|  5> C         -0.42384        2.39877       -6.47432
|  6> C         -0.95947        3.49265       -7.00740
|  7> N          0.14558        1.48689       -7.20399
|  8> H          0.56537        0.69681       -6.72386
|  9> H          0.22068        1.58177       -8.20752
| 10> H         -1.40624        4.18151       -6.40326
| 11> H         -0.93421        3.68160       -7.99947
| 12> H         -1.28888        2.82674       -4.59500
| 13> H         -0.65170        1.18634       -4.75655
| 14> H          1.66208        2.08894       -4.68750
| 15> H          0.76716        2.51042       -3.24717
| 16> H          1.02677        3.70527       -4.49537
| 17> *
| 18>
| 19> %MaxCore 64000
| 20>
| 21> %pal nprocs 4
| 22> end
| 23>
| 24> %scf
| 25>   MaxIter 150
| 26> end
| 27>
| 28>
| 29>                          ****END OF INPUT****

CARTESIAN COORDINATES (ANGSTROEM)
---------------------------------
  C     -0.461290    2.234690   -4.989620
  C      0.848880    2.667970   -4.302350
  C     -0.423840    2.398770   -6.474320
  C     -0.959470    3.492650   -7.007400
  N      0.145580    1.486890   -7.203990
  H      0.565370    0.696810   -6.723860
  H      0.220680    1.581770   -8.207520
  H     -1.406240    4.181510   -6.403260
  H     -0.934210    3.681600   -7.999470
  H     -1.288880    2.826740   -4.595000
  H     -0.651700    1.186340   -4.756550
  H      1.662080    2.088940   -4.687500
  H      0.767160    2.510420   -3.247170
  H      1.026770    3.705270   -4.495370

 Total Charge           Charge          ....    0
 Multiplicity           Mult            ....    1
 Number of Electrons    NEL             ....   40
 Basis Dimension        Dim             ....  209

ORBITAL ENERGIES
----------------

  NO   OCC          E(Eh)            E(eV)
   0   2.0000     -14.213621      -386.7723
   1   2.0000     -10.138766      -275.8898
   2   2.0000     -10.114658      -275.2338
   3   2.0000     -10.098360      -274.7904
   4   2.0000     -10.041835      -273.2522
   5   2.0000      -1.110678       -30.2231
   6   2.0000      -0.955590       -26.0029
   7   2.0000      -0.883711       -24.0470
   8   2.0000      -0.800048       -21.7704
   9   2.0000      -0.721803       -19.6413
  10   2.0000      -0.676507       -18.4087
  11   2.0000      -0.627902       -17.0861
  12   2.0000      -0.579880       -15.7793
  13   2.0000      -0.561860       -15.2890
  14   2.0000      -0.529718       -14.4144
  15   2.0000      -0.517893       -14.0926
  16   2.0000      -0.482089       -13.1183
  17   2.0000      -0.467843       -12.7307
  18   2.0000      -0.462069       -12.5735
  19   2.0000      -0.305398        -8.3103
  20   0.0000       0.108889         2.9630
  21   0.0000       0.136063         3.7025
  22   0.0000       0.153218         4.1693
  23   0.0000       0.161975         4.4076
  24   0.0000       0.172518         4.6944

MULLIKEN ATOMIC CHARGES
-----------------------
   0 C :   -0.336867
   1 C :   -0.401305
   2 C :    0.203985
   3 C :   -0.509296
   4 N :   -0.459633
   5 H :    0.254089
   6 H :    0.256152
   7 H :    0.131943
   8 H :    0.129375
   9 H :    0.154980
  10 H :    0.139196
  11 H :    0.133312
  12 H :    0.147489
  13 H :    0.156582
Sum of atomic charges:   -0.0000000

LOEWDIN ATOMIC CHARGES
----------------------
   0 C :   -0.254651
   1 C :   -0.312449
   2 C :   -0.385023
   3 C :   -0.293536
   4 N :    0.003175
   5 H :    0.179782
   6 H :    0.180977
   7 H :    0.111873
   8 H :    0.100506
   9 H :    0.156265
  10 H :    0.143236
  11 H :    0.120513
  12 H :    0.121924
  13 H :    0.127407

  Mayer bond orders larger than 0.100000
B(  0-C ,  1-C ) :   0.9346 B(  0-C ,  2-C ) :   0.9321 B(  0-C ,  9-H ) :   0.9905
B(  0-C , 10-H ) :   0.9870 B(  1-C , 11-H ) :   0.9709 B(  1-C , 12-H ) :   0.9795
B(  1-C , 13-H ) :   0.9708 B(  2-C ,  3-C ) :   1.7364 B(  2-C ,  4-N ) :   1.1722
B(  3-C ,  7-H ) :   0.9959 B(  3-C ,  8-H ) :   0.9959 B(  4-N ,  5-H ) :   0.9224
B(  4-N ,  6-H ) :   0.9197

FINAL SINGLE POINT ENERGY      -211.913155880025

DIPOLE MOMENT
-------------
                                X             Y             Z
Electronic contribution:     -0.70639      -1.19173      -2.56542
Nuclear contribution   :      1.14741       0.51394       2.60761
                        -----------------------------------------
Total Dipole Moment    :      0.44102      -0.67779       0.04219
                        -----------------------------------------
Magnitude (a.u.)       :      0.80974
Magnitude (Debye)      :      2.05821

Rotational constants in cm-1:     0.269157     0.129188     0.102123
Rotational constants in MHz :  8069.118715  3872.945231  3061.580645

                             ****ORCA TERMINATED NORMALLY****
TOTAL RUN TIME: 0 days 0 hours 0 minutes 29 seconds 710 msec
