                         Program Version 5.0.0 -  RELEASE  -
|  1> !LC-PBE RIJCOSX def2-TZVP def2/J TightSCF
|  2> *xyz 0 1
|  3> C          0.84888        2.66797       -4.30235
|  4> C          2.09343        1.86104       -4.65684
|  5> H          2.44481        2.04157       -5.67499
|  6> H          2.90175        2.13786       -3.98034
|  7> S          1.87964        0.07859       -4.46297
|  8> O          3.20757       -0.46611       -4.42026
|  9> F          1.07506       -0.05616       -3.26876
| 10> O          1.13166       -0.31996       -5.67903
| 11> H          0.05064        2.40112       -4.96303
| 12> H          1.06043        3.71210       -4.40203
| 13> H          0.56237        2.45684       -3.29327
| 14> *
| 15>
| 16> %MaxCore 64000
| 17>
| 18> %pal nprocs 4
| 19> end
| 20>
| 21> %scf
| 22>   MaxIter 150
| 23> end
| 24>
| 25>
| 26>                          ****END OF INPUT****

CARTESIAN COORDINATES (ANGSTROEM)
---------------------------------
  C      0.848880    2.667970   -4.302350
  C      2.093430    1.861040   -4.656840
  H      2.444810    2.041570   -5.674990
  H      2.901750    2.137860   -3.980340
  S      1.879640    0.078590   -4.462970
  O      3.207570   -0.466110   -4.420260
  F      1.075060   -0.056160   -3.268760
  O      1.131660   -0.319960   -5.679030
  H      0.050640    2.401120   -4.963030
  H      1.060430    3.712100   -4.402030
  H      0.562370    2.456840   -3.293270

 Total Charge           Charge          ....    0
 Multiplicity           Mult            ....    1
 Number of Electrons    NEL             ....   58
 Basis Dimension        Dim             ....  222

ORBITAL ENERGIES
----------------

  NO   OCC          E(Eh)            E(eV)
   0   2.0000     -88.533670     -2409.1236
   1   2.0000     -24.614901      -669.8055
   2   2.0000     -18.995821      -516.9026
   3   2.0000     -18.978786      -516.4390
   4   2.0000     -10.178061      -276.9591
   5   2.0000     -10.136527      -275.8289
   6   2.0000      -8.144899      -221.6340
   7   2.0000      -6.165378      -167.7685
   8   2.0000      -6.158250      -167.5745
   9   2.0000      -6.157659      -167.5584
  10   2.0000      -1.545131       -42.0452
  11   2.0000      -1.280694       -34.8495
  12   2.0000      -1.172110       -31.8947
  13   2.0000      -1.004710       -27.3396
  14   2.0000      -0.894713       -24.3464
  15   2.0000      -0.842316       -22.9206
  16   2.0000      -0.757762       -20.6197
  17   2.0000      -0.742973       -20.2173
  18   2.0000      -0.697254       -18.9732
  19   2.0000      -0.642905       -17.4943
  20   2.0000      -0.623282       -16.9604
  21   2.0000      -0.595973       -16.2173
  22   2.0000      -0.580356       -15.7923
  23   2.0000      -0.551033       -14.9944
  24   2.0000      -0.534003       -14.5310
  25   2.0000      -0.521332       -14.1862
  26   2.0000      -0.471973       -12.8430
  27   2.0000      -0.454438       -12.3659
  28   2.0000      -0.446268       -12.1436
  29   0.0000       0.098848         2.6898
  30   0.0000       0.138084         3.7575
  31   0.0000       0.150291         4.0896
  32   0.0000       0.155062         4.2195
  33   0.0000       0.167027         4.5450

MULLIKEN ATOMIC CHARGES
-----------------------
   0 C :   -0.457520
   1 C :   -0.313474
   2 H :    0.200587
   3 H :    0.182010
   4 S :    0.765939
   5 O :   -0.373022
   6 F :   -0.076790
   7 O :   -0.429795
   8 H :    0.181405
   9 H :    0.163314
  10 H :    0.157345
Sum of atomic charges:   -0.0000000

LOEWDIN ATOMIC CHARGES
----------------------
   0 C :   -0.341191
   1 C :   -0.402972
   2 H :    0.156562
   3 H :    0.146493
   4 S :    0.505042
   5 O :   -0.253021
   6 F :    0.110333
   7 O :   -0.313246
   8 H :    0.133681
   9 H :    0.132614
  10 H :    0.125705

  Mayer bond orders larger than 0.100000
B(  0-C ,  1-C ) :   0.9463 B(  0-C ,  8-H ) :   0.9604 B(  0-C ,  9-H ) :   0.9630
B(  0-C , 10-H ) :   0.9654 B(  1-C ,  2-H ) :   0.9380 B(  1-C ,  3-H ) :   0.9405
B(  1-C ,  4-S ) :   0.9279 B(  4-S ,  5-O ) :   1.9819 B(  4-S ,  6-F ) :   1.1702
B(  4-S ,  7-O ) :   1.9031

FINAL SINGLE POINT ENERGY      -726.592267297366

DIPOLE MOMENT
-------------
                                X             Y             Z
Electronic contribution:      0.55863      -8.56590       2.07149
Nuclear contribution   :     -0.86540      10.11467      -1.24082
                        -----------------------------------------
Total Dipole Moment    :     -0.30677       1.54877       0.83067
                        -----------------------------------------
Magnitude (a.u.)       :      1.78405
Magnitude (Debye)      :      4.53469

Rotational constants in cm-1:     0.154065     0.083345     0.080357
Rotational constants in MHz :  4618.752213  2498.631937  2409.037217

                             ****ORCA TERMINATED NORMALLY****
TOTAL RUN TIME: 0 days 0 hours 0 minutes 27 seconds 332 msec
