                         Program Version 5.0.0 -  RELEASE  -
|  1> !LC-PBE RIJCOSX def2-TZVP def2/J TightSCF
|  2> *xyz 0 1
|  3> C         -0.46129        2.23469       -4.98962
|  4> C          0.84888        2.66797       -4.30235
|  5> C         -0.42384        2.39877       -6.47432
|  6> N         -0.95947        3.49265       -7.00740
|  7> C          0.14558        1.48689       -7.20399
|  8> H          0.56537        0.69681       -6.72386
|  9> H          0.22068        1.58177       -8.20752
| 10> H         -1.40624        4.18151       -6.40326
| 11> H         -0.93421        3.68160       -7.99947
| 12> H         -1.28888        2.82674       -4.59500
| 13> H         -0.65170        1.18634       -4.75655
| 14> H          1.66208        2.08894       -4.68750
| 15> H          0.76716        2.51042       -3.24717
| 16> H          1.02677        3.70527       -4.49537
| 17> *
| 18>
| 19> %MaxCore 64000
| 20>
| 21> %pal nprocs 4
| 22> end
| 23>
| 24> %scf
| 25>   MaxIter 150
| 26> end
| 27>
| 28>
| 29>                          ****END OF INPUT****

CARTESIAN COORDINATES (ANGSTROEM)
---------------------------------
  C     -0.461290    2.234690   -4.989620
  C      0.848880    2.667970   -4.302350
  C     -0.423840    2.398770   -6.474320
  N     -0.959470    3.492650   -7.007400
  C      0.145580    1.486890   -7.203990
  H      0.565370    0.696810   -6.723860
  H      0.220680    1.581770   -8.207520
  H     -1.406240    4.181510   -6.403260
  H     -0.934210    3.681600   -7.999470
  H     -1.288880    2.826740   -4.595000
  H     -0.651700    1.186340   -4.756550
  H      1.662080    2.088940   -4.687500
  H      0.767160    2.510420   -3.247170
  H      1.026770    3.705270   -4.495370

 Total Charge           Charge          ....    0
 Multiplicity           Mult            ....    1
 Number of Electrons    NEL             ....   40
 Basis Dimension        Dim             ....  209

ORBITAL ENERGIES
----------------

  NO   OCC          E(Eh)            E(eV)
   0   2.0000     -14.210070      -386.6757
   1   2.0000     -10.136102      -275.8174
   2   2.0000     -10.114165      -275.2204
   3   2.0000     -10.096754      -274.7466
   4   2.0000     -10.040670      -273.2205
   5   2.0000      -1.098426       -29.8897
   6   2.0000      -0.956708       -26.0333
   7   2.0000      -0.887303       -24.1447
   8   2.0000      -0.801147       -21.8003
   9   2.0000      -0.715832       -19.4788
  10   2.0000      -0.666133       -18.1264
  11   2.0000      -0.630233       -17.1495
  12   2.0000      -0.582123       -15.8404
  13   2.0000      -0.555347       -15.1118
  14   2.0000      -0.529636       -14.4121
  15   2.0000      -0.519337       -14.1319
  16   2.0000      -0.479046       -13.0355
  17   2.0000      -0.465630       -12.6704
  18   2.0000      -0.463847       -12.6219
  19   2.0000      -0.310550        -8.4505
  20   0.0000       0.110989         3.0202
  21   0.0000       0.135953         3.6995
  22   0.0000       0.154204         4.1961
  23   0.0000       0.160069         4.3557
  24   0.0000       0.175268         4.7693

MULLIKEN ATOMIC CHARGES
-----------------------
   0 C :   -0.331815
   1 C :   -0.407034
   2 C :    0.234986
   3 N :   -0.498434
   4 C :   -0.499920
   5 H :    0.138062
   6 H :    0.130694
   7 H :    0.251663
   8 H :    0.253199
   9 H :    0.124625
  10 H :    0.163359
  11 H :    0.154135
  12 H :    0.145186
  13 H :    0.141293
Sum of atomic charges:   -0.0000000

LOEWDIN ATOMIC CHARGES
----------------------
   0 C :   -0.253340
   1 C :   -0.310731
   2 C :   -0.376222
   3 N :   -0.020848
   4 C :   -0.279044
   5 H :    0.117060
   6 H :    0.105686
   7 H :    0.174796
   8 H :    0.174296
   9 H :    0.141579
  10 H :    0.155939
  11 H :    0.126474
  12 H :    0.121028
  13 H :    0.123326

  Mayer bond orders larger than 0.100000
B(  0-C ,  1-C ) :   0.9403 B(  0-C ,  2-C ) :   0.9141 B(  0-C ,  9-H ) :   0.9926
B(  0-C , 10-H ) :   0.9909 B(  1-C , 11-H ) :   0.9709 B(  1-C , 12-H ) :   0.9800
B(  1-C , 13-H ) :   0.9715 B(  2-C ,  3-N ) :   1.1374 B(  2-C ,  4-C ) :   1.7560
B(  3-N ,  7-H ) :   0.9238 B(  3-N ,  8-H ) :   0.9217 B(  4-C ,  5-H ) :   0.9937
B(  4-C ,  6-H ) :   0.9961

FINAL SINGLE POINT ENERGY      -211.913678886036

DIPOLE MOMENT
-------------
                                X             Y             Z
Electronic contribution:     -1.70701       0.59655      -2.39101
Nuclear contribution   :      1.40335       0.04939       2.56207
                        -----------------------------------------
Total Dipole Moment    :     -0.30365       0.64594       0.17107
                        -----------------------------------------
Magnitude (a.u.)       :      0.73397
Magnitude (Debye)      :      1.86560

Rotational constants in cm-1:     0.271383     0.128194     0.101873
Rotational constants in MHz :  8135.853259  3843.152748  3054.074278

                             ****ORCA TERMINATED NORMALLY****
TOTAL RUN TIME: 0 days 0 hours 0 minutes 29 seconds 523 msec
