                         Program Version 5.0.0 -  RELEASE  -
|  1> !LC-PBE RIJCOSX def2-TZVP def2/J TightSCF
|  2> *xyz 0 1
|  3> C          0.84888        2.66797       -4.30235
|  4> C          2.09343        1.86104       -4.65684
|  5> H          2.44481        2.04157       -5.67499
|  6> H          2.90175        2.13786       -3.98034
|  7> S          1.87964        0.07859       -4.46297
|  8> O          3.20757       -0.46611       -4.42026
|  9> O          1.07506       -0.05616       -3.26876
| 10> F          1.13166       -0.31996       -5.67903
| 11> H          0.05064        2.40112       -4.96303
| 12> H          1.06043        3.71210       -4.40203
| 13> H          0.56237        2.45684       -3.29327
| 14> *
| 15>
| 16> %MaxCore 64000
| 17>
| 18> %pal nprocs 4
| 19> end
| 20>
| 21> %scf
| 22>   MaxIter 150
| 23> end
| 24>
| 25>
| 26>                          ****END OF INPUT****

CARTESIAN COORDINATES (ANGSTROEM)
---------------------------------
  C      0.848880    2.667970   -4.302350
  C      2.093430    1.861040   -4.656840
  H      2.444810    2.041570   -5.674990
  H      2.901750    2.137860   -3.980340
  S      1.879640    0.078590   -4.462970
  O      3.207570   -0.466110   -4.420260
  O      1.075060   -0.056160   -3.268760
  F      1.131660   -0.319960   -5.679030
  H      0.050640    2.401120   -4.963030
  H      1.060430    3.712100   -4.402030
  H      0.562370    2.456840   -3.293270

 Total Charge           Charge          ....    0
 Multiplicity           Mult            ....    1
 Number of Electrons    NEL             ....   58
 Basis Dimension        Dim             ....  222

ORBITAL ENERGIES
----------------

  NO   OCC          E(Eh)            E(eV)
   0   2.0000     -88.531946     -2409.0767
   1   2.0000     -24.595939      -669.2895
   2   2.0000     -18.995623      -516.8972
   3   2.0000     -18.991946      -516.7971
   4   2.0000     -10.177260      -276.9373
   5   2.0000     -10.130568      -275.6668
   6   2.0000      -8.143179      -221.5872
   7   2.0000      -6.163684      -167.7224
   8   2.0000      -6.156761      -167.5340
   9   2.0000      -6.155804      -167.5079
  10   2.0000      -1.515313       -41.2338
  11   2.0000      -1.288949       -35.0741
  12   2.0000      -1.191093       -32.4113
  13   2.0000      -1.000583       -27.2273
  14   2.0000      -0.885109       -24.0850
  15   2.0000      -0.832578       -22.6556
  16   2.0000      -0.737074       -20.0568
  17   2.0000      -0.721275       -19.6269
  18   2.0000      -0.700057       -19.0495
  19   2.0000      -0.643282       -17.5046
  20   2.0000      -0.625681       -17.0257
  21   2.0000      -0.602063       -16.3830
  22   2.0000      -0.573349       -15.6016
  23   2.0000      -0.547495       -14.8981
  24   2.0000      -0.538444       -14.6518
  25   2.0000      -0.516006       -14.0412
  26   2.0000      -0.480864       -13.0850
  27   2.0000      -0.464168       -12.6307
  28   2.0000      -0.460065       -12.5190
  29   0.0000       0.103518         2.8169
  30   0.0000       0.137681         3.7465
  31   0.0000       0.147132         4.0037
  32   0.0000       0.158004         4.2995
  33   0.0000       0.171351         4.6627

MULLIKEN ATOMIC CHARGES
-----------------------
   0 C :   -0.446129
   1 C :   -0.323599
   2 H :    0.180725
   3 H :    0.194722
   4 S :    0.771126
   5 O :   -0.380743
   6 O :   -0.398844
   7 F :   -0.102259
   8 H :    0.157514
   9 H :    0.159577
  10 H :    0.187910
Sum of atomic charges:    0.0000000

LOEWDIN ATOMIC CHARGES
----------------------
   0 C :   -0.338214
   1 C :   -0.406628
   2 H :    0.143650
   3 H :    0.156433
   4 S :    0.510364
   5 O :   -0.256344
   6 O :   -0.265157
   7 F :    0.062184
   8 H :    0.128042
   9 H :    0.130768
  10 H :    0.134902

  Mayer bond orders larger than 0.100000
B(  0-C ,  1-C ) :   0.9476 B(  0-C ,  8-H ) :   0.9668 B(  0-C ,  9-H ) :   0.9617
B(  0-C , 10-H ) :   0.9581 B(  1-C ,  2-H ) :   0.9445 B(  1-C ,  3-H ) :   0.9371
B(  1-C ,  4-S ) :   0.9268 B(  4-S ,  5-O ) :   1.9791 B(  4-S ,  6-O ) :   1.9278
B(  4-S ,  7-F ) :   1.1412

FINAL SINGLE POINT ENERGY      -726.608279769079

DIPOLE MOMENT
-------------
                                X             Y             Z
Electronic contribution:      0.64331      -9.05283      -2.08771
Nuclear contribution   :     -0.92438      10.38956       1.27076
                        -----------------------------------------
Total Dipole Moment    :     -0.28107       1.33674      -0.81695
                        -----------------------------------------
Magnitude (a.u.)       :      1.59162
Magnitude (Debye)      :      4.04559

Rotational constants in cm-1:     0.154243     0.082247     0.080562
Rotational constants in MHz :  4624.087322  2465.703680  2415.175852

                             ****ORCA TERMINATED NORMALLY****
TOTAL RUN TIME: 0 days 0 hours 0 minutes 28 seconds 847 msec
