                         Program Version 5.0.0 -  RELEASE  -
|  1> !LC-PBE RIJCOSX def2-TZVP def2/J TightSCF xyzfile
|  2>
|  3> *xyzfile 0 1 D1.xyz
|  4>
|  5> %MaxCore 64000
|  6>
|  7> %pal nprocs 18
|  8> end
|  9>
| 10> %scf
| 11>   MaxIter 150
| 12> end
| 13>
| 14>
| 15>                          ****END OF INPUT****

CARTESIAN COORDINATES (ANGSTROEM)
---------------------------------
  C     -0.461293    2.234686   -4.989619
  C      0.848883    2.667967   -4.302351
  C      2.093434    1.861037   -4.656845
  H      2.444814    2.041567   -5.674990
  H      2.901748    2.137864   -3.980338
  S      1.879644    0.078594   -4.462965
  C     -0.423841    2.398772   -6.474317
  C     -0.959467    3.492647   -7.007401
  N      0.145585    1.486891   -7.203987
  H      0.565371    0.696807   -6.723858
  H      0.220682    1.581768   -8.207520
  H     -1.406243    4.181507   -6.403261
  H     -0.934215    3.681601   -7.999468
  F      3.207574   -0.466111   -4.420259
  O      1.075064   -0.056160   -3.268758
  O      1.131661   -0.319960   -5.679031
  H      0.668432    2.559427   -3.232850
  H      1.034074    3.729426   -4.497081
  H     -1.288884    2.826737   -4.594997
  H     -0.651696    1.186343   -4.756552

 Total Charge           Charge          ....    0
 Multiplicity           Mult            ....    1
 Number of Electrons    NEL             ....   88
 Basis Dimension        Dim             ....  376

ORBITAL ENERGIES
----------------

  NO   OCC          E(Eh)            E(eV)
   0   2.0000     -88.555164     -2409.7085
   1   2.0000     -24.637390      -670.4175
   2   2.0000     -19.009970      -517.2876
   3   2.0000     -19.006539      -517.1942
   4   2.0000     -14.184397      -385.9771
   5   2.0000     -10.185071      -277.1499
   6   2.0000     -10.145154      -276.0637
   7   2.0000     -10.132113      -275.7088
   8   2.0000     -10.116696      -275.2893
   9   2.0000     -10.034774      -273.0601
  10   2.0000      -8.166518      -222.2223
  11   2.0000      -6.186621      -168.3465
  12   2.0000      -6.179937      -168.1646
  13   2.0000      -6.179502      -168.1528
  14   2.0000      -1.570545       -42.7367
  15   2.0000      -1.300124       -35.3782
  16   2.0000      -1.197670       -32.5903
  17   2.0000      -1.095251       -29.8033
  18   2.0000      -1.015536       -27.6341
  19   2.0000      -0.941871       -25.6296
  20   2.0000      -0.905031       -24.6271
  21   2.0000      -0.860929       -23.4271
  22   2.0000      -0.811285       -22.0762
  23   2.0000      -0.769602       -20.9419
  24   2.0000      -0.757303       -20.6073
  25   2.0000      -0.733259       -19.9530
  26   2.0000      -0.709634       -19.3101
  27   2.0000      -0.676083       -18.3971
  28   2.0000      -0.652881       -17.7658
  29   2.0000      -0.638394       -17.3716
  30   2.0000      -0.621427       -16.9099
  31   2.0000      -0.598606       -16.2889
  32   2.0000      -0.589736       -16.0475
  33   2.0000      -0.557810       -15.1788
  34   2.0000      -0.536441       -14.5973
  35   2.0000      -0.532341       -14.4857
  36   2.0000      -0.516562       -14.0564
  37   2.0000      -0.495255       -13.4766
  38   2.0000      -0.488094       -13.2817
  39   2.0000      -0.480316       -13.0701
  40   2.0000      -0.467681       -12.7262
  41   2.0000      -0.458202       -12.4683
  42   2.0000      -0.449828       -12.2404
  43   2.0000      -0.294842        -8.0231
  44   0.0000       0.100969         2.7475
  45   0.0000       0.112985         3.0745
  46   0.0000       0.131921         3.5897
  47   0.0000       0.141832         3.8595
  48   0.0000       0.144585         3.9344

MULLIKEN ATOMIC CHARGES
-----------------------
   0 C :   -0.479489
   1 C :   -0.259102
   2 C :   -0.411265
   3 H :    0.225877
   4 H :    0.195331
   5 S :    0.799927
   6 C :    0.220426
   7 C :   -0.519691
   8 N :   -0.460357
   9 H :    0.281366
  10 H :    0.240275
  11 H :    0.125140
  12 H :    0.128826
  13 F :   -0.056527
  14 O :   -0.365918
  15 O :   -0.439102
  16 H :    0.183567
  17 H :    0.179650
  18 H :    0.176242
  19 H :    0.234824
Sum of atomic charges:   -0.0000000

LOEWDIN ATOMIC CHARGES
----------------------
   0 C :   -0.230701
   1 C :   -0.282534
   2 C :   -0.381958
   3 H :    0.154057
   4 H :    0.148254
   5 S :    0.529152
   6 C :   -0.386662
   7 C :   -0.305893
   8 N :    0.003686
   9 H :    0.138867
  10 H :    0.174443
  11 H :    0.108973
  12 H :    0.099899
  13 F :    0.127314
  14 O :   -0.245496
  15 O :   -0.283938
  16 H :    0.155614
  17 H :    0.159406
  18 H :    0.162020
  19 H :    0.155498

  Mayer bond orders larger than 0.100000
B(  0-C ,  1-C ) :   0.9025 B(  0-C ,  6-C ) :   0.8651 B(  0-C , 18-H ) :   0.9821
B(  0-C , 19-H ) :   0.9959 B(  1-C ,  2-C ) :   0.9444 B(  1-C , 16-H ) :   0.9693
B(  1-C , 17-H ) :   0.9475 B(  2-C ,  3-H ) :   0.9213 B(  2-C ,  4-H ) :   0.9395
B(  2-C ,  5-S ) :   0.9504 B(  5-S , 13-F ) :   1.2119 B(  5-S , 14-O ) :   1.9427
B(  5-S , 15-O ) :   1.7597 B(  6-C ,  7-C ) :   1.7173 B(  6-C ,  8-N ) :   1.2065
B(  7-C , 11-H ) :   0.9954 B(  7-C , 12-H ) :   0.9983 B(  8-N ,  9-H ) :   0.8505
B(  8-N , 10-H ) :   0.9274 B(  9-H , 15-O ) :   0.1021

FINAL SINGLE POINT ENERGY      -898.126095973756

DIPOLE MOMENT
-------------
                                X             Y             Z
Electronic contribution:     10.23829     -13.91088       5.49350
Nuclear contribution   :     -8.53047      14.15581      -5.17613
                        -----------------------------------------
Total Dipole Moment    :      1.70782       0.24493       0.31737
                        -----------------------------------------
Magnitude (a.u.)       :      1.75424
Magnitude (Debye)      :      4.45893

Rotational constants in cm-1:     0.081196     0.024861     0.022477
Rotational constants in MHz :  2434.181666   745.320670   673.846846

                             ****ORCA TERMINATED NORMALLY****
TOTAL RUN TIME: 0 days 0 hours 0 minutes 38 seconds 838 msec
