                         Program Version 5.0.0 -  RELEASE  -
|  1> !LC-PBE RIJCOSX def2-TZVP def2/J TightSCF xyzfile
|  2>
|  3> *xyzfile 0 1 D3.xyz
|  4>
|  5> %MaxCore 64000
|  6>
|  7> %pal nprocs 18
|  8> end
|  9>
| 10> %scf
| 11>   MaxIter 150
| 12> end
| 13>
| 14>
| 15>                          ****END OF INPUT****

CARTESIAN COORDINATES (ANGSTROEM)
---------------------------------
  C     -0.461293    2.234686   -4.989619
  C      0.848883    2.667967   -4.302351
  C      2.093434    1.861037   -4.656845
  H      2.444814    2.041567   -5.674990
  H      2.901748    2.137864   -3.980338
  S      1.879644    0.078594   -4.462965
  C     -0.423841    2.398772   -6.474317
  C     -0.959467    3.492647   -7.007401
  N      0.145585    1.486891   -7.203987
  H      0.565371    0.696807   -6.723858
  H      0.220682    1.581768   -8.207520
  H     -1.406243    4.181507   -6.403261
  H     -0.934215    3.681601   -7.999468
  O      3.207574   -0.466111   -4.420259
  F      1.075064   -0.056160   -3.268758
  O      1.131661   -0.319960   -5.679031
  H      0.668432    2.559427   -3.232850
  H      1.034074    3.729426   -4.497081
  H     -1.288884    2.826737   -4.594997
  H     -0.651696    1.186343   -4.756552

 Total Charge           Charge          ....    0
 Multiplicity           Mult            ....    1
 Number of Electrons    NEL             ....   88
 Basis Dimension        Dim             ....  376

ORBITAL ENERGIES
----------------

  NO   OCC          E(Eh)            E(eV)
   0   2.0000     -88.554054     -2409.6783
   1   2.0000     -24.631000      -670.2436
   2   2.0000     -19.012933      -517.3682
   3   2.0000     -19.005451      -517.1646
   4   2.0000     -14.187324      -386.0567
   5   2.0000     -10.184610      -277.1373
   6   2.0000     -10.151573      -276.2384
   7   2.0000     -10.138105      -275.8719
   8   2.0000     -10.128220      -275.6029
   9   2.0000     -10.039948      -273.2009
  10   2.0000      -8.165372      -222.1911
  11   2.0000      -6.185759      -168.3231
  12   2.0000      -6.178870      -168.1356
  13   2.0000      -6.178053      -168.1134
  14   2.0000      -1.561311       -42.4854
  15   2.0000      -1.302293       -35.4372
  16   2.0000      -1.200974       -32.6802
  17   2.0000      -1.099425       -29.9169
  18   2.0000      -1.022315       -27.8186
  19   2.0000      -0.941802       -25.6277
  20   2.0000      -0.902738       -24.5647
  21   2.0000      -0.866292       -23.5730
  22   2.0000      -0.812687       -22.1143
  23   2.0000      -0.768004       -20.8985
  24   2.0000      -0.763799       -20.7840
  25   2.0000      -0.727915       -19.8076
  26   2.0000      -0.715361       -19.4660
  27   2.0000      -0.669624       -18.2214
  28   2.0000      -0.651140       -17.7184
  29   2.0000      -0.642310       -17.4781
  30   2.0000      -0.622254       -16.9324
  31   2.0000      -0.603635       -16.4257
  32   2.0000      -0.595629       -16.2079
  33   2.0000      -0.565808       -15.3964
  34   2.0000      -0.546406       -14.8685
  35   2.0000      -0.538829       -14.6623
  36   2.0000      -0.519274       -14.1302
  37   2.0000      -0.512683       -13.9508
  38   2.0000      -0.485585       -13.2134
  39   2.0000      -0.479734       -13.0542
  40   2.0000      -0.472982       -12.8705
  41   2.0000      -0.464039       -12.6271
  42   2.0000      -0.452523       -12.3138
  43   2.0000      -0.299131        -8.1398
  44   0.0000       0.093133         2.5343
  45   0.0000       0.121072         3.2945
  46   0.0000       0.128310         3.4915
  47   0.0000       0.135672         3.6918
  48   0.0000       0.143493         3.9047

MULLIKEN ATOMIC CHARGES
-----------------------
   0 C :   -0.479094
   1 C :   -0.285426
   2 C :   -0.399845
   3 H :    0.236079
   4 H :    0.205900
   5 S :    0.802246
   6 C :    0.229138
   7 C :   -0.517673
   8 N :   -0.459739
   9 H :    0.287043
  10 H :    0.242368
  11 H :    0.125225
  12 H :    0.132009
  13 O :   -0.364412
  14 F :   -0.061361
  15 O :   -0.440164
  16 H :    0.176721
  17 H :    0.180931
  18 H :    0.180269
  19 H :    0.209784
Sum of atomic charges:    0.0000000

LOEWDIN ATOMIC CHARGES
----------------------
   0 C :   -0.236167
   1 C :   -0.294803
   2 C :   -0.372890
   3 H :    0.163364
   4 H :    0.152708
   5 S :    0.531827
   6 C :   -0.386826
   7 C :   -0.302801
   8 N :    0.006088
   9 H :    0.139479
  10 H :    0.175658
  11 H :    0.109100
  12 H :    0.101107
  13 O :   -0.240503
  14 F :    0.121082
  15 O :   -0.283630
  16 H :    0.148070
  17 H :    0.159657
  18 H :    0.162523
  19 H :    0.146958

  Mayer bond orders larger than 0.100000
B(  0-C ,  1-C ) :   0.8828 B(  0-C ,  6-C ) :   0.8516 B(  0-C , 18-H ) :   0.9807
B(  0-C , 19-H ) :   1.0126 B(  1-C ,  2-C ) :   0.9344 B(  1-C , 16-H ) :   0.9803
B(  1-C , 17-H ) :   0.9484 B(  2-C ,  3-H ) :   0.9198 B(  2-C ,  4-H ) :   0.9453
B(  2-C ,  5-S ) :   0.9443 B(  5-S , 13-O ) :   2.0105 B(  5-S , 14-F ) :   1.1822
B(  5-S , 15-O ) :   1.7505 B(  6-C ,  7-C ) :   1.7202 B(  6-C ,  8-N ) :   1.2141
B(  7-C , 11-H ) :   0.9939 B(  7-C , 12-H ) :   1.0000 B(  8-N ,  9-H ) :   0.8495
B(  8-N , 10-H ) :   0.9262

FINAL SINGLE POINT ENERGY      -898.130617676718

DIPOLE MOMENT
-------------
                                X             Y             Z
Electronic contribution:      6.47699     -13.12170       7.44155
Nuclear contribution   :     -6.19944      13.70770      -6.43483
                        -----------------------------------------
Total Dipole Moment    :      0.27756       0.58600       1.00673
                        -----------------------------------------
Magnitude (a.u.)       :      1.19747
Magnitude (Debye)      :      3.04372

Rotational constants in cm-1:     0.079903     0.025241     0.022805
Rotational constants in MHz :  2395.439281   756.708181   683.680583

                             ****ORCA TERMINATED NORMALLY****
TOTAL RUN TIME: 0 days 0 hours 0 minutes 30 seconds 359 msec
