                         Program Version 5.0.0 -  RELEASE  -
|  1> !LC-PBE RIJCOSX def2-TZVP def2/J TightSCF xyzfile
|  2>
|  3> *xyzfile 0 1 D5.xyz
|  4>
|  5> %MaxCore 64000
|  6>
|  7> %pal nprocs 18
|  8> end
|  9>
| 10> %scf
| 11>   MaxIter 150
| 12> end
| 13>
| 14>
| 15>                          ****END OF INPUT****

CARTESIAN COORDINATES (ANGSTROEM)
---------------------------------
  C     -0.461293    2.234686   -4.989619
  C      0.848883    2.667967   -4.302351
  C      2.093434    1.861037   -4.656845
  H      2.444814    2.041567   -5.674990
  H      2.901748    2.137864   -3.980338
  S      1.879644    0.078594   -4.462965
  C     -0.423841    2.398772   -6.474317
  C     -0.959467    3.492647   -7.007401
  N      0.145585    1.486891   -7.203987
  H      0.565371    0.696807   -6.723858
  H      0.220682    1.581768   -8.207520
  H     -1.406243    4.181507   -6.403261
  H     -0.934215    3.681601   -7.999468
  O      3.207574   -0.466111   -4.420259
  O      1.075064   -0.056160   -3.268758
  F      1.131661   -0.319960   -5.679031
  H      0.668432    2.559427   -3.232850
  H      1.034074    3.729426   -4.497081
  H     -1.288884    2.826737   -4.594997
  H     -0.651696    1.186343   -4.756552

 Total Charge           Charge          ....    0
 Multiplicity           Mult            ....    1
 Number of Electrons    NEL             ....   88
 Basis Dimension        Dim             ....  376

ORBITAL ENERGIES
----------------

  NO   OCC          E(Eh)            E(eV)
   0   2.0000     -88.544619     -2409.4216
   1   2.0000     -24.622322      -670.0074
   2   2.0000     -19.007730      -517.2266
   3   2.0000     -19.003927      -517.1231
   4   2.0000     -14.216768      -386.8579
   5   2.0000     -10.181492      -277.0525
   6   2.0000     -10.150180      -276.2004
   7   2.0000     -10.146119      -276.0899
   8   2.0000     -10.131524      -275.6928
   9   2.0000     -10.053023      -273.5567
  10   2.0000      -8.156302      -221.9443
  11   2.0000      -6.177201      -168.0902
  12   2.0000      -6.169505      -167.8808
  13   2.0000      -6.168688      -167.8585
  14   2.0000      -1.545044       -42.0428
  15   2.0000      -1.302912       -35.4540
  16   2.0000      -1.203010       -32.7356
  17   2.0000      -1.122616       -30.5479
  18   2.0000      -1.018428       -27.7128
  19   2.0000      -0.946018       -25.7425
  20   2.0000      -0.913196       -24.8493
  21   2.0000      -0.867147       -23.5963
  22   2.0000      -0.823111       -22.3980
  23   2.0000      -0.764341       -20.7988
  24   2.0000      -0.750142       -20.4124
  25   2.0000      -0.727722       -19.8023
  26   2.0000      -0.708910       -19.2904
  27   2.0000      -0.686626       -18.6840
  28   2.0000      -0.652668       -17.7600
  29   2.0000      -0.636507       -17.3202
  30   2.0000      -0.621450       -16.9105
  31   2.0000      -0.615163       -16.7394
  32   2.0000      -0.591532       -16.0964
  33   2.0000      -0.568450       -15.4683
  34   2.0000      -0.546469       -14.8702
  35   2.0000      -0.536503       -14.5990
  36   2.0000      -0.525929       -14.3113
  37   2.0000      -0.512505       -13.9460
  38   2.0000      -0.491844       -13.3838
  39   2.0000      -0.486948       -13.2505
  40   2.0000      -0.474444       -12.9103
  41   2.0000      -0.470427       -12.8010
  42   2.0000      -0.462101       -12.5744
  43   2.0000      -0.315773        -8.5926
  44   0.0000       0.098417         2.6781
  45   0.0000       0.119522         3.2524
  46   0.0000       0.124413         3.3854
  47   0.0000       0.129708         3.5295
  48   0.0000       0.141478         3.8498

MULLIKEN ATOMIC CHARGES
-----------------------
   0 C :   -0.501383
   1 C :   -0.239366
   2 C :   -0.428353
   3 H :    0.223652
   4 H :    0.215318
   5 S :    0.777978
   6 C :    0.227729
   7 C :   -0.500666
   8 N :   -0.459688
   9 H :    0.253958
  10 H :    0.253961
  11 H :    0.131944
  12 H :    0.134393
  13 O :   -0.374784
  14 O :   -0.375822
  15 F :   -0.108474
  16 H :    0.188476
  17 H :    0.175962
  18 H :    0.182733
  19 H :    0.222431
Sum of atomic charges:   -0.0000000

LOEWDIN ATOMIC CHARGES
----------------------
   0 C :   -0.234264
   1 C :   -0.288740
   2 C :   -0.378401
   3 H :    0.150659
   4 H :    0.161234
   5 S :    0.520343
   6 C :   -0.388094
   7 C :   -0.287050
   8 N :   -0.001571
   9 H :    0.143513
  10 H :    0.180351
  11 H :    0.112275
  12 H :    0.102028
  13 O :   -0.247153
  14 O :   -0.251970
  15 F :    0.079010
  16 H :    0.156734
  17 H :    0.157344
  18 H :    0.164846
  19 H :    0.148906

  Mayer bond orders larger than 0.100000
B(  0-C ,  1-C ) :   0.8926 B(  0-C ,  6-C ) :   0.8553 B(  0-C , 18-H ) :   0.9803
B(  0-C , 19-H ) :   1.0052 B(  1-C ,  2-C ) :   0.9297 B(  1-C , 16-H ) :   0.9686
B(  1-C , 17-H ) :   0.9459 B(  2-C ,  3-H ) :   0.9283 B(  2-C ,  4-H ) :   0.9384
B(  2-C ,  5-S ) :   0.9348 B(  5-S , 13-O ) :   2.0031 B(  5-S , 14-O ) :   1.9289
B(  5-S , 15-F ) :   1.0584 B(  6-C ,  7-C ) :   1.7389 B(  6-C ,  8-N ) :   1.1709
B(  7-C , 11-H ) :   0.9933 B(  7-C , 12-H ) :   0.9967 B(  8-N ,  9-H ) :   0.8979
B(  8-N , 10-H ) :   0.9201

FINAL SINGLE POINT ENERGY      -898.133769078933

DIPOLE MOMENT
-------------
                                X             Y             Z
Electronic contribution:      6.42615     -13.39321       3.14301
Nuclear contribution   :     -6.26130      13.99605      -3.80018
                        -----------------------------------------
Total Dipole Moment    :      0.16485       0.60284      -0.65717
                        -----------------------------------------
Magnitude (a.u.)       :      0.90690
Magnitude (Debye)      :      2.30515

Rotational constants in cm-1:     0.079895     0.025630     0.022948
Rotational constants in MHz :  2395.188639   768.373696   687.955250

                             ****ORCA TERMINATED NORMALLY****
TOTAL RUN TIME: 0 days 0 hours 0 minutes 30 seconds 340 msec
