                         Program Version 5.0.0 -  RELEASE  -
|  1> !PBE D3BJ RIJCOSX def2-SVP def2/J TightSCF
|  2> *xyz -1 1
|  3> C         -0.91495        0.61511        2.50554
|  4> C         -0.05915        1.50352        3.41058
|  5> H          0.36536        2.34431        2.86116
|  6> H         -0.69226        1.92021        4.19898
|  7> C          1.08303        0.74964        4.08571
|  8> O          2.22817        1.26348        4.01983
|  9> O          0.81003       -0.34541        4.63627
| 10> H         -0.30401        0.20228        1.73015
| 11> H         -1.69811        1.19946        2.06954
| 12> H         -1.34124       -0.17772        3.08397
| 13> *
| 14>
| 15> %MaxCore 64000
| 16>
| 17> %pal nprocs 4
| 18> end
| 19>
| 20> %scf
| 21>   MaxIter 150
| 22> end
| 23>
| 24>
| 25>                          ****END OF INPUT****

CARTESIAN COORDINATES (ANGSTROEM)
---------------------------------
  C     -0.914950    0.615110    2.505540
  C     -0.059150    1.503520    3.410580
  H      0.365360    2.344310    2.861160
  H     -0.692260    1.920210    4.198980
  C      1.083030    0.749640    4.085710
  O      2.228170    1.263480    4.019830
  O      0.810030   -0.345410    4.636270
  H     -0.304010    0.202280    1.730150
  H     -1.698110    1.199460    2.069540
  H     -1.341240   -0.177720    3.083970

 Total Charge           Charge          ....   -1
 Multiplicity           Mult            ....    1
 Number of Electrons    NEL             ....   40
 Basis Dimension        Dim             ....   95

ORBITAL ENERGIES
----------------

  NO   OCC          E(Eh)            E(eV)
   0   2.0000     -18.458317      -502.2764
   1   2.0000     -18.455722      -502.2057
   2   2.0000      -9.733152      -264.8525
   3   2.0000      -9.719586      -264.4834
   4   2.0000      -9.699298      -263.9313
   5   2.0000      -0.683989       -18.6123
   6   2.0000      -0.594227       -16.1697
   7   2.0000      -0.509734       -13.8706
   8   2.0000      -0.386134       -10.5072
   9   2.0000      -0.242760        -6.6058
  10   2.0000      -0.226637        -6.1671
  11   2.0000      -0.182936        -4.9779
  12   2.0000      -0.160577        -4.3695
  13   2.0000      -0.145132        -3.9493
  14   2.0000      -0.126347        -3.4381
  15   2.0000      -0.095930        -2.6104
  16   2.0000      -0.087975        -2.3939
  17   2.0000       0.028742         0.7821
  18   2.0000       0.040129         1.0920
  19   2.0000       0.059837         1.6282
  20   0.0000       0.197228         5.3668
  21   0.0000       0.244544         6.6544
  22   0.0000       0.250650         6.8205
  23   0.0000       0.261682         7.1207
  24   0.0000       0.264467         7.1965

MULLIKEN ATOMIC CHARGES
-----------------------
   0 C :    0.017740
   1 C :    0.001184
   2 H :   -0.063047
   3 H :   -0.041465
   4 C :   -0.052184
   5 O :   -0.386923
   6 O :   -0.388615
   7 H :   -0.015247
   8 H :   -0.055096
   9 H :   -0.016348
Sum of atomic charges:   -1.0000000

LOEWDIN ATOMIC CHARGES
----------------------
   0 C :   -0.071481
   1 C :   -0.101428
   2 H :   -0.007092
   3 H :    0.004237
   4 C :   -0.097436
   5 O :   -0.365676
   6 O :   -0.367109
   7 H :    0.009505
   8 H :   -0.009322
   9 H :    0.005802

  Mayer bond orders larger than 0.100000
B(  0-C ,  1-C ) :   1.0977 B(  0-C ,  7-H ) :   0.9694 B(  0-C ,  8-H ) :   0.9509
B(  0-C ,  9-H ) :   0.9496 B(  1-C ,  2-H ) :   0.9207 B(  1-C ,  3-H ) :   0.9219
B(  1-C ,  4-C ) :   0.9095 B(  4-C ,  5-O ) :   1.8866 B(  4-C ,  6-O ) :   1.8482
B(  5-O ,  6-O ) :   0.1387

Dispersion correction           -0.006536227
FINAL SINGLE POINT ENERGY      -267.309828324266

DIPOLE MOMENT
-------------
                                X             Y             Z
Electronic contribution:      5.04957      -1.14772       3.55743
Nuclear contribution   :     -6.38408       1.63097      -4.40540
                        -----------------------------------------
Total Dipole Moment    :     -1.33451       0.48325      -0.84797
                        -----------------------------------------
Magnitude (a.u.)       :      1.65333
Magnitude (Debye)      :      4.20243

Rotational constants in cm-1:     0.319732     0.134414     0.104753
Rotational constants in MHz :  9585.336550  4029.633034  3140.404334

                             ****ORCA TERMINATED NORMALLY****
TOTAL RUN TIME: 0 days 0 hours 0 minutes 7 seconds 769 msec
