                         Program Version 5.0.0 -  RELEASE  -
|  1> !PBE D3BJ RIJCOSX def2-SVP def2/J TightSCF
|  2> *xyz 1 1
|  3> C          4.60295       -2.44010        2.63478
|  4> C          3.86085       -1.59157        3.62289
|  5> N          2.75650       -2.04616        4.16633
|  6> N          4.25433       -0.36291        3.86046
|  7> H          3.56526        0.31099        4.16898
|  8> H          5.05429       -0.01606        3.33784
|  9> H          2.43970       -2.97389        3.89740
| 10> H          2.06687       -1.41253        4.54981
| 11> C          3.74469       -2.58056        1.36188
| 12> H          5.56156       -1.97135        2.40708
| 13> H          4.81050       -3.42255        3.06310
| 14> H          4.26314       -3.18477        0.64702
| 15> H          3.56325       -1.61180        0.94535
| 16> H          2.81197       -3.04259        1.60980
| 17> *
| 18>
| 19> %MaxCore 64000
| 20>
| 21> %pal nprocs 4
| 22> end
| 23>
| 24> %scf
| 25>   MaxIter 150
| 26> end
| 27>
| 28>
| 29>                          ****END OF INPUT****

CARTESIAN COORDINATES (ANGSTROEM)
---------------------------------
  C      4.602950   -2.440100    2.634780
  C      3.860850   -1.591570    3.622890
  N      2.756500   -2.046160    4.166330
  N      4.254330   -0.362910    3.860460
  H      3.565260    0.310990    4.168980
  H      5.054290   -0.016060    3.337840
  H      2.439700   -2.973890    3.897400
  H      2.066870   -1.412530    4.549810
  C      3.744690   -2.580560    1.361880
  H      5.561560   -1.971350    2.407080
  H      4.810500   -3.422550    3.063100
  H      4.263140   -3.184770    0.647020
  H      3.563250   -1.611800    0.945350
  H      2.811970   -3.042590    1.609800

 Total Charge           Charge          ....    1
 Multiplicity           Mult            ....    1
 Number of Electrons    NEL             ....   40
 Basis Dimension        Dim             ....  115

ORBITAL ENERGIES
----------------

  NO   OCC          E(Eh)            E(eV)
   0   2.0000     -14.243878      -387.5956
   1   2.0000     -14.243224      -387.5778
   2   2.0000     -10.206441      -277.7314
   3   2.0000     -10.096162      -274.7305
   4   2.0000     -10.057673      -273.6832
   5   2.0000      -1.117389       -30.4057
   6   2.0000      -1.025286       -27.8995
   7   2.0000      -0.894406       -24.3380
   8   2.0000      -0.794565       -21.6212
   9   2.0000      -0.755611       -20.5612
  10   2.0000      -0.720659       -19.6101
  11   2.0000      -0.696067       -18.9410
  12   2.0000      -0.649863       -17.6837
  13   2.0000      -0.615033       -16.7359
  14   2.0000      -0.577230       -15.7072
  15   2.0000      -0.556001       -15.1296
  16   2.0000      -0.508223       -13.8295
  17   2.0000      -0.498872       -13.5750
  18   2.0000      -0.486710       -13.2441
  19   2.0000      -0.455470       -12.3940
  20   0.0000      -0.244684        -6.6582
  21   0.0000      -0.169165        -4.6032
  22   0.0000      -0.127046        -3.4571
  23   0.0000      -0.124590        -3.3903
  24   0.0000      -0.097482        -2.6526

MULLIKEN ATOMIC CHARGES
-----------------------
   0 C :    0.003080
   1 C :   -0.137156
   2 N :    0.056170
   3 N :    0.060225
   4 H :    0.166153
   5 H :    0.178210
   6 H :    0.175625
   7 H :    0.167710
   8 C :   -0.004914
   9 H :    0.060425
  10 H :    0.093449
  11 H :    0.087792
  12 H :    0.052039
  13 H :    0.041192
Sum of atomic charges:    1.0000000

LOEWDIN ATOMIC CHARGES
----------------------
   0 C :   -0.033367
   1 C :    0.115750
   2 N :    0.116709
   3 N :    0.118077
   4 H :    0.110805
   5 H :    0.120063
   6 H :    0.118461
   7 H :    0.111516
   8 C :   -0.026513
   9 H :    0.054856
  10 H :    0.066081
  11 H :    0.057577
  12 H :    0.039242
  13 H :    0.030742

  Mayer bond orders larger than 0.100000
B(  0-C ,  1-C ) :   1.0510 B(  0-C ,  8-C ) :   1.0796 B(  0-C ,  9-H ) :   0.9107
B(  0-C , 10-H ) :   0.9081 B(  1-C ,  2-N ) :   1.5132 B(  1-C ,  3-N ) :   1.5188
B(  2-N ,  6-H ) :   0.9209 B(  2-N ,  7-H ) :   0.9285 B(  3-N ,  4-H ) :   0.9282
B(  3-N ,  5-H ) :   0.9171 B(  8-C , 11-H ) :   0.9535 B(  8-C , 12-H ) :   0.9625
B(  8-C , 13-H ) :   0.9682

Dispersion correction           -0.010285024
FINAL SINGLE POINT ENERGY      -228.571319656884

DIPOLE MOMENT
-------------
                                X             Y             Z
Electronic contribution:     -0.27534       1.83701       3.77309
Nuclear contribution   :     -0.22400      -1.16268      -3.30447
                        -----------------------------------------
Total Dipole Moment    :     -0.49934       0.67433       0.46861
                        -----------------------------------------
Magnitude (a.u.)       :      0.96107
Magnitude (Debye)      :      2.44285

Rotational constants in cm-1:     0.258103     0.130571     0.102508
Rotational constants in MHz :  7737.732062  3914.431392  3073.119154

                             ****ORCA TERMINATED NORMALLY****
TOTAL RUN TIME: 0 days 0 hours 0 minutes 9 seconds 346 msec
