                         Program Version 5.0.0 -  RELEASE  -
|  1> !PBE D3BJ RIJCOSX def2-SVP def2/J TightSCF
|  2> *xyz 0 1
|  3> C         -0.91495        0.61511        2.50554
|  4> C         -0.05915        1.50352        3.41058
|  5> H          0.36536        2.34431        2.86116
|  6> H         -0.69226        1.92021        4.19898
|  7> C          1.08303        0.74964        4.08571
|  8> F          2.22817        1.26348        4.01983
|  9> O          0.81003       -0.34541        4.63627
| 10> H         -0.30401        0.20228        1.73015
| 11> H         -1.69811        1.19946        2.06954
| 12> H         -1.34124       -0.17772        3.08397
| 13> *
| 14>
| 15> %MaxCore 64000
| 16>
| 17> %pal nprocs 4
| 18> end
| 19>
| 20> %scf
| 21>   MaxIter 150
| 22> end
| 23>
| 24>
| 25>                          ****END OF INPUT****

CARTESIAN COORDINATES (ANGSTROEM)
---------------------------------
  C     -0.914950    0.615110    2.505540
  C     -0.059150    1.503520    3.410580
  H      0.365360    2.344310    2.861160
  H     -0.692260    1.920210    4.198980
  C      1.083030    0.749640    4.085710
  F      2.228170    1.263480    4.019830
  O      0.810030   -0.345410    4.636270
  H     -0.304010    0.202280    1.730150
  H     -1.698110    1.199460    2.069540
  H     -1.341240   -0.177720    3.083970

 Total Charge           Charge          ....    0
 Multiplicity           Mult            ....    1
 Number of Electrons    NEL             ....   40
 Basis Dimension        Dim             ....   95

ORBITAL ENERGIES
----------------

  NO   OCC          E(Eh)            E(eV)
   0   2.0000     -24.324300      -661.8978
   1   2.0000     -18.753827      -510.3176
   2   2.0000     -10.050835      -273.4971
   3   2.0000      -9.920381      -269.9473
   4   2.0000      -9.896619      -269.3007
   5   2.0000      -1.188605       -32.3436
   6   2.0000      -0.925033       -25.1714
   7   2.0000      -0.716222       -19.4894
   8   2.0000      -0.611294       -16.6342
   9   2.0000      -0.562494       -15.3062
  10   2.0000      -0.479645       -13.0518
  11   2.0000      -0.464995       -12.6531
  12   2.0000      -0.437426       -11.9030
  13   2.0000      -0.409122       -11.1328
  14   2.0000      -0.374811       -10.1991
  15   2.0000      -0.347870        -9.4660
  16   2.0000      -0.326151        -8.8750
  17   2.0000      -0.320842        -8.7306
  18   2.0000      -0.298001        -8.1090
  19   2.0000      -0.232907        -6.3377
  20   0.0000      -0.056161        -1.5282
  21   0.0000       0.040613         1.1051
  22   0.0000       0.081766         2.2250
  23   0.0000       0.087782         2.3887
  24   0.0000       0.102806         2.7975

MULLIKEN ATOMIC CHARGES
-----------------------
   0 C :   -0.003686
   1 C :   -0.089319
   2 H :    0.023897
   3 H :    0.062276
   4 C :    0.165507
   5 F :   -0.034897
   6 O :   -0.222507
   7 H :    0.028388
   8 H :    0.025193
   9 H :    0.045148
Sum of atomic charges:    0.0000000

LOEWDIN ATOMIC CHARGES
----------------------
   0 C :   -0.044871
   1 C :   -0.080915
   2 H :    0.027958
   3 H :    0.053504
   4 C :    0.060351
   5 F :    0.066654
   6 O :   -0.172069
   7 H :    0.028084
   8 H :    0.028986
   9 H :    0.032319

  Mayer bond orders larger than 0.100000
B(  0-C ,  1-C ) :   1.1078 B(  0-C ,  7-H ) :   0.9748 B(  0-C ,  8-H ) :   0.9609
B(  0-C ,  9-H ) :   0.9636 B(  1-C ,  2-H ) :   0.9284 B(  1-C ,  3-H ) :   0.9170
B(  1-C ,  4-C ) :   1.0025 B(  4-C ,  5-F ) :   1.2351 B(  4-C ,  6-O ) :   2.0773

Dispersion correction           -0.006216165
FINAL SINGLE POINT ENERGY      -291.851699482014

DIPOLE MOMENT
-------------
                                X             Y             Z
Electronic contribution:      7.82222      -0.26045       4.18404
Nuclear contribution   :     -8.12386       1.06915      -4.71960
                        -----------------------------------------
Total Dipole Moment    :     -0.30165       0.80870      -0.53556
                        -----------------------------------------
Magnitude (a.u.)       :      1.01578
Magnitude (Debye)      :      2.58190

Rotational constants in cm-1:     0.309513     0.127560     0.099675
Rotational constants in MHz :  9278.979128  3824.146597  2988.174827

                             ****ORCA TERMINATED NORMALLY****
TOTAL RUN TIME: 0 days 0 hours 0 minutes 7 seconds 549 msec
