                         Program Version 5.0.0 -  RELEASE  -
|  1> !PBE D3BJ RIJCOSX def2-SVP def2/J TightSCF
|  2> *xyz 0 1
|  3> C          4.60295       -2.44010        2.63478
|  4> C          3.86085       -1.59157        3.62289
|  5> C          2.75650       -2.04616        4.16633
|  6> N          4.25433       -0.36291        3.86046
|  7> H          3.56526        0.31099        4.16898
|  8> H          5.05429       -0.01606        3.33784
|  9> H          2.43970       -2.97389        3.89740
| 10> H          2.06687       -1.41253        4.54981
| 11> C          3.74469       -2.58056        1.36188
| 12> H          5.56156       -1.97135        2.40708
| 13> H          4.81050       -3.42255        3.06310
| 14> H          4.26314       -3.18477        0.64702
| 15> H          3.56325       -1.61180        0.94535
| 16> H          2.81197       -3.04259        1.60980
| 17> *
| 18>
| 19> %MaxCore 64000
| 20>
| 21> %pal nprocs 4
| 22> end
| 23>
| 24> %scf
| 25>   MaxIter 150
| 26> end
| 27>
| 28>
| 29>                          ****END OF INPUT****

CARTESIAN COORDINATES (ANGSTROEM)
---------------------------------
  C      4.602950   -2.440100    2.634780
  C      3.860850   -1.591570    3.622890
  C      2.756500   -2.046160    4.166330
  N      4.254330   -0.362910    3.860460
  H      3.565260    0.310990    4.168980
  H      5.054290   -0.016060    3.337840
  H      2.439700   -2.973890    3.897400
  H      2.066870   -1.412530    4.549810
  C      3.744690   -2.580560    1.361880
  H      5.561560   -1.971350    2.407080
  H      4.810500   -3.422550    3.063100
  H      4.263140   -3.184770    0.647020
  H      3.563250   -1.611800    0.945350
  H      2.811970   -3.042590    1.609800

 Total Charge           Charge          ....    0
 Multiplicity           Mult            ....    1
 Number of Electrons    NEL             ....   40
 Basis Dimension        Dim             ....  115

ORBITAL ENERGIES
----------------

  NO   OCC          E(Eh)            E(eV)
   0   2.0000     -13.994076      -380.7982
   1   2.0000      -9.902315      -269.4557
   2   2.0000      -9.894068      -269.2313
   3   2.0000      -9.879524      -268.8355
   4   2.0000      -9.819532      -267.2030
   5   2.0000      -0.838564       -22.8185
   6   2.0000      -0.698955       -19.0195
   7   2.0000      -0.630515       -17.1572
   8   2.0000      -0.567594       -15.4450
   9   2.0000      -0.499390       -13.5891
  10   2.0000      -0.467020       -12.7083
  11   2.0000      -0.424808       -11.5596
  12   2.0000      -0.395172       -10.7532
  13   2.0000      -0.359796        -9.7905
  14   2.0000      -0.338565        -9.2128
  15   2.0000      -0.327266        -8.9054
  16   2.0000      -0.305839        -8.3223
  17   2.0000      -0.295046        -8.0286
  18   2.0000      -0.278698        -7.5838
  19   2.0000      -0.148980        -4.0540
  20   0.0000       0.022096         0.6013
  21   0.0000       0.028866         0.7855
  22   0.0000       0.073274         1.9939
  23   0.0000       0.076119         2.0713
  24   0.0000       0.097817         2.6617

MULLIKEN ATOMIC CHARGES
-----------------------
   0 C :    0.043199
   1 C :   -0.185776
   2 C :   -0.025812
   3 N :   -0.023615
   4 H :    0.107355
   5 H :    0.097831
   6 H :   -0.039071
   7 H :   -0.051349
   8 C :    0.013500
   9 H :   -0.012572
  10 H :    0.028228
  11 H :    0.012006
  12 H :    0.012175
  13 H :    0.023901
Sum of atomic charges:   -0.0000000

LOEWDIN ATOMIC CHARGES
----------------------
   0 C :   -0.033432
   1 C :   -0.016977
   2 C :   -0.173511
   3 N :    0.015132
   4 H :    0.075309
   5 H :    0.066500
   6 H :   -0.001324
   7 H :   -0.006744
   8 C :   -0.046885
   9 H :    0.017417
  10 H :    0.037284
  11 H :    0.019868
  12 H :    0.022037
  13 H :    0.025327

  Mayer bond orders larger than 0.100000
B(  0-C ,  1-C ) :   1.0331 B(  0-C ,  8-C ) :   1.1096 B(  0-C ,  9-H ) :   0.9191
B(  0-C , 10-H ) :   0.9225 B(  1-C ,  2-C ) :   1.8468 B(  1-C ,  3-N ) :   1.2931
B(  2-C ,  6-H ) :   0.9321 B(  2-C ,  7-H ) :   0.9462 B(  3-N ,  4-H ) :   0.9441
B(  3-N ,  5-H ) :   0.9436 B(  8-C , 11-H ) :   0.9582 B(  8-C , 12-H ) :   0.9638
B(  8-C , 13-H ) :   0.9696

Dispersion correction           -0.010672689
FINAL SINGLE POINT ENERGY      -212.112234228107

DIPOLE MOMENT
-------------
                                X             Y             Z
Electronic contribution:      0.84728       1.86341       2.59025
Nuclear contribution   :     -0.47010      -1.22282      -3.06417
                        -----------------------------------------
Total Dipole Moment    :      0.37718       0.64059      -0.47391
                        -----------------------------------------
Magnitude (a.u.)       :      0.88159
Magnitude (Debye)      :      2.24084

Rotational constants in cm-1:     0.271862     0.131962     0.105499
Rotational constants in MHz :  8150.219120  3956.123671  3162.785522

                             ****ORCA TERMINATED NORMALLY****
TOTAL RUN TIME: 0 days 0 hours 0 minutes 8 seconds 826 msec
