                         Program Version 5.0.0 -  RELEASE  -
|  1> !PBE D3BJ RIJCOSX def2-SVP def2/J TightSCF
|  2> *xyz 0 1
|  3> C         -0.91495        0.61511        2.50554
|  4> C         -0.05915        1.50352        3.41058
|  5> H          0.36536        2.34431        2.86116
|  6> H         -0.69226        1.92021        4.19898
|  7> C          1.08303        0.74964        4.08571
|  8> O          2.22817        1.26348        4.01983
|  9> F          0.81003       -0.34541        4.63627
| 10> H         -0.30401        0.20228        1.73015
| 11> H         -1.69811        1.19946        2.06954
| 12> H         -1.34124       -0.17772        3.08397
| 13> *
| 14>
| 15> %MaxCore 64000
| 16>
| 17> %pal nprocs 4
| 18> end
| 19>
| 20> %scf
| 21>   MaxIter 150
| 22> end
| 23>
| 24>
| 25>                          ****END OF INPUT****

CARTESIAN COORDINATES (ANGSTROEM)
---------------------------------
  C     -0.914950    0.615110    2.505540
  C     -0.059150    1.503520    3.410580
  H      0.365360    2.344310    2.861160
  H     -0.692260    1.920210    4.198980
  C      1.083030    0.749640    4.085710
  O      2.228170    1.263480    4.019830
  F      0.810030   -0.345410    4.636270
  H     -0.304010    0.202280    1.730150
  H     -1.698110    1.199460    2.069540
  H     -1.341240   -0.177720    3.083970

 Total Charge           Charge          ....    0
 Multiplicity           Mult            ....    1
 Number of Electrons    NEL             ....   40
 Basis Dimension        Dim             ....   95

ORBITAL ENERGIES
----------------

  NO   OCC          E(Eh)            E(eV)
   0   2.0000     -24.326105      -661.9470
   1   2.0000     -18.751796      -510.2623
   2   2.0000     -10.049901      -273.4717
   3   2.0000      -9.919378      -269.9200
   4   2.0000      -9.901741      -269.4401
   5   2.0000      -1.190478       -32.3946
   6   2.0000      -0.922346       -25.0983
   7   2.0000      -0.720276       -19.5997
   8   2.0000      -0.607395       -16.5281
   9   2.0000      -0.568921       -15.4811
  10   2.0000      -0.482204       -13.1215
  11   2.0000      -0.470608       -12.8059
  12   2.0000      -0.431132       -11.7317
  13   2.0000      -0.408336       -11.1114
  14   2.0000      -0.378294       -10.2939
  15   2.0000      -0.350444        -9.5361
  16   2.0000      -0.330747        -9.0001
  17   2.0000      -0.324925        -8.8416
  18   2.0000      -0.299546        -8.1511
  19   2.0000      -0.227114        -6.1801
  20   0.0000      -0.053283        -1.4499
  21   0.0000       0.035343         0.9617
  22   0.0000       0.080618         2.1937
  23   0.0000       0.088473         2.4075
  24   0.0000       0.105600         2.8735

MULLIKEN ATOMIC CHARGES
-----------------------
   0 C :   -0.027778
   1 C :   -0.081235
   2 H :    0.049953
   3 H :    0.051330
   4 C :    0.163837
   5 O :   -0.218476
   6 F :   -0.037360
   7 H :    0.036433
   8 H :    0.031555
   9 H :    0.031742
Sum of atomic charges:   -0.0000000

LOEWDIN ATOMIC CHARGES
----------------------
   0 C :   -0.055463
   1 C :   -0.076945
   2 H :    0.044743
   3 H :    0.045893
   4 C :    0.059237
   5 O :   -0.170401
   6 F :    0.066591
   7 H :    0.029029
   8 H :    0.031612
   9 H :    0.025704

  Mayer bond orders larger than 0.100000
B(  0-C ,  1-C ) :   1.0850 B(  0-C ,  7-H ) :   0.9748 B(  0-C ,  8-H ) :   0.9608
B(  0-C ,  9-H ) :   0.9677 B(  1-C ,  2-H ) :   0.9410 B(  1-C ,  3-H ) :   0.9167
B(  1-C ,  4-C ) :   1.0116 B(  4-C ,  5-O ) :   2.0953 B(  4-C ,  6-F ) :   1.2229

Dispersion correction           -0.006172295
FINAL SINGLE POINT ENERGY      -291.850358965430

DIPOLE MOMENT
-------------
                                X             Y             Z
Electronic contribution:      5.49564      -2.87782       5.17257
Nuclear contribution   :     -6.57765       2.82334      -5.39171
                        -----------------------------------------
Total Dipole Moment    :     -1.08201      -0.05448      -0.21914
                        -----------------------------------------
Magnitude (a.u.)       :      1.10532
Magnitude (Debye)      :      2.80950

Rotational constants in cm-1:     0.294245     0.132994     0.101060
Rotational constants in MHz :  8821.228602  3987.049251  3029.696815

                             ****ORCA TERMINATED NORMALLY****
TOTAL RUN TIME: 0 days 0 hours 0 minutes 7 seconds 787 msec
