                         Program Version 5.0.0 -  RELEASE  -
|  1> !PBE D3BJ RIJCOSX def2-SVP def2/J TightSCF
|  2> *xyz 0 1
|  3> C          4.60295       -2.44010        2.63478
|  4> C          3.86085       -1.59157        3.62289
|  5> N          2.75650       -2.04616        4.16633
|  6> C          4.25433       -0.36291        3.86046
|  7> H          3.56526        0.31099        4.16898
|  8> H          5.05429       -0.01606        3.33784
|  9> H          2.43970       -2.97389        3.89740
| 10> H          2.06687       -1.41253        4.54981
| 11> C          3.74469       -2.58056        1.36188
| 12> H          5.56156       -1.97135        2.40708
| 13> H          4.81050       -3.42255        3.06310
| 14> H          4.26314       -3.18477        0.64702
| 15> H          3.56325       -1.61180        0.94535
| 16> H          2.81197       -3.04259        1.60980
| 17> *
| 18>
| 19> %MaxCore 64000
| 20>
| 21> %pal nprocs 4
| 22> end
| 23>
| 24> %scf
| 25>   MaxIter 150
| 26> end
| 27>
| 28>
| 29>                          ****END OF INPUT****

CARTESIAN COORDINATES (ANGSTROEM)
---------------------------------
  C      4.602950   -2.440100    2.634780
  C      3.860850   -1.591570    3.622890
  N      2.756500   -2.046160    4.166330
  C      4.254330   -0.362910    3.860460
  H      3.565260    0.310990    4.168980
  H      5.054290   -0.016060    3.337840
  H      2.439700   -2.973890    3.897400
  H      2.066870   -1.412530    4.549810
  C      3.744690   -2.580560    1.361880
  H      5.561560   -1.971350    2.407080
  H      4.810500   -3.422550    3.063100
  H      4.263140   -3.184770    0.647020
  H      3.563250   -1.611800    0.945350
  H      2.811970   -3.042590    1.609800

 Total Charge           Charge          ....    0
 Multiplicity           Mult            ....    1
 Number of Electrons    NEL             ....   40
 Basis Dimension        Dim             ....  115

ORBITAL ENERGIES
----------------

  NO   OCC          E(Eh)            E(eV)
   0   2.0000     -13.994696      -380.8150
   1   2.0000      -9.903365      -269.4843
   2   2.0000      -9.893365      -269.2122
   3   2.0000      -9.883930      -268.9554
   4   2.0000      -9.821100      -267.2457
   5   2.0000      -0.838569       -22.8186
   6   2.0000      -0.697540       -18.9810
   7   2.0000      -0.638433       -17.3727
   8   2.0000      -0.563123       -15.3234
   9   2.0000      -0.506607       -13.7855
  10   2.0000      -0.468340       -12.7442
  11   2.0000      -0.420482       -11.4419
  12   2.0000      -0.387713       -10.5502
  13   2.0000      -0.376318       -10.2401
  14   2.0000      -0.336436        -9.1549
  15   2.0000      -0.330868        -9.0034
  16   2.0000      -0.309523        -8.4226
  17   2.0000      -0.292927        -7.9710
  18   2.0000      -0.275609        -7.4997
  19   2.0000      -0.152070        -4.1380
  20   0.0000       0.022554         0.6137
  21   0.0000       0.027492         0.7481
  22   0.0000       0.074252         2.0205
  23   0.0000       0.077249         2.1021
  24   0.0000       0.093498         2.5442

MULLIKEN ATOMIC CHARGES
-----------------------
   0 C :    0.045804
   1 C :   -0.184045
   2 N :   -0.023935
   3 C :   -0.019219
   4 H :   -0.051194
   5 H :   -0.041959
   6 H :    0.098084
   7 H :    0.107795
   8 C :    0.012039
   9 H :    0.010444
  10 H :    0.007350
  11 H :    0.019452
  12 H :    0.019606
  13 H :   -0.000222
Sum of atomic charges:    0.0000000

LOEWDIN ATOMIC CHARGES
----------------------
   0 C :   -0.032329
   1 C :   -0.014267
   2 N :    0.015226
   3 C :   -0.174106
   4 H :   -0.006850
   5 H :   -0.000667
   6 H :    0.066596
   7 H :    0.075575
   8 C :   -0.051747
   9 H :    0.035311
  10 H :    0.021546
  11 H :    0.024411
  12 H :    0.026956
  13 H :    0.014344

  Mayer bond orders larger than 0.100000
B(  0-C ,  1-C ) :   1.0558 B(  0-C ,  8-C ) :   1.1027 B(  0-C ,  9-H ) :   0.9171
B(  0-C , 10-H ) :   0.9161 B(  1-C ,  2-N ) :   1.2937 B(  1-C ,  3-C ) :   1.8469
B(  2-N ,  6-H ) :   0.9478 B(  2-N ,  7-H ) :   0.9438 B(  3-C ,  4-H ) :   0.9462
B(  3-C ,  5-H ) :   0.9259 B(  8-C , 11-H ) :   0.9611 B(  8-C , 12-H ) :   0.9633
B(  8-C , 13-H ) :   0.9660

Dispersion correction           -0.010656315
FINAL SINGLE POINT ENERGY      -212.113213925531

DIPOLE MOMENT
-------------
                                X             Y             Z
Electronic contribution:     -0.56086       0.28251       2.89155
Nuclear contribution   :     -0.12319      -0.83296      -3.13501
                        -----------------------------------------
Total Dipole Moment    :     -0.68405      -0.55046      -0.24346
                        -----------------------------------------
Magnitude (a.u.)       :      0.91115
Magnitude (Debye)      :      2.31596

Rotational constants in cm-1:     0.266453     0.134423     0.106086
Rotational constants in MHz :  7988.053142  4029.892766  3180.375228

                             ****ORCA TERMINATED NORMALLY****
TOTAL RUN TIME: 0 days 0 hours 0 minutes 7 seconds 609 msec
