                         Program Version 5.0.0 -  RELEASE  -
|  1> !PBE D3BJ RIJCOSX def2-TZVP def2/J TightSCF xyzfile
|  2>
|  3> *xyzfile 0 1 D1.xyz
|  4>
|  5> %MaxCore 64000
|  6>
|  7> %pal nprocs 18
|  8> end
|  9>
| 10> %scf
| 11>   MaxIter 150
| 12> end
| 13>
| 14>
| 15>                          ****END OF INPUT****

CARTESIAN COORDINATES (ANGSTROEM)
---------------------------------
  C      4.602954   -2.440100    2.634780
  C     -0.914947    0.615112    2.505538
  C     -0.059146    1.503524    3.410578
  H      0.365364    2.344315    2.861161
  H     -0.692261    1.920207    4.198985
  C      1.083027    0.749640    4.085705
  C      3.860851   -1.591565    3.622893
  C      2.756502   -2.046159    4.166333
  N      4.254325   -0.362905    3.860455
  H      3.565256    0.310994    4.168983
  H      5.054292   -0.016059    3.337838
  H      2.439696   -2.973894    3.897395
  H      2.066869   -1.412532    4.549813
  F      2.228167    1.263475    4.019826
  O      0.810034   -0.345411    4.636269
  C      3.744685   -2.580557    1.361882
  C      0.772139    0.636882    0.562129
  C     -0.130740   -0.193985    1.470763
  H     -0.840563   -0.760165    0.856377
  H      0.466691   -0.938942    2.006959
  H     -1.647961    1.245963    1.991076
  H     -1.478180   -0.081046    3.130424
  C      3.203721   -1.256004    0.826211
  H      2.898939   -3.239289    1.583074
  H      4.334962   -3.095523    0.600188
  C      2.107815   -1.442385   -0.216865
  H      2.786775   -0.672760    1.650711
  H      4.021008   -0.652993    0.414046
  C      1.390662   -0.145912   -0.602422
  H      1.372179   -2.152184    0.176151
  H      2.523302   -1.906787   -1.117115
  H      1.561361    1.100094    1.161831
  H      0.195516    1.468325    0.142758
  H      0.602893   -0.398214   -1.319716
  H      2.087247    0.508272   -1.137335
  H      5.561557   -1.971347    2.407084
  H      4.810498   -3.422552    3.063099

 Total Charge           Charge          ....    0
 Multiplicity           Mult            ....    1
 Number of Electrons    NEL             ....  118
 Basis Dimension        Dim             ....  597

ORBITAL ENERGIES
----------------

  NO   OCC          E(Eh)            E(eV)
   0   2.0000     -24.349924      -662.5951
   1   2.0000     -18.765886      -510.6457
   2   2.0000     -13.962509      -379.9392
   3   2.0000     -10.060856      -273.7698
   4   2.0000      -9.916733      -269.8480
   5   2.0000      -9.896767      -269.3047
   6   2.0000      -9.881641      -268.8931
   7   2.0000      -9.881441      -268.8877
   8   2.0000      -9.876908      -268.7643
   9   2.0000      -9.874703      -268.7043
  10   2.0000      -9.870597      -268.5926
  11   2.0000      -9.868795      -268.5436
  12   2.0000      -9.868501      -268.5356
  13   2.0000      -9.866531      -268.4819
  14   2.0000      -9.777736      -266.0657
  15   2.0000      -1.242084       -33.7988
  16   2.0000      -0.963808       -26.2265
  17   2.0000      -0.836710       -22.7680
  18   2.0000      -0.756051       -20.5732
  19   2.0000      -0.732145       -19.9227
  20   2.0000      -0.708851       -19.2888
  21   2.0000      -0.674324       -18.3493
  22   2.0000      -0.652051       -17.7432
  23   2.0000      -0.623798       -16.9744
  24   2.0000      -0.611637       -16.6435
  25   2.0000      -0.583615       -15.8810
  26   2.0000      -0.551235       -14.9999
  27   2.0000      -0.531037       -14.4502
  28   2.0000      -0.513556       -13.9746
  29   2.0000      -0.505534       -13.7563
  30   2.0000      -0.494111       -13.4454
  31   2.0000      -0.483335       -13.1522
  32   2.0000      -0.470712       -12.8087
  33   2.0000      -0.447145       -12.1674
  34   2.0000      -0.431534       -11.7426
  35   2.0000      -0.429027       -11.6744
  36   2.0000      -0.420029       -11.4296
  37   2.0000      -0.402572       -10.9545
  38   2.0000      -0.394365       -10.7312
  39   2.0000      -0.380709       -10.3596
  40   2.0000      -0.377886       -10.2828
  41   2.0000      -0.361437        -9.8352
  42   2.0000      -0.357131        -9.7180
  43   2.0000      -0.346119        -9.4184
  44   2.0000      -0.343106        -9.3364
  45   2.0000      -0.328777        -8.9465
  46   2.0000      -0.325094        -8.8463
  47   2.0000      -0.315827        -8.5941
  48   2.0000      -0.310635        -8.4528
  49   2.0000      -0.302365        -8.2278
  50   2.0000      -0.299536        -8.1508
  51   2.0000      -0.291346        -7.9279
  52   2.0000      -0.282308        -7.6820
  53   2.0000      -0.279474        -7.6049
  54   2.0000      -0.272425        -7.4131
  55   2.0000      -0.268884        -7.3167
  56   2.0000      -0.262645        -7.1469
  57   2.0000      -0.231149        -6.2899
  58   2.0000      -0.139638        -3.7997
  59   0.0000      -0.082130        -2.2349
  60   0.0000       0.002605         0.0709
  61   0.0000       0.019174         0.5217
  62   0.0000       0.022463         0.6113
  63   0.0000       0.027557         0.7499

MULLIKEN ATOMIC CHARGES
-----------------------
   0 C :   -0.159308
   1 C :   -0.141950
   2 C :   -0.202383
   3 H :    0.117036
   4 H :    0.135884
   5 C :    0.316812
   6 C :    0.085752
   7 C :   -0.399496
   8 N :   -0.366416
   9 H :    0.205466
  10 H :    0.203870
  11 H :    0.070524
  12 H :    0.132419
  13 F :   -0.093466
  14 O :   -0.269319
  15 C :   -0.154637
  16 C :   -0.246351
  17 C :   -0.251850
  18 H :    0.091789
  19 H :    0.153225
  20 H :    0.100587
  21 H :    0.110303
  22 C :   -0.235047
  23 H :    0.091964
  24 H :    0.079909
  25 C :   -0.153024
  26 H :    0.095481
  27 H :    0.068134
  28 C :   -0.126051
  29 H :    0.097718
  30 H :    0.087482
  31 H :    0.105206
  32 H :    0.090371
  33 H :    0.093672
  34 H :    0.083167
  35 H :    0.071505
  36 H :    0.111020
Sum of atomic charges:   -0.0000000

LOEWDIN ATOMIC CHARGES
----------------------
   0 C :   -0.219559
   1 C :   -0.258627
   2 C :   -0.239749
   3 H :    0.143644
   4 H :    0.162053
   5 C :   -0.519179
   6 C :   -0.403163
   7 C :   -0.275454
   8 N :    0.009356
   9 H :    0.149135
  10 H :    0.161219
  11 H :    0.104420
  12 H :    0.091389
  13 F :    0.353047
  14 O :    0.131029
  15 C :   -0.254713
  16 C :   -0.277484
  17 C :   -0.272987
  18 H :    0.142312
  19 H :    0.147365
  20 H :    0.142271
  21 H :    0.147439
  22 C :   -0.270494
  23 H :    0.139795
  24 H :    0.131725
  25 C :   -0.272869
  26 H :    0.142951
  27 H :    0.132569
  28 C :   -0.269753
  29 H :    0.138923
  30 H :    0.136311
  31 H :    0.132452
  32 H :    0.137729
  33 H :    0.138216
  34 H :    0.136934
  35 H :    0.132580
  36 H :    0.149166

  Mayer bond orders larger than 0.100000
B(  0-C ,  6-C ) :   0.9646 B(  0-C , 15-C ) :   0.9957 B(  0-C , 35-H ) :   0.9465
B(  0-C , 36-H ) :   0.9552 B(  1-C ,  2-C ) :   0.9931 B(  1-C , 17-C ) :   1.0156
B(  1-C , 20-H ) :   0.9441 B(  1-C , 21-H ) :   0.9401 B(  2-C ,  3-H ) :   0.9429
B(  2-C ,  4-H ) :   0.9184 B(  2-C ,  5-C ) :   1.0143 B(  5-C , 13-F ) :   1.1040
B(  5-C , 14-O ) :   2.0187 B(  6-C ,  7-C ) :   1.7708 B(  6-C ,  8-N ) :   1.2026
B(  7-C , 11-H ) :   0.9830 B(  7-C , 12-H ) :   0.9460 B(  8-N ,  9-H ) :   0.8941
B(  8-N , 10-H ) :   0.9233 B( 15-C , 22-C ) :   1.0190 B( 15-C , 23-H ) :   0.9506
B( 15-C , 24-H ) :   0.9414 B( 16-C , 17-C ) :   0.9852 B( 16-C , 28-C ) :   1.0213
B( 16-C , 31-H ) :   0.9549 B( 16-C , 32-H ) :   0.9455 B( 17-C , 18-H ) :   0.9457
B( 17-C , 19-H ) :   0.9520 B( 22-C , 25-C ) :   1.0213 B( 22-C , 26-H ) :   0.9611
B( 22-C , 27-H ) :   0.9457 B( 25-C , 28-C ) :   0.9977 B( 25-C , 29-H ) :   0.9489
B( 25-C , 30-H ) :   0.9490 B( 28-C , 33-H ) :   0.9482 B( 28-C , 34-H ) :   0.9496

Dispersion correction           -0.043108638
FINAL SINGLE POINT ENERGY      -699.695640973698

DIPOLE MOMENT
-------------
                                X             Y             Z
Electronic contribution:      1.23555       7.36789      15.03963
Nuclear contribution   :     -1.66567      -5.90236     -15.95042
                        -----------------------------------------
Total Dipole Moment    :     -0.43012       1.46553      -0.91079
                        -----------------------------------------
Magnitude (a.u.)       :      1.77829
Magnitude (Debye)      :      4.52005

Rotational constants in cm-1:     0.021600     0.017292     0.011381
Rotational constants in MHz :   647.565282   518.410024   341.193038

                             ****ORCA TERMINATED NORMALLY****
TOTAL RUN TIME: 0 days 0 hours 0 minutes 24 seconds 837 msec
