                         Program Version 5.0.0 -  RELEASE  -
|  1> !PBE D3BJ RIJCOSX def2-TZVP def2/J TightSCF xyzfile
|  2>
|  3> *xyzfile 0 1 D2.xyz
|  4>
|  5> %MaxCore 64000
|  6>
|  7> %pal nprocs 18
|  8> end
|  9>
| 10> %scf
| 11>   MaxIter 150
| 12> end
| 13>
| 14>
| 15>                          ****END OF INPUT****

CARTESIAN COORDINATES (ANGSTROEM)
---------------------------------
  C      4.602954   -2.440100    2.634780
  C     -0.914947    0.615112    2.505538
  C     -0.059146    1.503524    3.410578
  H      0.365364    2.344315    2.861161
  H     -0.692261    1.920207    4.198985
  C      1.083027    0.749640    4.085705
  C      3.860851   -1.591565    3.622893
  N      2.756502   -2.046159    4.166333
  C      4.254325   -0.362905    3.860455
  H      3.565256    0.310994    4.168983
  H      5.054292   -0.016059    3.337838
  H      2.439696   -2.973894    3.897395
  H      2.066869   -1.412532    4.549813
  F      2.228167    1.263475    4.019826
  O      0.810034   -0.345411    4.636269
  C      3.744685   -2.580557    1.361882
  C      0.772139    0.636882    0.562129
  C     -0.130740   -0.193985    1.470763
  H     -0.840563   -0.760165    0.856377
  H      0.466691   -0.938942    2.006959
  H     -1.647961    1.245963    1.991076
  H     -1.478180   -0.081046    3.130424
  C      3.203721   -1.256004    0.826211
  H      2.898939   -3.239289    1.583074
  H      4.334962   -3.095523    0.600188
  C      2.107815   -1.442385   -0.216865
  H      2.786775   -0.672760    1.650711
  H      4.021008   -0.652993    0.414046
  C      1.390662   -0.145912   -0.602422
  H      1.372179   -2.152184    0.176151
  H      2.523302   -1.906787   -1.117115
  H      1.561361    1.100094    1.161831
  H      0.195516    1.468325    0.142758
  H      0.602893   -0.398214   -1.319716
  H      2.087247    0.508272   -1.137335
  H      5.561557   -1.971347    2.407084
  H      4.810498   -3.422552    3.063099

 Total Charge           Charge          ....    0
 Multiplicity           Mult            ....    1
 Number of Electrons    NEL             ....  118
 Basis Dimension        Dim             ....  597

ORBITAL ENERGIES
----------------

  NO   OCC          E(Eh)            E(eV)
   0   2.0000     -24.340685      -662.3437
   1   2.0000     -18.777261      -510.9553
   2   2.0000     -13.951520      -379.6402
   3   2.0000     -10.068235      -273.9706
   4   2.0000      -9.919790      -269.9312
   5   2.0000      -9.900469      -269.4055
   6   2.0000      -9.885474      -268.9974
   7   2.0000      -9.882625      -268.9199
   8   2.0000      -9.877453      -268.7792
   9   2.0000      -9.876305      -268.7479
  10   2.0000      -9.872103      -268.6336
  11   2.0000      -9.871134      -268.6072
  12   2.0000      -9.867270      -268.5021
  13   2.0000      -9.864821      -268.4354
  14   2.0000      -9.786030      -266.2914
  15   2.0000      -1.234347       -33.5883
  16   2.0000      -0.974352       -26.5135
  17   2.0000      -0.829160       -22.5626
  18   2.0000      -0.758990       -20.6532
  19   2.0000      -0.732913       -19.9436
  20   2.0000      -0.708148       -19.2697
  21   2.0000      -0.676012       -18.3952
  22   2.0000      -0.647047       -17.6070
  23   2.0000      -0.634721       -17.2716
  24   2.0000      -0.605250       -16.4697
  25   2.0000      -0.584996       -15.9186
  26   2.0000      -0.550893       -14.9905
  27   2.0000      -0.526626       -14.3302
  28   2.0000      -0.509224       -13.8567
  29   2.0000      -0.503697       -13.7063
  30   2.0000      -0.496999       -13.5240
  31   2.0000      -0.487771       -13.2729
  32   2.0000      -0.472583       -12.8596
  33   2.0000      -0.448087       -12.1931
  34   2.0000      -0.434940       -11.8353
  35   2.0000      -0.429392       -11.6843
  36   2.0000      -0.413167       -11.2428
  37   2.0000      -0.404571       -11.0089
  38   2.0000      -0.393347       -10.7035
  39   2.0000      -0.387552       -10.5458
  40   2.0000      -0.378175       -10.2907
  41   2.0000      -0.365521        -9.9463
  42   2.0000      -0.358144        -9.7456
  43   2.0000      -0.350604        -9.5404
  44   2.0000      -0.337350        -9.1798
  45   2.0000      -0.331885        -9.0311
  46   2.0000      -0.326381        -8.8813
  47   2.0000      -0.322816        -8.7843
  48   2.0000      -0.310263        -8.4427
  49   2.0000      -0.306690        -8.3455
  50   2.0000      -0.300612        -8.1801
  51   2.0000      -0.285438        -7.7672
  52   2.0000      -0.283631        -7.7180
  53   2.0000      -0.279583        -7.6078
  54   2.0000      -0.273204        -7.4342
  55   2.0000      -0.270210        -7.3528
  56   2.0000      -0.262868        -7.1530
  57   2.0000      -0.251167        -6.8346
  58   2.0000      -0.141184        -3.8418
  59   0.0000      -0.087864        -2.3909
  60   0.0000       0.002470         0.0672
  61   0.0000       0.014416         0.3923
  62   0.0000       0.023800         0.6476
  63   0.0000       0.028498         0.7755

MULLIKEN ATOMIC CHARGES
-----------------------
   0 C :   -0.163515
   1 C :   -0.143461
   2 C :   -0.200556
   3 H :    0.124147
   4 H :    0.136936
   5 C :    0.332732
   6 C :    0.087584
   7 N :   -0.357038
   8 C :   -0.376102
   9 H :    0.075754
  10 H :    0.071983
  11 H :    0.198469
  12 H :    0.224320
  13 F :   -0.051912
  14 O :   -0.320511
  15 C :   -0.196382
  16 C :   -0.247152
  17 C :   -0.247448
  18 H :    0.094251
  19 H :    0.127694
  20 H :    0.102845
  21 H :    0.109343
  22 C :   -0.221794
  23 H :    0.085865
  24 H :    0.091940
  25 C :   -0.143504
  26 H :    0.105481
  27 H :    0.071722
  28 C :   -0.128147
  29 H :    0.091973
  30 H :    0.087425
  31 H :    0.116298
  32 H :    0.090562
  33 H :    0.092872
  34 H :    0.085898
  35 H :    0.092150
  36 H :    0.099277
Sum of atomic charges:    0.0000000

LOEWDIN ATOMIC CHARGES
----------------------
   0 C :   -0.218944
   1 C :   -0.259291
   2 C :   -0.236403
   3 H :    0.146681
   4 H :    0.162923
   5 C :   -0.508396
   6 C :   -0.397982
   7 N :    0.024555
   8 C :   -0.295771
   9 H :    0.089167
  10 H :    0.102781
  11 H :    0.162610
  12 H :    0.143338
  13 F :    0.372195
  14 O :    0.105527
  15 C :   -0.261867
  16 C :   -0.276737
  17 C :   -0.274003
  18 H :    0.142371
  19 H :    0.141716
  20 H :    0.143146
  21 H :    0.146453
  22 C :   -0.266216
  23 H :    0.132336
  24 H :    0.135518
  25 C :   -0.274887
  26 H :    0.144891
  27 H :    0.136980
  28 C :   -0.269275
  29 H :    0.136466
  30 H :    0.136067
  31 H :    0.135435
  32 H :    0.138065
  33 H :    0.137849
  34 H :    0.138059
  35 H :    0.147209
  36 H :    0.137435

  Mayer bond orders larger than 0.100000
B(  0-C ,  6-C ) :   0.9970 B(  0-C , 15-C ) :   0.9787 B(  0-C , 35-H ) :   0.9507
B(  0-C , 36-H ) :   0.9525 B(  1-C ,  2-C ) :   0.9900 B(  1-C , 17-C ) :   1.0150
B(  1-C , 20-H ) :   0.9439 B(  1-C , 21-H ) :   0.9417 B(  2-C ,  3-H ) :   0.9453
B(  2-C ,  4-H ) :   0.9161 B(  2-C ,  5-C ) :   1.0152 B(  5-C , 13-F ) :   1.1742
B(  5-C , 14-O ) :   1.9460 B(  6-C ,  7-N ) :   1.2391 B(  6-C ,  8-C ) :   1.7660
B(  7-N , 11-H ) :   0.9280 B(  7-N , 12-H ) :   0.8438 B(  8-C ,  9-H ) :   0.9679
B(  8-C , 10-H ) :   0.9766 B( 12-H , 14-O ) :   0.1277 B( 15-C , 22-C ) :   0.9987
B( 15-C , 23-H ) :   0.9657 B( 15-C , 24-H ) :   0.9434 B( 16-C , 17-C ) :   0.9867
B( 16-C , 28-C ) :   1.0215 B( 16-C , 31-H ) :   0.9531 B( 16-C , 32-H ) :   0.9453
B( 17-C , 18-H ) :   0.9465 B( 17-C , 19-H ) :   0.9533 B( 22-C , 25-C ) :   1.0063
B( 22-C , 26-H ) :   0.9777 B( 22-C , 27-H ) :   0.9456 B( 25-C , 28-C ) :   0.9991
B( 25-C , 29-H ) :   0.9473 B( 25-C , 30-H ) :   0.9498 B( 28-C , 33-H ) :   0.9482
B( 28-C , 34-H ) :   0.9495

Dispersion correction           -0.043062111
FINAL SINGLE POINT ENERGY      -699.705772005860

DIPOLE MOMENT
-------------
                                X             Y             Z
Electronic contribution:      0.08406       6.20640      15.21351
Nuclear contribution   :     -1.39991      -5.60370     -16.00470
                        -----------------------------------------
Total Dipole Moment    :     -1.31585       0.60269      -0.79118
                        -----------------------------------------
Magnitude (a.u.)       :      1.64944
Magnitude (Debye)      :      4.19256

Rotational constants in cm-1:     0.021622     0.017313     0.011402
Rotational constants in MHz :   648.226014   519.043632   341.814105

                             ****ORCA TERMINATED NORMALLY****
TOTAL RUN TIME: 0 days 0 hours 0 minutes 28 seconds 922 msec
