                         Program Version 5.0.0 -  RELEASE  -
|  1> !PBE D3BJ RIJCOSX def2-TZVP def2/J TightSCF xyzfile
|  2>
|  3> *xyzfile 0 1 D4.xyz
|  4>
|  5> %MaxCore 64000
|  6>
|  7> %pal nprocs 18
|  8> end
|  9>
| 10> %scf
| 11>   MaxIter 150
| 12> end
| 13>
| 14>
| 15>                          ****END OF INPUT****

CARTESIAN COORDINATES (ANGSTROEM)
---------------------------------
  C      4.602954   -2.440100    2.634780
  C     -0.914947    0.615112    2.505538
  C     -0.059146    1.503524    3.410578
  H      0.365364    2.344315    2.861161
  H     -0.692261    1.920207    4.198985
  C      1.083027    0.749640    4.085705
  C      3.860851   -1.591565    3.622893
  N      2.756502   -2.046159    4.166333
  C      4.254325   -0.362905    3.860455
  H      3.565256    0.310994    4.168983
  H      5.054292   -0.016059    3.337838
  H      2.439696   -2.973894    3.897395
  H      2.066869   -1.412532    4.549813
  O      2.228167    1.263475    4.019826
  F      0.810034   -0.345411    4.636269
  C      3.744685   -2.580557    1.361882
  C      0.772139    0.636882    0.562129
  C     -0.130740   -0.193985    1.470763
  H     -0.840563   -0.760165    0.856377
  H      0.466691   -0.938942    2.006959
  H     -1.647961    1.245963    1.991076
  H     -1.478180   -0.081046    3.130424
  C      3.203721   -1.256004    0.826211
  H      2.898939   -3.239289    1.583074
  H      4.334962   -3.095523    0.600188
  C      2.107815   -1.442385   -0.216865
  H      2.786775   -0.672760    1.650711
  H      4.021008   -0.652993    0.414046
  C      1.390662   -0.145912   -0.602422
  H      1.372179   -2.152184    0.176151
  H      2.523302   -1.906787   -1.117115
  H      1.561361    1.100094    1.161831
  H      0.195516    1.468325    0.142758
  H      0.602893   -0.398214   -1.319716
  H      2.087247    0.508272   -1.137335
  H      5.561557   -1.971347    2.407084
  H      4.810498   -3.422552    3.063099

 Total Charge           Charge          ....    0
 Multiplicity           Mult            ....    1
 Number of Electrons    NEL             ....  118
 Basis Dimension        Dim             ....  597

ORBITAL ENERGIES
----------------

  NO   OCC          E(Eh)            E(eV)
   0   2.0000     -24.351259      -662.6314
   1   2.0000     -18.766122      -510.6521
   2   2.0000     -13.964387      -379.9903
   3   2.0000     -10.061471      -273.7865
   4   2.0000      -9.916975      -269.8546
   5   2.0000      -9.902217      -269.4530
   6   2.0000      -9.888480      -269.0792
   7   2.0000      -9.879908      -268.8460
   8   2.0000      -9.875806      -268.7343
   9   2.0000      -9.873526      -268.6723
  10   2.0000      -9.871126      -268.6070
  11   2.0000      -9.870092      -268.5789
  12   2.0000      -9.866311      -268.4760
  13   2.0000      -9.862609      -268.3752
  14   2.0000      -9.776685      -266.0371
  15   2.0000      -1.244172       -33.8556
  16   2.0000      -0.963195       -26.2099
  17   2.0000      -0.836609       -22.7653
  18   2.0000      -0.760311       -20.6891
  19   2.0000      -0.732226       -19.9249
  20   2.0000      -0.708243       -19.2723
  21   2.0000      -0.673816       -18.3355
  22   2.0000      -0.649802       -17.6820
  23   2.0000      -0.626515       -17.0483
  24   2.0000      -0.614630       -16.7249
  25   2.0000      -0.583379       -15.8745
  26   2.0000      -0.553197       -15.0533
  27   2.0000      -0.527594       -14.3566
  28   2.0000      -0.519656       -14.1406
  29   2.0000      -0.509684       -13.8692
  30   2.0000      -0.496031       -13.4977
  31   2.0000      -0.487542       -13.2667
  32   2.0000      -0.464441       -12.6381
  33   2.0000      -0.450294       -12.2531
  34   2.0000      -0.435251       -11.8438
  35   2.0000      -0.432185       -11.7603
  36   2.0000      -0.411662       -11.2019
  37   2.0000      -0.398619       -10.8470
  38   2.0000      -0.391538       -10.6543
  39   2.0000      -0.388440       -10.5700
  40   2.0000      -0.374129       -10.1806
  41   2.0000      -0.367027        -9.9873
  42   2.0000      -0.360196        -9.8014
  43   2.0000      -0.345713        -9.4073
  44   2.0000      -0.338952        -9.2233
  45   2.0000      -0.332542        -9.0489
  46   2.0000      -0.329047        -8.9538
  47   2.0000      -0.316009        -8.5991
  48   2.0000      -0.313355        -8.5268
  49   2.0000      -0.306491        -8.3401
  50   2.0000      -0.302498        -8.2314
  51   2.0000      -0.286234        -7.7888
  52   2.0000      -0.283654        -7.7186
  53   2.0000      -0.280807        -7.6412
  54   2.0000      -0.272027        -7.4022
  55   2.0000      -0.267594        -7.2816
  56   2.0000      -0.261906        -7.1268
  57   2.0000      -0.226125        -6.1532
  58   2.0000      -0.140568        -3.8251
  59   0.0000      -0.080843        -2.1998
  60   0.0000      -0.002608        -0.0710
  61   0.0000       0.012746         0.3468
  62   0.0000       0.023184         0.6309
  63   0.0000       0.029325         0.7980

MULLIKEN ATOMIC CHARGES
-----------------------
   0 C :   -0.166535
   1 C :   -0.178940
   2 C :   -0.188701
   3 H :    0.138208
   4 H :    0.129913
   5 C :    0.307722
   6 C :    0.089465
   7 N :   -0.376550
   8 C :   -0.363255
   9 H :    0.114521
  10 H :    0.064022
  11 H :    0.205744
  12 H :    0.208711
  13 O :   -0.274930
  14 F :   -0.090737
  15 C :   -0.190101
  16 C :   -0.256742
  17 C :   -0.221640
  18 H :    0.095792
  19 H :    0.105601
  20 H :    0.105516
  21 H :    0.106417
  22 C :   -0.240878
  23 H :    0.081618
  24 H :    0.092648
  25 C :   -0.139664
  26 H :    0.124528
  27 H :    0.072635
  28 C :   -0.129663
  29 H :    0.087666
  30 H :    0.087208
  31 H :    0.142188
  32 H :    0.089265
  33 H :    0.090982
  34 H :    0.086962
  35 H :    0.094513
  36 H :    0.096490
Sum of atomic charges:   -0.0000000

LOEWDIN ATOMIC CHARGES
----------------------
   0 C :   -0.220828
   1 C :   -0.269758
   2 C :   -0.234643
   3 H :    0.158080
   4 H :    0.157476
   5 C :   -0.522107
   6 C :   -0.401401
   7 N :    0.013004
   8 C :   -0.272965
   9 H :    0.090314
  10 H :    0.102664
  11 H :    0.163867
  12 H :    0.149274
  13 O :    0.128627
  14 F :    0.356778
  15 C :   -0.263330
  16 C :   -0.275322
  17 C :   -0.275405
  18 H :    0.142147
  19 H :    0.136550
  20 H :    0.143682
  21 H :    0.140835
  22 C :   -0.265297
  23 H :    0.130625
  24 H :    0.135417
  25 C :   -0.275541
  26 H :    0.147662
  27 H :    0.137941
  28 C :   -0.269423
  29 H :    0.135050
  30 H :    0.135878
  31 H :    0.142155
  32 H :    0.138132
  33 H :    0.136964
  34 H :    0.138693
  35 H :    0.148331
  36 H :    0.135871

  Mayer bond orders larger than 0.100000
B(  0-C ,  6-C ) :   0.9997 B(  0-C , 15-C ) :   0.9781 B(  0-C , 35-H ) :   0.9511
B(  0-C , 36-H ) :   0.9524 B(  1-C ,  2-C ) :   0.9679 B(  1-C , 17-C ) :   0.9990
B(  1-C , 20-H ) :   0.9415 B(  1-C , 21-H ) :   0.9544 B(  2-C ,  3-H ) :   0.9523
B(  2-C ,  4-H ) :   0.9178 B(  2-C ,  5-C ) :   1.0282 B(  5-C , 13-O ) :   2.0062
B(  5-C , 14-F ) :   1.1061 B(  6-C ,  7-N ) :   1.1924 B(  6-C ,  8-C ) :   1.7788
B(  7-N , 11-H ) :   0.9264 B(  7-N , 12-H ) :   0.8874 B(  8-C ,  9-H ) :   0.9519
B(  8-C , 10-H ) :   0.9749 B( 15-C , 22-C ) :   0.9890 B( 15-C , 23-H ) :   0.9671
B( 15-C , 24-H ) :   0.9434 B( 16-C , 17-C ) :   0.9848 B( 16-C , 28-C ) :   1.0190
B( 16-C , 31-H ) :   0.9516 B( 16-C , 32-H ) :   0.9449 B( 17-C , 18-H ) :   0.9463
B( 17-C , 19-H ) :   0.9563 B( 22-C , 25-C ) :   0.9994 B( 22-C , 26-H ) :   0.9824
B( 22-C , 27-H ) :   0.9461 B( 25-C , 28-C ) :   0.9994 B( 25-C , 29-H ) :   0.9478
B( 25-C , 30-H ) :   0.9495 B( 28-C , 33-H ) :   0.9489 B( 28-C , 34-H ) :   0.9493

Dispersion correction           -0.043065502
FINAL SINGLE POINT ENERGY      -699.694273261106

DIPOLE MOMENT
-------------
                                X             Y             Z
Electronic contribution:     -2.20553       3.55356      16.27395
Nuclear contribution   :      0.32481      -3.64700     -16.75441
                        -----------------------------------------
Total Dipole Moment    :     -1.88072      -0.09344      -0.48046
                        -----------------------------------------
Magnitude (a.u.)       :      1.94337
Magnitude (Debye)      :      4.93966

Rotational constants in cm-1:     0.021629     0.017327     0.011372
Rotational constants in MHz :   648.414821   519.443407   340.925013

                             ****ORCA TERMINATED NORMALLY****
TOTAL RUN TIME: 0 days 0 hours 0 minutes 25 seconds 225 msec
