                         Program Version 5.0.0 -  RELEASE  -
|  1> !CAM-B3LYP RIJCOSX def2-SVPD def2/J TightSCF
|  2> *xyz -1 1
|  3> C          2.09343        1.86104       -4.65684
|  4> S          1.87964        0.07859       -4.46297
|  5> O          3.20757       -0.46611       -4.42026
|  6> O          1.07506       -0.05616       -3.26876
|  7> O          1.13166       -0.31996       -5.67903
|  8> H          2.68437        2.05681       -5.52711
|  9> H          2.58708        2.25699       -3.79404
| 10> H          1.13553        2.32556       -4.76426
| 11> *
| 12>
| 13> %MaxCore 64000
| 14>
| 15> %pal nprocs 8
| 16> end
| 17>
| 18> %scf
| 19>   MaxIter 150
| 20> end
| 21>
| 22>
| 23>                          ****END OF INPUT****

CARTESIAN COORDINATES (ANGSTROEM)
---------------------------------
  C      2.093430    1.861040   -4.656840
  S      1.879640    0.078590   -4.462970
  O      3.207570   -0.466110   -4.420260
  O      1.075060   -0.056160   -3.268760
  O      1.131660   -0.319960   -5.679030
  H      2.684370    2.056810   -5.527110
  H      2.587080    2.256990   -3.794040
  H      1.135530    2.325560   -4.764260

 Total Charge           Charge          ....   -1
 Multiplicity           Mult            ....    1
 Number of Electrons    NEL             ....   50
 Basis Dimension        Dim             ....  140

ORBITAL ENERGIES
----------------

  NO   OCC          E(Eh)            E(eV)
   0   2.0000     -88.964016     -2420.8339
   1   2.0000     -18.998227      -516.9680
   2   2.0000     -18.994003      -516.8531
   3   2.0000     -18.982701      -516.5455
   4   2.0000     -10.110049      -275.1084
   5   2.0000      -8.016976      -218.1530
   6   2.0000      -5.986870      -162.9110
   7   2.0000      -5.986745      -162.9076
   8   2.0000      -5.986535      -162.9019
   9   2.0000      -1.018829       -27.7238
  10   2.0000      -0.877267       -23.8716
  11   2.0000      -0.851166       -23.1614
  12   2.0000      -0.658584       -17.9210
  13   2.0000      -0.460993       -12.5443
  14   2.0000      -0.378349       -10.2954
  15   2.0000      -0.360771        -9.8171
  16   2.0000      -0.359948        -9.7947
  17   2.0000      -0.320455        -8.7200
  18   2.0000      -0.318210        -8.6589
  19   2.0000      -0.223929        -6.0934
  20   2.0000      -0.222758        -6.0615
  21   2.0000      -0.186245        -5.0680
  22   2.0000      -0.176649        -4.8069
  23   2.0000      -0.168386        -4.5820
  24   2.0000      -0.133164        -3.6236
  25   0.0000       0.177641         4.8339
  26   0.0000       0.206897         5.6300
  27   0.0000       0.207179         5.6376
  28   0.0000       0.210755         5.7349
  29   0.0000       0.239592         6.5196

MULLIKEN ATOMIC CHARGES
-----------------------
   0 C :    0.682386
   1 S :    1.094303
   2 O :   -0.751603
   3 O :   -0.765600
   4 O :   -0.803725
   5 H :   -0.154071
   6 H :   -0.155191
   7 H :   -0.146498
Sum of atomic charges:   -1.0000000

LOEWDIN ATOMIC CHARGES
----------------------
   0 C :    0.056898
   1 S :    0.834027
   2 O :   -0.579881
   3 O :   -0.587090
   4 O :   -0.605874
   5 H :   -0.039270
   6 H :   -0.040669
   7 H :   -0.038141

  Mayer bond orders larger than 0.100000
B(  0-C ,  1-S ) :   0.9326 B(  0-C ,  5-H ) :   0.8889 B(  0-C ,  6-H ) :   0.8860
B(  0-C ,  7-H ) :   0.8893 B(  1-S ,  2-O ) :   1.3501 B(  1-S ,  3-O ) :   1.3400
B(  1-S ,  4-O ) :   1.3069 B(  1-S ,  5-H ) :   0.1266 B(  1-S ,  6-H ) :   0.1190
B(  1-S ,  7-H ) :   0.1284

FINAL SINGLE POINT ENERGY      -663.407671973339

DIPOLE MOMENT
-------------
                                X             Y             Z
Electronic contribution:     -0.41559      -4.23908       0.56312
Nuclear contribution   :      0.72475       5.67579      -0.57287
                        -----------------------------------------
Total Dipole Moment    :      0.30916       1.43671      -0.00975
                        -----------------------------------------
Magnitude (a.u.)       :      1.46963
Magnitude (Debye)      :      3.73551

Rotational constants in cm-1:     0.171646     0.157781     0.155534
Rotational constants in MHz :  5145.813281  4730.160232  4662.792719

                             ****ORCA TERMINATED NORMALLY****
TOTAL RUN TIME: 0 days 0 hours 0 minutes 10 seconds 35 msec
