                         Program Version 5.0.0 -  RELEASE  -
|  1> !CAM-B3LYP RIJCOSX def2-SVPD def2/J TightSCF
|  2> *xyz 1 1
|  3> C         -0.46129        2.23469       -4.98962
|  4> C         -0.42384        2.39877       -6.47432
|  5> N         -0.95947        3.49265       -7.00740
|  6> N          0.14558        1.48689       -7.20399
|  7> H          0.56537        0.69681       -6.72386
|  8> H          0.22068        1.58177       -8.20752
|  9> H         -1.40624        4.18151       -6.40326
| 10> H         -0.93421        3.68160       -7.99947
| 11> H          0.00645        1.31059       -4.72100
| 12> H         -1.47822        2.22967       -4.65687
| 13> H          0.06109        3.04632       -4.52779
| 14> *
| 15>
| 16> %MaxCore 64000
| 17>
| 18> %pal nprocs 8
| 19> end
| 20>
| 21> %scf
| 22>   MaxIter 150
| 23> end
| 24>
| 25>
| 26>                          ****END OF INPUT****

CARTESIAN COORDINATES (ANGSTROEM)
---------------------------------
  C     -0.461290    2.234690   -4.989620
  C     -0.423840    2.398770   -6.474320
  N     -0.959470    3.492650   -7.007400
  N      0.145580    1.486890   -7.203990
  H      0.565370    0.696810   -6.723860
  H      0.220680    1.581770   -8.207520
  H     -1.406240    4.181510   -6.403260
  H     -0.934210    3.681600   -7.999470
  H      0.006450    1.310590   -4.721000
  H     -1.478220    2.229670   -4.656870
  H      0.061090    3.046320   -4.527790

 Total Charge           Charge          ....    1
 Multiplicity           Mult            ....    1
 Number of Electrons    NEL             ....   32
 Basis Dimension        Dim             ....  136

ORBITAL ENERGIES
----------------

  NO   OCC          E(Eh)            E(eV)
   0   2.0000     -14.662241      -398.9799
   1   2.0000     -14.654728      -398.7754
   2   2.0000     -10.595892      -288.3289
   3   2.0000     -10.459370      -284.6139
   4   2.0000      -1.288522       -35.0625
   5   2.0000      -1.189850       -32.3775
   6   2.0000      -1.033717       -28.1289
   7   2.0000      -0.918211       -24.9858
   8   2.0000      -0.859866       -23.3981
   9   2.0000      -0.843743       -22.9594
  10   2.0000      -0.778068       -21.1723
  11   2.0000      -0.736867       -20.0512
  12   2.0000      -0.689007       -18.7488
  13   2.0000      -0.672792       -18.3076
  14   2.0000      -0.647051       -17.6072
  15   2.0000      -0.565241       -15.3810
  16   0.0000      -0.168058        -4.5731
  17   0.0000      -0.130389        -3.5481
  18   0.0000      -0.084184        -2.2908
  19   0.0000      -0.082523        -2.2456
  20   0.0000      -0.059754        -1.6260

MULLIKEN ATOMIC CHARGES
-----------------------
   0 C :    0.775916
   1 C :    0.273381
   2 N :    0.213420
   3 N :    0.162533
   4 H :    0.061860
   5 H :   -0.166834
   6 H :    0.000729
   7 H :   -0.190152
   8 H :   -0.038166
   9 H :   -0.040767
  10 H :   -0.051920
Sum of atomic charges:    1.0000000

LOEWDIN ATOMIC CHARGES
----------------------
   0 C :    0.233551
   1 C :   -0.067380
   2 N :    0.277490
   3 N :    0.285782
   4 H :    0.056623
   5 H :    0.055248
   6 H :    0.059243
   7 H :    0.044135
   8 H :    0.006691
   9 H :    0.024032
  10 H :    0.024584

  Mayer bond orders larger than 0.100000
B(  0-C ,  1-C ) :   1.2638 B(  0-C ,  8-H ) :   0.7500 B(  0-C ,  9-H ) :   0.7151
B(  0-C , 10-H ) :   0.7351 B(  1-C ,  2-N ) :   1.1804 B(  1-C ,  3-N ) :   1.1375
B(  1-C ,  5-H ) :  -0.2380 B(  1-C ,  7-H ) :  -0.1770 B(  1-C ,  8-H ) :   0.2747
B(  1-C ,  9-H ) :   0.2019 B(  1-C , 10-H ) :   0.1888 B(  2-N ,  3-N ) :   0.1405
B(  2-N ,  6-H ) :   1.1211 B(  2-N ,  7-H ) :   1.2669 B(  3-N ,  4-H ) :   1.0521
B(  3-N ,  5-H ) :   1.3608 B(  4-H ,  5-H ) :  -0.1797 B(  6-H ,  7-H ) :  -0.1674
B(  8-H ,  9-H ) :   0.1055 B(  9-H , 10-H ) :   0.1083

FINAL SINGLE POINT ENERGY      -189.493123611159

DIPOLE MOMENT
-------------
                                X             Y             Z
Electronic contribution:      0.06414       0.17332      -2.17148
Nuclear contribution   :     -0.00094      -0.11553       1.69525
                        -----------------------------------------
Total Dipole Moment    :      0.06320       0.05778      -0.47622
                        -----------------------------------------
Magnitude (a.u.)       :      0.48386
Magnitude (Debye)      :      1.22988

Rotational constants in cm-1:     0.329971     0.303414     0.162776
Rotational constants in MHz :  9892.292308  9096.128349  4879.901854

                             ****ORCA TERMINATED NORMALLY****
TOTAL RUN TIME: 0 days 0 hours 0 minutes 9 seconds 312 msec
