                         Program Version 5.0.0 -  RELEASE  -
|  1> !CAM-B3LYP RIJCOSX def2-SVPD def2/J TightSCF
|  2> *xyz 0 1
|  3> C          2.09343        1.86104       -4.65684
|  4> S          1.87964        0.07859       -4.46297
|  5> F          3.20757       -0.46611       -4.42026
|  6> O          1.07506       -0.05616       -3.26876
|  7> O          1.13166       -0.31996       -5.67903
|  8> H          2.68437        2.05681       -5.52711
|  9> H          2.58708        2.25699       -3.79404
| 10> H          1.13553        2.32556       -4.76426
| 11> *
| 12>
| 13> %MaxCore 64000
| 14>
| 15> %pal nprocs 8
| 16> end
| 17>
| 18> %scf
| 19>   MaxIter 150
| 20> end
| 21>
| 22>
| 23>                          ****END OF INPUT****

CARTESIAN COORDINATES (ANGSTROEM)
---------------------------------
  C      2.093430    1.861040   -4.656840
  S      1.879640    0.078590   -4.462970
  F      3.207570   -0.466110   -4.420260
  O      1.075060   -0.056160   -3.268760
  O      1.131660   -0.319960   -5.679030
  H      2.684370    2.056810   -5.527110
  H      2.587080    2.256990   -3.794040
  H      1.135530    2.325560   -4.764260

 Total Charge           Charge          ....    0
 Multiplicity           Mult            ....    1
 Number of Electrons    NEL             ....   50
 Basis Dimension        Dim             ....  140

ORBITAL ENERGIES
----------------

  NO   OCC          E(Eh)            E(eV)
   0   2.0000     -89.230538     -2428.0864
   1   2.0000     -24.904684      -677.6909
   2   2.0000     -19.233768      -523.3774
   3   2.0000     -19.222082      -523.0595
   4   2.0000     -10.320779      -280.8427
   5   2.0000      -8.284178      -225.4239
   6   2.0000      -6.258349      -170.2983
   7   2.0000      -6.251608      -170.1149
   8   2.0000      -6.250635      -170.0884
   9   2.0000      -1.475224       -40.1429
  10   2.0000      -1.198060       -32.6009
  11   2.0000      -1.090645       -29.6780
  12   2.0000      -0.883388       -24.0382
  13   2.0000      -0.806340       -21.9416
  14   2.0000      -0.691816       -18.8253
  15   2.0000      -0.678186       -18.4544
  16   2.0000      -0.635684       -17.2978
  17   2.0000      -0.554304       -15.0834
  18   2.0000      -0.552027       -15.0214
  19   2.0000      -0.540071       -14.6961
  20   2.0000      -0.512787       -13.9536
  21   2.0000      -0.462945       -12.5974
  22   2.0000      -0.409566       -11.1448
  23   2.0000      -0.398396       -10.8409
  24   2.0000      -0.380353       -10.3499
  25   0.0000       0.018906         0.5145
  26   0.0000       0.057123         1.5544
  27   0.0000       0.066760         1.8166
  28   0.0000       0.067145         1.8271
  29   0.0000       0.077172         2.1000

MULLIKEN ATOMIC CHARGES
-----------------------
   0 C :    0.649511
   1 S :    1.248553
   2 F :   -0.366907
   3 O :   -0.616481
   4 O :   -0.652285
   5 H :   -0.088541
   6 H :   -0.086435
   7 H :   -0.087416
Sum of atomic charges:   -0.0000000

LOEWDIN ATOMIC CHARGES
----------------------
   0 C :    0.125841
   1 S :    1.105432
   2 F :   -0.251747
   3 O :   -0.468185
   4 O :   -0.485562
   5 H :   -0.013269
   6 H :   -0.013816
   7 H :    0.001306

  Mayer bond orders larger than 0.100000
B(  0-C ,  1-S ) :   0.9881 B(  0-C ,  5-H ) :   0.8908 B(  0-C ,  6-H ) :   0.8889
B(  0-C ,  7-H ) :   0.8894 B(  1-S ,  2-F ) :   0.7289 B(  1-S ,  3-O ) :   1.5495
B(  1-S ,  4-O ) :   1.5161 B(  1-S ,  7-H ) :   0.1278

FINAL SINGLE POINT ENERGY      -687.887452963293

DIPOLE MOMENT
-------------
                                X             Y             Z
Electronic contribution:      1.82917      -5.13549       0.65665
Nuclear contribution   :     -0.60459       6.33153      -0.64388
                        -----------------------------------------
Total Dipole Moment    :      1.22458       1.19604       0.01277
                        -----------------------------------------
Magnitude (a.u.)       :      1.71181
Magnitude (Debye)      :      4.35106

Rotational constants in cm-1:     0.163601     0.155191     0.147098
Rotational constants in MHz :  4904.622287  4652.507792  4409.891356

                             ****ORCA TERMINATED NORMALLY****
TOTAL RUN TIME: 0 days 0 hours 0 minutes 9 seconds 880 msec
