                         Program Version 5.0.0 -  RELEASE  -
|  1> !CAM-B3LYP RIJCOSX def2-SVPD def2/J TightSCF
|  2> *xyz 0 1
|  3> C         -0.46129        2.23469       -4.98962
|  4> C         -0.42384        2.39877       -6.47432
|  5> C         -0.95947        3.49265       -7.00740
|  6> N          0.14558        1.48689       -7.20399
|  7> H          0.56537        0.69681       -6.72386
|  8> H          0.22068        1.58177       -8.20752
|  9> H         -1.40624        4.18151       -6.40326
| 10> H         -0.93421        3.68160       -7.99947
| 11> H          0.00645        1.31059       -4.72100
| 12> H         -1.47822        2.22967       -4.65687
| 13> H          0.06109        3.04632       -4.52779
| 14> *
| 15>
| 16> %MaxCore 64000
| 17>
| 18> %pal nprocs 8
| 19> end
| 20>
| 21> %scf
| 22>   MaxIter 150
| 23> end
| 24>
| 25>
| 26>                          ****END OF INPUT****

CARTESIAN COORDINATES (ANGSTROEM)
---------------------------------
  C     -0.461290    2.234690   -4.989620
  C     -0.423840    2.398770   -6.474320
  C     -0.959470    3.492650   -7.007400
  N      0.145580    1.486890   -7.203990
  H      0.565370    0.696810   -6.723860
  H      0.220680    1.581770   -8.207520
  H     -1.406240    4.181510   -6.403260
  H     -0.934210    3.681600   -7.999470
  H      0.006450    1.310590   -4.721000
  H     -1.478220    2.229670   -4.656870
  H      0.061090    3.046320   -4.527790

 Total Charge           Charge          ....    0
 Multiplicity           Mult            ....    1
 Number of Electrons    NEL             ....   32
 Basis Dimension        Dim             ....  136

ORBITAL ENERGIES
----------------

  NO   OCC          E(Eh)            E(eV)
   0   2.0000     -14.409592      -392.1049
   1   2.0000     -10.281834      -279.7829
   2   2.0000     -10.250166      -278.9212
   3   2.0000     -10.186437      -277.1870
   4   2.0000      -1.011990       -27.5377
   5   2.0000      -0.832265       -22.6471
   6   2.0000      -0.761318       -20.7165
   7   2.0000      -0.647941       -17.6314
   8   2.0000      -0.603215       -16.4143
   9   2.0000      -0.544552       -14.8180
  10   2.0000      -0.503128       -13.6908
  11   2.0000      -0.465973       -12.6798
  12   2.0000      -0.457616       -12.4524
  13   2.0000      -0.420628       -11.4459
  14   2.0000      -0.409009       -11.1297
  15   2.0000      -0.243774        -6.6334
  16   0.0000       0.048794         1.3278
  17   0.0000       0.083903         2.2831
  18   0.0000       0.088959         2.4207
  19   0.0000       0.091015         2.4767
  20   0.0000       0.119906         3.2628

MULLIKEN ATOMIC CHARGES
-----------------------
   0 C :    1.005204
   1 C :   -0.407083
   2 C :    0.542797
   3 N :    0.327234
   4 H :   -0.102381
   5 H :   -0.221688
   6 H :   -0.285875
   7 H :   -0.544159
   8 H :   -0.199083
   9 H :   -0.047733
  10 H :   -0.067233
Sum of atomic charges:   -0.0000000

LOEWDIN ATOMIC CHARGES
----------------------
   0 C :    0.166067
   1 C :   -0.293166
   2 C :    0.161150
   3 N :    0.166728
   4 H :    0.000078
   5 H :    0.013276
   6 H :   -0.081023
   7 H :   -0.095539
   8 H :   -0.027875
   9 H :   -0.004965
  10 H :   -0.004732

  Mayer bond orders larger than 0.100000
B(  0-C ,  1-C ) :   1.0594 B(  0-C ,  2-C ) :   0.1176 B(  0-C ,  3-N ) :   0.1119
B(  0-C ,  8-H ) :   0.6546 B(  0-C ,  9-H ) :   0.6813 B(  0-C , 10-H ) :   0.7037
B(  1-C ,  2-C ) :   1.7541 B(  1-C ,  3-N ) :   1.1500 B(  1-C ,  5-H ) :  -0.1442
B(  1-C ,  7-H ) :   0.1780 B(  1-C ,  8-H ) :   0.3231 B(  1-C ,  9-H ) :   0.2175
B(  1-C , 10-H ) :   0.2042 B(  2-C ,  3-N ) :   0.2376 B(  2-C ,  6-H ) :   0.8135
B(  2-C ,  7-H ) :   0.7246 B(  3-N ,  4-H ) :   1.0691 B(  3-N ,  5-H ) :   1.3034
B(  4-H ,  5-H ) :  -0.1565

FINAL SINGLE POINT ENERGY      -173.034305815709

DIPOLE MOMENT
-------------
                                X             Y             Z
Electronic contribution:      0.54191      -0.81989      -1.52805
Nuclear contribution   :     -0.12116       0.12783       1.56719
                        -----------------------------------------
Total Dipole Moment    :      0.42075      -0.69205       0.03914
                        -----------------------------------------
Magnitude (a.u.)       :      0.81086
Magnitude (Debye)      :      2.06105

Rotational constants in cm-1:     0.350065     0.307664     0.168807
Rotational constants in MHz : 10494.676477  9223.531181  5060.697310

                             ****ORCA TERMINATED NORMALLY****
TOTAL RUN TIME: 0 days 0 hours 0 minutes 9 seconds 672 msec
