                         Program Version 5.0.0 -  RELEASE  -
|  1> !CAM-B3LYP RIJCOSX def2-SVPD def2/J TightSCF
|  2> *xyz 0 1
|  3> C          2.09343        1.86104       -4.65684
|  4> S          1.87964        0.07859       -4.46297
|  5> O          3.20757       -0.46611       -4.42026
|  6> F          1.07506       -0.05616       -3.26876
|  7> O          1.13166       -0.31996       -5.67903
|  8> H          2.68437        2.05681       -5.52711
|  9> H          2.58708        2.25699       -3.79404
| 10> H          1.13553        2.32556       -4.76426
| 11> *
| 12>
| 13> %MaxCore 64000
| 14>
| 15> %pal nprocs 8
| 16> end
| 17>
| 18> %scf
| 19>   MaxIter 150
| 20> end
| 21>
| 22>
| 23>                          ****END OF INPUT****

CARTESIAN COORDINATES (ANGSTROEM)
---------------------------------
  C      2.093430    1.861040   -4.656840
  S      1.879640    0.078590   -4.462970
  O      3.207570   -0.466110   -4.420260
  F      1.075060   -0.056160   -3.268760
  O      1.131660   -0.319960   -5.679030
  H      2.684370    2.056810   -5.527110
  H      2.587080    2.256990   -3.794040
  H      1.135530    2.325560   -4.764260

 Total Charge           Charge          ....    0
 Multiplicity           Mult            ....    1
 Number of Electrons    NEL             ....   50
 Basis Dimension        Dim             ....  140

ORBITAL ENERGIES
----------------

  NO   OCC          E(Eh)            E(eV)
   0   2.0000     -89.230056     -2428.0733
   1   2.0000     -24.898880      -677.5330
   2   2.0000     -19.237926      -523.4906
   3   2.0000     -19.221875      -523.0538
   4   2.0000     -10.320592      -280.8376
   5   2.0000      -8.283666      -225.4100
   6   2.0000      -6.257784      -170.2830
   7   2.0000      -6.251183      -170.1033
   8   2.0000      -6.250160      -170.0755
   9   2.0000      -1.465806       -39.8866
  10   2.0000      -1.202693       -32.7269
  11   2.0000      -1.094147       -29.7733
  12   2.0000      -0.883226       -24.0338
  13   2.0000      -0.801433       -21.8081
  14   2.0000      -0.686668       -18.6852
  15   2.0000      -0.671559       -18.2741
  16   2.0000      -0.635286       -17.2870
  17   2.0000      -0.555956       -15.1283
  18   2.0000      -0.552332       -15.0297
  19   2.0000      -0.539226       -14.6731
  20   2.0000      -0.514883       -14.0107
  21   2.0000      -0.465685       -12.6719
  22   2.0000      -0.414110       -11.2685
  23   2.0000      -0.398826       -10.8526
  24   2.0000      -0.383085       -10.4243
  25   0.0000       0.019680         0.5355
  26   0.0000       0.057539         1.5657
  27   0.0000       0.067111         1.8262
  28   0.0000       0.067321         1.8319
  29   0.0000       0.078035         2.1234

MULLIKEN ATOMIC CHARGES
-----------------------
   0 C :    0.648665
   1 S :    1.248848
   2 O :   -0.606162
   3 F :   -0.372755
   4 O :   -0.655327
   5 H :   -0.094282
   6 H :   -0.088323
   7 H :   -0.080663
Sum of atomic charges:    0.0000000

LOEWDIN ATOMIC CHARGES
----------------------
   0 C :    0.125965
   1 S :    1.104538
   2 O :   -0.461549
   3 F :   -0.257513
   4 O :   -0.485719
   5 H :    0.000512
   6 H :   -0.014331
   7 H :   -0.011903

  Mayer bond orders larger than 0.100000
B(  0-C ,  1-S ) :   0.9875 B(  0-C ,  5-H ) :   0.8893 B(  0-C ,  6-H ) :   0.8881
B(  0-C ,  7-H ) :   0.8925 B(  1-S ,  2-O ) :   1.5593 B(  1-S ,  3-F ) :   0.7181
B(  1-S ,  4-O ) :   1.5160 B(  1-S ,  5-H ) :   0.1269 B(  1-S ,  7-H ) :   0.1014

FINAL SINGLE POINT ENERGY      -687.892669215213

DIPOLE MOMENT
-------------
                                X             Y             Z
Electronic contribution:     -1.73820      -4.45162       2.58763
Nuclear contribution   :      1.52593       5.92196      -1.79430
                        -----------------------------------------
Total Dipole Moment    :     -0.21227       1.47035       0.79333
                        -----------------------------------------
Magnitude (a.u.)       :      1.68415
Magnitude (Debye)      :      4.28076

Rotational constants in cm-1:     0.162837     0.155564     0.147443
Rotational constants in MHz :  4881.731197  4663.686927  4420.233103

                             ****ORCA TERMINATED NORMALLY****
TOTAL RUN TIME: 0 days 0 hours 0 minutes 9 seconds 987 msec
