                         Program Version 5.0.0 -  RELEASE  -
|  1> !CAM-B3LYP RIJCOSX def2-SVPD def2/J TightSCF
|  2> *xyz 0 1
|  3> C         -0.46129        2.23469       -4.98962
|  4> C         -0.42384        2.39877       -6.47432
|  5> N         -0.95947        3.49265       -7.00740
|  6> C          0.14558        1.48689       -7.20399
|  7> H          0.56537        0.69681       -6.72386
|  8> H          0.22068        1.58177       -8.20752
|  9> H         -1.40624        4.18151       -6.40326
| 10> H         -0.93421        3.68160       -7.99947
| 11> H          0.00645        1.31059       -4.72100
| 12> H         -1.47822        2.22967       -4.65687
| 13> H          0.06109        3.04632       -4.52779
| 14> *
| 15>
| 16> %MaxCore 64000
| 17>
| 18> %pal nprocs 8
| 19> end
| 20>
| 21> %scf
| 22>   MaxIter 150
| 23> end
| 24>
| 25>
| 26>                          ****END OF INPUT****

CARTESIAN COORDINATES (ANGSTROEM)
---------------------------------
  C     -0.461290    2.234690   -4.989620
  C     -0.423840    2.398770   -6.474320
  N     -0.959470    3.492650   -7.007400
  C      0.145580    1.486890   -7.203990
  H      0.565370    0.696810   -6.723860
  H      0.220680    1.581770   -8.207520
  H     -1.406240    4.181510   -6.403260
  H     -0.934210    3.681600   -7.999470
  H      0.006450    1.310590   -4.721000
  H     -1.478220    2.229670   -4.656870
  H      0.061090    3.046320   -4.527790

 Total Charge           Charge          ....    0
 Multiplicity           Mult            ....    1
 Number of Electrons    NEL             ....   32
 Basis Dimension        Dim             ....  136

ORBITAL ENERGIES
----------------

  NO   OCC          E(Eh)            E(eV)
   0   2.0000     -14.404717      -391.9723
   1   2.0000     -10.280209      -279.7387
   2   2.0000     -10.248559      -278.8775
   3   2.0000     -10.191194      -277.3165
   4   2.0000      -0.998980       -27.1836
   5   2.0000      -0.836319       -22.7574
   6   2.0000      -0.765264       -20.8239
   7   2.0000      -0.643687       -17.5156
   8   2.0000      -0.593246       -16.1430
   9   2.0000      -0.547274       -14.8921
  10   2.0000      -0.502986       -13.6870
  11   2.0000      -0.463835       -12.6216
  12   2.0000      -0.463699       -12.6179
  13   2.0000      -0.421092       -11.4585
  14   2.0000      -0.400978       -10.9112
  15   2.0000      -0.254099        -6.9144
  16   0.0000       0.049704         1.3525
  17   0.0000       0.084850         2.3089
  18   0.0000       0.091912         2.5011
  19   0.0000       0.094617         2.5746
  20   0.0000       0.124070         3.3761

MULLIKEN ATOMIC CHARGES
-----------------------
   0 C :    1.047547
   1 C :   -0.476625
   2 N :    0.344770
   3 C :    0.525178
   4 H :   -0.175804
   5 H :   -0.536424
   6 H :   -0.185065
   7 H :   -0.247615
   8 H :   -0.047453
   9 H :   -0.118836
  10 H :   -0.129673
Sum of atomic charges:    0.0000000

LOEWDIN ATOMIC CHARGES
----------------------
   0 C :    0.162818
   1 C :   -0.296571
   2 N :    0.164703
   3 C :    0.166526
   4 H :   -0.080974
   5 H :   -0.081352
   6 H :    0.001312
   7 H :    0.001260
   8 H :   -0.014640
   9 H :   -0.011967
  10 H :   -0.011115

  Mayer bond orders larger than 0.100000
B(  0-C ,  1-C ) :   1.2517 B(  0-C ,  8-H ) :   0.7617 B(  0-C ,  9-H ) :   0.6078
B(  0-C , 10-H ) :   0.6029 B(  1-C ,  2-N ) :   1.1899 B(  1-C ,  3-C ) :   1.7188
B(  1-C ,  5-H ) :   0.1769 B(  1-C ,  8-H ) :   0.2512 B(  1-C ,  9-H ) :   0.3083
B(  1-C , 10-H ) :   0.3155 B(  2-N ,  3-C ) :   0.2599 B(  2-N ,  6-H ) :   1.1560
B(  2-N ,  7-H ) :   1.2239 B(  3-C ,  4-H ) :   0.9110 B(  3-C ,  5-H ) :   0.6725
B(  6-H ,  7-H ) :  -0.1435

FINAL SINGLE POINT ENERGY      -173.038436966444

DIPOLE MOMENT
-------------
                                X             Y             Z
Electronic contribution:     -0.44032       0.94669      -1.39210
Nuclear contribution   :      0.12666      -0.32199       1.52310
                        -----------------------------------------
Total Dipole Moment    :     -0.31365       0.62470       0.13100
                        -----------------------------------------
Magnitude (a.u.)       :      0.71119
Magnitude (Debye)      :      1.80770

Rotational constants in cm-1:     0.352483     0.305471     0.168700
Rotational constants in MHz : 10567.165953  9157.779739  5057.501411

                             ****ORCA TERMINATED NORMALLY****
TOTAL RUN TIME: 0 days 0 hours 0 minutes 9 seconds 634 msec
