                         Program Version 5.0.0 -  RELEASE  -
|  1> !CAM-B3LYP RIJCOSX def2-SVPD def2/J TightSCF
|  2> *xyz 0 1
|  3> C          2.09343        1.86104       -4.65684
|  4> S          1.87964        0.07859       -4.46297
|  5> O          3.20757       -0.46611       -4.42026
|  6> O          1.07506       -0.05616       -3.26876
|  7> F          1.13166       -0.31996       -5.67903
|  8> H          2.68437        2.05681       -5.52711
|  9> H          2.58708        2.25699       -3.79404
| 10> H          1.13553        2.32556       -4.76426
| 11> *
| 12>
| 13> %MaxCore 64000
| 14>
| 15> %pal nprocs 8
| 16> end
| 17>
| 18> %scf
| 19>   MaxIter 150
| 20> end
| 21>
| 22>
| 23>                          ****END OF INPUT****

CARTESIAN COORDINATES (ANGSTROEM)
---------------------------------
  C      2.093430    1.861040   -4.656840
  S      1.879640    0.078590   -4.462970
  O      3.207570   -0.466110   -4.420260
  O      1.075060   -0.056160   -3.268760
  F      1.131660   -0.319960   -5.679030
  H      2.684370    2.056810   -5.527110
  H      2.587080    2.256990   -3.794040
  H      1.135530    2.325560   -4.764260

 Total Charge           Charge          ....    0
 Multiplicity           Mult            ....    1
 Number of Electrons    NEL             ....   50
 Basis Dimension        Dim             ....  140

ORBITAL ENERGIES
----------------

  NO   OCC          E(Eh)            E(eV)
   0   2.0000     -89.228356     -2428.0270
   1   2.0000     -24.881323      -677.0552
   2   2.0000     -19.237576      -523.4811
   3   2.0000     -19.233169      -523.3611
   4   2.0000     -10.319723      -280.8139
   5   2.0000      -8.281860      -225.3609
   6   2.0000      -6.255777      -170.2284
   7   2.0000      -6.249563      -170.0592
   8   2.0000      -6.248562      -170.0320
   9   2.0000      -1.435703       -39.0675
  10   2.0000      -1.210397       -32.9366
  11   2.0000      -1.112960       -30.2852
  12   2.0000      -0.880723       -23.9657
  13   2.0000      -0.786478       -21.4012
  14   2.0000      -0.672236       -18.2925
  15   2.0000      -0.650597       -17.7036
  16   2.0000      -0.632592       -17.2137
  17   2.0000      -0.557692       -15.1756
  18   2.0000      -0.552618       -15.0375
  19   2.0000      -0.537989       -14.6394
  20   2.0000      -0.520122       -14.1532
  21   2.0000      -0.470355       -12.7990
  22   2.0000      -0.418409       -11.3855
  23   2.0000      -0.409320       -11.1382
  24   2.0000      -0.396230       -10.7820
  25   0.0000       0.021689         0.5902
  26   0.0000       0.058991         1.6052
  27   0.0000       0.067530         1.8376
  28   0.0000       0.068220         1.8564
  29   0.0000       0.076580         2.0838

MULLIKEN ATOMIC CHARGES
-----------------------
   0 C :    0.647965
   1 S :    1.255347
   2 O :   -0.616763
   3 O :   -0.629889
   4 F :   -0.391049
   5 H :   -0.088340
   6 H :   -0.094709
   7 H :   -0.082561
Sum of atomic charges:    0.0000000

LOEWDIN ATOMIC CHARGES
----------------------
   0 C :    0.126237
   1 S :    1.102531
   2 O :   -0.461847
   3 O :   -0.468859
   4 F :   -0.272163
   5 H :   -0.012986
   6 H :   -0.000527
   7 H :   -0.012386

  Mayer bond orders larger than 0.100000
B(  0-C ,  1-S ) :   0.9874 B(  0-C ,  5-H ) :   0.8931 B(  0-C ,  6-H ) :   0.8852
B(  0-C ,  7-H ) :   0.8918 B(  1-S ,  2-O ) :   1.5558 B(  1-S ,  3-O ) :   1.5466
B(  1-S ,  4-F ) :   0.6761 B(  1-S ,  5-H ) :   0.1005 B(  1-S ,  6-H ) :   0.1210
B(  1-S ,  7-H ) :   0.1017

FINAL SINGLE POINT ENERGY      -687.907701118752

DIPOLE MOMENT
-------------
                                X             Y             Z
Electronic contribution:     -1.65483      -4.89756      -1.47340
Nuclear contribution   :      1.46938       6.18552       0.61372
                        -----------------------------------------
Total Dipole Moment    :     -0.18544       1.28796      -0.85968
                        -----------------------------------------
Magnitude (a.u.)       :      1.55958
Magnitude (Debye)      :      3.96413

Rotational constants in cm-1:     0.163578     0.153284     0.148718
Rotational constants in MHz :  4903.939615  4595.352658  4458.447794

                             ****ORCA TERMINATED NORMALLY****
TOTAL RUN TIME: 0 days 0 hours 0 minutes 10 seconds 27 msec
