                         Program Version 5.0.0 -  RELEASE  -
|  1> !CAM-B3LYP RIJCOSX def2-SVPD def2/J TightSCF xyzfile
|  2>
|  3> *xyzfile 0 1 D1.xyz
|  4>
|  5> %MaxCore 64000
|  6>
|  7> %pal nprocs 4
|  8> end
|  9>
| 10> %scf
| 11>   MaxIter 150
| 12> end
| 13>
| 14>
| 15>                          ****END OF INPUT****

CARTESIAN COORDINATES (ANGSTROEM)
---------------------------------
  C     -0.461293    2.234686   -4.989619
  C      0.848883    2.667967   -4.302351
  C      2.093434    1.861037   -4.656845
  H      2.444814    2.041567   -5.674990
  H      2.901748    2.137864   -3.980338
  S      1.879644    0.078594   -4.462965
  C     -0.423841    2.398772   -6.474317
  C     -0.959467    3.492647   -7.007401
  N      0.145585    1.486891   -7.203987
  H      0.565371    0.696807   -6.723858
  H      0.220682    1.581768   -8.207520
  H     -1.406243    4.181507   -6.403261
  H     -0.934215    3.681601   -7.999468
  F      3.207574   -0.466111   -4.420259
  O      1.075064   -0.056160   -3.268758
  O      1.131661   -0.319960   -5.679031
  H      0.668432    2.559427   -3.232850
  H      1.034074    3.729426   -4.497081
  H     -1.288884    2.826737   -4.594997
  H     -0.651696    1.186343   -4.756552

 Total Charge           Charge          ....    0
 Multiplicity           Mult            ....    1
 Number of Electrons    NEL             ....   88
 Basis Dimension        Dim             ....  296

ORBITAL ENERGIES
----------------

  NO   OCC          E(Eh)            E(eV)
   0   2.0000     -89.243178     -2428.4303
   1   2.0000     -24.916276      -678.0063
   2   2.0000     -19.247289      -523.7454
   3   2.0000     -19.242905      -523.6261
   4   2.0000     -14.379049      -391.2738
   5   2.0000     -10.329424      -281.0779
   6   2.0000     -10.289143      -279.9818
   7   2.0000     -10.273025      -279.5432
   8   2.0000     -10.260517      -279.2029
   9   2.0000     -10.183305      -277.1018
  10   2.0000      -8.296612      -225.7623
  11   2.0000      -6.270609      -170.6319
  12   2.0000      -6.264530      -170.4665
  13   2.0000      -6.262700      -170.4167
  14   2.0000      -1.486165       -40.4406
  15   2.0000      -1.216019       -33.0896
  16   2.0000      -1.113604       -30.3027
  17   2.0000      -0.996597       -27.1188
  18   2.0000      -0.917799       -24.9746
  19   2.0000      -0.851425       -23.1684
  20   2.0000      -0.818326       -22.2678
  21   2.0000      -0.772444       -21.0193
  22   2.0000      -0.726289       -19.7633
  23   2.0000      -0.692188       -18.8354
  24   2.0000      -0.677937       -18.4476
  25   2.0000      -0.657256       -17.8848
  26   2.0000      -0.631667       -17.1885
  27   2.0000      -0.601125       -16.3575
  28   2.0000      -0.578412       -15.7394
  29   2.0000      -0.566599       -15.4180
  30   2.0000      -0.548389       -14.9224
  31   2.0000      -0.529883       -14.4189
  32   2.0000      -0.520240       -14.1564
  33   2.0000      -0.486897       -13.2491
  34   2.0000      -0.469836       -12.7849
  35   2.0000      -0.463914       -12.6237
  36   2.0000      -0.450744       -12.2654
  37   2.0000      -0.433127       -11.7860
  38   2.0000      -0.421203       -11.4615
  39   2.0000      -0.413969       -11.2647
  40   2.0000      -0.400811       -10.9066
  41   2.0000      -0.395860       -10.7719
  42   2.0000      -0.386791       -10.5251
  43   2.0000      -0.236834        -6.4446
  44   0.0000       0.017540         0.4773
  45   0.0000       0.045033         1.2254
  46   0.0000       0.050652         1.3783
  47   0.0000       0.060312         1.6412
  48   0.0000       0.074014         2.0140

MULLIKEN ATOMIC CHARGES
-----------------------
   0 C :    0.633587
   1 C :    0.272105
   2 C :    0.242721
   3 H :    0.088800
   4 H :   -0.192127
   5 S :    1.587214
   6 C :   -0.153812
   7 C :    0.464782
   8 N :    0.799083
   9 H :   -0.482722
  10 H :   -0.262800
  11 H :   -0.198402
  12 H :   -0.526340
  13 F :   -0.453095
  14 O :   -0.666831
  15 O :   -0.793277
  16 H :    0.095196
  17 H :   -0.270912
  18 H :   -0.050779
  19 H :   -0.132390
Sum of atomic charges:   -0.0000000

LOEWDIN ATOMIC CHARGES
----------------------
   0 C :    0.030782
   1 C :   -0.003214
   2 C :   -0.037381
   3 H :    0.025576
   4 H :    0.018476
   5 S :    1.175379
   6 C :   -0.247537
   7 C :    0.170227
   8 N :    0.202334
   9 H :   -0.139759
  10 H :    0.017688
  11 H :   -0.088959
  12 H :   -0.093355
  13 F :   -0.239820
  14 O :   -0.446013
  15 O :   -0.456122
  16 H :    0.026575
  17 H :    0.039970
  18 H :    0.031956
  19 H :    0.013199

  Mayer bond orders larger than 0.100000
B(  0-C ,  1-C ) :   1.1264 B(  0-C ,  6-C ) :   1.1324 B(  0-C ,  8-N ) :   0.1202
B(  0-C , 16-H ) :   0.1550 B(  0-C , 17-H ) :   0.1033 B(  0-C , 18-H ) :   0.6819
B(  0-C , 19-H ) :   0.6658 B(  1-C ,  2-C ) :   1.3352 B(  1-C ,  3-H ) :   0.1363
B(  1-C ,  4-H ) :   0.2325 B(  1-C , 16-H ) :   0.7631 B(  1-C , 17-H ) :   0.8575
B(  1-C , 18-H ) :   0.1553 B(  1-C , 19-H ) :   0.1797 B(  2-C ,  3-H ) :   0.8741
B(  2-C ,  4-H ) :   0.7443 B(  2-C ,  5-S ) :   0.9260 B(  2-C , 15-O ) :   0.1244
B(  2-C , 16-H ) :   0.1406 B(  2-C , 17-H ) :   0.1204 B(  5-S , 13-F ) :   0.6748
B(  5-S , 14-O ) :   1.5328 B(  5-S , 15-O ) :   1.3647 B(  6-C ,  7-C ) :   1.5831
B(  6-C ,  8-N ) :   1.1727 B(  6-C , 10-H ) :  -0.1213 B(  6-C , 12-H ) :   0.1730
B(  6-C , 18-H ) :   0.1953 B(  6-C , 19-H ) :   0.2019 B(  7-C ,  8-N ) :   0.1736
B(  7-C , 11-H ) :   0.9238 B(  7-C , 12-H ) :   0.5705 B(  8-N ,  9-H ) :   0.9168
B(  8-N , 10-H ) :   1.1995 B(  9-H , 10-H ) :  -0.2107 B(  9-H , 15-O ) :   0.1824

FINAL SINGLE POINT ENERGY      -898.994324758594

DIPOLE MOMENT
-------------
                                X             Y             Z
Electronic contribution:     10.17608     -13.85570       5.46032
Nuclear contribution   :     -8.53047      14.15581      -5.17613
                        -----------------------------------------
Total Dipole Moment    :      1.64561       0.30011       0.28419
                        -----------------------------------------
Magnitude (a.u.)       :      1.69672
Magnitude (Debye)      :      4.31273

Rotational constants in cm-1:     0.081196     0.024861     0.022477
Rotational constants in MHz :  2434.181666   745.320670   673.846846

                             ****ORCA TERMINATED NORMALLY****
TOTAL RUN TIME: 0 days 0 hours 1 minutes 45 seconds 321 msec
