                         Program Version 5.0.0 -  RELEASE  -
|  1> !CAM-B3LYP RIJCOSX def2-SVPD def2/J TightSCF xyzfile
|  2>
|  3> *xyzfile 0 1 D3.xyz
|  4>
|  5> %MaxCore 64000
|  6>
|  7> %pal nprocs 4
|  8> end
|  9>
| 10> %scf
| 11>   MaxIter 150
| 12> end
| 13>
| 14>
| 15>                          ****END OF INPUT****

CARTESIAN COORDINATES (ANGSTROEM)
---------------------------------
  C     -0.461293    2.234686   -4.989619
  C      0.848883    2.667967   -4.302351
  C      2.093434    1.861037   -4.656845
  H      2.444814    2.041567   -5.674990
  H      2.901748    2.137864   -3.980338
  S      1.879644    0.078594   -4.462965
  C     -0.423841    2.398772   -6.474317
  C     -0.959467    3.492647   -7.007401
  N      0.145585    1.486891   -7.203987
  H      0.565371    0.696807   -6.723858
  H      0.220682    1.581768   -8.207520
  H     -1.406243    4.181507   -6.403261
  H     -0.934215    3.681601   -7.999468
  O      3.207574   -0.466111   -4.420259
  F      1.075064   -0.056160   -3.268758
  O      1.131661   -0.319960   -5.679031
  H      0.668432    2.559427   -3.232850
  H      1.034074    3.729426   -4.497081
  H     -1.288884    2.826737   -4.594997
  H     -0.651696    1.186343   -4.756552

 Total Charge           Charge          ....    0
 Multiplicity           Mult            ....    1
 Number of Electrons    NEL             ....   88
 Basis Dimension        Dim             ....  296

ORBITAL ENERGIES
----------------

  NO   OCC          E(Eh)            E(eV)
   0   2.0000     -89.242430     -2428.4100
   1   2.0000     -24.910639      -677.8529
   2   2.0000     -19.250260      -523.8262
   3   2.0000     -19.241561      -523.5895
   4   2.0000     -14.381800      -391.3487
   5   2.0000     -10.328976      -281.0657
   6   2.0000     -10.295220      -280.1472
   7   2.0000     -10.278783      -279.6999
   8   2.0000     -10.271654      -279.5059
   9   2.0000     -10.188241      -277.2361
  10   2.0000      -8.295746      -225.7387
  11   2.0000      -6.269950      -170.6140
  12   2.0000      -6.263629      -170.4420
  13   2.0000      -6.261734      -170.3904
  14   2.0000      -1.477141       -40.1950
  15   2.0000      -1.218470       -33.1562
  16   2.0000      -1.116861       -30.3913
  17   2.0000      -1.000499       -27.2250
  18   2.0000      -0.923852       -25.1393
  19   2.0000      -0.849533       -23.1170
  20   2.0000      -0.818214       -22.2647
  21   2.0000      -0.777167       -21.1478
  22   2.0000      -0.727311       -19.7911
  23   2.0000      -0.688630       -18.7386
  24   2.0000      -0.686647       -18.6846
  25   2.0000      -0.652172       -17.7465
  26   2.0000      -0.637022       -17.3343
  27   2.0000      -0.594603       -16.1800
  28   2.0000      -0.577369       -15.7110
  29   2.0000      -0.569684       -15.5019
  30   2.0000      -0.551307       -15.0018
  31   2.0000      -0.533947       -14.5294
  32   2.0000      -0.526432       -14.3249
  33   2.0000      -0.494444       -13.4545
  34   2.0000      -0.477235       -12.9862
  35   2.0000      -0.470335       -12.7985
  36   2.0000      -0.453795       -12.3484
  37   2.0000      -0.448811       -12.2128
  38   2.0000      -0.418413       -11.3856
  39   2.0000      -0.414837       -11.2883
  40   2.0000      -0.408925       -11.1274
  41   2.0000      -0.398066       -10.8319
  42   2.0000      -0.389803       -10.6071
  43   2.0000      -0.240950        -6.5566
  44   0.0000       0.017386         0.4731
  45   0.0000       0.047652         1.2967
  46   0.0000       0.050942         1.3862
  47   0.0000       0.059611         1.6221
  48   0.0000       0.072848         1.9823

MULLIKEN ATOMIC CHARGES
-----------------------
   0 C :    0.657186
   1 C :    0.303932
   2 C :    0.261376
   3 H :    0.079648
   4 H :   -0.214652
   5 S :    1.512353
   6 C :   -0.145534
   7 C :    0.461707
   8 N :    0.796909
   9 H :   -0.477648
  10 H :   -0.257899
  11 H :   -0.203611
  12 H :   -0.520743
  13 O :   -0.637254
  14 F :   -0.424812
  15 O :   -0.781732
  16 H :    0.065317
  17 H :   -0.273556
  18 H :   -0.058134
  19 H :   -0.142851
Sum of atomic charges:   -0.0000000

LOEWDIN ATOMIC CHARGES
----------------------
   0 C :    0.023305
   1 C :   -0.017908
   2 C :   -0.025163
   3 H :    0.037847
   4 H :    0.022511
   5 S :    1.167334
   6 C :   -0.246503
   7 C :    0.172020
   8 N :    0.203733
   9 H :   -0.138510
  10 H :    0.019255
  11 H :   -0.088423
  12 H :   -0.091408
  13 O :   -0.441142
  14 F :   -0.241567
  15 O :   -0.454260
  16 H :    0.021407
  17 H :    0.038330
  18 H :    0.031227
  19 H :    0.007917

  Mayer bond orders larger than 0.100000
B(  0-C ,  1-C ) :   1.1214 B(  0-C ,  6-C ) :   1.1373 B(  0-C ,  8-N ) :   0.1205
B(  0-C , 16-H ) :   0.1478 B(  0-C , 17-H ) :   0.1028 B(  0-C , 18-H ) :   0.6901
B(  0-C , 19-H ) :   0.6412 B(  1-C ,  2-C ) :   1.2956 B(  1-C ,  3-H ) :   0.1365
B(  1-C ,  4-H ) :   0.2118 B(  1-C , 16-H ) :   0.7648 B(  1-C , 17-H ) :   0.8524
B(  1-C , 18-H ) :   0.1588 B(  1-C , 19-H ) :   0.1701 B(  2-C ,  3-H ) :   0.8703
B(  2-C ,  4-H ) :   0.8035 B(  2-C ,  5-S ) :   0.9609 B(  2-C , 16-H ) :   0.1387
B(  2-C , 17-H ) :   0.1099 B(  4-H ,  5-S ) :   0.1017 B(  5-S , 13-O ) :   1.5943
B(  5-S , 14-F ) :   0.6664 B(  5-S , 15-O ) :   1.4000 B(  6-C ,  7-C ) :   1.5760
B(  6-C ,  8-N ) :   1.1764 B(  6-C , 10-H ) :  -0.1176 B(  6-C , 12-H ) :   0.1672
B(  6-C , 18-H ) :   0.1944 B(  6-C , 19-H ) :   0.2220 B(  7-C ,  8-N ) :   0.1782
B(  7-C , 11-H ) :   0.9212 B(  7-C , 12-H ) :   0.5831 B(  8-N ,  9-H ) :   0.9063
B(  8-N , 10-H ) :   1.1961 B(  9-H , 10-H ) :  -0.2129 B(  9-H , 15-O ) :   0.1779

FINAL SINGLE POINT ENERGY      -898.998855234589

DIPOLE MOMENT
-------------
                                X             Y             Z
Electronic contribution:      6.45427     -13.08139       7.38780
Nuclear contribution   :     -6.19944      13.70770      -6.43483
                        -----------------------------------------
Total Dipole Moment    :      0.25484       0.62631       0.95298
                        -----------------------------------------
Magnitude (a.u.)       :      1.16849
Magnitude (Debye)      :      2.97006

Rotational constants in cm-1:     0.079903     0.025241     0.022805
Rotational constants in MHz :  2395.439281   756.708181   683.680583

                             ****ORCA TERMINATED NORMALLY****
TOTAL RUN TIME: 0 days 0 hours 1 minutes 46 seconds 611 msec
