                         Program Version 5.0.0 -  RELEASE  -
|  1> !wB97X-D3 RIJCOSX def2-SVP def2/J TightSCF
|  2> *xyz -1 1
|  3> C          3.93993        0.32036       -4.36773
|  4> C          5.10585        0.66802       -5.30546
|  5> O          4.80913        1.15019       -6.41436
|  6> O          6.26737        0.56500       -4.81948
|  7> H          3.01376        0.44480       -4.88890
|  8> H          3.96058        0.96928       -3.51722
|  9> H          4.03331       -0.69517       -4.04388
| 10> *
| 11>
| 12> %MaxCore 64000
| 13>
| 14> %pal nprocs 18
| 15> end
| 16>
| 17> %scf
| 18>   MaxIter 150
| 19> end
| 20>
| 21>
| 22>                          ****END OF INPUT****

CARTESIAN COORDINATES (ANGSTROEM)
---------------------------------
  C      3.939930    0.320360   -4.367730
  C      5.105850    0.668020   -5.305460
  O      4.809130    1.150190   -6.414360
  O      6.267370    0.565000   -4.819480
  H      3.013760    0.444800   -4.888900
  H      3.960580    0.969280   -3.517220
  H      4.033310   -0.695170   -4.043880

 Total Charge           Charge          ....   -1
 Multiplicity           Mult            ....    1
 Number of Electrons    NEL             ....   32
 Basis Dimension        Dim             ....   71

ORBITAL ENERGIES
----------------

  NO   OCC          E(Eh)            E(eV)
   0   2.0000     -18.934546      -515.2352
   1   2.0000     -18.928657      -515.0749
   2   2.0000     -10.139701      -275.9153
   3   2.0000     -10.082367      -274.3551
   4   2.0000      -0.886471       -24.1221
   5   2.0000      -0.790365       -21.5069
   6   2.0000      -0.631745       -17.1907
   7   2.0000      -0.377635       -10.2760
   8   2.0000      -0.341267        -9.2864
   9   2.0000      -0.325428        -8.8554
  10   2.0000      -0.291384        -7.9290
  11   2.0000      -0.248746        -6.7687
  12   2.0000      -0.234453        -6.3798
  13   2.0000      -0.100368        -2.7311
  14   2.0000      -0.098007        -2.6669
  15   2.0000      -0.084108        -2.2887
  16   0.0000       0.330865         9.0033
  17   0.0000       0.359122         9.7722
  18   0.0000       0.394573        10.7369
  19   0.0000       0.425237        11.5713
  20   0.0000       0.517770        14.0892

MULLIKEN ATOMIC CHARGES
-----------------------
   0 C :   -0.019089
   1 C :    0.033988
   2 O :   -0.445752
   3 O :   -0.481637
   4 H :   -0.040706
   5 H :   -0.018167
   6 H :   -0.028636
Sum of atomic charges:   -1.0000000

LOEWDIN ATOMIC CHARGES
----------------------
   0 C :   -0.127000
   1 C :   -0.046377
   2 O :   -0.399378
   3 O :   -0.430197
   4 H :   -0.005418
   5 H :    0.006591
   6 H :    0.001779

  Mayer bond orders larger than 0.100000
B(  0-C ,  1-C ) :   0.9386 B(  0-C ,  4-H ) :   0.9652 B(  0-C ,  5-H ) :   0.9700
B(  0-C ,  6-H ) :   0.9653 B(  1-C ,  2-O ) :   1.8675 B(  1-C ,  3-O ) :   1.8202
B(  2-O ,  3-O ) :   0.1109

Dispersion correction           -0.000905523
FINAL SINGLE POINT ENERGY      -228.264261140172

DIPOLE MOMENT
-------------
                                X             Y             Z
Electronic contribution:      2.85278       0.89933      -2.29998
Nuclear contribution   :     -3.81330      -1.22874       3.01208
                        -----------------------------------------
Total Dipole Moment    :     -0.96052      -0.32942       0.71210
                        -----------------------------------------
Magnitude (a.u.)       :      1.24024
Magnitude (Debye)      :      3.15245

Rotational constants in cm-1:     0.390282     0.335702     0.186718
Rotational constants in MHz : 11700.346989 10064.094211  5597.661196

                             ****ORCA TERMINATED NORMALLY****
TOTAL RUN TIME: 0 days 0 hours 0 minutes 4 seconds 543 msec
