                         Program Version 5.0.0 -  RELEASE  -
|  1> !wB97X-D3 RIJCOSX def2-SVP def2/J TightSCF
|  2> *xyz 1 1
|  3> C          3.90595        2.81985       -3.75292
|  4> N          5.29562        3.13151       -4.10533
|  5> C          5.70862        3.46889       -5.32419
|  6> N          6.90470        3.03895       -5.71708
|  7> N          4.98188        4.29357       -6.09746
|  8> H          5.00055        4.10131       -7.08776
|  9> H          4.08469        4.59690       -5.73965
| 10> H          5.96336        2.52611       -3.64239
| 11> H          7.04716        2.06686       -5.47360
| 12> H          7.19815        3.30799       -6.64523
| 13> H          3.24866        3.48801       -4.26909
| 14> H          3.77188        2.93227       -2.69732
| 15> H          3.68381        1.81198       -4.03533
| 16> *
| 17>
| 18> %MaxCore 64000
| 19>
| 20> %pal nprocs 18
| 21> end
| 22>
| 23> %scf
| 24>   MaxIter 150
| 25> end
| 26>
| 27>
| 28>                          ****END OF INPUT****

CARTESIAN COORDINATES (ANGSTROEM)
---------------------------------
  C      3.905950    2.819850   -3.752920
  N      5.295620    3.131510   -4.105330
  C      5.708620    3.468890   -5.324190
  N      6.904700    3.038950   -5.717080
  N      4.981880    4.293570   -6.097460
  H      5.000550    4.101310   -7.087760
  H      4.084690    4.596900   -5.739650
  H      5.963360    2.526110   -3.642390
  H      7.047160    2.066860   -5.473600
  H      7.198150    3.307990   -6.645230
  H      3.248660    3.488010   -4.269090
  H      3.771880    2.932270   -2.697320
  H      3.683810    1.811980   -4.035330

 Total Charge           Charge          ....    1
 Multiplicity           Mult            ....    1
 Number of Electrons    NEL             ....   40
 Basis Dimension        Dim             ....  110

ORBITAL ENERGIES
----------------

  NO   OCC          E(Eh)            E(eV)
   0   2.0000     -14.668649      -399.1542
   1   2.0000     -14.667174      -399.1141
   2   2.0000     -14.666798      -399.1039
   3   2.0000     -10.633889      -289.3628
   4   2.0000     -10.499526      -285.7066
   5   2.0000      -1.338201       -36.4143
   6   2.0000      -1.221121       -33.2284
   7   2.0000      -1.212733       -33.0001
   8   2.0000      -1.018531       -27.7156
   9   2.0000      -0.931764       -25.3546
  10   2.0000      -0.888664       -24.1818
  11   2.0000      -0.862531       -23.4707
  12   2.0000      -0.809042       -22.0152
  13   2.0000      -0.792928       -21.5767
  14   2.0000      -0.749316       -20.3899
  15   2.0000      -0.742507       -20.2046
  16   2.0000      -0.688944       -18.7471
  17   2.0000      -0.680228       -18.5099
  18   2.0000      -0.588285       -16.0080
  19   2.0000      -0.559482       -15.2243
  20   0.0000      -0.110458        -3.0057
  21   0.0000      -0.055027        -1.4974
  22   0.0000      -0.017744        -0.4828
  23   0.0000      -0.005438        -0.1480
  24   0.0000       0.017016         0.4630

MULLIKEN ATOMIC CHARGES
-----------------------
   0 C :    0.068448
   1 N :   -0.178316
   2 C :    0.074512
   3 N :   -0.054443
   4 N :   -0.067832
   5 H :    0.187563
   6 H :    0.176765
   7 H :    0.174540
   8 H :    0.186900
   9 H :    0.180358
  10 H :    0.061616
  11 H :    0.104722
  12 H :    0.085167
Sum of atomic charges:    1.0000000

LOEWDIN ATOMIC CHARGES
----------------------
   0 C :    0.058038
   1 N :    0.017332
   2 C :    0.152692
   3 N :    0.046460
   4 N :    0.042848
   5 H :    0.111797
   6 H :    0.108657
   7 H :    0.107448
   8 H :    0.112201
   9 H :    0.112088
  10 H :    0.034460
  11 H :    0.054827
  12 H :    0.041152

  Mayer bond orders larger than 0.100000
B(  0-C ,  1-N ) :   0.9257 B(  0-C , 10-H ) :   0.9767 B(  0-C , 11-H ) :   0.9707
B(  0-C , 12-H ) :   0.9765 B(  1-N ,  2-C ) :   1.3860 B(  1-N ,  7-H ) :   0.9111
B(  2-C ,  3-N ) :   1.3831 B(  2-C ,  4-N ) :   1.3893 B(  3-N ,  8-H ) :   0.9264
B(  3-N ,  9-H ) :   0.9266 B(  4-N ,  5-H ) :   0.9254 B(  4-N ,  6-H ) :   0.9247

Dispersion correction           -0.002448326
FINAL SINGLE POINT ENERGY      -244.825973123446

DIPOLE MOMENT
-------------
                                X             Y             Z
Electronic contribution:      2.49948       1.03155      -1.26505
Nuclear contribution   :     -2.62204      -1.73043       0.52001
                        -----------------------------------------
Total Dipole Moment    :     -0.12256      -0.69888      -0.74504
                        -----------------------------------------
Magnitude (a.u.)       :      1.02885
Magnitude (Debye)      :      2.61513

Rotational constants in cm-1:     0.299316     0.133886     0.097604
Rotational constants in MHz :  8973.254382  4013.798371  2926.103660

                             ****ORCA TERMINATED NORMALLY****
TOTAL RUN TIME: 0 days 0 hours 0 minutes 6 seconds 966 msec
