                         Program Version 5.0.0 -  RELEASE  -
|  1> !wB97X-D3 RIJCOSX def2-SVP def2/J TightSCF
|  2> *xyz 0 1
|  3> C          3.93993        0.32036       -4.36773
|  4> C          5.10585        0.66802       -5.30546
|  5> F          4.80913        1.15019       -6.41436
|  6> O          6.26737        0.56500       -4.81948
|  7> H          3.01376        0.44480       -4.88890
|  8> H          3.96058        0.96928       -3.51722
|  9> H          4.03331       -0.69517       -4.04388
| 10> *
| 11>
| 12> %MaxCore 64000
| 13>
| 14> %pal nprocs 18
| 15> end
| 16>
| 17> %scf
| 18>   MaxIter 150
| 19> end
| 20>
| 21>
| 22>                          ****END OF INPUT****

CARTESIAN COORDINATES (ANGSTROEM)
---------------------------------
  C      3.939930    0.320360   -4.367730
  C      5.105850    0.668020   -5.305460
  F      4.809130    1.150190   -6.414360
  O      6.267370    0.565000   -4.819480
  H      3.013760    0.444800   -4.888900
  H      3.960580    0.969280   -3.517220
  H      4.033310   -0.695170   -4.043880

 Total Charge           Charge          ....    0
 Multiplicity           Mult            ....    1
 Number of Electrons    NEL             ....   32
 Basis Dimension        Dim             ....   71

ORBITAL ENERGIES
----------------

  NO   OCC          E(Eh)            E(eV)
   0   2.0000     -24.864236      -676.5903
   1   2.0000     -19.239594      -523.5360
   2   2.0000     -10.467950      -284.8474
   3   2.0000     -10.311606      -280.5931
   4   2.0000      -1.424061       -38.7507
   5   2.0000      -1.128174       -30.6992
   6   2.0000      -0.876809       -23.8592
   7   2.0000      -0.762955       -20.7611
   8   2.0000      -0.654140       -17.8000
   9   2.0000      -0.649654       -17.6780
  10   2.0000      -0.598527       -16.2867
  11   2.0000      -0.541113       -14.7244
  12   2.0000      -0.528049       -14.3689
  13   2.0000      -0.492717       -13.4075
  14   2.0000      -0.440257       -11.9800
  15   2.0000      -0.382681       -10.4133
  16   0.0000       0.063080         1.7165
  17   0.0000       0.153205         4.1689
  18   0.0000       0.205781         5.5996
  19   0.0000       0.224465         6.1080
  20   0.0000       0.268781         7.3139

MULLIKEN ATOMIC CHARGES
-----------------------
   0 C :   -0.077878
   1 C :    0.227319
   2 F :   -0.071027
   3 O :   -0.284938
   4 H :    0.043017
   5 H :    0.084268
   6 H :    0.079239
Sum of atomic charges:   -0.0000000

LOEWDIN ATOMIC CHARGES
----------------------
   0 C :   -0.082720
   1 C :    0.109409
   2 F :    0.051570
   3 O :   -0.214719
   4 H :    0.030111
   5 H :    0.054277
   6 H :    0.052072

  Mayer bond orders larger than 0.100000
B(  0-C ,  1-C ) :   1.0207 B(  0-C ,  4-H ) :   0.9626 B(  0-C ,  5-H ) :   0.9617
B(  0-C ,  6-H ) :   0.9621 B(  1-C ,  2-F ) :   1.1999 B(  1-C ,  3-O ) :   2.0542

Dispersion correction           -0.000910951
FINAL SINGLE POINT ENERGY      -252.815501916097

DIPOLE MOMENT
-------------
                                X             Y             Z
Electronic contribution:      2.46144       1.63287      -4.17534
Nuclear contribution   :     -3.58567      -1.71656       4.24175
                        -----------------------------------------
Total Dipole Moment    :     -1.12423      -0.08369       0.06641
                        -----------------------------------------
Magnitude (a.u.)       :      1.12930
Magnitude (Debye)      :      2.87045

Rotational constants in cm-1:     0.365806     0.323297     0.177262
Rotational constants in MHz : 10966.600844  9692.195205  5314.176777

                             ****ORCA TERMINATED NORMALLY****
TOTAL RUN TIME: 0 days 0 hours 0 minutes 4 seconds 0 msec
