                         Program Version 5.0.0 -  RELEASE  -
|  1> !wB97X-D3 RIJCOSX def2-SVP def2/J TightSCF
|  2> *xyz 0 1
|  3> C          3.90595        2.81985       -3.75292
|  4> C          5.29562        3.13151       -4.10533
|  5> C          5.70862        3.46889       -5.32419
|  6> N          6.90470        3.03895       -5.71708
|  7> N          4.98188        4.29357       -6.09746
|  8> H          5.00055        4.10131       -7.08776
|  9> H          4.08469        4.59690       -5.73965
| 10> H          5.96336        2.52611       -3.64239
| 11> H          7.04716        2.06686       -5.47360
| 12> H          7.19815        3.30799       -6.64523
| 13> H          3.24866        3.48801       -4.26909
| 14> H          3.77188        2.93227       -2.69732
| 15> H          3.68381        1.81198       -4.03533
| 16> *
| 17>
| 18> %MaxCore 64000
| 19>
| 20> %pal nprocs 18
| 21> end
| 22>
| 23> %scf
| 24>   MaxIter 150
| 25> end
| 26>
| 27>
| 28>                          ****END OF INPUT****

CARTESIAN COORDINATES (ANGSTROEM)
---------------------------------
  C      3.905950    2.819850   -3.752920
  C      5.295620    3.131510   -4.105330
  C      5.708620    3.468890   -5.324190
  N      6.904700    3.038950   -5.717080
  N      4.981880    4.293570   -6.097460
  H      5.000550    4.101310   -7.087760
  H      4.084690    4.596900   -5.739650
  H      5.963360    2.526110   -3.642390
  H      7.047160    2.066860   -5.473600
  H      7.198150    3.307990   -6.645230
  H      3.248660    3.488010   -4.269090
  H      3.771880    2.932270   -2.697320
  H      3.683810    1.811980   -4.035330

 Total Charge           Charge          ....    0
 Multiplicity           Mult            ....    1
 Number of Electrons    NEL             ....   40
 Basis Dimension        Dim             ....  110

ORBITAL ENERGIES
----------------

  NO   OCC          E(Eh)            E(eV)
   0   2.0000     -14.431195      -392.6928
   1   2.0000     -14.428882      -392.6298
   2   2.0000     -10.325155      -280.9617
   3   2.0000     -10.253370      -279.0084
   4   2.0000     -10.205772      -277.7132
   5   2.0000      -1.067801       -29.0563
   6   2.0000      -0.976274       -26.5658
   7   2.0000      -0.857233       -23.3265
   8   2.0000      -0.757400       -20.6099
   9   2.0000      -0.678296       -18.4574
  10   2.0000      -0.633901       -17.2493
  11   2.0000      -0.602881       -16.4052
  12   2.0000      -0.571001       -15.5377
  13   2.0000      -0.523248       -14.2383
  14   2.0000      -0.496874       -13.5206
  15   2.0000      -0.472042       -12.8449
  16   2.0000      -0.444859       -12.1052
  17   2.0000      -0.421352       -11.4656
  18   2.0000      -0.361120        -9.8266
  19   2.0000      -0.245141        -6.6706
  20   0.0000       0.128459         3.4955
  21   0.0000       0.153256         4.1703
  22   0.0000       0.173987         4.7344
  23   0.0000       0.183100         4.9824
  24   0.0000       0.209173         5.6919

MULLIKEN ATOMIC CHARGES
-----------------------
   0 C :    0.039205
   1 C :   -0.179310
   2 C :   -0.069610
   3 N :   -0.105922
   4 N :   -0.107855
   5 H :    0.109731
   6 H :    0.123430
   7 H :   -0.067360
   8 H :    0.140753
   9 H :    0.104298
  10 H :   -0.019358
  11 H :    0.019292
  12 H :    0.012707
Sum of atomic charges:   -0.0000000

LOEWDIN ATOMIC CHARGES
----------------------
   0 C :   -0.053095
   1 C :   -0.223348
   2 C :    0.016259
   3 N :   -0.024046
   4 N :   -0.033792
   5 H :    0.060720
   6 H :    0.078546
   7 H :   -0.009760
   8 H :    0.082007
   9 H :    0.062991
  10 H :    0.007034
  11 H :    0.021813
  12 H :    0.014672

  Mayer bond orders larger than 0.100000
B(  0-C ,  1-C ) :   1.0649 B(  0-C , 10-H ) :   0.9715 B(  0-C , 11-H ) :   0.9629
B(  0-C , 12-H ) :   0.9713 B(  1-C ,  2-C ) :   1.7237 B(  1-C ,  7-H ) :   0.9392
B(  2-C ,  3-N ) :   1.1982 B(  2-C ,  4-N ) :   1.2317 B(  3-N ,  8-H ) :   0.9494
B(  3-N ,  9-H ) :   0.9558 B(  4-N ,  5-H ) :   0.9461 B(  4-N ,  6-H ) :   0.9490

Dispersion correction           -0.002449451
FINAL SINGLE POINT ENERGY      -228.360289274503

DIPOLE MOMENT
-------------
                                X             Y             Z
Electronic contribution:      2.53901       1.35863      -1.96392
Nuclear contribution   :     -2.63304      -1.77161       0.70501
                        -----------------------------------------
Total Dipole Moment    :     -0.09403      -0.41298      -1.25891
                        -----------------------------------------
Magnitude (a.u.)       :      1.32825
Magnitude (Debye)      :      3.37613

Rotational constants in cm-1:     0.303572     0.135185     0.098519
Rotational constants in MHz :  9100.846149  4052.756012  2953.539431

                             ****ORCA TERMINATED NORMALLY****
TOTAL RUN TIME: 0 days 0 hours 0 minutes 6 seconds 809 msec
