                         Program Version 5.0.0 -  RELEASE  -
|  1> !wB97X-D3 RIJCOSX def2-SVP def2/J TightSCF
|  2> *xyz 0 1
|  3> C          3.93993        0.32036       -4.36773
|  4> C          5.10585        0.66802       -5.30546
|  5> O          4.80913        1.15019       -6.41436
|  6> F          6.26737        0.56500       -4.81948
|  7> H          3.01376        0.44480       -4.88890
|  8> H          3.96058        0.96928       -3.51722
|  9> H          4.03331       -0.69517       -4.04388
| 10> *
| 11>
| 12> %MaxCore 64000
| 13>
| 14> %pal nprocs 18
| 15> end
| 16>
| 17> %scf
| 18>   MaxIter 150
| 19> end
| 20>
| 21>
| 22>                          ****END OF INPUT****

CARTESIAN COORDINATES (ANGSTROEM)
---------------------------------
  C      3.939930    0.320360   -4.367730
  C      5.105850    0.668020   -5.305460
  O      4.809130    1.150190   -6.414360
  F      6.267370    0.565000   -4.819480
  H      3.013760    0.444800   -4.888900
  H      3.960580    0.969280   -3.517220
  H      4.033310   -0.695170   -4.043880

 Total Charge           Charge          ....    0
 Multiplicity           Mult            ....    1
 Number of Electrons    NEL             ....   32
 Basis Dimension        Dim             ....   71

ORBITAL ENERGIES
----------------

  NO   OCC          E(Eh)            E(eV)
   0   2.0000     -24.857569      -676.4089
   1   2.0000     -19.243554      -523.6437
   2   2.0000     -10.466559      -284.8096
   3   2.0000     -10.311167      -280.5811
   4   2.0000      -1.410381       -38.3784
   5   2.0000      -1.140261       -31.0281
   6   2.0000      -0.876248       -23.8439
   7   2.0000      -0.755423       -20.5561
   8   2.0000      -0.647138       -17.6095
   9   2.0000      -0.643159       -17.5012
  10   2.0000      -0.598609       -16.2890
  11   2.0000      -0.539974       -14.6934
  12   2.0000      -0.529023       -14.3954
  13   2.0000      -0.495730       -13.4895
  14   2.0000      -0.449789       -12.2394
  15   2.0000      -0.385556       -10.4915
  16   0.0000       0.068226         1.8565
  17   0.0000       0.152427         4.1478
  18   0.0000       0.212124         5.7722
  19   0.0000       0.215997         5.8776
  20   0.0000       0.262566         7.1448

MULLIKEN ATOMIC CHARGES
-----------------------
   0 C :   -0.073435
   1 C :    0.228163
   2 O :   -0.259780
   3 F :   -0.095415
   4 H :    0.071078
   5 H :    0.069209
   6 H :    0.060182
Sum of atomic charges:    0.0000000

LOEWDIN ATOMIC CHARGES
----------------------
   0 C :   -0.081772
   1 C :    0.112034
   2 O :   -0.191883
   3 F :    0.027428
   4 H :    0.046903
   5 H :    0.046069
   6 H :    0.041221

  Mayer bond orders larger than 0.100000
B(  0-C ,  1-C ) :   1.0248 B(  0-C ,  4-H ) :   0.9721 B(  0-C ,  5-H ) :   0.9579
B(  0-C ,  6-H ) :   0.9570 B(  1-C ,  2-O ) :   2.0923 B(  1-C ,  3-F ) :   1.1682

Dispersion correction           -0.000899961
FINAL SINGLE POINT ENERGY      -252.821379909985

DIPOLE MOMENT
-------------
                                X             Y             Z
Electronic contribution:      4.81401       0.69303      -1.61206
Nuclear contribution   :     -5.09247      -1.11188       2.59376
                        -----------------------------------------
Total Dipole Moment    :     -0.27845      -0.41886       0.98170
                        -----------------------------------------
Magnitude (a.u.)       :      1.10305
Magnitude (Debye)      :      2.80372

Rotational constants in cm-1:     0.367940     0.321271     0.177147
Rotational constants in MHz : 11030.570495  9631.458923  5310.737691

                             ****ORCA TERMINATED NORMALLY****
TOTAL RUN TIME: 0 days 0 hours 0 minutes 4 seconds 78 msec
