                         Program Version 5.0.0 -  RELEASE  -
|  1> !wB97X-D3 RIJCOSX def2-SVP def2/J TightSCF
|  2> *xyz 0 1
|  3> C          3.90595        2.81985       -3.75292
|  4> N          5.29562        3.13151       -4.10533
|  5> C          5.70862        3.46889       -5.32419
|  6> C          6.90470        3.03895       -5.71708
|  7> N          4.98188        4.29357       -6.09746
|  8> H          5.00055        4.10131       -7.08776
|  9> H          4.08469        4.59690       -5.73965
| 10> H          5.96336        2.52611       -3.64239
| 11> H          7.04716        2.06686       -5.47360
| 12> H          7.19815        3.30799       -6.64523
| 13> H          3.24866        3.48801       -4.26909
| 14> H          3.77188        2.93227       -2.69732
| 15> H          3.68381        1.81198       -4.03533
| 16> *
| 17>
| 18> %MaxCore 64000
| 19>
| 20> %pal nprocs 18
| 21> end
| 22>
| 23> %scf
| 24>   MaxIter 150
| 25> end
| 26>
| 27>
| 28>                          ****END OF INPUT****

CARTESIAN COORDINATES (ANGSTROEM)
---------------------------------
  C      3.905950    2.819850   -3.752920
  N      5.295620    3.131510   -4.105330
  C      5.708620    3.468890   -5.324190
  C      6.904700    3.038950   -5.717080
  N      4.981880    4.293570   -6.097460
  H      5.000550    4.101310   -7.087760
  H      4.084690    4.596900   -5.739650
  H      5.963360    2.526110   -3.642390
  H      7.047160    2.066860   -5.473600
  H      7.198150    3.307990   -6.645230
  H      3.248660    3.488010   -4.269090
  H      3.771880    2.932270   -2.697320
  H      3.683810    1.811980   -4.035330

 Total Charge           Charge          ....    0
 Multiplicity           Mult            ....    1
 Number of Electrons    NEL             ....   40
 Basis Dimension        Dim             ....  110

ORBITAL ENERGIES
----------------

  NO   OCC          E(Eh)            E(eV)
   0   2.0000     -14.433181      -392.7468
   1   2.0000     -14.432892      -392.7389
   2   2.0000     -10.332087      -281.1504
   3   2.0000     -10.321788      -280.8701
   4   2.0000     -10.195060      -277.4217
   5   2.0000      -1.074785       -29.2464
   6   2.0000      -0.988250       -26.8916
   7   2.0000      -0.851295       -23.1649
   8   2.0000      -0.774810       -21.0836
   9   2.0000      -0.695493       -18.9253
  10   2.0000      -0.631770       -17.1913
  11   2.0000      -0.588892       -16.0246
  12   2.0000      -0.576771       -15.6947
  13   2.0000      -0.550231       -14.9726
  14   2.0000      -0.502370       -13.6702
  15   2.0000      -0.484239       -13.1768
  16   2.0000      -0.476871       -12.9763
  17   2.0000      -0.435368       -11.8470
  18   2.0000      -0.346983        -9.4419
  19   2.0000      -0.254999        -6.9389
  20   0.0000       0.128124         3.4864
  21   0.0000       0.144937         3.9439
  22   0.0000       0.171178         4.6580
  23   0.0000       0.190864         5.1937
  24   0.0000       0.214742         5.8434

MULLIKEN ATOMIC CHARGES
-----------------------
   0 C :    0.094723
   1 N :   -0.203546
   2 C :   -0.037594
   3 C :   -0.116173
   4 N :   -0.124329
   5 H :    0.140802
   6 H :    0.105329
   7 H :    0.126925
   8 H :   -0.024756
   9 H :   -0.047387
  10 H :    0.017096
  11 H :    0.041614
  12 H :    0.027298
Sum of atomic charges:    0.0000000

LOEWDIN ATOMIC CHARGES
----------------------
   0 C :    0.030057
   1 N :   -0.045604
   2 C :    0.038726
   3 C :   -0.263092
   4 N :   -0.026209
   5 H :    0.081591
   6 H :    0.062634
   7 H :    0.083465
   8 H :   -0.005559
   9 H :   -0.010157
  10 H :    0.016312
  11 H :    0.024996
  12 H :    0.012839

  Mayer bond orders larger than 0.100000
B(  0-C ,  1-N ) :   0.9875 B(  0-C , 10-H ) :   0.9784 B(  0-C , 11-H ) :   0.9799
B(  0-C , 12-H ) :   0.9749 B(  1-N ,  2-C ) :   1.2104 B(  1-N ,  7-H ) :   0.9320
B(  2-C ,  3-C ) :   1.7301 B(  2-C ,  4-N ) :   1.2044 B(  3-C ,  8-H ) :   0.9565
B(  3-C ,  9-H ) :   0.9572 B(  4-N ,  5-H ) :   0.9499 B(  4-N ,  6-H ) :   0.9574

Dispersion correction           -0.002460091
FINAL SINGLE POINT ENERGY      -228.347830338829

DIPOLE MOMENT
-------------
                                X             Y             Z
Electronic contribution:      0.86970       1.45508      -0.30521
Nuclear contribution   :     -2.30713      -1.79036       0.37856
                        -----------------------------------------
Total Dipole Moment    :     -1.43744      -0.33528       0.07335
                        -----------------------------------------
Magnitude (a.u.)       :      1.47784
Magnitude (Debye)      :      3.75638

Rotational constants in cm-1:     0.307513     0.139026     0.101190
Rotational constants in MHz :  9218.994719  4167.905268  3033.592538

                             ****ORCA TERMINATED NORMALLY****
TOTAL RUN TIME: 0 days 0 hours 0 minutes 6 seconds 417 msec
