                         Program Version 5.0.0 -  RELEASE  -
|  1> !wB97X-D3 RIJCOSX def2-SVP def2/J TightSCF
|  2> *xyz 0 1
|  3> C          3.90595        2.81985       -3.75292
|  4> N          5.29562        3.13151       -4.10533
|  5> C          5.70862        3.46889       -5.32419
|  6> N          6.90470        3.03895       -5.71708
|  7> C          4.98188        4.29357       -6.09746
|  8> H          5.00055        4.10131       -7.08776
|  9> H          4.08469        4.59690       -5.73965
| 10> H          5.96336        2.52611       -3.64239
| 11> H          7.04716        2.06686       -5.47360
| 12> H          7.19815        3.30799       -6.64523
| 13> H          3.24866        3.48801       -4.26909
| 14> H          3.77188        2.93227       -2.69732
| 15> H          3.68381        1.81198       -4.03533
| 16> *
| 17>
| 18> %MaxCore 64000
| 19>
| 20> %pal nprocs 18
| 21> end
| 22>
| 23> %scf
| 24>   MaxIter 150
| 25> end
| 26>
| 27>
| 28>                          ****END OF INPUT****

CARTESIAN COORDINATES (ANGSTROEM)
---------------------------------
  C      3.905950    2.819850   -3.752920
  N      5.295620    3.131510   -4.105330
  C      5.708620    3.468890   -5.324190
  N      6.904700    3.038950   -5.717080
  C      4.981880    4.293570   -6.097460
  H      5.000550    4.101310   -7.087760
  H      4.084690    4.596900   -5.739650
  H      5.963360    2.526110   -3.642390
  H      7.047160    2.066860   -5.473600
  H      7.198150    3.307990   -6.645230
  H      3.248660    3.488010   -4.269090
  H      3.771880    2.932270   -2.697320
  H      3.683810    1.811980   -4.035330

 Total Charge           Charge          ....    0
 Multiplicity           Mult            ....    1
 Number of Electrons    NEL             ....   40
 Basis Dimension        Dim             ....  110

ORBITAL ENERGIES
----------------

  NO   OCC          E(Eh)            E(eV)
   0   2.0000     -14.433740      -392.7620
   1   2.0000     -14.432979      -392.7413
   2   2.0000     -10.331083      -281.1231
   3   2.0000     -10.314330      -280.6672
   4   2.0000     -10.198773      -277.5227
   5   2.0000      -1.079431       -29.3728
   6   2.0000      -0.989999       -26.9393
   7   2.0000      -0.826072       -22.4786
   8   2.0000      -0.799658       -21.7598
   9   2.0000      -0.665336       -18.1047
  10   2.0000      -0.638366       -17.3708
  11   2.0000      -0.618656       -16.8345
  12   2.0000      -0.550683       -14.9848
  13   2.0000      -0.543371       -14.7859
  14   2.0000      -0.512358       -13.9420
  15   2.0000      -0.477939       -13.0054
  16   2.0000      -0.469730       -12.7820
  17   2.0000      -0.438313       -11.9271
  18   2.0000      -0.347771        -9.4633
  19   2.0000      -0.254850        -6.9348
  20   0.0000       0.131595         3.5809
  21   0.0000       0.149699         4.0735
  22   0.0000       0.176667         4.8074
  23   0.0000       0.186678         5.0798
  24   0.0000       0.207412         5.6440

MULLIKEN ATOMIC CHARGES
-----------------------
   0 C :    0.112459
   1 N :   -0.223541
   2 C :   -0.028861
   3 N :   -0.103009
   4 C :   -0.129751
   5 H :   -0.027903
   6 H :   -0.043096
   7 H :    0.103312
   8 H :    0.109542
   9 H :    0.128383
  10 H :    0.047943
  11 H :    0.035095
  12 H :    0.019427
Sum of atomic charges:    0.0000000

LOEWDIN ATOMIC CHARGES
----------------------
   0 C :    0.042053
   1 N :   -0.045271
   2 C :    0.030917
   3 N :   -0.025002
   4 C :   -0.256920
   5 H :   -0.007475
   6 H :   -0.009850
   7 H :    0.062258
   8 H :    0.061961
   9 H :    0.082929
  10 H :    0.030416
  11 H :    0.022602
  12 H :    0.011381

  Mayer bond orders larger than 0.100000
B(  0-C ,  1-N ) :   0.9823 B(  0-C , 10-H ) :   0.9774 B(  0-C , 11-H ) :   0.9804
B(  0-C , 12-H ) :   0.9796 B(  1-N ,  2-C ) :   1.1759 B(  1-N ,  7-H ) :   0.9412
B(  2-C ,  3-N ) :   1.2191 B(  2-C ,  4-C ) :   1.7380 B(  3-N ,  8-H ) :   0.9495
B(  3-N ,  9-H ) :   0.9470 B(  4-C ,  5-H ) :   0.9544 B(  4-C ,  6-H ) :   0.9564

Dispersion correction           -0.002442571
FINAL SINGLE POINT ENERGY      -228.351111981174

DIPOLE MOMENT
-------------
                                X             Y             Z
Electronic contribution:      2.83942       0.19680       0.00009
Nuclear contribution   :     -2.69659      -1.53624       0.30152
                        -----------------------------------------
Total Dipole Moment    :      0.14284      -1.33944       0.30160
                        -----------------------------------------
Magnitude (a.u.)       :      1.38039
Magnitude (Debye)      :      3.50866

Rotational constants in cm-1:     0.320409     0.134796     0.100241
Rotational constants in MHz :  9605.632807  4041.079317  3005.150506

                             ****ORCA TERMINATED NORMALLY****
TOTAL RUN TIME: 0 days 0 hours 0 minutes 6 seconds 641 msec
