                         Program Version 5.0.0 -  RELEASE  -
|  1> !wB97X-D3 RIJCOSX def2-SVP def2/J TightSCF xyzfile
|  2>
|  3> *xyzfile 0 1 D1.xyz
|  4>
|  5> %MaxCore 64000
|  6>
|  7> %pal nprocs 18
|  8> end
|  9>
| 10> %scf
| 11>   MaxIter 150
| 12> end
| 13>
| 14>
| 15>                          ****END OF INPUT****

CARTESIAN COORDINATES (ANGSTROEM)
---------------------------------
  C      3.905947    2.819855   -3.752920
  C      5.295615    3.131515   -4.105334
  C      3.803511    1.374716   -3.260807
  C      3.939934    0.320362   -4.367729
  H      4.105043   -0.655085   -3.907733
  H      3.022801    0.280517   -4.957117
  C      5.105846    0.668022   -5.305463
  C      5.708619    3.468885   -5.324190
  N      6.904696    3.038954   -5.717084
  N      4.981884    4.293570   -6.097457
  H      5.000546    4.101311   -7.087761
  H      4.084693    4.596899   -5.739652
  H      5.963358    2.526112   -3.642391
  H      7.047164    2.066861   -5.473604
  H      7.198145    3.307994   -6.645225
  H      3.282025    2.949187   -4.640259
  H      3.565254    3.514574   -2.982523
  H      4.574833    1.215157   -2.500443
  H      2.843514    1.260845   -2.751465
  F      4.809132    1.150187   -6.414361
  O      6.267366    0.564999   -4.819481

 Total Charge           Charge          ....    0
 Multiplicity           Mult            ....    1
 Number of Electrons    NEL             ....   78
 Basis Dimension        Dim             ....  195

ORBITAL ENERGIES
----------------

  NO   OCC          E(Eh)            E(eV)
   0   2.0000     -24.873449      -676.8410
   1   2.0000     -19.247158      -523.7418
   2   2.0000     -14.432874      -392.7385
   3   2.0000     -14.409967      -392.1152
   4   2.0000     -10.474504      -285.0257
   5   2.0000     -10.324920      -280.9554
   6   2.0000     -10.314374      -280.6684
   7   2.0000     -10.293495      -280.1003
   8   2.0000     -10.274976      -279.5963
   9   2.0000     -10.204837      -277.6877
  10   2.0000      -1.432858       -38.9900
  11   2.0000      -1.141754       -31.0687
  12   2.0000      -1.063298       -28.9338
  13   2.0000      -0.970273       -26.4025
  14   2.0000      -0.926623       -25.2147
  15   2.0000      -0.857006       -23.3203
  16   2.0000      -0.798162       -21.7191
  17   2.0000      -0.763866       -20.7858
  18   2.0000      -0.711411       -19.3585
  19   2.0000      -0.679095       -18.4791
  20   2.0000      -0.663302       -18.0494
  21   2.0000      -0.644711       -17.5435
  22   2.0000      -0.632864       -17.2211
  23   2.0000      -0.618011       -16.8169
  24   2.0000      -0.597909       -16.2699
  25   2.0000      -0.563190       -15.3252
  26   2.0000      -0.557618       -15.1735
  27   2.0000      -0.536914       -14.6102
  28   2.0000      -0.526658       -14.3311
  29   2.0000      -0.493565       -13.4306
  30   2.0000      -0.481405       -13.0997
  31   2.0000      -0.460072       -12.5192
  32   2.0000      -0.456181       -12.4133
  33   2.0000      -0.438405       -11.9296
  34   2.0000      -0.425596       -11.5811
  35   2.0000      -0.410906       -11.1813
  36   2.0000      -0.391261       -10.6468
  37   2.0000      -0.351746        -9.5715
  38   2.0000      -0.248034        -6.7493
  39   0.0000       0.052697         1.4340
  40   0.0000       0.136583         3.7166
  41   0.0000       0.154646         4.2081
  42   0.0000       0.157662         4.2902
  43   0.0000       0.177039         4.8175

MULLIKEN ATOMIC CHARGES
-----------------------
   0 C :   -0.009263
   1 C :   -0.078051
   2 C :   -0.070211
   3 C :   -0.001100
   4 H :    0.069317
   5 H :    0.035734
   6 C :    0.249586
   7 C :   -0.147914
   8 N :   -0.087540
   9 N :   -0.086988
  10 H :    0.107131
  11 H :    0.125986
  12 H :   -0.050147
  13 H :    0.132928
  14 H :    0.099638
  15 H :   -0.022381
  16 H :    0.021490
  17 H :    0.050946
  18 H :    0.029903
  19 F :   -0.068363
  20 O :   -0.300703
Sum of atomic charges:    0.0000000

LOEWDIN ATOMIC CHARGES
----------------------
   0 C :   -0.044211
   1 C :   -0.219502
   2 C :   -0.023789
   3 C :   -0.060435
   4 H :    0.050747
   5 H :    0.028086
   6 C :    0.130304
   7 C :    0.012186
   8 N :   -0.022396
   9 N :   -0.028031
  10 H :    0.060195
  11 H :    0.077080
  12 H :   -0.007479
  13 H :    0.049686
  14 H :    0.060123
  15 H :    0.002416
  16 H :    0.020644
  17 H :    0.032689
  18 H :    0.026052
  19 F :    0.061295
  20 O :   -0.205658

  Mayer bond orders larger than 0.100000
B(  0-C ,  1-C ) :   1.0756 B(  0-C ,  2-C ) :   1.0765 B(  0-C , 15-H ) :   0.9415
B(  0-C , 16-H ) :   0.9229 B(  1-C ,  7-C ) :   1.6570 B(  1-C , 12-H ) :   0.9297
B(  2-C ,  3-C ) :   1.0553 B(  2-C , 17-H ) :   0.9538 B(  2-C , 18-H ) :   0.9509
B(  3-C ,  4-H ) :   0.9332 B(  3-C ,  5-H ) :   0.9364 B(  3-C ,  6-C ) :   1.0146
B(  6-C , 19-F ) :   1.1790 B(  6-C , 20-O ) :   1.9289 B(  7-C ,  8-N ) :   1.2702
B(  7-C ,  9-N ) :   1.2404 B(  8-N , 13-H ) :   0.9029 B(  8-N , 14-H ) :   0.9535
B(  9-N , 10-H ) :   0.9437 B(  9-N , 11-H ) :   0.9417 B( 13-H , 20-O ) :   0.1042

Dispersion correction           -0.008897222
FINAL SINGLE POINT ENERGY      -519.264444189070

DIPOLE MOMENT
-------------
                                X             Y             Z
Electronic contribution:      3.44478      -3.64560      -6.63947
Nuclear contribution   :     -4.60158       3.22721       5.56005
                        -----------------------------------------
Total Dipole Moment    :     -1.15681      -0.41838      -1.07941
                        -----------------------------------------
Magnitude (a.u.)       :      1.63657
Magnitude (Debye)      :      4.15984

Rotational constants in cm-1:     0.061224     0.042534     0.033552
Rotational constants in MHz :  1835.464095  1275.135177  1005.856966

                             ****ORCA TERMINATED NORMALLY****
TOTAL RUN TIME: 0 days 0 hours 0 minutes 16 seconds 482 msec
