                         Program Version 5.0.0 -  RELEASE  -
|  1> !wB97X-D3 RIJCOSX def2-SVP def2/J TightSCF xyzfile
|  2>
|  3> *xyzfile 0 1 D2.xyz
|  4>
|  5> %MaxCore 64000
|  6>
|  7> %pal nprocs 18
|  8> end
|  9>
| 10> %scf
| 11>   MaxIter 150
| 12> end
| 13>
| 14>
| 15>                          ****END OF INPUT****

CARTESIAN COORDINATES (ANGSTROEM)
---------------------------------
  C      3.905947    2.819855   -3.752920
  N      5.295615    3.131515   -4.105334
  C      3.803511    1.374716   -3.260807
  C      3.939934    0.320362   -4.367729
  H      4.105043   -0.655085   -3.907733
  H      3.022801    0.280517   -4.957117
  C      5.105846    0.668022   -5.305463
  C      5.708619    3.468885   -5.324190
  C      6.904696    3.038954   -5.717084
  N      4.981884    4.293570   -6.097457
  H      5.000546    4.101311   -7.087761
  H      4.084693    4.596899   -5.739652
  H      5.963358    2.526112   -3.642391
  H      7.047164    2.066861   -5.473604
  H      7.198145    3.307994   -6.645225
  H      3.282025    2.949187   -4.640259
  H      3.565254    3.514574   -2.982523
  H      4.574833    1.215157   -2.500443
  H      2.843514    1.260845   -2.751465
  F      4.809132    1.150187   -6.414361
  O      6.267366    0.564999   -4.819481

 Total Charge           Charge          ....    0
 Multiplicity           Mult            ....    1
 Number of Electrons    NEL             ....   78
 Basis Dimension        Dim             ....  195

ORBITAL ENERGIES
----------------

  NO   OCC          E(Eh)            E(eV)
   0   2.0000     -24.871808      -676.7963
   1   2.0000     -19.246333      -523.7193
   2   2.0000     -14.430529      -392.6747
   3   2.0000     -14.428492      -392.6192
   4   2.0000     -10.475080      -285.0414
   5   2.0000     -10.337173      -281.2888
   6   2.0000     -10.327540      -281.0267
   7   2.0000     -10.321704      -280.8678
   8   2.0000     -10.319741      -280.8144
   9   2.0000     -10.176000      -276.9030
  10   2.0000      -1.431151       -38.9436
  11   2.0000      -1.141570       -31.0637
  12   2.0000      -1.074824       -29.2474
  13   2.0000      -0.992103       -26.9965
  14   2.0000      -0.929433       -25.2912
  15   2.0000      -0.850718       -23.1492
  16   2.0000      -0.803595       -21.8669
  17   2.0000      -0.767705       -20.8903
  18   2.0000      -0.725947       -19.7540
  19   2.0000      -0.695495       -18.9254
  20   2.0000      -0.667219       -18.1559
  21   2.0000      -0.650478       -17.7004
  22   2.0000      -0.635222       -17.2853
  23   2.0000      -0.609382       -16.5821
  24   2.0000      -0.595307       -16.1991
  25   2.0000      -0.583536       -15.8788
  26   2.0000      -0.566033       -15.4025
  27   2.0000      -0.538885       -14.6638
  28   2.0000      -0.515951       -14.0397
  29   2.0000      -0.502272       -13.6675
  30   2.0000      -0.489618       -13.3232
  31   2.0000      -0.485392       -13.2082
  32   2.0000      -0.462377       -12.5819
  33   2.0000      -0.459764       -12.5108
  34   2.0000      -0.437018       -11.8919
  35   2.0000      -0.428171       -11.6511
  36   2.0000      -0.373739       -10.1700
  37   2.0000      -0.345899        -9.4124
  38   2.0000      -0.244048        -6.6409
  39   0.0000       0.048712         1.3255
  40   0.0000       0.127894         3.4802
  41   0.0000       0.145604         3.9621
  42   0.0000       0.158602         4.3158
  43   0.0000       0.164116         4.4658

MULLIKEN ATOMIC CHARGES
-----------------------
   0 C :    0.092251
   1 N :   -0.194052
   2 C :   -0.104226
   3 C :   -0.010270
   4 H :    0.077398
   5 H :    0.042111
   6 C :    0.245358
   7 C :   -0.080722
   8 C :   -0.108919
   9 N :   -0.110906
  10 H :    0.136284
  11 H :    0.106362
  12 H :    0.137018
  13 H :    0.009985
  14 H :   -0.059667
  15 H :    0.013126
  16 H :    0.042162
  17 H :    0.058923
  18 H :    0.046413
  19 F :   -0.061529
  20 O :   -0.277100
Sum of atomic charges:   -0.0000000

LOEWDIN ATOMIC CHARGES
----------------------
   0 C :    0.027888
   1 N :   -0.037930
   2 C :   -0.037057
   3 C :   -0.062015
   4 H :    0.053314
   5 H :    0.029829
   6 C :    0.121861
   7 C :    0.014840
   8 C :   -0.254913
   9 N :   -0.026099
  10 H :    0.079121
  11 H :    0.059747
  12 H :    0.079484
  13 H :   -0.016013
  14 H :   -0.014562
  15 H :    0.011933
  16 H :    0.022259
  17 H :    0.034249
  18 H :    0.034306
  19 F :    0.069900
  20 O :   -0.190140

  Mayer bond orders larger than 0.100000
B(  0-C ,  1-N ) :   0.9887 B(  0-C ,  2-C ) :   1.0741 B(  0-C , 15-H ) :   0.9470
B(  0-C , 16-H ) :   0.9492 B(  1-N ,  7-C ) :   1.1685 B(  1-N , 12-H ) :   0.9269
B(  2-C ,  3-C ) :   1.0571 B(  2-C , 17-H ) :   0.9515 B(  2-C , 18-H ) :   0.9507
B(  3-C ,  4-H ) :   0.9381 B(  3-C ,  5-H ) :   0.9380 B(  3-C ,  6-C ) :   0.9976
B(  6-C , 19-F ) :   1.1800 B(  6-C , 20-O ) :   1.9683 B(  7-C ,  8-C ) :   1.7636
B(  7-C ,  9-N ) :   1.2049 B(  8-C , 13-H ) :   0.9345 B(  8-C , 14-H ) :   0.9540
B(  9-N , 10-H ) :   0.9508 B(  9-N , 11-H ) :   0.9549

Dispersion correction           -0.008917352
FINAL SINGLE POINT ENERGY      -519.235151296724

DIPOLE MOMENT
-------------
                                X             Y             Z
Electronic contribution:      2.02620      -3.77712      -5.20505
Nuclear contribution   :     -4.40347       3.21582       5.36161
                        -----------------------------------------
Total Dipole Moment    :     -2.37727      -0.56130       0.15657
                        -----------------------------------------
Magnitude (a.u.)       :      2.44765
Magnitude (Debye)      :      6.22143

Rotational constants in cm-1:     0.061226     0.043199     0.033926
Rotational constants in MHz :  1835.503528  1295.087558  1017.061512

                             ****ORCA TERMINATED NORMALLY****
TOTAL RUN TIME: 0 days 0 hours 0 minutes 16 seconds 776 msec
