                         Program Version 5.0.0 -  RELEASE  -
|  1> !wB97X-D3 RIJCOSX def2-SVP def2/J TightSCF xyzfile
|  2>
|  3> *xyzfile 0 1 D3.xyz
|  4>
|  5> %MaxCore 64000
|  6>
|  7> %pal nprocs 18
|  8> end
|  9>
| 10> %scf
| 11>   MaxIter 150
| 12> end
| 13>
| 14>
| 15>                          ****END OF INPUT****

CARTESIAN COORDINATES (ANGSTROEM)
---------------------------------
  C      3.905947    2.819855   -3.752920
  N      5.295615    3.131515   -4.105334
  C      3.803511    1.374716   -3.260807
  C      3.939934    0.320362   -4.367729
  H      4.105043   -0.655085   -3.907733
  H      3.022801    0.280517   -4.957117
  C      5.105846    0.668022   -5.305463
  C      5.708619    3.468885   -5.324190
  N      6.904696    3.038954   -5.717084
  C      4.981884    4.293570   -6.097457
  H      5.000546    4.101311   -7.087761
  H      4.084693    4.596899   -5.739652
  H      5.963358    2.526112   -3.642391
  H      7.047164    2.066861   -5.473604
  H      7.198145    3.307994   -6.645225
  H      3.282025    2.949187   -4.640259
  H      3.565254    3.514574   -2.982523
  H      4.574833    1.215157   -2.500443
  H      2.843514    1.260845   -2.751465
  F      4.809132    1.150187   -6.414361
  O      6.267366    0.564999   -4.819481

 Total Charge           Charge          ....    0
 Multiplicity           Mult            ....    1
 Number of Electrons    NEL             ....   78
 Basis Dimension        Dim             ....  195

ORBITAL ENERGIES
----------------

  NO   OCC          E(Eh)            E(eV)
   0   2.0000     -24.883971      -677.1273
   1   2.0000     -19.265965      -524.2536
   2   2.0000     -14.433208      -392.7476
   3   2.0000     -14.409421      -392.1003
   4   2.0000     -10.491858      -285.4980
   5   2.0000     -10.333047      -281.1765
   6   2.0000     -10.332499      -281.1616
   7   2.0000     -10.325068      -280.9594
   8   2.0000     -10.320511      -280.8354
   9   2.0000     -10.194629      -277.4100
  10   2.0000      -1.443413       -39.2773
  11   2.0000      -1.161240       -31.5990
  12   2.0000      -1.076113       -29.2825
  13   2.0000      -0.990897       -26.9637
  14   2.0000      -0.928271       -25.2595
  15   2.0000      -0.845566       -23.0090
  16   2.0000      -0.806242       -21.9389
  17   2.0000      -0.782785       -21.3007
  18   2.0000      -0.739115       -20.1123
  19   2.0000      -0.679005       -18.4767
  20   2.0000      -0.669093       -18.2069
  21   2.0000      -0.660993       -17.9865
  22   2.0000      -0.641543       -17.4573
  23   2.0000      -0.613613       -16.6973
  24   2.0000      -0.601231       -16.3603
  25   2.0000      -0.584164       -15.8959
  26   2.0000      -0.571929       -15.5630
  27   2.0000      -0.533303       -14.5119
  28   2.0000      -0.525612       -14.3026
  29   2.0000      -0.505835       -13.7645
  30   2.0000      -0.486592       -13.2409
  31   2.0000      -0.485668       -13.2157
  32   2.0000      -0.470611       -12.8060
  33   2.0000      -0.463776       -12.6200
  34   2.0000      -0.451353       -12.2819
  35   2.0000      -0.425055       -11.5663
  36   2.0000      -0.406621       -11.0647
  37   2.0000      -0.339543        -9.2394
  38   2.0000      -0.251505        -6.8438
  39   0.0000       0.034384         0.9356
  40   0.0000       0.132515         3.6059
  41   0.0000       0.151236         4.1153
  42   0.0000       0.166909         4.5418
  43   0.0000       0.179178         4.8757

MULLIKEN ATOMIC CHARGES
-----------------------
   0 C :    0.115146
   1 N :   -0.200071
   2 C :   -0.111202
   3 C :   -0.010150
   4 H :    0.078805
   5 H :    0.051394
   6 C :    0.246993
   7 C :   -0.082062
   8 N :   -0.085942
   9 C :   -0.105450
  10 H :   -0.036816
  11 H :   -0.040828
  12 H :    0.115617
  13 H :    0.112908
  14 H :    0.119861
  15 H :    0.037657
  16 H :    0.044472
  17 H :    0.055461
  18 H :    0.050369
  19 F :   -0.048397
  20 O :   -0.307765
Sum of atomic charges:    0.0000000

LOEWDIN ATOMIC CHARGES
----------------------
   0 C :    0.042836
   1 N :   -0.033554
   2 C :   -0.037815
   3 C :   -0.060261
   4 H :    0.053880
   5 H :    0.034251
   6 C :    0.129858
   7 C :    0.017836
   8 N :   -0.027633
   9 C :   -0.260749
  10 H :   -0.009796
  11 H :   -0.012463
  12 H :    0.059716
  13 H :    0.036882
  14 H :    0.078411
  15 H :    0.024522
  16 H :    0.025317
  17 H :    0.032229
  18 H :    0.036743
  19 F :    0.080794
  20 O :   -0.211005

  Mayer bond orders larger than 0.100000
B(  0-C ,  1-N ) :   0.9899 B(  0-C ,  2-C ) :   1.0723 B(  0-C , 15-H ) :   0.9426
B(  0-C , 16-H ) :   0.9533 B(  1-N ,  7-C ) :   1.1404 B(  1-N , 12-H ) :   0.9331
B(  2-C ,  3-C ) :   1.0530 B(  2-C , 17-H ) :   0.9515 B(  2-C , 18-H ) :   0.9507
B(  3-C ,  4-H ) :   0.9374 B(  3-C ,  5-H ) :   0.9379 B(  3-C ,  6-C ) :   0.9972
B(  6-C , 19-F ) :   1.2036 B(  6-C , 20-O ) :   1.9302 B(  7-C ,  8-N ) :   1.2711
B(  7-C ,  9-C ) :   1.7559 B(  8-N , 13-H ) :   0.9164 B(  8-N , 14-H ) :   0.9477
B(  9-C , 10-H ) :   0.9536 B(  9-C , 11-H ) :   0.9480

Dispersion correction           -0.008980838
FINAL SINGLE POINT ENERGY      -519.255761643552

DIPOLE MOMENT
-------------
                                X             Y             Z
Electronic contribution:      3.63515      -4.90273      -4.91884
Nuclear contribution   :     -4.64021       3.37029       5.31478
                        -----------------------------------------
Total Dipole Moment    :     -1.00506      -1.53245       0.39594
                        -----------------------------------------
Magnitude (a.u.)       :      1.87492
Magnitude (Debye)      :      4.76566

Rotational constants in cm-1:     0.061077     0.043622     0.034103
Rotational constants in MHz :  1831.041375  1307.759852  1022.388536

                             ****ORCA TERMINATED NORMALLY****
TOTAL RUN TIME: 0 days 0 hours 0 minutes 16 seconds 876 msec
