                         Program Version 5.0.0 -  RELEASE  -
|  1> !wB97X-D3 RIJCOSX def2-SVP def2/J TightSCF xyzfile
|  2>
|  3> *xyzfile 0 1 D5.xyz
|  4>
|  5> %MaxCore 64000
|  6>
|  7> %pal nprocs 18
|  8> end
|  9>
| 10> %scf
| 11>   MaxIter 150
| 12> end
| 13>
| 14>
| 15>                          ****END OF INPUT****

CARTESIAN COORDINATES (ANGSTROEM)
---------------------------------
  C      3.905947    2.819855   -3.752920
  N      5.295615    3.131515   -4.105334
  C      3.803511    1.374716   -3.260807
  C      3.939934    0.320362   -4.367729
  H      4.105043   -0.655085   -3.907733
  H      3.022801    0.280517   -4.957117
  C      5.105846    0.668022   -5.305463
  C      5.708619    3.468885   -5.324190
  C      6.904696    3.038954   -5.717084
  N      4.981884    4.293570   -6.097457
  H      5.000546    4.101311   -7.087761
  H      4.084693    4.596899   -5.739652
  H      5.963358    2.526112   -3.642391
  H      7.047164    2.066861   -5.473604
  H      7.198145    3.307994   -6.645225
  H      3.282025    2.949187   -4.640259
  H      3.565254    3.514574   -2.982523
  H      4.574833    1.215157   -2.500443
  H      2.843514    1.260845   -2.751465
  O      4.809132    1.150187   -6.414361
  F      6.267366    0.564999   -4.819481

 Total Charge           Charge          ....    0
 Multiplicity           Mult            ....    1
 Number of Electrons    NEL             ....   78
 Basis Dimension        Dim             ....  195

ORBITAL ENERGIES
----------------

  NO   OCC          E(Eh)            E(eV)
   0   2.0000     -24.865474      -676.6239
   1   2.0000     -19.247352      -523.7471
   2   2.0000     -14.436146      -392.8275
   3   2.0000     -14.425497      -392.5377
   4   2.0000     -10.469108      -284.8789
   5   2.0000     -10.336336      -281.2660
   6   2.0000     -10.325480      -280.9706
   7   2.0000     -10.324078      -280.9324
   8   2.0000     -10.321263      -280.8558
   9   2.0000     -10.181089      -277.0415
  10   2.0000      -1.420399       -38.6510
  11   2.0000      -1.145884       -31.1811
  12   2.0000      -1.076530       -29.2939
  13   2.0000      -0.991541       -26.9812
  14   2.0000      -0.929591       -25.2954
  15   2.0000      -0.850443       -23.1417
  16   2.0000      -0.804535       -21.8925
  17   2.0000      -0.762137       -20.7388
  18   2.0000      -0.726907       -19.7801
  19   2.0000      -0.700124       -19.0513
  20   2.0000      -0.660251       -17.9663
  21   2.0000      -0.656910       -17.8754
  22   2.0000      -0.620686       -16.8897
  23   2.0000      -0.605727       -16.4827
  24   2.0000      -0.597180       -16.2501
  25   2.0000      -0.586864       -15.9694
  26   2.0000      -0.563304       -15.3283
  27   2.0000      -0.538514       -14.6537
  28   2.0000      -0.518545       -14.1103
  29   2.0000      -0.501235       -13.6393
  30   2.0000      -0.488575       -13.2948
  31   2.0000      -0.477335       -12.9889
  32   2.0000      -0.468252       -12.7418
  33   2.0000      -0.458219       -12.4688
  34   2.0000      -0.450529       -12.2595
  35   2.0000      -0.414747       -11.2859
  36   2.0000      -0.385945       -10.5021
  37   2.0000      -0.349118        -9.5000
  38   2.0000      -0.244791        -6.6611
  39   0.0000       0.057899         1.5755
  40   0.0000       0.128170         3.4877
  41   0.0000       0.144126         3.9219
  42   0.0000       0.161503         4.3947
  43   0.0000       0.165468         4.5026

MULLIKEN ATOMIC CHARGES
-----------------------
   0 C :    0.106512
   1 N :   -0.200250
   2 C :   -0.131640
   3 C :    0.003661
   4 H :    0.058091
   5 H :    0.065539
   6 C :    0.229868
   7 C :   -0.043147
   8 C :   -0.103244
   9 N :   -0.113422
  10 H :    0.144842
  11 H :    0.107118
  12 H :    0.123693
  13 H :   -0.022262
  14 H :   -0.052156
  15 H :    0.027254
  16 H :    0.041405
  17 H :    0.048747
  18 H :    0.048894
  19 O :   -0.248285
  20 F :   -0.091219
Sum of atomic charges:    0.0000000

LOEWDIN ATOMIC CHARGES
----------------------
   0 C :    0.030279
   1 N :   -0.037935
   2 C :   -0.044477
   3 C :   -0.059807
   4 H :    0.040093
   5 H :    0.045861
   6 C :    0.110492
   7 C :    0.031536
   8 C :   -0.259028
   9 N :   -0.019608
  10 H :    0.084279
  11 H :    0.061222
  12 H :    0.071981
  13 H :   -0.023207
  14 H :   -0.010850
  15 H :    0.019081
  16 H :    0.021873
  17 H :    0.028007
  18 H :    0.035466
  19 O :   -0.176298
  20 F :    0.051039

  Mayer bond orders larger than 0.100000
B(  0-C ,  1-N ) :   0.9764 B(  0-C ,  2-C ) :   1.0672 B(  0-C , 15-H ) :   0.9462
B(  0-C , 16-H ) :   0.9497 B(  1-N ,  7-C ) :   1.1645 B(  1-N , 12-H ) :   0.9328
B(  2-C ,  3-C ) :   1.0510 B(  2-C , 17-H ) :   0.9539 B(  2-C , 18-H ) :   0.9483
B(  3-C ,  4-H ) :   0.9371 B(  3-C ,  5-H ) :   0.9464 B(  3-C ,  6-C ) :   1.0022
B(  6-C , 19-O ) :   2.0427 B(  6-C , 20-F ) :   1.1214 B(  7-C ,  8-C ) :   1.7522
B(  7-C ,  9-N ) :   1.2269 B(  8-C , 13-H ) :   0.9487 B(  8-C , 14-H ) :   0.9537
B(  9-N , 10-H ) :   0.9487 B(  9-N , 11-H ) :   0.9552

Dispersion correction           -0.008992253
FINAL SINGLE POINT ENERGY      -519.240877132110

DIPOLE MOMENT
-------------
                                X             Y             Z
Electronic contribution:      4.38214      -4.65320      -2.63010
Nuclear contribution   :     -6.05797       3.87976       3.55209
                        -----------------------------------------
Total Dipole Moment    :     -1.67583      -0.77343       0.92199
                        -----------------------------------------
Magnitude (a.u.)       :      2.06317
Magnitude (Debye)      :      5.24416

Rotational constants in cm-1:     0.061282     0.043164     0.033679
Rotational constants in MHz :  1837.191639  1294.028651  1009.659886

                             ****ORCA TERMINATED NORMALLY****
TOTAL RUN TIME: 0 days 0 hours 0 minutes 17 seconds 293 msec
