                         Program Version 5.0.0 -  RELEASE  -
|  1> !CAM-B3LYP RIJCOSX def2-SVPD def2/J TightSCF
|  2> *xyz -1 1
|  3> C         -0.47749        0.60819       -4.10105
|  4> C          0.18467       -0.50664       -4.91676
|  5> O         -0.15869       -1.70109       -4.65798
|  6> O          1.05594       -0.17441       -5.74037
|  7> H         -0.09903        1.55672       -4.42038
|  8> H         -0.25931        0.46828       -3.06292
|  9> H         -1.53664        0.57826       -4.25010
| 10> *
| 11>
| 12> %MaxCore 64000
| 13>
| 14> %pal nprocs 4
| 15> end
| 16>
| 17> %scf
| 18>   MaxIter 150
| 19> end
| 20>
| 21>
| 22>                          ****END OF INPUT****

CARTESIAN COORDINATES (ANGSTROEM)
---------------------------------
  C     -0.477490    0.608190   -4.101050
  C      0.184670   -0.506640   -4.916760
  O     -0.158690   -1.701090   -4.657980
  O      1.055940   -0.174410   -5.740370
  H     -0.099030    1.556720   -4.420380
  H     -0.259310    0.468280   -3.062920
  H     -1.536640    0.578260   -4.250100

 Total Charge           Charge          ....   -1
 Multiplicity           Mult            ....    1
 Number of Electrons    NEL             ....   32
 Basis Dimension        Dim             ....  110

ORBITAL ENERGIES
----------------

  NO   OCC          E(Eh)            E(eV)
   0   2.0000     -18.952162      -515.7146
   1   2.0000     -18.946456      -515.5593
   2   2.0000     -10.148372      -276.1512
   3   2.0000     -10.073194      -274.1055
   4   2.0000      -0.892527       -24.2869
   5   2.0000      -0.795355       -21.6427
   6   2.0000      -0.620496       -16.8846
   7   2.0000      -0.374851       -10.2002
   8   2.0000      -0.331655        -9.0248
   9   2.0000      -0.316611        -8.6154
  10   2.0000      -0.297478        -8.0948
  11   2.0000      -0.254857        -6.9350
  12   2.0000      -0.235955        -6.4207
  13   2.0000      -0.111910        -3.0452
  14   2.0000      -0.109134        -2.9697
  15   2.0000      -0.093895        -2.5550
  16   0.0000       0.199280         5.4227
  17   0.0000       0.238463         6.4889
  18   0.0000       0.257543         7.0081
  19   0.0000       0.269845         7.3428
  20   0.0000       0.294256         8.0071

MULLIKEN ATOMIC CHARGES
-----------------------
   0 C :    0.673566
   1 C :   -0.006265
   2 O :   -0.671429
   3 O :   -0.601208
   4 H :   -0.145280
   5 H :   -0.125473
   6 H :   -0.123912
Sum of atomic charges:   -1.0000000

LOEWDIN ATOMIC CHARGES
----------------------
   0 C :    0.144786
   1 C :   -0.341266
   2 O :   -0.354703
   3 O :   -0.330931
   4 H :   -0.043930
   5 H :   -0.036101
   6 H :   -0.037855

  Mayer bond orders larger than 0.100000
B(  0-C ,  1-C ) :   1.1788 B(  0-C ,  4-H ) :   0.8320 B(  0-C ,  5-H ) :   0.7888
B(  0-C ,  6-H ) :   0.7805 B(  1-C ,  2-O ) :   1.5101 B(  1-C ,  3-O ) :   1.5469
B(  1-C ,  4-H ) :   0.2738 B(  1-C ,  5-H ) :   0.1801 B(  1-C ,  6-H ) :   0.1877

FINAL SINGLE POINT ENERGY      -228.282351443080

DIPOLE MOMENT
-------------
                                X             Y             Z
Electronic contribution:      1.57810      -2.54242      -1.91255
Nuclear contribution   :     -2.19461       3.67480       2.63888
                        -----------------------------------------
Total Dipole Moment    :     -0.61650       1.13238       0.72634
                        -----------------------------------------
Magnitude (a.u.)       :      1.47984
Magnitude (Debye)      :      3.76145

Rotational constants in cm-1:     0.393152     0.332423     0.186264
Rotational constants in MHz : 11786.395082  9965.786704  5584.045355

                             ****ORCA TERMINATED NORMALLY****
TOTAL RUN TIME: 0 days 0 hours 0 minutes 11 seconds 332 msec
