                         Program Version 5.0.0 -  RELEASE  -
|  1> !CAM-B3LYP RIJCOSX def2-SVPD def2/J TightSCF
|  2> *xyz 1 1
|  3> C          2.48645       -2.67712       -2.56345
|  4> C          3.03764       -2.36672       -3.92351
|  5> N          2.28036       -2.45441       -4.96769
|  6> N          4.32174       -2.01793       -4.01664
|  7> H          4.87994       -1.91167       -3.17382
|  8> H          4.71015       -1.67088       -4.88356
|  9> H          1.27042       -2.41265       -4.86614
| 10> H          2.58183       -2.05528       -5.84688
| 11> H          1.45238       -2.93848       -2.64882
| 12> H          2.58636       -1.81799       -1.93352
| 13> H          3.02742       -3.49632       -2.13781
| 14> *
| 15>
| 16> %MaxCore 64000
| 17>
| 18> %pal nprocs 4
| 19> end
| 20>
| 21> %scf
| 22>   MaxIter 150
| 23> end
| 24>
| 25>
| 26>                          ****END OF INPUT****

CARTESIAN COORDINATES (ANGSTROEM)
---------------------------------
  C      2.486450   -2.677120   -2.563450
  C      3.037640   -2.366720   -3.923510
  N      2.280360   -2.454410   -4.967690
  N      4.321740   -2.017930   -4.016640
  H      4.879940   -1.911670   -3.173820
  H      4.710150   -1.670880   -4.883560
  H      1.270420   -2.412650   -4.866140
  H      2.581830   -2.055280   -5.846880
  H      1.452380   -2.938480   -2.648820
  H      2.586360   -1.817990   -1.933520
  H      3.027420   -3.496320   -2.137810

 Total Charge           Charge          ....    1
 Multiplicity           Mult            ....    1
 Number of Electrons    NEL             ....   32
 Basis Dimension        Dim             ....  136

ORBITAL ENERGIES
----------------

  NO   OCC          E(Eh)            E(eV)
   0   2.0000     -14.662558      -398.9885
   1   2.0000     -14.656704      -398.8292
   2   2.0000     -10.598700      -288.4053
   3   2.0000     -10.459452      -284.6162
   4   2.0000      -1.291991       -35.1569
   5   2.0000      -1.191974       -32.4353
   6   2.0000      -1.033502       -28.1230
   7   2.0000      -0.922578       -25.1046
   8   2.0000      -0.857362       -23.3300
   9   2.0000      -0.841593       -22.9009
  10   2.0000      -0.778252       -21.1773
  11   2.0000      -0.736541       -20.0423
  12   2.0000      -0.686636       -18.6843
  13   2.0000      -0.671780       -18.2801
  14   2.0000      -0.648658       -17.6509
  15   2.0000      -0.569176       -15.4881
  16   0.0000      -0.174930        -4.7601
  17   0.0000      -0.129802        -3.5321
  18   0.0000      -0.084862        -2.3092
  19   0.0000      -0.083492        -2.2719
  20   0.0000      -0.059465        -1.6181

MULLIKEN ATOMIC CHARGES
-----------------------
   0 C :    0.781734
   1 C :    0.170379
   2 N :    0.237731
   3 N :    0.213051
   4 H :   -0.021082
   5 H :   -0.158884
   6 H :   -0.005409
   7 H :   -0.109870
   8 H :   -0.027375
   9 H :   -0.044725
  10 H :   -0.035550
Sum of atomic charges:    1.0000000

LOEWDIN ATOMIC CHARGES
----------------------
   0 C :    0.234780
   1 C :   -0.067469
   2 N :    0.282807
   3 N :    0.281422
   4 H :    0.056757
   5 H :    0.044697
   6 H :    0.060918
   7 H :    0.052361
   8 H :    0.007629
   9 H :    0.022134
  10 H :    0.023963

  Mayer bond orders larger than 0.100000
B(  0-C ,  1-C ) :   1.2991 B(  0-C ,  8-H ) :   0.7355 B(  0-C ,  9-H ) :   0.7481
B(  0-C , 10-H ) :   0.6953 B(  1-C ,  2-N ) :   1.1734 B(  1-C ,  3-N ) :   1.1714
B(  1-C ,  5-H ) :  -0.1488 B(  1-C ,  7-H ) :  -0.1286 B(  1-C ,  8-H ) :   0.2948
B(  1-C ,  9-H ) :   0.1873 B(  1-C , 10-H ) :   0.2163 B(  2-N ,  3-N ) :   0.1342
B(  2-N ,  6-H ) :   1.0674 B(  2-N ,  7-H ) :   1.1892 B(  3-N ,  4-H ) :   1.1332
B(  3-N ,  5-H ) :   1.2377 B(  4-H ,  5-H ) :  -0.1592 B(  6-H ,  7-H ) :  -0.1274
B(  9-H , 10-H ) :   0.1070

FINAL SINGLE POINT ENERGY      -189.488861409359

DIPOLE MOMENT
-------------
                                X             Y             Z
Electronic contribution:      0.78846       0.25500      -1.97056
Nuclear contribution   :     -0.70516       0.22720       1.57908
                        -----------------------------------------
Total Dipole Moment    :      0.08330       0.48221      -0.39148
                        -----------------------------------------
Magnitude (a.u.)       :      0.62667
Magnitude (Debye)      :      1.59288

Rotational constants in cm-1:     0.330529     0.301293     0.162717
Rotational constants in MHz :  9909.000224  9032.538169  4878.126278

                             ****ORCA TERMINATED NORMALLY****
TOTAL RUN TIME: 0 days 0 hours 0 minutes 16 seconds 370 msec
