                         Program Version 5.0.0 -  RELEASE  -
|  1> !CAM-B3LYP RIJCOSX def2-SVPD def2/J TightSCF
|  2> *xyz 0 1
|  3> C         -0.47749        0.60819       -4.10105
|  4> C          0.18467       -0.50664       -4.91676
|  5> F         -0.15869       -1.70109       -4.65798
|  6> O          1.05594       -0.17441       -5.74037
|  7> H         -0.09903        1.55672       -4.42038
|  8> H         -0.25931        0.46828       -3.06292
|  9> H         -1.53664        0.57826       -4.25010
| 10> *
| 11>
| 12> %MaxCore 64000
| 13>
| 14> %pal nprocs 4
| 15> end
| 16>
| 17> %scf
| 18>   MaxIter 150
| 19> end
| 20>
| 21>
| 22>                          ****END OF INPUT****

CARTESIAN COORDINATES (ANGSTROEM)
---------------------------------
  C     -0.477490    0.608190   -4.101050
  C      0.184670   -0.506640   -4.916760
  F     -0.158690   -1.701090   -4.657980
  O      1.055940   -0.174410   -5.740370
  H     -0.099030    1.556720   -4.420380
  H     -0.259310    0.468280   -3.062920
  H     -1.536640    0.578260   -4.250100

 Total Charge           Charge          ....    0
 Multiplicity           Mult            ....    1
 Number of Electrons    NEL             ....   32
 Basis Dimension        Dim             ....  110

ORBITAL ENERGIES
----------------

  NO   OCC          E(Eh)            E(eV)
   0   2.0000     -24.846149      -676.0981
   1   2.0000     -19.231168      -523.3067
   2   2.0000     -10.452674      -284.4317
   3   2.0000     -10.289977      -280.0045
   4   2.0000      -1.384837       -37.6833
   5   2.0000      -1.120010       -30.4770
   6   2.0000      -0.851830       -23.1795
   7   2.0000      -0.734476       -19.9861
   8   2.0000      -0.626758       -17.0549
   9   2.0000      -0.622130       -16.9290
  10   2.0000      -0.579781       -15.7766
  11   2.0000      -0.517904       -14.0929
  12   2.0000      -0.507384       -13.8066
  13   2.0000      -0.480522       -13.0757
  14   2.0000      -0.433473       -11.7954
  15   2.0000      -0.370954       -10.0942
  16   0.0000       0.017626         0.4796
  17   0.0000       0.039901         1.0858
  18   0.0000       0.083331         2.2675
  19   0.0000       0.112627         3.0647
  20   0.0000       0.120387         3.2759

MULLIKEN ATOMIC CHARGES
-----------------------
   0 C :    0.617452
   1 C :    0.358020
   2 F :   -0.364123
   3 O :   -0.398830
   4 H :   -0.117196
   5 H :   -0.046364
   6 H :   -0.048959
Sum of atomic charges:    0.0000000

LOEWDIN ATOMIC CHARGES
----------------------
   0 C :    0.217243
   1 C :   -0.038822
   2 F :   -0.044179
   3 O :   -0.129488
   4 H :   -0.000762
   5 H :   -0.000989
   6 H :   -0.003003

  Mayer bond orders larger than 0.100000
B(  0-C ,  1-C ) :   1.2089 B(  0-C ,  4-H ) :   0.8551 B(  0-C ,  5-H ) :   0.7855
B(  0-C ,  6-H ) :   0.7805 B(  1-C ,  2-F ) :   0.7818 B(  1-C ,  3-O ) :   1.8967
B(  1-C ,  4-H ) :   0.2330 B(  1-C ,  5-H ) :   0.1412 B(  1-C ,  6-H ) :   0.1458

FINAL SINGLE POINT ENERGY      -252.819877014797

DIPOLE MOMENT
-------------
                                X             Y             Z
Electronic contribution:      1.07318      -4.65185      -1.60536
Nuclear contribution   :     -1.87439       4.97468       2.43802
                        -----------------------------------------
Total Dipole Moment    :     -0.80121       0.32283       0.83265
                        -----------------------------------------
Magnitude (a.u.)       :      1.19978
Magnitude (Debye)      :      3.04960

Rotational constants in cm-1:     0.370842     0.317886     0.176700
Rotational constants in MHz : 11117.569466  9529.969862  5297.328364

                             ****ORCA TERMINATED NORMALLY****
TOTAL RUN TIME: 0 days 0 hours 0 minutes 11 seconds 314 msec
