                         Program Version 5.0.0 -  RELEASE  -
|  1> !CAM-B3LYP RIJCOSX def2-SVPD def2/J TightSCF
|  2> *xyz 0 1
|  3> C          2.48645       -2.67712       -2.56345
|  4> C          3.03764       -2.36672       -3.92351
|  5> C          2.28036       -2.45441       -4.96769
|  6> N          4.32174       -2.01793       -4.01664
|  7> H          4.87994       -1.91167       -3.17382
|  8> H          4.71015       -1.67088       -4.88356
|  9> H          1.27042       -2.41265       -4.86614
| 10> H          2.58183       -2.05528       -5.84688
| 11> H          1.45238       -2.93848       -2.64882
| 12> H          2.58636       -1.81799       -1.93352
| 13> H          3.02742       -3.49632       -2.13781
| 14> *
| 15>
| 16> %MaxCore 64000
| 17>
| 18> %pal nprocs 4
| 19> end
| 20>
| 21> %scf
| 22>   MaxIter 150
| 23> end
| 24>
| 25>
| 26>                          ****END OF INPUT****

CARTESIAN COORDINATES (ANGSTROEM)
---------------------------------
  C      2.486450   -2.677120   -2.563450
  C      3.037640   -2.366720   -3.923510
  C      2.280360   -2.454410   -4.967690
  N      4.321740   -2.017930   -4.016640
  H      4.879940   -1.911670   -3.173820
  H      4.710150   -1.670880   -4.883560
  H      1.270420   -2.412650   -4.866140
  H      2.581830   -2.055280   -5.846880
  H      1.452380   -2.938480   -2.648820
  H      2.586360   -1.817990   -1.933520
  H      3.027420   -3.496320   -2.137810

 Total Charge           Charge          ....    0
 Multiplicity           Mult            ....    1
 Number of Electrons    NEL             ....   32
 Basis Dimension        Dim             ....  136

ORBITAL ENERGIES
----------------

  NO   OCC          E(Eh)            E(eV)
   0   2.0000     -14.406637      -392.0245
   1   2.0000     -10.283923      -279.8398
   2   2.0000     -10.249787      -278.9109
   3   2.0000     -10.189977      -277.2834
   4   2.0000      -1.000459       -27.2239
   5   2.0000      -0.836597       -22.7649
   6   2.0000      -0.768635       -20.9156
   7   2.0000      -0.644085       -17.5264
   8   2.0000      -0.594846       -16.1866
   9   2.0000      -0.547616       -14.9014
  10   2.0000      -0.504156       -13.7188
  11   2.0000      -0.464945       -12.6518
  12   2.0000      -0.463228       -12.6051
  13   2.0000      -0.414682       -11.2841
  14   2.0000      -0.401628       -10.9288
  15   2.0000      -0.257947        -7.0191
  16   0.0000       0.049494         1.3468
  17   0.0000       0.083939         2.2841
  18   0.0000       0.088176         2.3994
  19   0.0000       0.093199         2.5361
  20   0.0000       0.124317         3.3828

MULLIKEN ATOMIC CHARGES
-----------------------
   0 C :    0.993882
   1 C :   -0.498322
   2 C :    0.488880
   3 N :    0.304000
   4 H :   -0.208055
   5 H :   -0.207193
   6 H :   -0.170917
   7 H :   -0.461985
   8 H :   -0.032946
   9 H :   -0.122691
  10 H :   -0.084653
Sum of atomic charges:    0.0000000

LOEWDIN ATOMIC CHARGES
----------------------
   0 C :    0.164992
   1 C :   -0.290459
   2 C :    0.156111
   3 N :    0.168834
   4 H :   -0.000828
   5 H :    0.002115
   6 H :   -0.078360
   7 H :   -0.084731
   8 H :   -0.013420
   9 H :   -0.012628
  10 H :   -0.011624

  Mayer bond orders larger than 0.100000
B(  0-C ,  1-C ) :   1.3340 B(  0-C ,  8-H ) :   0.7565 B(  0-C ,  9-H ) :   0.5473
B(  0-C , 10-H ) :   0.6527 B(  1-C ,  2-C ) :   1.9422 B(  1-C ,  3-N ) :   1.1677
B(  1-C ,  7-H ) :   0.2498 B(  1-C ,  8-H ) :   0.2658 B(  1-C ,  9-H ) :   0.3703
B(  1-C , 10-H ) :   0.2631 B(  2-C ,  3-N ) :   0.2685 B(  2-C ,  6-H ) :   0.8046
B(  2-C ,  7-H ) :   0.6138 B(  3-N ,  4-H ) :   1.1818 B(  3-N ,  5-H ) :   1.1866
B(  4-H ,  5-H ) :  -0.1425 B(  6-H ,  7-H ) :   0.2306

FINAL SINGLE POINT ENERGY      -173.032470702856

DIPOLE MOMENT
-------------
                                X             Y             Z
Electronic contribution:      1.43053       0.18439      -0.90622
Nuclear contribution   :     -0.87498       0.20680       1.33581
                        -----------------------------------------
Total Dipole Moment    :      0.55555       0.39119       0.42959
                        -----------------------------------------
Magnitude (a.u.)       :      0.80387
Magnitude (Debye)      :      2.04328

Rotational constants in cm-1:     0.351941     0.304186     0.168624
Rotational constants in MHz : 10550.928440  9119.266441  5055.221775

                             ****ORCA TERMINATED NORMALLY****
TOTAL RUN TIME: 0 days 0 hours 0 minutes 16 seconds 774 msec
