                         Program Version 5.0.0 -  RELEASE  -
|  1> !CAM-B3LYP RIJCOSX def2-SVPD def2/J TightSCF
|  2> *xyz 0 1
|  3> C         -0.47749        0.60819       -4.10105
|  4> C          0.18467       -0.50664       -4.91676
|  5> O         -0.15869       -1.70109       -4.65798
|  6> F          1.05594       -0.17441       -5.74037
|  7> H         -0.09903        1.55672       -4.42038
|  8> H         -0.25931        0.46828       -3.06292
|  9> H         -1.53664        0.57826       -4.25010
| 10> *
| 11>
| 12> %MaxCore 64000
| 13>
| 14> %pal nprocs 4
| 15> end
| 16>
| 17> %scf
| 18>   MaxIter 150
| 19> end
| 20>
| 21>
| 22>                          ****END OF INPUT****

CARTESIAN COORDINATES (ANGSTROEM)
---------------------------------
  C     -0.477490    0.608190   -4.101050
  C      0.184670   -0.506640   -4.916760
  O     -0.158690   -1.701090   -4.657980
  F      1.055940   -0.174410   -5.740370
  H     -0.099030    1.556720   -4.420380
  H     -0.259310    0.468280   -3.062920
  H     -1.536640    0.578260   -4.250100

 Total Charge           Charge          ....    0
 Multiplicity           Mult            ....    1
 Number of Electrons    NEL             ....   32
 Basis Dimension        Dim             ....  110

ORBITAL ENERGIES
----------------

  NO   OCC          E(Eh)            E(eV)
   0   2.0000     -24.855309      -676.3473
   1   2.0000     -19.226907      -523.1907
   2   2.0000     -10.455054      -284.4965
   3   2.0000     -10.290398      -280.0160
   4   2.0000      -1.404044       -38.2060
   5   2.0000      -1.103784       -30.0355
   6   2.0000      -0.853065       -23.2131
   7   2.0000      -0.744927       -20.2705
   8   2.0000      -0.637151       -17.3378
   9   2.0000      -0.631415       -17.1817
  10   2.0000      -0.579491       -15.7687
  11   2.0000      -0.519321       -14.1315
  12   2.0000      -0.506084       -13.7713
  13   2.0000      -0.476626       -12.9696
  14   2.0000      -0.421634       -11.4732
  15   2.0000      -0.367440        -9.9985
  16   0.0000       0.011622         0.3162
  17   0.0000       0.039353         1.0708
  18   0.0000       0.082935         2.2568
  19   0.0000       0.115663         3.1473
  20   0.0000       0.117024         3.1844

MULLIKEN ATOMIC CHARGES
-----------------------
   0 C :    0.599626
   1 C :    0.349071
   2 O :   -0.453285
   3 F :   -0.310079
   4 H :   -0.099689
   5 H :   -0.041121
   6 H :   -0.044524
Sum of atomic charges:    0.0000000

LOEWDIN ATOMIC CHARGES
----------------------
   0 C :    0.217299
   1 C :   -0.038368
   2 O :   -0.146741
   3 F :   -0.027397
   4 H :   -0.013409
   5 H :    0.004786
   6 H :    0.003830

  Mayer bond orders larger than 0.100000
B(  0-C ,  1-C ) :   1.2332 B(  0-C ,  4-H ) :   0.8533 B(  0-C ,  5-H ) :   0.7854
B(  0-C ,  6-H ) :   0.7767 B(  1-C ,  2-O ) :   1.8418 B(  1-C ,  3-F ) :   0.8566
B(  1-C ,  4-H ) :   0.1729 B(  1-C ,  5-H ) :   0.1558 B(  1-C ,  6-H ) :   0.1660

FINAL SINGLE POINT ENERGY      -252.812174310984

DIPOLE MOMENT
-------------
                                X             Y             Z
Electronic contribution:      3.05757      -2.15970      -3.37399
Nuclear contribution   :     -3.12947       3.39716       3.55645
                        -----------------------------------------
Total Dipole Moment    :     -0.07190       1.23747       0.18246
                        -----------------------------------------
Magnitude (a.u.)       :      1.25291
Magnitude (Debye)      :      3.18464

Rotational constants in cm-1:     0.366922     0.321471     0.176896
Rotational constants in MHz : 11000.056350  9637.461211  5303.212706

                             ****ORCA TERMINATED NORMALLY****
TOTAL RUN TIME: 0 days 0 hours 0 minutes 11 seconds 41 msec
