                         Program Version 5.0.0 -  RELEASE  -
|  1> !CAM-B3LYP RIJCOSX def2-SVPD def2/J TightSCF
|  2> *xyz 0 1
|  3> C          2.48645       -2.67712       -2.56345
|  4> C          3.03764       -2.36672       -3.92351
|  5> N          2.28036       -2.45441       -4.96769
|  6> C          4.32174       -2.01793       -4.01664
|  7> H          4.87994       -1.91167       -3.17382
|  8> H          4.71015       -1.67088       -4.88356
|  9> H          1.27042       -2.41265       -4.86614
| 10> H          2.58183       -2.05528       -5.84688
| 11> H          1.45238       -2.93848       -2.64882
| 12> H          2.58636       -1.81799       -1.93352
| 13> H          3.02742       -3.49632       -2.13781
| 14> *
| 15>
| 16> %MaxCore 64000
| 17>
| 18> %pal nprocs 4
| 19> end
| 20>
| 21> %scf
| 22>   MaxIter 150
| 23> end
| 24>
| 25>
| 26>                          ****END OF INPUT****

CARTESIAN COORDINATES (ANGSTROEM)
---------------------------------
  C      2.486450   -2.677120   -2.563450
  C      3.037640   -2.366720   -3.923510
  N      2.280360   -2.454410   -4.967690
  C      4.321740   -2.017930   -4.016640
  H      4.879940   -1.911670   -3.173820
  H      4.710150   -1.670880   -4.883560
  H      1.270420   -2.412650   -4.866140
  H      2.581830   -2.055280   -5.846880
  H      1.452380   -2.938480   -2.648820
  H      2.586360   -1.817990   -1.933520
  H      3.027420   -3.496320   -2.137810

 Total Charge           Charge          ....    0
 Multiplicity           Mult            ....    1
 Number of Electrons    NEL             ....   32
 Basis Dimension        Dim             ....  136

ORBITAL ENERGIES
----------------

  NO   OCC          E(Eh)            E(eV)
   0   2.0000     -14.410633      -392.1333
   1   2.0000     -10.283756      -279.8352
   2   2.0000     -10.250085      -278.9190
   3   2.0000     -10.189275      -277.2643
   4   2.0000      -1.016276       -27.6543
   5   2.0000      -0.833237       -22.6735
   6   2.0000      -0.761150       -20.7120
   7   2.0000      -0.653430       -17.7807
   8   2.0000      -0.595225       -16.1969
   9   2.0000      -0.544748       -14.8234
  10   2.0000      -0.502994       -13.6872
  11   2.0000      -0.465004       -12.6534
  12   2.0000      -0.459016       -12.4905
  13   2.0000      -0.419828       -11.4241
  14   2.0000      -0.411036       -11.1849
  15   2.0000      -0.247247        -6.7279
  16   0.0000       0.048817         1.3284
  17   0.0000       0.081251         2.2110
  18   0.0000       0.086965         2.3664
  19   0.0000       0.090983         2.4758
  20   0.0000       0.119618         3.2550

MULLIKEN ATOMIC CHARGES
-----------------------
   0 C :    1.004506
   1 C :   -0.467164
   2 N :    0.280803
   3 C :    0.524543
   4 H :   -0.295288
   5 H :   -0.494470
   6 H :   -0.116093
   7 H :   -0.139588
   8 H :   -0.183344
   9 H :   -0.058936
  10 H :   -0.054968
Sum of atomic charges:   -0.0000000

LOEWDIN ATOMIC CHARGES
----------------------
   0 C :    0.166916
   1 C :   -0.293649
   2 N :    0.163487
   3 C :    0.166333
   4 H :   -0.082111
   5 H :   -0.094095
   6 H :    0.003018
   7 H :    0.010047
   8 H :   -0.027056
   9 H :   -0.006946
  10 H :   -0.005943

  Mayer bond orders larger than 0.100000
B(  0-C ,  1-C ) :   1.1044 B(  0-C ,  8-H ) :   0.6384 B(  0-C ,  9-H ) :   0.7110
B(  0-C , 10-H ) :   0.6726 B(  1-C ,  2-N ) :   1.1048 B(  1-C ,  3-C ) :   1.7787
B(  1-C ,  4-H ) :   0.1092 B(  1-C ,  5-H ) :   0.1522 B(  1-C ,  8-H ) :   0.3558
B(  1-C ,  9-H ) :   0.2051 B(  1-C , 10-H ) :   0.2263 B(  2-N ,  3-C ) :   0.2341
B(  2-N ,  6-H ) :   1.0431 B(  2-N ,  7-H ) :   1.1306 B(  3-C ,  4-H ) :   0.7978
B(  3-C ,  5-H ) :   0.7646 B(  6-H ,  7-H ) :  -0.1142

FINAL SINGLE POINT ENERGY      -173.032430593528

DIPOLE MOMENT
-------------
                                X             Y             Z
Electronic contribution:     -0.38021      -0.12690      -1.72899
Nuclear contribution   :     -0.41717       0.30469       1.54910
                        -----------------------------------------
Total Dipole Moment    :     -0.79738       0.17779      -0.17989
                        -----------------------------------------
Magnitude (a.u.)       :      0.83653
Magnitude (Debye)      :      2.12629

Rotational constants in cm-1:     0.351587     0.304754     0.168726
Rotational constants in MHz : 10540.302868  9136.286689  5058.281984

                             ****ORCA TERMINATED NORMALLY****
TOTAL RUN TIME: 0 days 0 hours 0 minutes 16 seconds 454 msec
