                         Program Version 5.0.0 -  RELEASE  -
|  1> !CAM-B3LYP RIJCOSX def2-SVPD def2/J TightSCF xyzfile
|  2>
|  3> *xyzfile 0 1 D1.xyz
|  4>
|  5> %MaxCore 64000
|  6>
|  7> %pal nprocs 4
|  8> end
|  9>
| 10> %scf
| 11>   MaxIter 150
| 12> end
| 13>
| 14>
| 15>                          ****END OF INPUT****

CARTESIAN COORDINATES (ANGSTROEM)
---------------------------------
  C      2.486452   -2.677121   -2.563447
  C     -0.870963    0.248043   -2.662804
  C     -0.477492    0.608191   -4.101052
  H      0.206773    1.458299   -4.118748
  H     -1.368442    0.929419   -4.647855
  C      0.184673   -0.506640   -4.916760
  C      3.037640   -2.366715   -3.923509
  C      2.280360   -2.454408   -4.967692
  N      4.321736   -2.017932   -4.016641
  H      4.879940   -1.911668   -3.173823
  H      4.710148   -1.670882   -4.883561
  H      1.270423   -2.412650   -4.866143
  H      2.581829   -2.055282   -5.846878
  F     -0.158685   -1.701088   -4.657981
  O      1.055938   -0.174410   -5.740373
  C      2.497991   -1.469464   -1.610303
  C      1.582841   -0.321986   -2.042619
  H      2.193083   -1.833912   -0.625420
  H      3.523356   -1.103982   -1.490392
  C      0.100160   -0.673551   -1.915815
  H      1.822311   -0.040361   -3.072834
  H      1.813180    0.557019   -1.433266
  H     -0.063284   -1.679120   -2.301112
  H     -0.168820   -0.691680   -0.853831
  H     -1.001048    1.181040   -2.104071
  H     -1.844645   -0.246592   -2.663281
  H      1.472592   -3.051527   -2.694366
  H      3.083201   -3.490638   -2.141472

 Total Charge           Charge          ....    0
 Multiplicity           Mult            ....    1
 Number of Electrons    NEL             ....   94
 Basis Dimension        Dim             ....  374

ORBITAL ENERGIES
----------------

  NO   OCC          E(Eh)            E(eV)
   0   2.0000     -24.845022      -676.0674
   1   2.0000     -19.224749      -523.1320
   2   2.0000     -14.394320      -391.6894
   3   2.0000     -10.445110      -284.2259
   4   2.0000     -10.289251      -279.9848
   5   2.0000     -10.273152      -279.5467
   6   2.0000     -10.265231      -279.3311
   7   2.0000     -10.260756      -279.2094
   8   2.0000     -10.257796      -279.1288
   9   2.0000     -10.256572      -279.0955
  10   2.0000     -10.251462      -278.9565
  11   2.0000     -10.168312      -276.6938
  12   2.0000      -1.389388       -37.8072
  13   2.0000      -1.115703       -30.3598
  14   2.0000      -0.989051       -26.9135
  15   2.0000      -0.906453       -24.6658
  16   2.0000      -0.870304       -23.6822
  17   2.0000      -0.819933       -22.3115
  18   2.0000      -0.797800       -21.7092
  19   2.0000      -0.752464       -20.4756
  20   2.0000      -0.733916       -19.9709
  21   2.0000      -0.692954       -18.8562
  22   2.0000      -0.654350       -17.8058
  23   2.0000      -0.649610       -17.6768
  24   2.0000      -0.627002       -17.0616
  25   2.0000      -0.611239       -16.6327
  26   2.0000      -0.581888       -15.8340
  27   2.0000      -0.567216       -15.4347
  28   2.0000      -0.553274       -15.0553
  29   2.0000      -0.543603       -14.7922
  30   2.0000      -0.529458       -14.4073
  31   2.0000      -0.512679       -13.9507
  32   2.0000      -0.501750       -13.6533
  33   2.0000      -0.484460       -13.1828
  34   2.0000      -0.473857       -12.8943
  35   2.0000      -0.457980       -12.4623
  36   2.0000      -0.445234       -12.1154
  37   2.0000      -0.441672       -12.0185
  38   2.0000      -0.425362       -11.5747
  39   2.0000      -0.419496       -11.4151
  40   2.0000      -0.406758       -11.0685
  41   2.0000      -0.401502       -10.9254
  42   2.0000      -0.384656       -10.4670
  43   2.0000      -0.379674       -10.3315
  44   2.0000      -0.375624       -10.2212
  45   2.0000      -0.359030        -9.7697
  46   2.0000      -0.242029        -6.5860
  47   0.0000       0.016614         0.4521
  48   0.0000       0.042578         1.1586
  49   0.0000       0.053995         1.4693
  50   0.0000       0.064730         1.7614
  51   0.0000       0.069237         1.8840

MULLIKEN ATOMIC CHARGES
-----------------------
   0 C :    0.428555
   1 C :    0.682178
   2 C :    0.387893
   3 H :    0.138055
   4 H :   -0.355095
   5 C :    0.392606
   6 C :   -0.268252
   7 C :    1.320597
   8 N :    0.318375
   9 H :   -0.133976
  10 H :   -0.216820
  11 H :   -0.635763
  12 H :   -0.467565
  13 F :   -0.592592
  14 O :   -0.431582
  15 C :    0.476008
  16 C :    0.386118
  17 H :   -0.172301
  18 H :   -0.156837
  19 C :    0.175353
  20 H :   -0.218671
  21 H :   -0.259933
  22 H :   -0.124714
  23 H :   -0.245783
  24 H :   -0.189921
  25 H :   -0.042507
  26 H :    0.049598
  27 H :   -0.243025
Sum of atomic charges:   -0.0000000

LOEWDIN ATOMIC CHARGES
----------------------
   0 C :    0.022634
   1 C :   -0.016705
   2 C :    0.060131
   3 H :    0.037590
   4 H :    0.039007
   5 C :   -0.001282
   6 C :   -0.241763
   7 C :    0.178539
   8 N :    0.180769
   9 H :   -0.009298
  10 H :    0.004264
  11 H :   -0.137892
  12 H :   -0.069537
  13 F :   -0.053130
  14 O :   -0.111955
  15 C :   -0.018787
  16 C :   -0.012286
  17 H :    0.021356
  18 H :    0.010886
  19 C :   -0.026120
  20 H :    0.008581
  21 H :    0.026547
  22 H :   -0.005485
  23 H :    0.028523
  24 H :    0.025082
  25 H :    0.023298
  26 H :    0.010929
  27 H :    0.026102

  Mayer bond orders larger than 0.100000
B(  0-C ,  6-C ) :   1.2162 B(  0-C ,  7-C ) :   0.1636 B(  0-C ,  8-N ) :   0.1253
B(  0-C , 15-C ) :   1.0820 B(  0-C , 16-C ) :   0.1184 B(  0-C , 17-H ) :   0.2084
B(  0-C , 18-H ) :   0.2231 B(  0-C , 26-H ) :   0.7255 B(  0-C , 27-H ) :   0.7756
B(  1-C ,  2-C ) :   1.1390 B(  1-C ,  4-H ) :   0.1231 B(  1-C , 19-C ) :   1.2686
B(  1-C , 24-H ) :   0.7137 B(  1-C , 25-H ) :   0.6273 B(  2-C ,  3-H ) :   0.7679
B(  2-C ,  4-H ) :   0.6764 B(  2-C ,  5-C ) :   1.1848 B(  2-C , 19-C ) :   0.1223
B(  2-C , 24-H ) :   0.1425 B(  3-H ,  5-C ) :   0.2476 B(  4-H ,  5-C ) :   0.3081
B(  5-C , 13-F ) :   0.6361 B(  5-C , 14-O ) :   1.8503 B(  6-C ,  7-C ) :   1.9519
B(  6-C ,  8-N ) :   1.1326 B(  6-C , 11-H ) :   0.2620 B(  6-C , 12-H ) :   0.5241
B(  6-C , 15-C ) :   0.1761 B(  6-C , 20-H ) :   0.1037 B(  6-C , 26-H ) :   0.1982
B(  6-C , 27-H ) :   0.2283 B(  7-C ,  8-N ) :   0.4207 B(  7-C , 11-H ) :   0.1507
B(  7-C , 26-H ) :  -0.1626 B(  8-N ,  9-H ) :   1.1449 B(  8-N , 10-H ) :   1.1780
B(  9-H , 10-H ) :  -0.1696 B( 11-H , 12-H ) :   0.3173 B( 11-H , 13-F ) :   0.2618
B( 13-F , 14-O ) :   0.1302 B( 15-C , 16-C ) :   1.1918 B( 15-C , 17-H ) :   0.8020
B( 15-C , 18-H ) :   0.6299 B( 15-C , 20-H ) :   0.1803 B( 15-C , 21-H ) :   0.1053
B( 15-C , 26-H ) :   0.1762 B( 16-C , 18-H ) :   0.2506 B( 16-C , 19-C ) :   1.1490
B( 16-C , 20-H ) :   0.7863 B( 16-C , 21-H ) :   0.7826 B( 16-C , 22-H ) :   0.1230
B( 16-C , 23-H ) :   0.2447 B( 16-C , 26-H ) :  -0.1146 B( 17-H , 18-H ) :  -0.1002
B( 19-C , 20-H ) :   0.1495 B( 19-C , 21-H ) :   0.1176 B( 19-C , 22-H ) :   0.8193
B( 19-C , 23-H ) :   0.7513 B( 19-C , 24-H ) :   0.2139 B( 19-C , 25-H ) :   0.2532
B( 22-H , 26-H ) :   0.1373 B( 24-H , 25-H ) :  -0.1266

FINAL SINGLE POINT ENERGY      -581.677906207036

DIPOLE MOMENT
-------------
                                X             Y             Z
Electronic contribution:     -3.71995      -1.61997     -10.21393
Nuclear contribution   :      3.32973       2.37270      11.37738
                        -----------------------------------------
Total Dipole Moment    :     -0.39023       0.75273       1.16345
                        -----------------------------------------
Magnitude (a.u.)       :      1.43962
Magnitude (Debye)      :      3.65921

Rotational constants in cm-1:     0.040902     0.025807     0.019036
Rotational constants in MHz :  1226.202138   773.670450   570.681201

                             ****ORCA TERMINATED NORMALLY****
TOTAL RUN TIME: 0 days 0 hours 3 minutes 25 seconds 33 msec
