                         Program Version 5.0.0 -  RELEASE  -
|  1> !CAM-B3LYP RIJCOSX def2-SVPD def2/J TightSCF xyzfile
|  2>
|  3> *xyzfile 0 1 D3.xyz
|  4>
|  5> %MaxCore 64000
|  6>
|  7> %pal nprocs 4
|  8> end
|  9>
| 10> %scf
| 11>   MaxIter 150
| 12> end
| 13>
| 14>
| 15>                          ****END OF INPUT****

CARTESIAN COORDINATES (ANGSTROEM)
---------------------------------
  C      2.486452   -2.677121   -2.563447
  C     -0.870963    0.248043   -2.662804
  C     -0.477492    0.608191   -4.101052
  H      0.206773    1.458299   -4.118748
  H     -1.368442    0.929419   -4.647855
  C      0.184673   -0.506640   -4.916760
  C      3.037640   -2.366715   -3.923509
  C      2.280360   -2.454408   -4.967692
  N      4.321736   -2.017932   -4.016641
  H      4.879940   -1.911668   -3.173823
  H      4.710148   -1.670882   -4.883561
  H      1.270423   -2.412650   -4.866143
  H      2.581829   -2.055282   -5.846878
  O     -0.158685   -1.701088   -4.657981
  F      1.055938   -0.174410   -5.740373
  C      2.497991   -1.469464   -1.610303
  C      1.582841   -0.321986   -2.042619
  H      2.193083   -1.833912   -0.625420
  H      3.523356   -1.103982   -1.490392
  C      0.100160   -0.673551   -1.915815
  H      1.822311   -0.040361   -3.072834
  H      1.813180    0.557019   -1.433266
  H     -0.063284   -1.679120   -2.301112
  H     -0.168820   -0.691680   -0.853831
  H     -1.001048    1.181040   -2.104071
  H     -1.844645   -0.246592   -2.663281
  H      1.472592   -3.051527   -2.694366
  H      3.083201   -3.490638   -2.141472

 Total Charge           Charge          ....    0
 Multiplicity           Mult            ....    1
 Number of Electrons    NEL             ....   94
 Basis Dimension        Dim             ....  374

ORBITAL ENERGIES
----------------

  NO   OCC          E(Eh)            E(eV)
   0   2.0000     -24.852480      -676.2704
   1   2.0000     -19.222649      -523.0749
   2   2.0000     -14.393204      -391.6590
   3   2.0000     -10.450378      -284.3692
   4   2.0000     -10.291875      -280.0562
   5   2.0000     -10.269989      -279.4606
   6   2.0000     -10.262637      -279.2605
   7   2.0000     -10.254731      -279.0454
   8   2.0000     -10.254590      -279.0416
   9   2.0000     -10.251688      -278.9626
  10   2.0000     -10.246136      -278.8115
  11   2.0000     -10.160455      -276.4800
  12   2.0000      -1.400747       -38.1163
  13   2.0000      -1.110177       -30.2095
  14   2.0000      -0.987612       -26.8743
  15   2.0000      -0.900945       -24.5160
  16   2.0000      -0.867634       -23.6095
  17   2.0000      -0.818216       -22.2648
  18   2.0000      -0.795265       -21.6403
  19   2.0000      -0.755575       -20.5602
  20   2.0000      -0.730584       -19.8802
  21   2.0000      -0.688961       -18.7476
  22   2.0000      -0.650319       -17.6961
  23   2.0000      -0.641351       -17.4520
  24   2.0000      -0.626477       -17.0473
  25   2.0000      -0.606607       -16.5066
  26   2.0000      -0.592755       -16.1297
  27   2.0000      -0.579208       -15.7610
  28   2.0000      -0.550631       -14.9834
  29   2.0000      -0.542562       -14.7639
  30   2.0000      -0.525207       -14.2916
  31   2.0000      -0.510272       -13.8852
  32   2.0000      -0.503853       -13.7105
  33   2.0000      -0.474205       -12.9038
  34   2.0000      -0.468170       -12.7396
  35   2.0000      -0.465264       -12.6605
  36   2.0000      -0.446248       -12.1430
  37   2.0000      -0.434191       -11.8149
  38   2.0000      -0.424606       -11.5541
  39   2.0000      -0.422441       -11.4952
  40   2.0000      -0.402488       -10.9522
  41   2.0000      -0.395452       -10.7608
  42   2.0000      -0.382463       -10.4074
  43   2.0000      -0.376643       -10.2490
  44   2.0000      -0.375178       -10.2091
  45   2.0000      -0.335569        -9.1313
  46   2.0000      -0.240691        -6.5495
  47   0.0000       0.011368         0.3093
  48   0.0000       0.043594         1.1862
  49   0.0000       0.055731         1.5165
  50   0.0000       0.063050         1.7157
  51   0.0000       0.071462         1.9446

MULLIKEN ATOMIC CHARGES
-----------------------
   0 C :    0.434952
   1 C :    0.681609
   2 C :    0.384826
   3 H :    0.147778
   4 H :   -0.351478
   5 C :    0.445062
   6 C :   -0.292660
   7 C :    1.235390
   8 N :    0.322252
   9 H :   -0.132123
  10 H :   -0.218399
  11 H :   -0.563355
  12 H :   -0.492080
  13 O :   -0.666738
  14 F :   -0.380848
  15 C :    0.457232
  16 C :    0.335847
  17 H :   -0.167707
  18 H :   -0.165956
  19 C :    0.154894
  20 H :   -0.186559
  21 H :   -0.263762
  22 H :   -0.085797
  23 H :   -0.269941
  24 H :   -0.185473
  25 H :   -0.006955
  26 H :    0.067301
  27 H :   -0.237314
Sum of atomic charges:    0.0000000

LOEWDIN ATOMIC CHARGES
----------------------
   0 C :    0.026642
   1 C :   -0.005952
   2 C :    0.053201
   3 H :    0.027975
   4 H :    0.039528
   5 C :    0.018896
   6 C :   -0.243282
   7 C :    0.176972
   8 N :    0.175931
   9 H :   -0.010368
  10 H :    0.000516
  11 H :   -0.169176
  12 H :   -0.071297
  13 O :   -0.131874
  14 F :   -0.009165
  15 C :   -0.018457
  16 C :   -0.015339
  17 H :    0.022160
  18 H :    0.009335
  19 C :   -0.022890
  20 H :    0.005058
  21 H :    0.024700
  22 H :   -0.005835
  23 H :    0.028045
  24 H :    0.025160
  25 H :    0.028197
  26 H :    0.015624
  27 H :    0.025694

  Mayer bond orders larger than 0.100000
B(  0-C ,  6-C ) :   1.2389 B(  0-C ,  7-C ) :   0.1640 B(  0-C ,  8-N ) :   0.1266
B(  0-C , 15-C ) :   1.0838 B(  0-C , 16-C ) :   0.1215 B(  0-C , 17-H ) :   0.2099
B(  0-C , 18-H ) :   0.2201 B(  0-C , 26-H ) :   0.7333 B(  0-C , 27-H ) :   0.7566
B(  1-C ,  2-C ) :   1.1688 B(  1-C ,  3-H ) :   0.1122 B(  1-C ,  4-H ) :   0.1429
B(  1-C , 19-C ) :   1.2735 B(  1-C , 24-H ) :   0.6937 B(  1-C , 25-H ) :   0.6151
B(  2-C ,  3-H ) :   0.7753 B(  2-C ,  4-H ) :   0.6413 B(  2-C ,  5-C ) :   1.2079
B(  2-C , 19-C ) :   0.1374 B(  2-C , 24-H ) :   0.1603 B(  3-H ,  4-H ) :  -0.1002
B(  3-H ,  5-C ) :   0.1765 B(  4-H ,  5-C ) :   0.3261 B(  5-C , 13-O ) :   1.7174
B(  5-C , 14-F ) :   0.7045 B(  6-C ,  7-C ) :   1.9750 B(  6-C ,  8-N ) :   1.1350
B(  6-C , 11-H ) :   0.2356 B(  6-C , 12-H ) :   0.5139 B(  6-C , 15-C ) :   0.1759
B(  6-C , 20-H ) :   0.1042 B(  6-C , 26-H ) :   0.1903 B(  6-C , 27-H ) :   0.2366
B(  7-C ,  8-N ) :   0.4158 B(  7-C , 11-H ) :   0.2716 B(  7-C , 26-H ) :  -0.1559
B(  8-N ,  9-H ) :   1.1415 B(  8-N , 10-H ) :   1.1747 B(  9-H , 10-H ) :  -0.1691
B( 11-H , 12-H ) :   0.3097 B( 11-H , 13-O ) :   0.1820 B( 13-O , 14-F ) :   0.1091
B( 15-C , 16-C ) :   1.1910 B( 15-C , 17-H ) :   0.7994 B( 15-C , 18-H ) :   0.6314
B( 15-C , 20-H ) :   0.1808 B( 15-C , 21-H ) :   0.1115 B( 15-C , 26-H ) :   0.1778
B( 16-C , 18-H ) :   0.2530 B( 16-C , 19-C ) :   1.1621 B( 16-C , 20-H ) :   0.7951
B( 16-C , 21-H ) :   0.7942 B( 16-C , 22-H ) :   0.1222 B( 16-C , 23-H ) :   0.2503
B( 16-C , 26-H ) :  -0.1100 B( 17-H , 18-H ) :  -0.1014 B( 19-C , 20-H ) :   0.1343
B( 19-C , 21-H ) :   0.1176 B( 19-C , 22-H ) :   0.8393 B( 19-C , 23-H ) :   0.7486
B( 19-C , 24-H ) :   0.2226 B( 19-C , 25-H ) :   0.2592 B( 22-H , 26-H ) :   0.1268
B( 24-H , 25-H ) :  -0.1287

FINAL SINGLE POINT ENERGY      -581.671996381798

DIPOLE MOMENT
-------------
                                X             Y             Z
Electronic contribution:     -1.76722       0.93185     -12.08598
Nuclear contribution   :      1.88979       0.56282      12.66056
                        -----------------------------------------
Total Dipole Moment    :      0.12257       1.49467       0.57458
                        -----------------------------------------
Magnitude (a.u.)       :      1.60599
Magnitude (Debye)      :      4.08210

Rotational constants in cm-1:     0.040271     0.025954     0.018866
Rotational constants in MHz :  1207.302496   778.083475   565.600538

                             ****ORCA TERMINATED NORMALLY****
TOTAL RUN TIME: 0 days 0 hours 3 minutes 26 seconds 25 msec
