                         Program Version 5.0.0 -  RELEASE  -
|  1> !wB97X-D3 RIJCOSX def2-TZVPD def2/J TightSCF
|  2> *xyz -1 1
|  3> C          1.36401        0.46874       -2.81376
|  4> C          0.96805        1.63064       -3.71575
|  5> C         -0.50835        1.72268       -4.12430
|  6> S         -1.32861        0.14674       -4.43578
|  7> H         -0.59151        2.29496       -5.04722
|  8> H         -1.11411        2.23561       -3.37436
|  9> O         -2.57135        0.47573       -5.06834
| 10> O         -1.51496       -0.40051       -3.06342
| 11> H          1.57869        1.52065       -4.61273
| 12> H          1.26665        2.57599       -3.25045
| 13> O         -0.37793       -0.62756       -5.20114
| 14> H          1.07115       -0.45339       -3.27071
| 15> H          0.87480        0.56905       -1.86745
| 16> H          2.42423        0.47442       -2.66954
| 17> *
| 18> %MaxCore 64000
| 19>
| 20> %pal nprocs 18
| 21> end
| 22>
| 23> %scf
| 24>   MaxIter 150
| 25> end
| 26>
| 27>
| 28>                          ****END OF INPUT****

CARTESIAN COORDINATES (ANGSTROEM)
---------------------------------
  C      1.364010    0.468740   -2.813760
  C      0.968050    1.630640   -3.715750
  C     -0.508350    1.722680   -4.124300
  S     -1.328610    0.146740   -4.435780
  H     -0.591510    2.294960   -5.047220
  H     -1.114110    2.235610   -3.374360
  O     -2.571350    0.475730   -5.068340
  O     -1.514960   -0.400510   -3.063420
  H      1.578690    1.520650   -4.612730
  H      1.266650    2.575990   -3.250450
  O     -0.377930   -0.627560   -5.201140
  H      1.071150   -0.453390   -3.270710
  H      0.874800    0.569050   -1.867450
  H      2.424230    0.474420   -2.669540

 Total Charge           Charge          ....   -1
 Multiplicity           Mult            ....    1
 Number of Electrons    NEL             ....   66
 Basis Dimension        Dim             ....  340

ORBITAL ENERGIES
----------------

  NO   OCC          E(Eh)            E(eV)
   0   2.0000     -88.937044     -2420.1000
   1   2.0000     -19.017053      -517.4803
   2   2.0000     -19.015126      -517.4279
   3   2.0000     -18.998446      -516.9740
   4   2.0000     -10.141377      -275.9609
   5   2.0000     -10.134260      -275.7672
   6   2.0000     -10.112756      -275.1821
   7   2.0000      -8.000138      -217.6948
   8   2.0000      -5.954498      -162.0301
   9   2.0000      -5.953155      -161.9936
  10   2.0000      -5.952725      -161.9819
  11   2.0000      -1.046073       -28.4651
  12   2.0000      -0.917580       -24.9686
  13   2.0000      -0.887202       -24.1420
  14   2.0000      -0.767655       -20.8890
  15   2.0000      -0.674856       -18.3638
  16   2.0000      -0.575135       -15.6502
  17   2.0000      -0.485178       -13.2024
  18   2.0000      -0.432907       -11.7800
  19   2.0000      -0.416932       -11.3453
  20   2.0000      -0.393970       -10.7205
  21   2.0000      -0.379609       -10.3297
  22   2.0000      -0.360286        -9.8039
  23   2.0000      -0.343084        -9.3358
  24   2.0000      -0.316229        -8.6050
  25   2.0000      -0.306836        -8.3494
  26   2.0000      -0.287577        -7.8254
  27   2.0000      -0.254462        -6.9242
  28   2.0000      -0.249834        -6.7983
  29   2.0000      -0.218367        -5.9421
  30   2.0000      -0.204987        -5.5780
  31   2.0000      -0.191857        -5.2207
  32   2.0000      -0.163421        -4.4469
  33   0.0000       0.174153         4.7389
  34   0.0000       0.182639         4.9699
  35   0.0000       0.184114         5.0100
  36   0.0000       0.188964         5.1420
  37   0.0000       0.209745         5.7075

MULLIKEN ATOMIC CHARGES
-----------------------
   0 C :   -1.211630
   1 C :   -0.241961
   2 C :   -0.621277
   3 S :    1.197628
   4 H :    0.249967
   5 H :    0.307418
   6 O :   -0.699966
   7 O :   -0.731770
   8 H :    0.239406
   9 H :    0.247334
  10 O :   -0.702920
  11 H :    0.343105
  12 H :    0.282989
  13 H :    0.341677
Sum of atomic charges:   -1.0000000

LOEWDIN ATOMIC CHARGES
----------------------
   0 C :   -0.138859
   1 C :   -0.292577
   2 C :   -0.276576
   3 S :    0.356614
   4 H :    0.081890
   5 H :    0.088268
   6 O :   -0.379325
   7 O :   -0.414173
   8 H :    0.095544
   9 H :    0.092200
  10 O :   -0.377914
  11 H :    0.047470
  12 H :    0.063926
  13 H :    0.053512

  Mayer bond orders larger than 0.100000
B(  0-C ,  1-C ) :   0.7039 B(  0-C , 11-H ) :   0.9738 B(  0-C , 12-H ) :   0.9715
B(  0-C , 13-H ) :   0.9057 B(  1-C ,  2-C ) :   0.9720 B(  1-C ,  8-H ) :   0.9299
B(  1-C ,  9-H ) :   0.9517 B(  2-C ,  3-S ) :   0.8432 B(  2-C ,  4-H ) :   0.9685
B(  2-C ,  5-H ) :   0.9063 B(  2-C ,  6-O ) :   0.1449 B(  2-C ,  7-O ) :   0.1401
B(  3-S ,  6-O ) :   1.4636 B(  3-S ,  7-O ) :   1.4911 B(  3-S , 10-O ) :   1.5232

Dispersion correction           -0.004643711
FINAL SINGLE POINT ENERGY      -742.537938226616

DIPOLE MOMENT
-------------
                                X             Y             Z
Electronic contribution:     -8.34345      -4.45563      -4.08358
Nuclear contribution   :      9.76868       5.90538       4.47074
                        -----------------------------------------
Total Dipole Moment    :      1.42524       1.44975       0.38716
                        -----------------------------------------
Magnitude (a.u.)       :      2.06953
Magnitude (Debye)      :      5.26034

Rotational constants in cm-1:     0.135183     0.058485     0.054837
Rotational constants in MHz :  4052.676901  1753.343161  1643.972690

                             ****ORCA TERMINATED NORMALLY****
TOTAL RUN TIME: 0 days 0 hours 0 minutes 31 seconds 118 msec
