                         Program Version 5.0.0 -  RELEASE  -
|  1> !wB97X-D3 RIJCOSX def2-TZVPD def2/J TightSCF
|  2> *xyz 1 1
|  3> C          1.36401        0.46874       -2.81376
|  4> N          0.42884        0.32140       -1.65531
|  5> C          0.96805        1.63064       -3.71575
|  6> C         -0.50835        1.72268       -4.12430
|  7> H          0.74858       -0.40054       -1.00134
|  8> H         -0.46105        0.02333       -2.07773
|  9> H          0.31026        1.20137       -1.13495
| 10> H          1.29485       -0.46874       -3.36468
| 11> H          2.37622        0.59740       -2.43149
| 12> H          1.57869        1.52065       -4.61273
| 13> H          1.26665        2.57599       -3.25045
| 14> H         -0.65192        2.57663       -4.75283
| 15> H         -1.11549        1.81835       -3.24844
| 16> H         -0.78702        0.83723       -4.65648
| 17> *
| 18> %MaxCore 64000
| 19>
| 20> %pal nprocs 18
| 21> end
| 22>
| 23> %scf
| 24>   MaxIter 150
| 25> end
| 26>
| 27>
| 28>                          ****END OF INPUT****

CARTESIAN COORDINATES (ANGSTROEM)
---------------------------------
  C      1.364010    0.468740   -2.813760
  N      0.428840    0.321400   -1.655310
  C      0.968050    1.630640   -3.715750
  C     -0.508350    1.722680   -4.124300
  H      0.748580   -0.400540   -1.001340
  H     -0.461050    0.023330   -2.077730
  H      0.310260    1.201370   -1.134950
  H      1.294850   -0.468740   -3.364680
  H      2.376220    0.597400   -2.431490
  H      1.578690    1.520650   -4.612730
  H      1.266650    2.575990   -3.250450
  H     -0.651920    2.576630   -4.752830
  H     -1.115490    1.818350   -3.248440
  H     -0.787020    0.837230   -4.656480

 Total Charge           Charge          ....    1
 Multiplicity           Mult            ....    1
 Number of Electrons    NEL             ....   34
 Basis Dimension        Dim             ....  238

ORBITAL ENERGIES
----------------

  NO   OCC          E(Eh)            E(eV)
   0   2.0000     -14.750856      -401.3912
   1   2.0000     -10.522907      -286.3429
   2   2.0000     -10.452490      -284.4267
   3   2.0000     -10.423145      -283.6282
   4   2.0000      -1.325928       -36.0803
   5   2.0000      -1.088558       -29.6212
   6   2.0000      -0.998533       -27.1715
   7   2.0000      -0.908276       -24.7154
   8   2.0000      -0.894550       -24.3420
   9   2.0000      -0.876418       -23.8485
  10   2.0000      -0.783372       -21.3166
  11   2.0000      -0.737313       -20.0633
  12   2.0000      -0.706524       -19.2255
  13   2.0000      -0.683732       -18.6053
  14   2.0000      -0.625836       -17.0299
  15   2.0000      -0.617397       -16.8002
  16   2.0000      -0.605223       -16.4690
  17   0.0000      -0.117131        -3.1873
  18   0.0000      -0.064045        -1.7427
  19   0.0000      -0.060171        -1.6373
  20   0.0000      -0.053945        -1.4679
  21   0.0000      -0.026206        -0.7131

MULLIKEN ATOMIC CHARGES
-----------------------
   0 C :   -0.678663
   1 N :   -0.294661
   2 C :   -0.186094
   3 C :   -1.328981
   4 H :    0.359483
   5 H :    0.388148
   6 H :    0.351422
   7 H :    0.372484
   8 H :    0.312873
   9 H :    0.303132
  10 H :    0.341076
  11 H :    0.322405
  12 H :    0.363342
  13 H :    0.374033
Sum of atomic charges:    1.0000000

LOEWDIN ATOMIC CHARGES
----------------------
   0 C :   -0.159382
   1 N :    0.185463
   2 C :   -0.229470
   3 C :   -0.083903
   4 H :    0.180349
   5 H :    0.169182
   6 H :    0.185543
   7 H :    0.139257
   8 H :    0.137490
   9 H :    0.125652
  10 H :    0.120828
  11 H :    0.086127
  12 H :    0.061614
  13 H :    0.081250

  Mayer bond orders larger than 0.100000
B(  0-C ,  1-N ) :   0.9835 B(  0-C ,  2-C ) :   0.8320 B(  0-C ,  3-C ) :   0.1414
B(  0-C ,  7-H ) :   0.8990 B(  0-C ,  8-H ) :   0.9399 B(  1-N ,  4-H ) :   0.8556
B(  1-N ,  5-H ) :   0.8277 B(  1-N ,  6-H ) :   0.8593 B(  2-C ,  3-C ) :   0.5322
B(  2-C ,  9-H ) :   0.9604 B(  2-C , 10-H ) :   0.9096 B(  3-C , 11-H ) :   0.9743
B(  3-C , 12-H ) :   0.8910 B(  3-C , 13-H ) :   0.9585

Dispersion correction           -0.002841244
FINAL SINGLE POINT ENERGY      -174.869727425140

DIPOLE MOMENT
-------------
                                X             Y             Z
Electronic contribution:      0.76596      -1.08116       1.95293
Nuclear contribution   :     -0.79558       0.15863      -0.24664
                        -----------------------------------------
Total Dipole Moment    :     -0.02962      -0.92252       1.70629
                        -----------------------------------------
Magnitude (a.u.)       :      1.93994
Magnitude (Debye)      :      4.93093

Rotational constants in cm-1:     0.425244     0.165801     0.135024
Rotational constants in MHz : 12748.492920  4970.589839  4047.903558

                             ****ORCA TERMINATED NORMALLY****
TOTAL RUN TIME: 0 days 0 hours 0 minutes 16 seconds 895 msec
