                         Program Version 5.0.0 -  RELEASE  -
|  1> !wB97X-D3 RIJCOSX def2-TZVPD def2/J TightSCF
|  2> *xyz 0 1
|  3> C          1.36401        0.46874       -2.81376
|  4> C          0.96805        1.63064       -3.71575
|  5> C         -0.50835        1.72268       -4.12430
|  6> S         -1.32861        0.14674       -4.43578
|  7> H         -0.59151        2.29496       -5.04722
|  8> H         -1.11411        2.23561       -3.37436
|  9> F         -2.57135        0.47573       -5.06834
| 10> O         -1.51496       -0.40051       -3.06342
| 11> H          1.57869        1.52065       -4.61273
| 12> H          1.26665        2.57599       -3.25045
| 13> O         -0.37793       -0.62756       -5.20114
| 14> H          1.07115       -0.45339       -3.27071
| 15> H          0.87480        0.56905       -1.86745
| 16> H          2.42423        0.47442       -2.66954
| 17> *
| 18> %MaxCore 64000
| 19>
| 20> %pal nprocs 18
| 21> end
| 22>
| 23> %scf
| 24>   MaxIter 150
| 25> end
| 26>
| 27>
| 28>                          ****END OF INPUT****

CARTESIAN COORDINATES (ANGSTROEM)
---------------------------------
  C      1.364010    0.468740   -2.813760
  C      0.968050    1.630640   -3.715750
  C     -0.508350    1.722680   -4.124300
  S     -1.328610    0.146740   -4.435780
  H     -0.591510    2.294960   -5.047220
  H     -1.114110    2.235610   -3.374360
  F     -2.571350    0.475730   -5.068340
  O     -1.514960   -0.400510   -3.063420
  H      1.578690    1.520650   -4.612730
  H      1.266650    2.575990   -3.250450
  O     -0.377930   -0.627560   -5.201140
  H      1.071150   -0.453390   -3.270710
  H      0.874800    0.569050   -1.867450
  H      2.424230    0.474420   -2.669540

 Total Charge           Charge          ....    0
 Multiplicity           Mult            ....    1
 Number of Electrons    NEL             ....   66
 Basis Dimension        Dim             ....  340

ORBITAL ENERGIES
----------------

  NO   OCC          E(Eh)            E(eV)
   0   2.0000     -89.197428     -2427.1854
   1   2.0000     -24.914232      -677.9507
   2   2.0000     -19.246887      -523.7344
   3   2.0000     -19.230620      -523.2918
   4   2.0000     -10.333126      -281.1786
   5   2.0000     -10.299464      -280.2627
   6   2.0000     -10.256060      -279.0816
   7   2.0000      -8.261049      -224.7946
   8   2.0000      -6.218198      -169.2058
   9   2.0000      -6.212163      -169.0416
  10   2.0000      -6.211708      -169.0292
  11   2.0000      -1.510924       -41.1143
  12   2.0000      -1.221324       -33.2339
  13   2.0000      -1.118602       -30.4387
  14   2.0000      -0.941864       -25.6294
  15   2.0000      -0.869840       -23.6695
  16   2.0000      -0.819437       -22.2980
  17   2.0000      -0.743901       -20.2426
  18   2.0000      -0.700313       -19.0565
  19   2.0000      -0.687877       -18.7181
  20   2.0000      -0.657916       -17.9028
  21   2.0000      -0.595647       -16.2084
  22   2.0000      -0.582530       -15.8515
  23   2.0000      -0.553873       -15.0717
  24   2.0000      -0.548591       -14.9279
  25   2.0000      -0.516702       -14.0602
  26   2.0000      -0.486833       -13.2474
  27   2.0000      -0.468302       -12.7431
  28   2.0000      -0.459280       -12.4977
  29   2.0000      -0.443621       -12.0715
  30   2.0000      -0.426723       -11.6117
  31   2.0000      -0.410063       -11.1584
  32   2.0000      -0.401949       -10.9376
  33   0.0000       0.047084         1.2812
  34   0.0000       0.062783         1.7084
  35   0.0000       0.066822         1.8183
  36   0.0000       0.074340         2.0229
  37   0.0000       0.095170         2.5897

MULLIKEN ATOMIC CHARGES
-----------------------
   0 C :   -1.265993
   1 C :   -0.301656
   2 C :   -0.611371
   3 S :    1.174556
   4 H :    0.337257
   5 H :    0.373487
   6 F :   -0.092848
   7 O :   -0.604953
   8 H :    0.279314
   9 H :    0.275971
  10 O :   -0.585983
  11 H :    0.364649
  12 H :    0.309871
  13 H :    0.347700
Sum of atomic charges:   -0.0000000

LOEWDIN ATOMIC CHARGES
----------------------
   0 C :   -0.114585
   1 C :   -0.261997
   2 C :   -0.235842
   3 S :    0.603889
   4 H :    0.097913
   5 H :    0.105346
   6 F :   -0.041224
   7 O :   -0.304880
   8 H :    0.109254
   9 H :    0.114398
  10 O :   -0.271411
  11 H :    0.052824
  12 H :    0.074216
  13 H :    0.072099

  Mayer bond orders larger than 0.100000
B(  0-C ,  1-C ) :   0.7056 B(  0-C , 11-H ) :   0.9498 B(  0-C , 12-H ) :   0.9598
B(  0-C , 13-H ) :   0.9163 B(  1-C ,  2-C ) :   1.0236 B(  1-C ,  8-H ) :   0.9134
B(  1-C ,  9-H ) :   0.9281 B(  2-C ,  3-S ) :   0.8312 B(  2-C ,  4-H ) :   0.8650
B(  2-C ,  5-H ) :   0.8503 B(  2-C ,  7-O ) :   0.1097 B(  3-S ,  6-F ) :   0.9828
B(  3-S ,  7-O ) :   1.6527 B(  3-S , 10-O ) :   1.6912

Dispersion correction           -0.004621743
FINAL SINGLE POINT ENERGY      -767.049148559343

DIPOLE MOMENT
-------------
                                X             Y             Z
Electronic contribution:    -11.80238      -4.32525      -5.82873
Nuclear contribution   :     11.77809       5.83971       5.48704
                        -----------------------------------------
Total Dipole Moment    :     -0.02429       1.51446      -0.34169
                        -----------------------------------------
Magnitude (a.u.)       :      1.55272
Magnitude (Debye)      :      3.94670

Rotational constants in cm-1:     0.133968     0.056186     0.052650
Rotational constants in MHz :  4016.256208  1684.422248  1578.415210

                             ****ORCA TERMINATED NORMALLY****
TOTAL RUN TIME: 0 days 0 hours 0 minutes 37 seconds 86 msec
