                         Program Version 5.0.0 -  RELEASE  -
|  1> !wB97X-D3 RIJCOSX def2-TZVPD def2/J TightSCF
|  2> *xyz 0 1
|  3> C          1.36401        0.46874       -2.81376
|  4> C          0.42884        0.32140       -1.65531
|  5> C          0.96805        1.63064       -3.71575
|  6> C         -0.50835        1.72268       -4.12430
|  7> H          0.74858       -0.40054       -1.00134
|  8> H         -0.46105        0.02333       -2.07773
|  9> H          0.31026        1.20137       -1.13495
| 10> H          1.29485       -0.46874       -3.36468
| 11> H          2.37622        0.59740       -2.43149
| 12> H          1.57869        1.52065       -4.61273
| 13> H          1.26665        2.57599       -3.25045
| 14> H         -0.65192        2.57663       -4.75283
| 15> H         -1.11549        1.81835       -3.24844
| 16> H         -0.78702        0.83723       -4.65648
| 17> *
| 18> %MaxCore 64000
| 19>
| 20> %pal nprocs 18
| 21> end
| 22>
| 23> %scf
| 24>   MaxIter 150
| 25> end
| 26>
| 27>
| 28>                          ****END OF INPUT****

CARTESIAN COORDINATES (ANGSTROEM)
---------------------------------
  C      1.364010    0.468740   -2.813760
  C      0.428840    0.321400   -1.655310
  C      0.968050    1.630640   -3.715750
  C     -0.508350    1.722680   -4.124300
  H      0.748580   -0.400540   -1.001340
  H     -0.461050    0.023330   -2.077730
  H      0.310260    1.201370   -1.134950
  H      1.294850   -0.468740   -3.364680
  H      2.376220    0.597400   -2.431490
  H      1.578690    1.520650   -4.612730
  H      1.266650    2.575990   -3.250450
  H     -0.651920    2.576630   -4.752830
  H     -1.115490    1.818350   -3.248440
  H     -0.787020    0.837230   -4.656480

 Total Charge           Charge          ....    0
 Multiplicity           Mult            ....    1
 Number of Electrons    NEL             ....   34
 Basis Dimension        Dim             ....  238

ORBITAL ENERGIES
----------------

  NO   OCC          E(Eh)            E(eV)
   0   2.0000     -10.262748      -279.2636
   1   2.0000     -10.259027      -279.1623
   2   2.0000     -10.252565      -278.9865
   3   2.0000     -10.231070      -278.4016
   4   2.0000      -0.918924       -25.0052
   5   2.0000      -0.842022       -22.9126
   6   2.0000      -0.759762       -20.6742
   7   2.0000      -0.670342       -18.2409
   8   2.0000      -0.572028       -15.5657
   9   2.0000      -0.563247       -15.3267
  10   2.0000      -0.523648       -14.2492
  11   2.0000      -0.484443       -13.1824
  12   2.0000      -0.479170       -13.0389
  13   2.0000      -0.460460       -12.5297
  14   2.0000      -0.418458       -11.3868
  15   2.0000      -0.411454       -11.1962
  16   2.0000      -0.406873       -11.0716
  17   0.0000       0.074893         2.0380
  18   0.0000       0.092911         2.5282
  19   0.0000       0.093937         2.5562
  20   0.0000       0.102672         2.7939
  21   0.0000       0.134216         3.6522

MULLIKEN ATOMIC CHARGES
-----------------------
   0 C :   -0.149305
   1 C :   -1.472906
   2 C :   -0.219685
   3 C :   -1.277705
   4 H :    0.376396
   5 H :    0.353375
   6 H :    0.383629
   7 H :    0.247201
   8 H :    0.243272
   9 H :    0.234957
  10 H :    0.299775
  11 H :    0.321062
  12 H :    0.330438
  13 H :    0.329495
Sum of atomic charges:    0.0000000

LOEWDIN ATOMIC CHARGES
----------------------
   0 C :   -0.273110
   1 C :   -0.121075
   2 C :   -0.271784
   3 C :   -0.110727
   4 H :    0.052265
   5 H :    0.050054
   6 H :    0.062605
   7 H :    0.108539
   8 H :    0.105691
   9 H :    0.098665
  10 H :    0.106781
  11 H :    0.063316
  12 H :    0.058793
  13 H :    0.069986

  Mayer bond orders larger than 0.100000
B(  0-C ,  1-C ) :   0.4875 B(  0-C ,  2-C ) :   0.8681 B(  0-C ,  3-C ) :   0.1165
B(  0-C ,  7-H ) :   0.9595 B(  0-C ,  8-H ) :   0.9659 B(  1-C ,  2-C ) :   0.1243
B(  1-C ,  3-C ) :   0.1312 B(  1-C ,  4-H ) :   0.9058 B(  1-C ,  5-H ) :   0.9771
B(  1-C ,  6-H ) :   0.9093 B(  2-C ,  3-C ) :   0.5544 B(  2-C ,  9-H ) :   0.9853
B(  2-C , 10-H ) :   0.9372 B(  3-C , 11-H ) :   0.9381 B(  3-C , 12-H ) :   0.9632
B(  3-C , 13-H ) :   0.9714

Dispersion correction           -0.002747771
FINAL SINGLE POINT ENERGY      -158.454835328185

DIPOLE MOMENT
-------------
                                X             Y             Z
Electronic contribution:      0.84318       0.05402      -0.18717
Nuclear contribution   :     -0.83100      -0.05970       0.18742
                        -----------------------------------------
Total Dipole Moment    :      0.01218      -0.00567       0.00024
                        -----------------------------------------
Magnitude (a.u.)       :      0.01344
Magnitude (Debye)      :      0.03415

Rotational constants in cm-1:     0.433656     0.172838     0.140497
Rotational constants in MHz : 13000.688694  5181.547473  4211.992439

                             ****ORCA TERMINATED NORMALLY****
TOTAL RUN TIME: 0 days 0 hours 0 minutes 16 seconds 318 msec
