                         Program Version 5.0.0 -  RELEASE  -
|  1> !wB97X-D3 RIJCOSX def2-TZVPD def2/J TightSCF
|  2> *xyz 0 1
|  3> C          1.36401        0.46874       -2.81376
|  4> C          0.96805        1.63064       -3.71575
|  5> C         -0.50835        1.72268       -4.12430
|  6> S         -1.32861        0.14674       -4.43578
|  7> H         -0.59151        2.29496       -5.04722
|  8> H         -1.11411        2.23561       -3.37436
|  9> O         -2.57135        0.47573       -5.06834
| 10> F         -1.51496       -0.40051       -3.06342
| 11> H          1.57869        1.52065       -4.61273
| 12> H          1.26665        2.57599       -3.25045
| 13> O         -0.37793       -0.62756       -5.20114
| 14> H          1.07115       -0.45339       -3.27071
| 15> H          0.87480        0.56905       -1.86745
| 16> H          2.42423        0.47442       -2.66954
| 17> *
| 18> %MaxCore 64000
| 19>
| 20> %pal nprocs 18
| 21> end
| 22>
| 23> %scf
| 24>   MaxIter 150
| 25> end
| 26>
| 27>
| 28>                          ****END OF INPUT****

CARTESIAN COORDINATES (ANGSTROEM)
---------------------------------
  C      1.364010    0.468740   -2.813760
  C      0.968050    1.630640   -3.715750
  C     -0.508350    1.722680   -4.124300
  S     -1.328610    0.146740   -4.435780
  H     -0.591510    2.294960   -5.047220
  H     -1.114110    2.235610   -3.374360
  O     -2.571350    0.475730   -5.068340
  F     -1.514960   -0.400510   -3.063420
  H      1.578690    1.520650   -4.612730
  H      1.266650    2.575990   -3.250450
  O     -0.377930   -0.627560   -5.201140
  H      1.071150   -0.453390   -3.270710
  H      0.874800    0.569050   -1.867450
  H      2.424230    0.474420   -2.669540

 Total Charge           Charge          ....    0
 Multiplicity           Mult            ....    1
 Number of Electrons    NEL             ....   66
 Basis Dimension        Dim             ....  340

ORBITAL ENERGIES
----------------

  NO   OCC          E(Eh)            E(eV)
   0   2.0000     -89.194031     -2427.0930
   1   2.0000     -24.884447      -677.1402
   2   2.0000     -19.248694      -523.7836
   3   2.0000     -19.245334      -523.6922
   4   2.0000     -10.332286      -281.1558
   5   2.0000     -10.301196      -280.3098
   6   2.0000     -10.270524      -279.4752
   7   2.0000      -8.257623      -224.7014
   8   2.0000      -6.215125      -169.1222
   9   2.0000      -6.208860      -168.9517
  10   2.0000      -6.208000      -168.9283
  11   2.0000      -1.463684       -39.8289
  12   2.0000      -1.235314       -33.6146
  13   2.0000      -1.143912       -31.1274
  14   2.0000      -0.946600       -25.7583
  15   2.0000      -0.863684       -23.5020
  16   2.0000      -0.807214       -21.9654
  17   2.0000      -0.742748       -20.2112
  18   2.0000      -0.671161       -18.2632
  19   2.0000      -0.667375       -18.1602
  20   2.0000      -0.653690       -17.7878
  21   2.0000      -0.601942       -16.3797
  22   2.0000      -0.576226       -15.6799
  23   2.0000      -0.560370       -15.2484
  24   2.0000      -0.551832       -15.0161
  25   2.0000      -0.532934       -14.5019
  26   2.0000      -0.497104       -13.5269
  27   2.0000      -0.477801       -13.0016
  28   2.0000      -0.473173       -12.8757
  29   2.0000      -0.448622       -12.2076
  30   2.0000      -0.439152       -11.9499
  31   2.0000      -0.422664       -11.5013
  32   2.0000      -0.417408       -11.3582
  33   0.0000       0.055325         1.5055
  34   0.0000       0.062439         1.6990
  35   0.0000       0.069661         1.8956
  36   0.0000       0.072038         1.9602
  37   0.0000       0.097803         2.6613

MULLIKEN ATOMIC CHARGES
-----------------------
   0 C :   -1.270399
   1 C :   -0.240682
   2 C :   -0.626827
   3 S :    1.204166
   4 H :    0.315206
   5 H :    0.386944
   6 O :   -0.593198
   7 F :   -0.167019
   8 H :    0.282770
   9 H :    0.287990
  10 O :   -0.584338
  11 H :    0.341965
  12 H :    0.323691
  13 H :    0.339731
Sum of atomic charges:   -0.0000000

LOEWDIN ATOMIC CHARGES
----------------------
   0 C :   -0.116602
   1 C :   -0.269349
   2 C :   -0.226439
   3 S :    0.599701
   4 H :    0.109769
   5 H :    0.105196
   6 O :   -0.267301
   7 F :   -0.083697
   8 H :    0.110125
   9 H :    0.112433
  10 O :   -0.269898
  11 H :    0.050041
  12 H :    0.071899
  13 H :    0.074122

  Mayer bond orders larger than 0.100000
B(  0-C ,  1-C ) :   0.6240 B(  0-C ,  2-C ) :   0.1289 B(  0-C , 11-H ) :   0.9538
B(  0-C , 12-H ) :   0.9590 B(  0-C , 13-H ) :   0.9240 B(  1-C ,  2-C ) :   0.9544
B(  1-C ,  8-H ) :   0.9292 B(  1-C ,  9-H ) :   0.9359 B(  2-C ,  3-S ) :   0.8216
B(  2-C ,  4-H ) :   0.9059 B(  2-C ,  5-H ) :   0.8458 B(  2-C ,  6-O ) :   0.1175
B(  3-S ,  6-O ) :   1.6154 B(  3-S ,  7-F ) :   0.9614 B(  3-S , 10-O ) :   1.6900

Dispersion correction           -0.004614094
FINAL SINGLE POINT ENERGY      -767.073179164294

DIPOLE MOMENT
-------------
                                X             Y             Z
Electronic contribution:     -9.92694      -5.81818      -2.35049
Nuclear contribution   :     10.64200       6.78206       3.33086
                        -----------------------------------------
Total Dipole Moment    :      0.71506       0.96387       0.98038
                        -----------------------------------------
Magnitude (a.u.)       :      1.54968
Magnitude (Debye)      :      3.93896

Rotational constants in cm-1:     0.128573     0.057881     0.053975
Rotational constants in MHz :  3854.523324  1735.233387  1618.120420

                             ****ORCA TERMINATED NORMALLY****
TOTAL RUN TIME: 0 days 0 hours 0 minutes 34 seconds 765 msec
