                         Program Version 5.0.0 -  RELEASE  -
|  1> !wB97X-D3 RIJCOSX def2-TZVPD def2/J TightSCF
|  2> *xyz 0 1
|  3> C          1.36401        0.46874       -2.81376
|  4> C          0.96805        1.63064       -3.71575
|  5> C         -0.50835        1.72268       -4.12430
|  6> S         -1.32861        0.14674       -4.43578
|  7> H         -0.59151        2.29496       -5.04722
|  8> H         -1.11411        2.23561       -3.37436
|  9> O         -2.57135        0.47573       -5.06834
| 10> O         -1.51496       -0.40051       -3.06342
| 11> H          1.57869        1.52065       -4.61273
| 12> H          1.26665        2.57599       -3.25045
| 13> F         -0.37793       -0.62756       -5.20114
| 14> H          1.07115       -0.45339       -3.27071
| 15> H          0.87480        0.56905       -1.86745
| 16> H          2.42423        0.47442       -2.66954
| 17> *
| 18> %MaxCore 64000
| 19>
| 20> %pal nprocs 18
| 21> end
| 22>
| 23> %scf
| 24>   MaxIter 150
| 25> end
| 26>
| 27>
| 28>                          ****END OF INPUT****

CARTESIAN COORDINATES (ANGSTROEM)
---------------------------------
  C      1.364010    0.468740   -2.813760
  C      0.968050    1.630640   -3.715750
  C     -0.508350    1.722680   -4.124300
  S     -1.328610    0.146740   -4.435780
  H     -0.591510    2.294960   -5.047220
  H     -1.114110    2.235610   -3.374360
  O     -2.571350    0.475730   -5.068340
  O     -1.514960   -0.400510   -3.063420
  H      1.578690    1.520650   -4.612730
  H      1.266650    2.575990   -3.250450
  F     -0.377930   -0.627560   -5.201140
  H      1.071150   -0.453390   -3.270710
  H      0.874800    0.569050   -1.867450
  H      2.424230    0.474420   -2.669540

 Total Charge           Charge          ....    0
 Multiplicity           Mult            ....    1
 Number of Electrons    NEL             ....   66
 Basis Dimension        Dim             ....  340

ORBITAL ENERGIES
----------------

  NO   OCC          E(Eh)            E(eV)
   0   2.0000     -89.195881     -2427.1433
   1   2.0000     -24.908446      -677.7933
   2   2.0000     -19.248948      -523.7905
   3   2.0000     -19.229007      -523.2479
   4   2.0000     -10.332666      -281.1661
   5   2.0000     -10.304169      -280.3907
   6   2.0000     -10.269216      -279.4396
   7   2.0000      -8.259515      -224.7528
   8   2.0000      -6.216992      -169.1729
   9   2.0000      -6.210540      -168.9974
  10   2.0000      -6.209967      -168.9818
  11   2.0000      -1.501018       -40.8448
  12   2.0000      -1.225414       -33.3452
  13   2.0000      -1.120156       -30.4810
  14   2.0000      -0.948017       -25.7969
  15   2.0000      -0.867009       -23.5925
  16   2.0000      -0.822168       -22.3723
  17   2.0000      -0.746712       -20.3191
  18   2.0000      -0.696765       -18.9599
  19   2.0000      -0.693751       -18.8779
  20   2.0000      -0.648671       -17.6512
  21   2.0000      -0.596737       -16.2380
  22   2.0000      -0.580506       -15.7964
  23   2.0000      -0.562591       -15.3089
  24   2.0000      -0.545791       -14.8517
  25   2.0000      -0.527934       -14.3658
  26   2.0000      -0.489968       -13.3327
  27   2.0000      -0.480905       -13.0861
  28   2.0000      -0.471934       -12.8420
  29   2.0000      -0.449367       -12.2279
  30   2.0000      -0.427876       -11.6431
  31   2.0000      -0.411646       -11.2014
  32   2.0000      -0.400531       -10.8990
  33   0.0000       0.050581         1.3764
  34   0.0000       0.061317         1.6685
  35   0.0000       0.070863         1.9283
  36   0.0000       0.071310         1.9404
  37   0.0000       0.095745         2.6054

MULLIKEN ATOMIC CHARGES
-----------------------
   0 C :   -1.193762
   1 C :   -0.348853
   2 C :   -0.543691
   3 S :    1.184628
   4 H :    0.319827
   5 H :    0.354319
   6 O :   -0.583643
   7 O :   -0.599964
   8 H :    0.281409
   9 H :    0.278992
  10 F :   -0.138098
  11 H :    0.336428
  12 H :    0.310321
  13 H :    0.342086
Sum of atomic charges:   -0.0000000

LOEWDIN ATOMIC CHARGES
----------------------
   0 C :   -0.117396
   1 C :   -0.271765
   2 C :   -0.225971
   3 S :    0.599577
   4 H :    0.100753
   5 H :    0.115690
   6 O :   -0.266681
   7 O :   -0.304121
   8 H :    0.105402
   9 H :    0.113647
  10 F :   -0.047967
  11 H :    0.049486
  12 H :    0.076836
  13 H :    0.072510

  Mayer bond orders larger than 0.100000
B(  0-C ,  1-C ) :   0.6877 B(  0-C , 11-H ) :   0.9460 B(  0-C , 12-H ) :   0.9725
B(  0-C , 13-H ) :   0.9342 B(  1-C ,  2-C ) :   0.9604 B(  1-C ,  8-H ) :   0.9384
B(  1-C ,  9-H ) :   0.9305 B(  2-C ,  3-S ) :   0.8107 B(  2-C ,  4-H ) :   0.9223
B(  2-C ,  5-H ) :   0.8723 B(  2-C ,  6-O ) :   0.1153 B(  3-S ,  6-O ) :   1.6268
B(  3-S ,  7-O ) :   1.6593 B(  3-S , 10-F ) :   0.9986

Dispersion correction           -0.004616749
FINAL SINGLE POINT ENERGY      -767.052894443422

DIPOLE MOMENT
-------------
                                X             Y             Z
Electronic contribution:     -7.98485      -6.18681      -6.00269
Nuclear contribution   :      9.41919       7.02624       5.62986
                        -----------------------------------------
Total Dipole Moment    :      1.43435       0.83942      -0.37283
                        -----------------------------------------
Magnitude (a.u.)       :      1.70323
Magnitude (Debye)      :      4.32926

Rotational constants in cm-1:     0.128702     0.057313     0.054552
Rotational constants in MHz :  3858.395793  1718.208003  1635.420361

                             ****ORCA TERMINATED NORMALLY****
TOTAL RUN TIME: 0 days 0 hours 0 minutes 26 seconds 386 msec
