                         Program Version 5.0.0 -  RELEASE  -
|  1> !wB97X-D3 RIJCOSX def2-TZVPD def2/J TightSCF xyzfile
|  2>
|  3> *xyzfile 0 1 D2.xyz
|  4>
|  5> %MaxCore 64000
|  6>
|  7> %pal nprocs 18
|  8> end
|  9>
| 10> %scf
| 11>   MaxIter 150
| 12> end
| 13>
| 14>
| 15>                          ****END OF INPUT****

CARTESIAN COORDINATES (ANGSTROEM)
---------------------------------
  C      1.364014    0.468742   -2.813764
  C      0.428844    0.321402   -1.655312
  C      0.968045    1.630639   -3.715749
  C     -0.508347    1.722679   -4.124300
  S     -1.328608    0.146737   -4.435781
  H     -0.591511    2.294958   -5.047219
  H     -1.114114    2.235610   -3.374362
  H      0.748578   -0.400542   -1.001345
  H     -0.461053    0.023332   -2.077731
  H      0.310258    1.201375   -1.134948
  O     -2.571347    0.475733   -5.068341
  F     -1.514963   -0.400512   -3.063420
  H      1.294847   -0.468742   -3.364684
  H      2.376216    0.597400   -2.431495
  H      1.578688    1.520652   -4.612733
  H      1.266653    2.575988   -3.250448
  O     -0.377928   -0.627558   -5.201141

 Total Charge           Charge          ....    0
 Multiplicity           Mult            ....    1
 Number of Electrons    NEL             ....   74
 Basis Dimension        Dim             ....  395

ORBITAL ENERGIES
----------------

  NO   OCC          E(Eh)            E(eV)
   0   2.0000     -89.197910     -2427.1985
   1   2.0000     -24.891707      -677.3378
   2   2.0000     -19.252165      -523.8780
   3   2.0000     -19.248879      -523.7886
   4   2.0000     -10.334306      -281.2108
   5   2.0000     -10.297683      -280.2142
   6   2.0000     -10.274156      -279.5740
   7   2.0000     -10.231069      -278.4016
   8   2.0000      -8.261778      -224.8144
   9   2.0000      -6.219407      -169.2387
  10   2.0000      -6.212846      -169.0601
  11   2.0000      -6.212099      -169.0398
  12   2.0000      -1.478444       -40.2305
  13   2.0000      -1.239923       -33.7400
  14   2.0000      -1.147283       -31.2191
  15   2.0000      -0.955786       -26.0083
  16   2.0000      -0.895023       -24.3548
  17   2.0000      -0.826437       -22.4885
  18   2.0000      -0.806792       -21.9539
  19   2.0000      -0.709178       -19.2977
  20   2.0000      -0.695823       -18.9343
  21   2.0000      -0.677363       -18.4320
  22   2.0000      -0.655371       -17.8335
  23   2.0000      -0.601980       -16.3807
  24   2.0000      -0.584120       -15.8947
  25   2.0000      -0.577467       -15.7137
  26   2.0000      -0.561784       -15.2869
  27   2.0000      -0.530299       -14.4302
  28   2.0000      -0.511613       -13.9217
  29   2.0000      -0.501351       -13.6425
  30   2.0000      -0.494216       -13.4483
  31   2.0000      -0.452883       -12.3236
  32   2.0000      -0.448235       -12.1971
  33   2.0000      -0.434545       -11.8246
  34   2.0000      -0.428448       -11.6587
  35   2.0000      -0.422460       -11.4957
  36   2.0000      -0.411998       -11.2110
  37   0.0000       0.056474         1.5367
  38   0.0000       0.061363         1.6698
  39   0.0000       0.067879         1.8471
  40   0.0000       0.074170         2.0183
  41   0.0000       0.096595         2.6285

MULLIKEN ATOMIC CHARGES
-----------------------
   0 C :   -0.336973
   1 C :   -1.352537
   2 C :   -0.366273
   3 C :   -0.700835
   4 S :    1.184824
   5 H :    0.308028
   6 H :    0.381942
   7 H :    0.410478
   8 H :    0.332132
   9 H :    0.396295
  10 O :   -0.595006
  11 F :   -0.210136
  12 H :    0.290775
  13 H :    0.266298
  14 H :    0.257374
  15 H :    0.330403
  16 O :   -0.596790
Sum of atomic charges:   -0.0000000

LOEWDIN ATOMIC CHARGES
----------------------
   0 C :   -0.253974
   1 C :   -0.103767
   2 C :   -0.221693
   3 C :   -0.210871
   4 S :    0.620670
   5 H :    0.111920
   6 H :    0.109582
   7 H :    0.064883
   8 H :   -0.004141
   9 H :    0.069729
  10 O :   -0.260134
  11 F :   -0.111781
  12 H :    0.102046
  13 H :    0.113499
  14 H :    0.112875
  15 H :    0.119675
  16 O :   -0.258520

  Mayer bond orders larger than 0.100000
B(  0-C ,  1-C ) :   0.5471 B(  0-C ,  2-C ) :   0.8770 B(  0-C ,  8-H ) :  -0.1030
B(  0-C , 12-H ) :   0.9711 B(  0-C , 13-H ) :   0.9424 B(  1-C ,  2-C ) :   0.1166
B(  1-C ,  3-C ) :   0.1532 B(  1-C ,  7-H ) :   0.8847 B(  1-C ,  8-H ) :   1.0817
B(  1-C ,  9-H ) :   0.8918 B(  1-C , 11-F ) :   0.1250 B(  2-C ,  3-C ) :   0.9732
B(  2-C , 14-H ) :   0.9214 B(  2-C , 15-H ) :   0.9096 B(  3-C ,  4-S ) :   0.8404
B(  3-C ,  5-H ) :   0.9147 B(  3-C ,  6-H ) :   0.8438 B(  3-C , 10-O ) :   0.1221
B(  4-S , 10-O ) :   1.6082 B(  4-S , 11-F ) :   1.0189 B(  4-S , 16-O ) :   1.6736
B(  8-H , 11-F ) :  -0.1657

Dispersion correction           -0.006502806
FINAL SINGLE POINT ENERGY      -806.347808583900

DIPOLE MOMENT
-------------
                                X             Y             Z
Electronic contribution:    -10.50876      -5.56659      -6.15125
Nuclear contribution   :     11.08796       6.45140       7.05645
                        -----------------------------------------
Total Dipole Moment    :      0.57920       0.88480       0.90520
                        -----------------------------------------
Magnitude (a.u.)       :      1.39203
Magnitude (Debye)      :      3.53826

Rotational constants in cm-1:     0.100113     0.046890     0.041843
Rotational constants in MHz :  3001.313402  1405.711946  1254.411771

                             ****ORCA TERMINATED NORMALLY****
TOTAL RUN TIME: 0 days 0 hours 0 minutes 43 seconds 301 msec
