                         Program Version 5.0.0 -  RELEASE  -
|  1> !B3LYP D3BJ RIJCOSX def2-SVPD def2/J TightSCF
|  2> *xyz -1 1
|  3> C          0.13297        2.38587       -4.02462
|  4> C         -1.36646        2.47911       -4.31393
|  5> C         -2.35773        2.30686       -3.13675
|  6> H         -1.63680        1.72709       -5.06399
|  7> H         -1.58235        3.44561       -4.76869
|  8> O         -3.44376        2.84652       -3.25274
|  9> O         -1.97092        1.58304       -2.15123
| 10> H          0.68084        2.52514       -4.93310
| 11> H          0.35823        1.42282       -3.61633
| 12> H          0.40851        3.14443       -3.32208
| 13> *
| 14> %MaxCore 64000
| 15>
| 16> %pal nprocs 4
| 17> end
| 18>
| 19> %scf
| 20>   MaxIter 150
| 21> end
| 22>
| 23>
| 24>                          ****END OF INPUT****

CARTESIAN COORDINATES (ANGSTROEM)
---------------------------------
  C      0.132970    2.385870   -4.024620
  C     -1.366460    2.479110   -4.313930
  C     -2.357730    2.306860   -3.136750
  H     -1.636800    1.727090   -5.063990
  H     -1.582350    3.445610   -4.768690
  O     -3.443760    2.846520   -3.252740
  O     -1.970920    1.583040   -2.151230
  H      0.680840    2.525140   -4.933100
  H      0.358230    1.422820   -3.616330
  H      0.408510    3.144430   -3.322080

 Total Charge           Charge          ....   -1
 Multiplicity           Mult            ....    1
 Number of Electrons    NEL             ....   40
 Basis Dimension        Dim             ....  146

ORBITAL ENERGIES
----------------

  NO   OCC          E(Eh)            E(eV)
   0   2.0000     -18.883907      -513.8572
   1   2.0000     -18.873947      -513.5862
   2   2.0000     -10.070146      -274.0226
   3   2.0000     -10.019221      -272.6369
   4   2.0000     -10.009573      -272.3743
   5   2.0000      -0.819546       -22.3010
   6   2.0000      -0.719460       -19.5775
   7   2.0000      -0.596032       -16.2189
   8   2.0000      -0.467370       -12.7178
   9   2.0000      -0.313013        -8.5175
  10   2.0000      -0.293721        -7.9926
  11   2.0000      -0.259137        -7.0515
  12   2.0000      -0.229652        -6.2492
  13   2.0000      -0.216722        -5.8973
  14   2.0000      -0.210384        -5.7248
  15   2.0000      -0.181252        -4.9321
  16   2.0000      -0.164012        -4.4630
  17   2.0000      -0.052630        -1.4321
  18   2.0000      -0.044849        -1.2204
  19   2.0000      -0.031492        -0.8570
  20   0.0000       0.152787         4.1575
  21   0.0000       0.189121         5.1462
  22   0.0000       0.204097         5.5538
  23   0.0000       0.212207         5.7744
  24   0.0000       0.240290         6.5386

MULLIKEN ATOMIC CHARGES
-----------------------
   0 C :    0.887458
   1 C :   -0.262474
   2 C :    0.419626
   3 H :   -0.098533
   4 H :   -0.115800
   5 O :   -0.626832
   6 O :   -0.755887
   7 H :   -0.169945
   8 H :   -0.129566
   9 H :   -0.148046
Sum of atomic charges:   -1.0000000

LOEWDIN ATOMIC CHARGES
----------------------
   0 C :    0.098842
   1 C :   -0.032023
   2 C :   -0.307491
   3 H :    0.005894
   4 H :   -0.007896
   5 O :   -0.302989
   6 O :   -0.341808
   7 H :   -0.049132
   8 H :   -0.033682
   9 H :   -0.029716

  Mayer bond orders larger than 0.100000
B(  0-C ,  1-C ) :   1.2694 B(  0-C ,  3-H ) :   0.1016 B(  0-C ,  4-H ) :   0.1052
B(  0-C ,  7-H ) :   0.7128 B(  0-C ,  8-H ) :   0.7757 B(  0-C ,  9-H ) :   0.7798
B(  1-C ,  2-C ) :   1.0180 B(  1-C ,  3-H ) :   0.8879 B(  1-C ,  4-H ) :   0.9095
B(  1-C ,  7-H ) :   0.2663 B(  1-C ,  8-H ) :   0.2413 B(  1-C ,  9-H ) :   0.2190
B(  2-C ,  4-H ) :   0.1802 B(  2-C ,  5-O ) :   1.5301 B(  2-C ,  6-O ) :   1.4334

Dispersion correction           -0.010839796
FINAL SINGLE POINT ENERGY      -267.524515058783

DIPOLE MOMENT
-------------
                                X             Y             Z
Electronic contribution:     -5.24889      -0.36691       3.18786
Nuclear contribution   :      6.75610       0.63068      -4.53972
                        -----------------------------------------
Total Dipole Moment    :      1.50721       0.26377      -1.35186
                        -----------------------------------------
Magnitude (a.u.)       :      2.04176
Magnitude (Debye)      :      5.18974

Rotational constants in cm-1:     0.335096     0.130241     0.099025
Rotational constants in MHz : 10045.924902  3904.536250  2968.708333

                             ****ORCA TERMINATED NORMALLY****
TOTAL RUN TIME: 0 days 0 hours 0 minutes 16 seconds 246 msec
