                         Program Version 5.0.0 -  RELEASE  -
|  1> !B3LYP D3BJ RIJCOSX def2-SVPD def2/J TightSCF
|  2> *xyz 1 1
|  3> C          0.64866        1.00359       -3.64560
|  4> N          0.28128        0.67645       -2.24018
|  5> C          0.13297        2.38587       -4.02462
|  6> H          0.39079       -0.31925       -2.02649
|  7> H         -0.69269        0.99010       -2.13812
|  8> H          0.85421        1.21221       -1.57528
|  9> H          0.19099        0.23965       -4.27575
| 10> H          1.73157        0.93173       -3.75075
| 11> H          0.40589        2.60338       -5.03610
| 12> H          0.56342        3.11797       -3.37374
| 13> H         -0.93265        2.40724       -3.93025
| 14> *
| 15> %MaxCore 64000
| 16>
| 17> %pal nprocs 4
| 18> end
| 19>
| 20> %scf
| 21>   MaxIter 150
| 22> end
| 23>
| 24>
| 25>                          ****END OF INPUT****

CARTESIAN COORDINATES (ANGSTROEM)
---------------------------------
  C      0.648660    1.003590   -3.645600
  N      0.281280    0.676450   -2.240180
  C      0.132970    2.385870   -4.024620
  H      0.390790   -0.319250   -2.026490
  H     -0.692690    0.990100   -2.138120
  H      0.854210    1.212210   -1.575280
  H      0.190990    0.239650   -4.275750
  H      1.731570    0.931730   -3.750750
  H      0.405890    2.603380   -5.036100
  H      0.563420    3.117970   -3.373740
  H     -0.932650    2.407240   -3.930250

 Total Charge           Charge          ....    1
 Multiplicity           Mult            ....    1
 Number of Electrons    NEL             ....   26
 Basis Dimension        Dim             ....  124

ORBITAL ENERGIES
----------------

  NO   OCC          E(Eh)            E(eV)
   0   2.0000     -14.665996      -399.0821
   1   2.0000     -10.438679      -284.0509
   2   2.0000     -10.362870      -281.9880
   3   2.0000      -1.209232       -32.9049
   4   2.0000      -0.960624       -26.1399
   5   2.0000      -0.842392       -22.9227
   6   2.0000      -0.802523       -21.8378
   7   2.0000      -0.794897       -21.6302
   8   2.0000      -0.696458       -18.9516
   9   2.0000      -0.643942       -17.5225
  10   2.0000      -0.586878       -15.9698
  11   2.0000      -0.573283       -15.5998
  12   2.0000      -0.555632       -15.1195
  13   0.0000      -0.196504        -5.3472
  14   0.0000      -0.136726        -3.7205
  15   0.0000      -0.134260        -3.6534
  16   0.0000      -0.125618        -3.4182
  17   0.0000      -0.092796        -2.5251

MULLIKEN ATOMIC CHARGES
-----------------------
   0 C :    0.388705
   1 N :   -0.705730
   2 C :    0.815176
   3 H :    0.307005
   4 H :    0.416094
   5 H :    0.357390
   6 H :   -0.143630
   7 H :   -0.177482
   8 H :   -0.115584
   9 H :   -0.052072
  10 H :   -0.089872
Sum of atomic charges:    1.0000000

LOEWDIN ATOMIC CHARGES
----------------------
   0 C :    0.056253
   1 N :    0.334857
   2 C :    0.181635
   3 H :    0.106361
   4 H :    0.098803
   5 H :    0.108551
   6 H :    0.051496
   7 H :    0.050975
   8 H :    0.013898
   9 H :   -0.000276
  10 H :   -0.002554

  Mayer bond orders larger than 0.100000
B(  0-C ,  1-N ) :   0.7923 B(  0-C ,  2-C ) :   1.3028 B(  0-C ,  6-H ) :   0.8825
B(  0-C ,  7-H ) :   0.9034 B(  0-C ,  8-H ) :   0.2069 B(  0-C ,  9-H ) :   0.1543
B(  0-C , 10-H ) :   0.1704 B(  1-N ,  3-H ) :   0.8144 B(  1-N ,  4-H ) :   0.6832
B(  1-N ,  5-H ) :   0.7886 B(  1-N ,  7-H ) :   0.1104 B(  2-C ,  8-H ) :   0.7970
B(  2-C ,  9-H ) :   0.7942 B(  2-C , 10-H ) :   0.8102

Dispersion correction           -0.010093854
FINAL SINGLE POINT ENERGY      -135.359922500082

DIPOLE MOMENT
-------------
                                X             Y             Z
Electronic contribution:      0.17126      -1.30181       1.31771
Nuclear contribution   :     -0.22655       0.48066      -0.09136
                        -----------------------------------------
Total Dipole Moment    :     -0.05529      -0.82115       1.22635
                        -----------------------------------------
Magnitude (a.u.)       :      1.47692
Magnitude (Debye)      :      3.75403

Rotational constants in cm-1:     0.998155     0.284845     0.251232
Rotational constants in MHz : 29923.943568  8539.431565  7531.732866

                             ****ORCA TERMINATED NORMALLY****
TOTAL RUN TIME: 0 days 0 hours 0 minutes 13 seconds 924 msec
