                         Program Version 5.0.0 -  RELEASE  -
|  1> !B3LYP D3BJ RIJCOSX def2-SVPD def2/J TightSCF
|  2> *xyz 0 1
|  3> C          0.13297        2.38587       -4.02462
|  4> C         -1.36646        2.47911       -4.31393
|  5> C         -2.35773        2.30686       -3.13675
|  6> H         -1.63680        1.72709       -5.06399
|  7> H         -1.58235        3.44561       -4.76869
|  8> F         -3.44376        2.84652       -3.25274
|  9> O         -1.97092        1.58304       -2.15123
| 10> H          0.68084        2.52514       -4.93310
| 11> H          0.35823        1.42282       -3.61633
| 12> H          0.40851        3.14443       -3.32208
| 13> *
| 14> %MaxCore 64000
| 15>
| 16> %pal nprocs 4
| 17> end
| 18>
| 19> %scf
| 20>   MaxIter 150
| 21> end
| 22>
| 23>
| 24>                          ****END OF INPUT****

CARTESIAN COORDINATES (ANGSTROEM)
---------------------------------
  C      0.132970    2.385870   -4.024620
  C     -1.366460    2.479110   -4.313930
  C     -2.357730    2.306860   -3.136750
  H     -1.636800    1.727090   -5.063990
  H     -1.582350    3.445610   -4.768690
  F     -3.443760    2.846520   -3.252740
  O     -1.970920    1.583040   -2.151230
  H      0.680840    2.525140   -4.933100
  H      0.358230    1.422820   -3.616330
  H      0.408510    3.144430   -3.322080

 Total Charge           Charge          ....    0
 Multiplicity           Mult            ....    1
 Number of Electrons    NEL             ....   40
 Basis Dimension        Dim             ....  146

ORBITAL ENERGIES
----------------

  NO   OCC          E(Eh)            E(eV)
   0   2.0000     -24.784728      -674.4267
   1   2.0000     -19.146264      -520.9963
   2   2.0000     -10.371309      -282.2177
   3   2.0000     -10.218831      -278.0685
   4   2.0000     -10.186340      -277.1844
   5   2.0000      -1.337870       -36.4053
   6   2.0000      -1.010291       -27.4914
   7   2.0000      -0.791676       -21.5426
   8   2.0000      -0.698051       -18.9949
   9   2.0000      -0.646917       -17.6035
  10   2.0000      -0.570750       -15.5309
  11   2.0000      -0.551052       -14.9949
  12   2.0000      -0.507000       -13.7962
  13   2.0000      -0.468909       -12.7597
  14   2.0000      -0.432809       -11.7773
  15   2.0000      -0.396288       -10.7836
  16   2.0000      -0.377601       -10.2750
  17   2.0000      -0.374961       -10.2032
  18   2.0000      -0.347259        -9.4494
  19   2.0000      -0.291339        -7.9277
  20   0.0000      -0.036507        -0.9934
  21   0.0000       0.011425         0.3109
  22   0.0000       0.040483         1.1016
  23   0.0000       0.057264         1.5582
  24   0.0000       0.070395         1.9156

MULLIKEN ATOMIC CHARGES
-----------------------
   0 C :    0.889251
   1 C :   -0.312374
   2 C :    0.718415
   3 H :   -0.023788
   4 H :   -0.068528
   5 F :   -0.322003
   6 O :   -0.510674
   7 H :   -0.138449
   8 H :   -0.111960
   9 H :   -0.119890
Sum of atomic charges:    0.0000000

LOEWDIN ATOMIC CHARGES
----------------------
   0 C :    0.145911
   1 C :    0.007656
   2 C :   -0.013529
   3 H :    0.036565
   4 H :    0.017602
   5 F :   -0.006342
   6 O :   -0.146795
   7 H :   -0.016436
   8 H :   -0.013370
   9 H :   -0.011262

  Mayer bond orders larger than 0.100000
B(  0-C ,  1-C ) :   1.3480 B(  0-C ,  4-H ) :   0.1043 B(  0-C ,  7-H ) :   0.7210
B(  0-C ,  8-H ) :   0.7710 B(  0-C ,  9-H ) :   0.7826 B(  1-C ,  2-C ) :   1.0792
B(  1-C ,  3-H ) :   0.8640 B(  1-C ,  4-H ) :   0.8916 B(  1-C ,  7-H ) :   0.2508
B(  1-C ,  8-H ) :   0.2276 B(  1-C ,  9-H ) :   0.2128 B(  2-C ,  4-H ) :   0.1179
B(  2-C ,  5-F ) :   0.8034 B(  2-C ,  6-O ) :   1.8028 B(  5-F ,  6-O ) :   0.1084

Dispersion correction           -0.010289897
FINAL SINGLE POINT ENERGY      -292.045378013802

DIPOLE MOMENT
-------------
                                X             Y             Z
Electronic contribution:     -8.36812       0.47857       3.56317
Nuclear contribution   :      8.54799       0.05434      -4.66633
                        -----------------------------------------
Total Dipole Moment    :      0.17987       0.53291      -1.10315
                        -----------------------------------------
Magnitude (a.u.)       :      1.23826
Magnitude (Debye)      :      3.14741

Rotational constants in cm-1:     0.325803     0.123345     0.094275
Rotational constants in MHz :  9767.324172  3697.779805  2826.305733

                             ****ORCA TERMINATED NORMALLY****
TOTAL RUN TIME: 0 days 0 hours 0 minutes 17 seconds 74 msec
