                         Program Version 5.0.0 -  RELEASE  -
|  1> !B3LYP D3BJ RIJCOSX def2-SVPD def2/J TightSCF
|  2> *xyz 0 1
|  3> C          0.64866        1.00359       -3.64560
|  4> C          0.28128        0.67645       -2.24018
|  5> C          0.13297        2.38587       -4.02462
|  6> H          0.39079       -0.31925       -2.02649
|  7> H         -0.69269        0.99010       -2.13812
|  8> H          0.85421        1.21221       -1.57528
|  9> H          0.19099        0.23965       -4.27575
| 10> H          1.73157        0.93173       -3.75075
| 11> H          0.40589        2.60338       -5.03610
| 12> H          0.56342        3.11797       -3.37374
| 13> H         -0.93265        2.40724       -3.93025
| 14> *
| 15> %MaxCore 64000
| 16>
| 17> %pal nprocs 4
| 18> end
| 19>
| 20> %scf
| 21>   MaxIter 150
| 22> end
| 23>
| 24>
| 25>                          ****END OF INPUT****

CARTESIAN COORDINATES (ANGSTROEM)
---------------------------------
  C      0.648660    1.003590   -3.645600
  C      0.281280    0.676450   -2.240180
  C      0.132970    2.385870   -4.024620
  H      0.390790   -0.319250   -2.026490
  H     -0.692690    0.990100   -2.138120
  H      0.854210    1.212210   -1.575280
  H      0.190990    0.239650   -4.275750
  H      1.731570    0.931730   -3.750750
  H      0.405890    2.603380   -5.036100
  H      0.563420    3.117970   -3.373740
  H     -0.932650    2.407240   -3.930250

 Total Charge           Charge          ....    0
 Multiplicity           Mult            ....    1
 Number of Electrons    NEL             ....   26
 Basis Dimension        Dim             ....  124

ORBITAL ENERGIES
----------------

  NO   OCC          E(Eh)            E(eV)
   0   2.0000     -10.169706      -276.7318
   1   2.0000     -10.162899      -276.5465
   2   2.0000     -10.145233      -276.0658
   3   2.0000      -0.786006       -21.3883
   4   2.0000      -0.682149       -18.5622
   5   2.0000      -0.580034       -15.7835
   6   2.0000      -0.467977       -12.7343
   7   2.0000      -0.449628       -12.2350
   8   2.0000      -0.402929       -10.9643
   9   2.0000      -0.387216       -10.5367
  10   2.0000      -0.339583        -9.2405
  11   2.0000      -0.335599        -9.1321
  12   2.0000      -0.328293        -8.9333
  13   0.0000       0.025789         0.7018
  14   0.0000       0.054330         1.4784
  15   0.0000       0.060545         1.6475
  16   0.0000       0.082401         2.2423
  17   0.0000       0.101528         2.7627

MULLIKEN ATOMIC CHARGES
-----------------------
   0 C :   -0.408810
   1 C :    1.188934
   2 C :    0.824957
   3 H :   -0.333820
   4 H :   -0.249173
   5 H :   -0.241956
   6 H :   -0.156116
   7 H :   -0.206447
   8 H :   -0.198793
   9 H :   -0.113782
  10 H :   -0.104993
Sum of atomic charges:   -0.0000000

LOEWDIN ATOMIC CHARGES
----------------------
   0 C :   -0.113766
   1 C :    0.122566
   2 C :    0.123387
   3 H :   -0.035932
   4 H :   -0.036920
   5 H :   -0.031328
   6 H :    0.018156
   7 H :    0.016889
   8 H :   -0.025132
   9 H :   -0.017500
  10 H :   -0.020420

  Mayer bond orders larger than 0.100000
B(  0-C ,  1-C ) :   1.2517 B(  0-C ,  2-C ) :   1.2588 B(  0-C ,  3-H ) :   0.2226
B(  0-C ,  4-H ) :   0.2719 B(  0-C ,  5-H ) :   0.2534 B(  0-C ,  6-H ) :   0.8858
B(  0-C ,  7-H ) :   0.9263 B(  0-C ,  8-H ) :   0.2018 B(  0-C ,  9-H ) :   0.1923
B(  0-C , 10-H ) :   0.1803 B(  1-C ,  3-H ) :   0.6586 B(  1-C ,  4-H ) :   0.6555
B(  1-C ,  5-H ) :   0.6304 B(  1-C ,  7-H ) :   0.1063 B(  2-C ,  8-H ) :   0.7936
B(  2-C ,  9-H ) :   0.7903 B(  2-C , 10-H ) :   0.8046 B(  4-H ,  5-H ) :   0.1203

Dispersion correction           -0.010170709
FINAL SINGLE POINT ENERGY      -118.963164939624

DIPOLE MOMENT
-------------
                                X             Y             Z
Electronic contribution:      0.26006      -0.28170      -0.24483
Nuclear contribution   :     -0.24754       0.26111       0.24628
                        -----------------------------------------
Total Dipole Moment    :      0.01252      -0.02059       0.00145
                        -----------------------------------------
Magnitude (a.u.)       :      0.02414
Magnitude (Debye)      :      0.06137

Rotational constants in cm-1:     1.006509     0.299509     0.263145
Rotational constants in MHz : 30174.379724  8979.049324  7888.875355

                             ****ORCA TERMINATED NORMALLY****
TOTAL RUN TIME: 0 days 0 hours 0 minutes 13 seconds 834 msec
