                         Program Version 5.0.0 -  RELEASE  -
|  1> !B3LYP D3BJ RIJCOSX def2-SVPD def2/J TightSCF
|  2> *xyz 0 1
|  3> C          0.13297        2.38587       -4.02462
|  4> C         -1.36646        2.47911       -4.31393
|  5> C         -2.35773        2.30686       -3.13675
|  6> H         -1.63680        1.72709       -5.06399
|  7> H         -1.58235        3.44561       -4.76869
|  8> O         -3.44376        2.84652       -3.25274
|  9> F         -1.97092        1.58304       -2.15123
| 10> H          0.68084        2.52514       -4.93310
| 11> H          0.35823        1.42282       -3.61633
| 12> H          0.40851        3.14443       -3.32208
| 13> *
| 14> %MaxCore 64000
| 15>
| 16> %pal nprocs 4
| 17> end
| 18>
| 19> %scf
| 20>   MaxIter 150
| 21> end
| 22>
| 23>
| 24>                          ****END OF INPUT****

CARTESIAN COORDINATES (ANGSTROEM)
---------------------------------
  C      0.132970    2.385870   -4.024620
  C     -1.366460    2.479110   -4.313930
  C     -2.357730    2.306860   -3.136750
  H     -1.636800    1.727090   -5.063990
  H     -1.582350    3.445610   -4.768690
  O     -3.443760    2.846520   -3.252740
  F     -1.970920    1.583040   -2.151230
  H      0.680840    2.525140   -4.933100
  H      0.358230    1.422820   -3.616330
  H      0.408510    3.144430   -3.322080

 Total Charge           Charge          ....    0
 Multiplicity           Mult            ....    1
 Number of Electrons    NEL             ....   40
 Basis Dimension        Dim             ....  146

ORBITAL ENERGIES
----------------

  NO   OCC          E(Eh)            E(eV)
   0   2.0000     -24.761417      -673.7924
   1   2.0000     -19.155494      -521.2475
   2   2.0000     -10.366040      -282.0743
   3   2.0000     -10.217209      -278.0244
   4   2.0000     -10.191335      -277.3203
   5   2.0000      -1.289212       -35.0813
   6   2.0000      -1.050789       -28.5934
   7   2.0000      -0.793879       -21.6026
   8   2.0000      -0.678243       -18.4559
   9   2.0000      -0.638731       -17.3808
  10   2.0000      -0.544555       -14.8181
  11   2.0000      -0.539104       -14.6698
  12   2.0000      -0.497607       -13.5406
  13   2.0000      -0.468951       -12.7608
  14   2.0000      -0.436060       -11.8658
  15   2.0000      -0.410327       -11.1656
  16   2.0000      -0.394305       -10.7296
  17   2.0000      -0.378557       -10.3011
  18   2.0000      -0.359358        -9.7786
  19   2.0000      -0.302402        -8.2288
  20   0.0000      -0.031334        -0.8526
  21   0.0000       0.008333         0.2268
  22   0.0000       0.045721         1.2441
  23   0.0000       0.053957         1.4682
  24   0.0000       0.071066         1.9338

MULLIKEN ATOMIC CHARGES
-----------------------
   0 C :    0.909091
   1 C :   -0.309773
   2 C :    0.705698
   3 H :   -0.024325
   4 H :   -0.075741
   5 O :   -0.413297
   6 F :   -0.411151
   7 H :   -0.138152
   8 H :   -0.121284
   9 H :   -0.121064
Sum of atomic charges:    0.0000000

LOEWDIN ATOMIC CHARGES
----------------------
   0 C :    0.135076
   1 C :    0.018343
   2 C :   -0.009615
   3 H :    0.037667
   4 H :    0.028246
   5 O :   -0.111604
   6 F :   -0.048309
   7 H :   -0.016601
   8 H :   -0.018610
   9 H :   -0.014593

  Mayer bond orders larger than 0.100000
B(  0-C ,  1-C ) :   1.3151 B(  0-C ,  7-H ) :   0.7180 B(  0-C ,  8-H ) :   0.7729
B(  0-C ,  9-H ) :   0.7838 B(  1-C ,  2-C ) :   1.0365 B(  1-C ,  3-H ) :   0.8660
B(  1-C ,  4-H ) :   0.9204 B(  1-C ,  7-H ) :   0.2628 B(  1-C ,  8-H ) :   0.2133
B(  1-C ,  9-H ) :   0.2053 B(  2-C ,  4-H ) :   0.1393 B(  2-C ,  5-O ) :   1.8659
B(  2-C ,  6-F ) :   0.7229 B(  5-O ,  6-F ) :   0.1151

Dispersion correction           -0.010203597
FINAL SINGLE POINT ENERGY      -292.062516070067

DIPOLE MOMENT
-------------
                                X             Y             Z
Electronic contribution:     -5.88959      -1.62562       5.38305
Nuclear contribution   :      6.94213       1.43193      -5.86732
                        -----------------------------------------
Total Dipole Moment    :      1.05254      -0.19369      -0.48427
                        -----------------------------------------
Magnitude (a.u.)       :      1.17468
Magnitude (Debye)      :      2.98581

Rotational constants in cm-1:     0.306336     0.129048     0.095707
Rotational constants in MHz :  9183.725605  3868.769583  2869.236577

                             ****ORCA TERMINATED NORMALLY****
TOTAL RUN TIME: 0 days 0 hours 0 minutes 16 seconds 141 msec
