                         Program Version 5.0.0 -  RELEASE  -
|  1> !B3LYP D3BJ RIJCOSX def2-SVPD def2/J TightSCF xyzfile
|  2>
|  3> *xyzfile 0 1 D1.xyz
|  4>
|  5> %MaxCore 64000
|  6>
|  7> %pal nprocs 4
|  8> end
|  9>
| 10> %scf
| 11>   MaxIter 150
| 12> end
| 13>
| 14>
| 15>                          ****END OF INPUT****

CARTESIAN COORDINATES (ANGSTROEM)
---------------------------------
  C      0.648656    1.003595   -3.645601
  C      0.281280    0.676454   -2.240179
  C      0.132968    2.385869   -4.024618
  C     -1.366462    2.479106   -4.313932
  C     -2.357732    2.306858   -3.136753
  H     -1.636802    1.727095   -5.063993
  H     -1.582347    3.445605   -4.768687
  H      0.390790   -0.319253   -2.026495
  H     -0.692686    0.990104   -2.138123
  H      0.854206    1.212214   -1.575279
  F     -3.443763    2.846518   -3.252744
  O     -1.970922    1.583042   -2.151229
  H      0.190993    0.239655   -4.275752
  H      1.731572    0.931729   -3.750751
  H      0.414839    3.102847   -3.245165
  H      0.683167    2.687560   -4.919721

 Total Charge           Charge          ....    0
 Multiplicity           Mult            ....    1
 Number of Electrons    NEL             ....   56
 Basis Dimension        Dim             ....  218

ORBITAL ENERGIES
----------------

  NO   OCC          E(Eh)            E(eV)
   0   2.0000     -24.795697      -674.7252
   1   2.0000     -19.153130      -521.1832
   2   2.0000     -10.385927      -282.6155
   3   2.0000     -10.223231      -278.1882
   4   2.0000     -10.191618      -277.3280
   5   2.0000     -10.163350      -276.5588
   6   2.0000     -10.093265      -274.6517
   7   2.0000      -1.348154       -36.6851
   8   2.0000      -1.033657       -28.1273
   9   2.0000      -0.810246       -22.0479
  10   2.0000      -0.752379       -20.4733
  11   2.0000      -0.690365       -18.7858
  12   2.0000      -0.656504       -17.8644
  13   2.0000      -0.584130       -15.8950
  14   2.0000      -0.574382       -15.6297
  15   2.0000      -0.561148       -15.2696
  16   2.0000      -0.525711       -14.3053
  17   2.0000      -0.482490       -13.1292
  18   2.0000      -0.452835       -12.3223
  19   2.0000      -0.436954       -11.8901
  20   2.0000      -0.412325       -11.2199
  21   2.0000      -0.385203       -10.4819
  22   2.0000      -0.379671       -10.3314
  23   2.0000      -0.359822        -9.7913
  24   2.0000      -0.344749        -9.3811
  25   2.0000      -0.321761        -8.7556
  26   2.0000      -0.313638        -8.5345
  27   2.0000      -0.248762        -6.7691
  28   0.0000      -0.050591        -1.3766
  29   0.0000       0.010326         0.2810
  30   0.0000       0.035152         0.9565
  31   0.0000       0.047131         1.2825
  32   0.0000       0.052087         1.4174

MULLIKEN ATOMIC CHARGES
-----------------------
   0 C :   -0.079104
   1 C :    2.442243
   2 C :    0.268478
   3 C :    0.134990
   4 C :    0.705002
   5 H :    0.118664
   6 H :   -0.057456
   7 H :   -0.197737
   8 H :   -1.735179
   9 H :   -0.102706
  10 F :   -0.350338
  11 O :   -0.458133
  12 H :   -0.078913
  13 H :   -0.309279
  14 H :   -0.097114
  15 H :   -0.203418
Sum of atomic charges:   -0.0000000

LOEWDIN ATOMIC CHARGES
----------------------
   0 C :   -0.049821
   1 C :    0.136900
   2 C :   -0.016341
   3 C :    0.070208
   4 C :    0.063555
   5 H :    0.042598
   6 H :    0.021193
   7 H :   -0.031987
   8 H :   -0.202298
   9 H :   -0.025659
  10 F :    0.008336
  11 O :   -0.102353
  12 H :    0.020453
  13 H :    0.014309
  14 H :    0.032876
  15 H :    0.018029

  Mayer bond orders larger than 0.100000
B(  0-C ,  1-C ) :   0.8703 B(  0-C ,  2-C ) :   1.1699 B(  0-C ,  7-H ) :   0.2519
B(  0-C ,  8-H ) :   0.6679 B(  0-C ,  9-H ) :   0.3015 B(  0-C , 12-H ) :   0.8012
B(  0-C , 13-H ) :   0.8703 B(  0-C , 14-H ) :   0.1218 B(  0-C , 15-H ) :   0.1161
B(  1-C ,  2-C ) :   0.1033 B(  1-C ,  7-H ) :   0.3759 B(  1-C ,  8-H ) :  -2.1473
B(  1-C ,  9-H ) :   0.1761 B(  1-C , 11-O ) :  -0.1397 B(  1-C , 12-H ) :   0.1260
B(  2-C ,  3-C ) :   1.2271 B(  2-C ,  5-H ) :   0.1510 B(  2-C ,  6-H ) :   0.1625
B(  2-C , 12-H ) :   0.1107 B(  2-C , 13-H ) :   0.1394 B(  2-C , 14-H ) :   0.8231
B(  2-C , 15-H ) :   0.8255 B(  3-C ,  4-C ) :   1.1003 B(  3-C ,  5-H ) :   0.7509
B(  3-C ,  6-H ) :   0.8340 B(  3-C , 10-F ) :   0.1070 B(  3-C , 14-H ) :   0.1307
B(  3-C , 15-H ) :   0.1137 B(  4-C ,  6-H ) :   0.1210 B(  4-C , 10-F ) :   0.7848
B(  4-C , 11-O ) :   1.6817 B(  7-H ,  8-H ) :   0.2606 B(  7-H ,  9-H ) :  -0.1469
B(  8-H ,  9-H ) :   0.5447 B(  8-H , 11-O ) :   0.2701 B(  8-H , 13-H ) :   0.1235
B( 12-H , 13-H ) :  -0.1266

Dispersion correction           -0.022141557
FINAL SINGLE POINT ENERGY      -370.513366101396

DIPOLE MOMENT
-------------
                                X             Y             Z
Electronic contribution:    -12.99852       4.58577       1.41410
Nuclear contribution   :     12.79331      -3.91961      -2.45895
                        -----------------------------------------
Total Dipole Moment    :     -0.20521       0.66616      -1.04485
                        -----------------------------------------
Magnitude (a.u.)       :      1.25602
Magnitude (Debye)      :      3.19254

Rotational constants in cm-1:     0.162888     0.059977     0.046450
Rotational constants in MHz :  4883.250030  1798.063289  1392.548669

                             ****ORCA TERMINATED NORMALLY****
TOTAL RUN TIME: 0 days 0 hours 0 minutes 36 seconds 505 msec
