                         Program Version 5.0.0 -  RELEASE  -
|  1> !B3LYP D3BJ RIJCOSX def2-SVPD def2/J TightSCF xyzfile
|  2>
|  3> *xyzfile 0 1 D2.xyz
|  4>
|  5> %MaxCore 64000
|  6>
|  7> %pal nprocs 4
|  8> end
|  9>
| 10> %scf
| 11>   MaxIter 150
| 12> end
| 13>
| 14>
| 15>                          ****END OF INPUT****

CARTESIAN COORDINATES (ANGSTROEM)
---------------------------------
  C      0.648656    1.003595   -3.645601
  C      0.281280    0.676454   -2.240179
  C      0.132968    2.385869   -4.024618
  C     -1.366462    2.479106   -4.313932
  C     -2.357732    2.306858   -3.136753
  H     -1.636802    1.727095   -5.063993
  H     -1.582347    3.445605   -4.768687
  H      0.390790   -0.319253   -2.026495
  H     -0.692686    0.990104   -2.138123
  H      0.854206    1.212214   -1.575279
  O     -3.443763    2.846518   -3.252744
  F     -1.970922    1.583042   -2.151229
  H      0.190993    0.239655   -4.275752
  H      1.731572    0.931729   -3.750751
  H      0.414839    3.102847   -3.245165
  H      0.683167    2.687560   -4.919721

 Total Charge           Charge          ....    0
 Multiplicity           Mult            ....    1
 Number of Electrons    NEL             ....   56
 Basis Dimension        Dim             ....  218

ORBITAL ENERGIES
----------------

  NO   OCC          E(Eh)            E(eV)
   0   2.0000     -24.772035      -674.0813
   1   2.0000     -19.162989      -521.4514
   2   2.0000     -10.373574      -282.2793
   3   2.0000     -10.219246      -278.0798
   4   2.0000     -10.195365      -277.4300
   5   2.0000     -10.176923      -276.9282
   6   2.0000     -10.125490      -275.5286
   7   2.0000      -1.311054       -35.6756
   8   2.0000      -1.058395       -28.8004
   9   2.0000      -0.818063       -22.2606
  10   2.0000      -0.759202       -20.6589
  11   2.0000      -0.680911       -18.5285
  12   2.0000      -0.672417       -18.2974
  13   2.0000      -0.582178       -15.8419
  14   2.0000      -0.564159       -15.3515
  15   2.0000      -0.555241       -15.1089
  16   2.0000      -0.508413       -13.8346
  17   2.0000      -0.473160       -12.8753
  18   2.0000      -0.454764       -12.3747
  19   2.0000      -0.450075       -12.2472
  20   2.0000      -0.424439       -11.5496
  21   2.0000      -0.394559       -10.7365
  22   2.0000      -0.387543       -10.5456
  23   2.0000      -0.368978       -10.0404
  24   2.0000      -0.339359        -9.2344
  25   2.0000      -0.334585        -9.1045
  26   2.0000      -0.326772        -8.8919
  27   2.0000      -0.296510        -8.0684
  28   0.0000      -0.038979        -1.0607
  29   0.0000       0.011848         0.3224
  30   0.0000       0.037166         1.0113
  31   0.0000       0.043066         1.1719
  32   0.0000       0.044228         1.2035

MULLIKEN ATOMIC CHARGES
-----------------------
   0 C :   -0.052607
   1 C :    2.507418
   2 C :    0.306572
   3 C :    0.122384
   4 C :    0.666075
   5 H :    0.117337
   6 H :   -0.077332
   7 H :   -0.164462
   8 H :   -1.704216
   9 H :   -0.086655
  10 O :   -0.388342
  11 F :   -0.548109
  12 H :   -0.084258
  13 H :   -0.310514
  14 H :   -0.102611
  15 H :   -0.200678
Sum of atomic charges:    0.0000000

LOEWDIN ATOMIC CHARGES
----------------------
   0 C :   -0.051306
   1 C :    0.150223
   2 C :   -0.026114
   3 C :    0.075663
   4 C :    0.031124
   5 H :    0.042779
   6 H :    0.031231
   7 H :   -0.027538
   8 H :   -0.150563
   9 H :   -0.021832
  10 O :   -0.095975
  11 F :   -0.045319
  12 H :    0.021744
  13 H :    0.017492
  14 H :    0.030046
  15 H :    0.018348

  Mayer bond orders larger than 0.100000
B(  0-C ,  1-C ) :   0.8802 B(  0-C ,  2-C ) :   1.1685 B(  0-C ,  7-H ) :   0.2468
B(  0-C ,  8-H ) :   0.6249 B(  0-C ,  9-H ) :   0.2998 B(  0-C , 12-H ) :   0.8116
B(  0-C , 13-H ) :   0.8724 B(  0-C , 14-H ) :   0.1150 B(  0-C , 15-H ) :   0.1153
B(  1-C ,  2-C ) :   0.1053 B(  1-C ,  7-H ) :   0.3903 B(  1-C ,  8-H ) :  -2.2484
B(  1-C ,  9-H ) :   0.1526 B(  1-C , 11-F ) :  -0.2431 B(  1-C , 12-H ) :   0.1299
B(  2-C ,  3-C ) :   1.1918 B(  2-C ,  5-H ) :   0.1503 B(  2-C ,  6-H ) :   0.1522
B(  2-C , 12-H ) :   0.1138 B(  2-C , 13-H ) :   0.1376 B(  2-C , 14-H ) :   0.8157
B(  2-C , 15-H ) :   0.8112 B(  3-C ,  4-C ) :   1.0498 B(  3-C ,  5-H ) :   0.7530
B(  3-C ,  6-H ) :   0.8697 B(  3-C , 11-F ) :   0.1028 B(  3-C , 14-H ) :   0.1348
B(  3-C , 15-H ) :   0.1263 B(  4-C ,  6-H ) :   0.1429 B(  4-C , 10-O ) :   1.8664
B(  4-C , 11-F ) :   0.6513 B(  7-H ,  8-H ) :   0.2533 B(  7-H ,  9-H ) :  -0.1499
B(  8-H ,  9-H ) :   0.5588 B(  8-H , 11-F ) :   0.4123 B(  8-H , 13-H ) :   0.1381
B( 10-O , 11-F ) :   0.1331 B( 12-H , 13-H ) :  -0.1275

Dispersion correction           -0.021806028
FINAL SINGLE POINT ENERGY      -370.531970871300

DIPOLE MOMENT
-------------
                                X             Y             Z
Electronic contribution:    -10.27025       2.33722       3.29695
Nuclear contribution   :     11.08738      -2.45618      -3.73478
                        -----------------------------------------
Total Dipole Moment    :      0.81713      -0.11896      -0.43783
                        -----------------------------------------
Magnitude (a.u.)       :      0.93464
Magnitude (Debye)      :      2.37566

Rotational constants in cm-1:     0.156244     0.063730     0.048063
Rotational constants in MHz :  4684.071402  1910.571278  1440.877811

                             ****ORCA TERMINATED NORMALLY****
TOTAL RUN TIME: 0 days 0 hours 0 minutes 35 seconds 172 msec
