                         Program Version 5.0.0 -  RELEASE  -
|  1> !LC-PBE RIJCOSX def2-TZVPD def2/J TightSCF
|  2> *xyz -1 1
|  3> C         -1.10433        0.25137       -2.86006
|  4> C         -0.71189        0.84252       -4.21834
|  5> H          0.15463        1.49980       -4.13091
|  6> H         -1.53813        1.45922       -4.58267
|  7> C         -0.39762       -0.20587       -5.28802
|  8> O          0.61717       -0.00535       -5.99827
|  9> O         -1.13317       -1.22138       -5.34147
| 10> H         -1.95489       -0.38644       -2.98099
| 11> H         -1.34603        1.04362       -2.18269
| 12> H         -0.28606       -0.31581       -2.46809
| 13> *
| 14>
| 15> %MaxCore 64000
| 16>
| 17> %pal nprocs 4
| 18> end
| 19>
| 20> %scf
| 21>   MaxIter 150
| 22> end
| 23>
| 24>
| 25>                          ****END OF INPUT****

CARTESIAN COORDINATES (ANGSTROEM)
---------------------------------
  C     -1.104330    0.251370   -2.860060
  C     -0.711890    0.842520   -4.218340
  H      0.154630    1.499800   -4.130910
  H     -1.538130    1.459220   -4.582670
  C     -0.397620   -0.205870   -5.288020
  O      0.617170   -0.005350   -5.998270
  O     -1.133170   -1.221380   -5.341470
  H     -1.954890   -0.386440   -2.980990
  H     -1.346030    1.043620   -2.182690
  H     -0.286060   -0.315810   -2.468090

 Total Charge           Charge          ....   -1
 Multiplicity           Mult            ....    1
 Number of Electrons    NEL             ....   40
 Basis Dimension        Dim             ....  236

ORBITAL ENERGIES
----------------

  NO   OCC          E(Eh)            E(eV)
   0   2.0000     -18.708985      -509.0974
   1   2.0000     -18.708254      -509.0775
   2   2.0000     -10.002054      -272.1697
   3   2.0000      -9.948745      -270.7191
   4   2.0000      -9.941627      -270.5254
   5   2.0000      -0.988718       -26.9044
   6   2.0000      -0.886191       -24.1145
   7   2.0000      -0.782344       -21.2887
   8   2.0000      -0.639493       -17.4015
   9   2.0000      -0.469957       -12.7882
  10   2.0000      -0.439428       -11.9575
  11   2.0000      -0.404758       -11.0140
  12   2.0000      -0.373648       -10.1675
  13   2.0000      -0.354774        -9.6539
  14   2.0000      -0.346313        -9.4236
  15   2.0000      -0.314132        -8.5480
  16   2.0000      -0.297061        -8.0834
  17   2.0000      -0.177326        -4.8253
  18   2.0000      -0.172403        -4.6913
  19   2.0000      -0.162755        -4.4288
  20   0.0000       0.188008         5.1159
  21   0.0000       0.208173         5.6647
  22   0.0000       0.214857         5.8466
  23   0.0000       0.232552         6.3281
  24   0.0000       0.252917         6.8822

MULLIKEN ATOMIC CHARGES
-----------------------
   0 C :   -1.103259
   1 C :   -0.387310
   2 H :    0.285692
   3 H :    0.268733
   4 C :    0.357819
   5 O :   -0.706808
   6 O :   -0.690664
   7 H :    0.310633
   8 H :    0.341453
   9 H :    0.323710
Sum of atomic charges:   -1.0000000

LOEWDIN ATOMIC CHARGES
----------------------
   0 C :   -0.154696
   1 C :   -0.227427
   2 H :    0.097834
   3 H :    0.105152
   4 C :   -0.792801
   5 O :   -0.109627
   6 O :   -0.101712
   7 H :    0.062476
   8 H :    0.051588
   9 H :    0.069213

  Mayer bond orders larger than 0.100000
B(  0-C ,  1-C ) :   0.5506 B(  0-C ,  7-H ) :   0.9860 B(  0-C ,  8-H ) :   0.9156
B(  0-C ,  9-H ) :   0.9441 B(  1-C ,  2-H ) :   0.9698 B(  1-C ,  3-H ) :   0.9354
B(  1-C ,  4-C ) :   0.9674 B(  4-C ,  5-O ) :   1.4683 B(  4-C ,  6-O ) :   1.4830

FINAL SINGLE POINT ENERGY      -267.158025563140

DIPOLE MOMENT
-------------
                                X             Y             Z
Electronic contribution:      1.52319      -2.31211      -5.15868
Nuclear contribution   :     -2.09607       3.44215       6.87744
                        -----------------------------------------
Total Dipole Moment    :     -0.57288       1.13004       1.71876
                        -----------------------------------------
Magnitude (a.u.)       :      2.13525
Magnitude (Debye)      :      5.42738

Rotational constants in cm-1:     0.324698     0.133739     0.103466
Rotational constants in MHz :  9734.203431  4009.406827  3101.846422

                             ****ORCA TERMINATED NORMALLY****
TOTAL RUN TIME: 0 days 0 hours 0 minutes 44 seconds 104 msec
