                         Program Version 5.0.0 -  RELEASE  -
|  1> !LC-PBE RIJCOSX def2-TZVPD def2/J TightSCF
|  2> *xyz 1 1
|  3> C          2.23447       -2.98975       -2.39762
|  4> N          2.75680       -2.94555       -3.76503
|  5> C          1.98721       -2.59045       -4.81898
|  6> N          0.74322       -3.01749       -4.91352
|  7> N          2.49964       -1.84860       -5.80324
|  8> H          3.30978       -1.29282       -5.55895
|  9> H          1.80103       -1.30430       -6.28913
| 10> H          3.71612       -2.62880       -3.82953
| 11> H          0.39583       -3.62775       -4.18502
| 12> H          0.03920       -2.45438       -5.37137
| 13> C          2.19120       -1.61950       -1.71549
| 14> H          2.87278       -3.66637       -1.82801
| 15> H          1.24619       -3.44744       -2.40784
| 16> H          1.56387       -0.96046       -2.27853
| 17> H          3.18033       -1.21449       -1.66568
| 18> H          1.79916       -1.72608       -0.72562
| 19> *
| 20>
| 21> %MaxCore 64000
| 22>
| 23> %pal nprocs 4
| 24> end
| 25>
| 26> %scf
| 27>   MaxIter 150
| 28> end
| 29>
| 30>
| 31>                          ****END OF INPUT****

CARTESIAN COORDINATES (ANGSTROEM)
---------------------------------
  C      2.234470   -2.989750   -2.397620
  N      2.756800   -2.945550   -3.765030
  C      1.987210   -2.590450   -4.818980
  N      0.743220   -3.017490   -4.913520
  N      2.499640   -1.848600   -5.803240
  H      3.309780   -1.292820   -5.558950
  H      1.801030   -1.304300   -6.289130
  H      3.716120   -2.628800   -3.829530
  H      0.395830   -3.627750   -4.185020
  H      0.039200   -2.454380   -5.371370
  C      2.191200   -1.619500   -1.715490
  H      2.872780   -3.666370   -1.828010
  H      1.246190   -3.447440   -2.407840
  H      1.563870   -0.960460   -2.278530
  H      3.180330   -1.214490   -1.665680
  H      1.799160   -1.726080   -0.725620

 Total Charge           Charge          ....    1
 Multiplicity           Mult            ....    1
 Number of Electrons    NEL             ....   48
 Basis Dimension        Dim             ....  312

ORBITAL ENERGIES
----------------

  NO   OCC          E(Eh)            E(eV)
   0   2.0000     -14.445372      -393.0786
   1   2.0000     -14.441491      -392.9729
   2   2.0000     -14.440568      -392.9478
   3   2.0000     -10.466113      -284.7974
   4   2.0000     -10.325497      -280.9710
   5   2.0000     -10.253538      -279.0129
   6   2.0000      -1.402955       -38.1764
   7   2.0000      -1.280570       -34.8461
   8   2.0000      -1.273717       -34.6596
   9   2.0000      -1.103832       -30.0368
  10   2.0000      -1.003905       -27.3177
  11   2.0000      -0.965654       -26.2768
  12   2.0000      -0.939353       -25.5611
  13   2.0000      -0.891340       -24.2546
  14   2.0000      -0.849039       -23.1035
  15   2.0000      -0.825935       -22.4748
  16   2.0000      -0.795993       -21.6601
  17   2.0000      -0.767816       -20.8933
  18   2.0000      -0.745096       -20.2751
  19   2.0000      -0.710175       -19.3249
  20   2.0000      -0.669245       -18.2111
  21   2.0000      -0.647070       -17.6077
  22   2.0000      -0.623933       -16.9781
  23   2.0000      -0.580108       -15.7855
  24   0.0000      -0.107177        -2.9164
  25   0.0000      -0.089382        -2.4322
  26   0.0000      -0.061220        -1.6659
  27   0.0000      -0.050002        -1.3606
  28   0.0000      -0.032708        -0.8900

MULLIKEN ATOMIC CHARGES
-----------------------
   0 C :   -0.564886
   1 N :   -0.260217
   2 C :    0.673067
   3 N :   -0.401188
   4 N :   -0.499082
   5 H :    0.283308
   6 H :    0.293000
   7 H :    0.250075
   8 H :    0.301489
   9 H :    0.273087
  10 C :   -1.201851
  11 H :    0.369088
  12 H :    0.355570
  13 H :    0.334432
  14 H :    0.383668
  15 H :    0.410440
Sum of atomic charges:    1.0000000

LOEWDIN ATOMIC CHARGES
----------------------
   0 C :   -0.226512
   1 N :    0.077976
   2 C :   -0.440420
   3 N :    0.217642
   4 N :    0.200288
   5 H :    0.142835
   6 H :    0.142203
   7 H :    0.164519
   8 H :    0.137494
   9 H :    0.152880
  10 C :   -0.079069
  11 H :    0.137527
  12 H :    0.116598
  13 H :    0.080217
  14 H :    0.084693
  15 H :    0.091129

  Mayer bond orders larger than 0.100000
B(  0-C ,  1-N ) :   0.7659 B(  0-C ,  2-C ) :  -0.1014 B(  0-C , 10-C ) :   0.6356
B(  0-C , 11-H ) :   0.9135 B(  0-C , 12-H ) :   0.8773 B(  1-N ,  2-C ) :   1.2123
B(  1-N ,  7-H ) :   0.9377 B(  2-C ,  3-N ) :   1.0726 B(  2-C ,  4-N ) :   1.0821
B(  3-N ,  8-H ) :   0.8781 B(  3-N ,  9-H ) :   0.9545 B(  4-N ,  5-H ) :   0.9196
B(  4-N ,  6-H ) :   0.8939 B( 10-C , 13-H ) :   0.9314 B( 10-C , 14-H ) :   0.9193
B( 10-C , 15-H ) :   0.9147

FINAL SINGLE POINT ENERGY      -283.589322874419

DIPOLE MOMENT
-------------
                                X             Y             Z
Electronic contribution:      0.17335      -1.65986      -5.19241
Nuclear contribution   :     -0.59121       2.30298       4.63196
                        -----------------------------------------
Total Dipole Moment    :     -0.41785       0.64312      -0.56046
                        -----------------------------------------
Magnitude (a.u.)       :      0.94990
Magnitude (Debye)      :      2.41446

Rotational constants in cm-1:     0.205874     0.074757     0.066901
Rotational constants in MHz :  6171.937773  2241.151057  2005.629823

                             ****ORCA TERMINATED NORMALLY****
TOTAL RUN TIME: 0 days 0 hours 1 minutes 6 seconds 599 msec
