                         Program Version 5.0.0 -  RELEASE  -
|  1> !LC-PBE RIJCOSX def2-TZVPD def2/J TightSCF xyzfile
|  2>
|  3> *xyzfile 0 1 B.xyz
|  4>
|  5> %MaxCore 64000
|  6>
|  7> %pal nprocs 4
|  8> end
|  9>
| 10> %scf
| 11>   MaxIter 150
| 12> end
| 13>
| 14>
| 15>                          ****END OF INPUT****

CARTESIAN COORDINATES (ANGSTROEM)
---------------------------------
  C      2.234473   -2.989754   -2.397622
  N      2.756799   -2.945553   -3.765029
  C     -1.104325    0.251374   -2.860056
  C     -0.711893    0.842517   -4.218344
  H      0.154626    1.499800   -4.130909
  H     -1.538134    1.459222   -4.582671
  C     -0.397624   -0.205875   -5.288018
  C      1.987208   -2.590451   -4.818975
  N      0.743221   -3.017493   -4.913524
  N      2.499636   -1.848598   -5.803241
  H      3.309780   -1.292818   -5.558947
  H      1.801025   -1.304298   -6.289129
  H      3.716116   -2.628797   -3.829533
  H      0.395828   -3.627747   -4.185024
  H      0.039201   -2.454383   -5.371367
  O      0.617165   -0.005348   -5.998273
  O     -1.133173   -1.221380   -5.341465
  C      2.191199   -1.619503   -1.715492
  H      2.872783   -3.666368   -1.828014
  H      1.246188   -3.447444   -2.407842
  C      1.298729   -0.554314   -2.359773
  H      1.872917   -1.787955   -0.681310
  H      3.216809   -1.238432   -1.654428
  C     -0.196255   -0.863365   -2.325763
  H      1.612531   -0.371346   -3.393065
  H      1.480944    0.388638   -1.834444
  H     -0.404105   -1.761825   -2.909448
  H     -0.490439   -1.087880   -1.294131
  H     -1.143842    1.066711   -2.129680
  H     -2.114401   -0.156834   -2.930323

 Total Charge           Charge          ....    0
 Multiplicity           Mult            ....    1
 Number of Electrons    NEL             ....  102
 Basis Dimension        Dim             ....  640

ORBITAL ENERGIES
----------------

  NO   OCC          E(Eh)            E(eV)
   0   2.0000     -18.893544      -514.1195
   1   2.0000     -18.891583      -514.0661
   2   2.0000     -14.286308      -388.7502
   3   2.0000     -14.253598      -387.8601
   4   2.0000     -14.252549      -387.8316
   5   2.0000     -10.292108      -280.0625
   6   2.0000     -10.192141      -277.3422
   7   2.0000     -10.180125      -277.0153
   8   2.0000     -10.141015      -275.9510
   9   2.0000     -10.120792      -275.4008
  10   2.0000     -10.107030      -275.0263
  11   2.0000     -10.097951      -274.7792
  12   2.0000     -10.084865      -274.4231
  13   2.0000      -1.231484       -33.5104
  14   2.0000      -1.177091       -32.0303
  15   2.0000      -1.118325       -30.4312
  16   2.0000      -1.094419       -29.7807
  17   2.0000      -1.070632       -29.1334
  18   2.0000      -1.001137       -27.2423
  19   2.0000      -0.955406       -25.9979
  20   2.0000      -0.898220       -24.4418
  21   2.0000      -0.849863       -23.1259
  22   2.0000      -0.813856       -22.1461
  23   2.0000      -0.783629       -21.3236
  24   2.0000      -0.767769       -20.8921
  25   2.0000      -0.736991       -20.0545
  26   2.0000      -0.710053       -19.3215
  27   2.0000      -0.686687       -18.6857
  28   2.0000      -0.658356       -17.9148
  29   2.0000      -0.644877       -17.5480
  30   2.0000      -0.628044       -17.0899
  31   2.0000      -0.618524       -16.8309
  32   2.0000      -0.610990       -16.6259
  33   2.0000      -0.596440       -16.2299
  34   2.0000      -0.583537       -15.8788
  35   2.0000      -0.569716       -15.5028
  36   2.0000      -0.554283       -15.0828
  37   2.0000      -0.551251       -15.0003
  38   2.0000      -0.529969       -14.4212
  39   2.0000      -0.521051       -14.1785
  40   2.0000      -0.504333       -13.7236
  41   2.0000      -0.491029       -13.3616
  42   2.0000      -0.478561       -13.0223
  43   2.0000      -0.458636       -12.4801
  44   2.0000      -0.445122       -12.1124
  45   2.0000      -0.437804       -11.9133
  46   2.0000      -0.432243       -11.7619
  47   2.0000      -0.423289       -11.5183
  48   2.0000      -0.360971        -9.8225
  49   2.0000      -0.351146        -9.5552
  50   2.0000      -0.349312        -9.5053
  51   0.0000       0.039154         1.0654
  52   0.0000       0.054268         1.4767
  53   0.0000       0.061382         1.6703
  54   0.0000       0.071216         1.9379
  55   0.0000       0.076487         2.0813

MULLIKEN ATOMIC CHARGES
-----------------------
   0 C :   -0.928676
   1 N :   -0.243343
   2 C :   -0.835533
   3 C :   -0.609906
   4 H :    0.360544
   5 H :    0.375965
   6 C :    0.553299
   7 C :    0.553078
   8 N :   -0.400055
   9 N :   -0.522630
  10 H :    0.239024
  11 H :    0.407264
  12 H :    0.239453
  13 H :    0.269534
  14 H :    0.333823
  15 O :   -0.819521
  16 O :   -0.796815
  17 C :   -0.668111
  18 H :    0.365433
  19 H :    0.403773
  20 C :   -0.588611
  21 H :    0.399169
  22 H :    0.371269
  23 C :   -0.551077
  24 H :    0.336321
  25 H :    0.387536
  26 H :    0.267871
  27 H :    0.357898
  28 H :    0.360146
  29 H :    0.382879
Sum of atomic charges:   -0.0000000

LOEWDIN ATOMIC CHARGES
----------------------
   0 C :   -0.194513
   1 N :    0.068981
   2 C :   -0.217923
   3 C :   -0.143155
   4 H :    0.116047
   5 H :    0.126839
   6 C :   -0.695451
   7 C :   -0.456439
   8 N :    0.226082
   9 N :    0.187784
  10 H :    0.131857
  11 H :    0.074595
  12 H :    0.153115
  13 H :    0.129564
  14 H :    0.066018
  15 O :   -0.061446
  16 O :   -0.053850
  17 C :   -0.201271
  18 H :    0.128307
  19 H :    0.116512
  20 C :   -0.216873
  21 H :    0.124909
  22 H :    0.119514
  23 C :   -0.226316
  24 H :    0.110854
  25 H :    0.130216
  26 H :    0.096049
  27 H :    0.123529
  28 H :    0.117105
  29 H :    0.119361

  Mayer bond orders larger than 0.100000
B(  0-C ,  1-N ) :   0.7819 B(  0-C ,  8-N ) :   0.1548 B(  0-C , 17-C ) :   0.6253
B(  0-C , 18-H ) :   0.9404 B(  0-C , 19-H ) :   0.9386 B(  1-N ,  7-C ) :   1.0456
B(  1-N , 12-H ) :   0.9168 B(  2-C ,  3-C ) :   0.7165 B(  2-C , 23-C ) :   0.8751
B(  2-C , 28-H ) :   0.9281 B(  2-C , 29-H ) :   0.8739 B(  3-C ,  4-H ) :   0.9761
B(  3-C ,  5-H ) :   0.8695 B(  3-C ,  6-C ) :   0.8793 B(  6-C , 15-O ) :   1.1533
B(  6-C , 16-O ) :   1.2812 B(  7-C ,  8-N ) :   1.1474 B(  7-C ,  9-N ) :   1.0304
B(  7-C , 15-O ) :   0.1277 B(  8-N , 13-H ) :   0.8857 B(  8-N , 14-H ) :   0.7145
B(  9-N , 10-H ) :   0.9370 B(  9-N , 11-H ) :   0.7192 B( 15-O , 16-O ) :   0.1062
B( 17-C , 20-C ) :   0.7699 B( 17-C , 21-H ) :   0.9207 B( 17-C , 22-H ) :   0.9367
B( 20-C , 23-C ) :   0.4805 B( 20-C , 24-H ) :   0.9836 B( 20-C , 25-H ) :   0.8296
B( 20-C , 26-H ) :  -0.1464 B( 23-C , 26-H ) :   1.1196 B( 23-C , 27-H ) :   0.8706

FINAL SINGLE POINT ENERGY      -628.120337222326

DIPOLE MOMENT
-------------
                                X             Y             Z
Electronic contribution:      0.60962      -2.82416     -10.15785
Nuclear contribution   :      1.76912       1.50070      12.36652
                        -----------------------------------------
Total Dipole Moment    :      2.37874      -1.32347       2.20868
                        -----------------------------------------
Magnitude (a.u.)       :      3.50545
Magnitude (Debye)      :      8.91015

Rotational constants in cm-1:     0.033272     0.023886     0.017112
Rotational constants in MHz :   997.469575   716.074432   513.001395

                             ****ORCA TERMINATED NORMALLY****
TOTAL RUN TIME: 0 days 0 hours 6 minutes 6 seconds 495 msec
