                         Program Version 5.0.0 -  RELEASE  -
|  1> !LC-PBE RIJCOSX def2-TZVPD def2/J TightSCF
|  2> *xyz 0 1
|  3> C         -1.10433        0.25137       -2.86006
|  4> C         -0.71189        0.84252       -4.21834
|  5> H          0.15463        1.49980       -4.13091
|  6> H         -1.53813        1.45922       -4.58267
|  7> C         -0.39762       -0.20587       -5.28802
|  8> F          0.61717       -0.00535       -5.99827
|  9> O         -1.13317       -1.22138       -5.34147
| 10> H         -1.95489       -0.38644       -2.98099
| 11> H         -1.34603        1.04362       -2.18269
| 12> H         -0.28606       -0.31581       -2.46809
| 13> *
| 14>
| 15> %MaxCore 64000
| 16>
| 17> %pal nprocs 4
| 18> end
| 19>
| 20> %scf
| 21>   MaxIter 150
| 22> end
| 23>
| 24>
| 25>                          ****END OF INPUT****

CARTESIAN COORDINATES (ANGSTROEM)
---------------------------------
  C     -1.104330    0.251370   -2.860060
  C     -0.711890    0.842520   -4.218340
  H      0.154630    1.499800   -4.130910
  H     -1.538130    1.459220   -4.582670
  C     -0.397620   -0.205870   -5.288020
  F      0.617170   -0.005350   -5.998270
  O     -1.133170   -1.221380   -5.341470
  H     -1.954890   -0.386440   -2.980990
  H     -1.346030    1.043620   -2.182690
  H     -0.286060   -0.315810   -2.468090

 Total Charge           Charge          ....    0
 Multiplicity           Mult            ....    1
 Number of Electrons    NEL             ....   40
 Basis Dimension        Dim             ....  236

ORBITAL ENERGIES
----------------

  NO   OCC          E(Eh)            E(eV)
   0   2.0000     -24.563162      -668.3976
   1   2.0000     -18.985452      -516.6204
   2   2.0000     -10.303270      -280.3662
   3   2.0000     -10.150542      -276.2103
   4   2.0000     -10.116456      -275.2828
   5   2.0000      -1.480062       -40.2745
   6   2.0000      -1.200981       -32.6804
   7   2.0000      -0.979538       -26.6546
   8   2.0000      -0.857670       -23.3384
   9   2.0000      -0.797185       -21.6925
  10   2.0000      -0.708123       -19.2690
  11   2.0000      -0.691701       -18.8221
  12   2.0000      -0.660516       -17.9735
  13   2.0000      -0.611961       -16.6523
  14   2.0000      -0.578138       -15.7319
  15   2.0000      -0.534521       -14.5450
  16   2.0000      -0.512717       -13.9518
  17   2.0000      -0.509158       -13.8549
  18   2.0000      -0.483058       -13.1447
  19   2.0000      -0.432356       -11.7650
  20   0.0000       0.056753         1.5443
  21   0.0000       0.067414         1.8344
  22   0.0000       0.083583         2.2744
  23   0.0000       0.088911         2.4194
  24   0.0000       0.101929         2.7736

MULLIKEN ATOMIC CHARGES
-----------------------
   0 C :   -1.187412
   1 C :   -0.452055
   2 H :    0.345864
   3 H :    0.328496
   4 C :    0.522707
   5 F :   -0.166994
   6 O :   -0.467916
   7 H :    0.354544
   8 H :    0.359298
   9 H :    0.363467
Sum of atomic charges:    0.0000000

LOEWDIN ATOMIC CHARGES
----------------------
   0 C :   -0.111514
   1 C :   -0.174689
   2 H :    0.118072
   3 H :    0.130776
   4 C :   -0.501122
   5 F :    0.217926
   6 O :    0.081485
   7 H :    0.079187
   8 H :    0.076912
   9 H :    0.082967

  Mayer bond orders larger than 0.100000
B(  0-C ,  1-C ) :   0.6347 B(  0-C ,  7-H ) :   0.9496 B(  0-C ,  8-H ) :   0.9179
B(  0-C ,  9-H ) :   0.9047 B(  1-C ,  2-H ) :   0.9066 B(  1-C ,  3-H ) :   0.9065
B(  1-C ,  4-C ) :   0.9347 B(  4-C ,  5-F ) :   1.0386 B(  4-C ,  6-O ) :   1.7393

FINAL SINGLE POINT ENERGY      -291.697075614483

DIPOLE MOMENT
-------------
                                X             Y             Z
Electronic contribution:      3.60964      -2.31738      -7.68728
Nuclear contribution   :     -3.36368       3.36392       8.24820
                        -----------------------------------------
Total Dipole Moment    :      0.24596       1.04654       0.56091
                        -----------------------------------------
Magnitude (a.u.)       :      1.21258
Magnitude (Debye)      :      3.08214

Rotational constants in cm-1:     0.315013     0.126712     0.098430
Rotational constants in MHz :  9443.861322  3798.734540  2950.846388

                             ****ORCA TERMINATED NORMALLY****
TOTAL RUN TIME: 0 days 0 hours 0 minutes 40 seconds 358 msec
