                         Program Version 5.0.0 -  RELEASE  -
|  1> !LC-PBE RIJCOSX def2-TZVPD def2/J TightSCF
|  2> *xyz 0 1
|  3> C          2.23447       -2.98975       -2.39762
|  4> C          2.75680       -2.94555       -3.76503
|  5> C          1.98721       -2.59045       -4.81898
|  6> N          0.74322       -3.01749       -4.91352
|  7> N          2.49964       -1.84860       -5.80324
|  8> H          3.30978       -1.29282       -5.55895
|  9> H          1.80103       -1.30430       -6.28913
| 10> H          3.71612       -2.62880       -3.82953
| 11> H          0.39583       -3.62775       -4.18502
| 12> H          0.03920       -2.45438       -5.37137
| 13> C          2.19120       -1.61950       -1.71549
| 14> H          2.87278       -3.66637       -1.82801
| 15> H          1.24619       -3.44744       -2.40784
| 16> H          1.56387       -0.96046       -2.27853
| 17> H          3.18033       -1.21449       -1.66568
| 18> H          1.79916       -1.72608       -0.72562
| 19> *
| 20>
| 21> %MaxCore 64000
| 22>
| 23> %pal nprocs 4
| 24> end
| 25>
| 26> %scf
| 27>   MaxIter 150
| 28> end
| 29>
| 30>
| 31>                          ****END OF INPUT****

CARTESIAN COORDINATES (ANGSTROEM)
---------------------------------
  C      2.234470   -2.989750   -2.397620
  C      2.756800   -2.945550   -3.765030
  C      1.987210   -2.590450   -4.818980
  N      0.743220   -3.017490   -4.913520
  N      2.499640   -1.848600   -5.803240
  H      3.309780   -1.292820   -5.558950
  H      1.801030   -1.304300   -6.289130
  H      3.716120   -2.628800   -3.829530
  H      0.395830   -3.627750   -4.185020
  H      0.039200   -2.454380   -5.371370
  C      2.191200   -1.619500   -1.715490
  H      2.872780   -3.666370   -1.828010
  H      1.246190   -3.447440   -2.407840
  H      1.563870   -0.960460   -2.278530
  H      3.180330   -1.214490   -1.665680
  H      1.799160   -1.726080   -0.725620

 Total Charge           Charge          ....    0
 Multiplicity           Mult            ....    1
 Number of Electrons    NEL             ....   48
 Basis Dimension        Dim             ....  312

ORBITAL ENERGIES
----------------

  NO   OCC          E(Eh)            E(eV)
   0   2.0000     -14.220097      -386.9485
   1   2.0000     -14.216130      -386.8406
   2   2.0000     -10.169993      -276.7396
   3   2.0000     -10.092209      -274.6230
   4   2.0000     -10.081044      -274.3192
   5   2.0000     -10.039722      -273.1947
   6   2.0000      -1.150003       -31.2932
   7   2.0000      -1.049098       -28.5474
   8   2.0000      -0.953541       -25.9472
   9   2.0000      -0.861877       -23.4529
  10   2.0000      -0.779872       -21.2214
  11   2.0000      -0.735482       -20.0135
  12   2.0000      -0.693019       -18.8580
  13   2.0000      -0.655620       -17.8403
  14   2.0000      -0.608992       -16.5715
  15   2.0000      -0.598540       -16.2871
  16   2.0000      -0.555329       -15.1113
  17   2.0000      -0.538654       -14.6575
  18   2.0000      -0.510614       -13.8945
  19   2.0000      -0.496025       -13.4975
  20   2.0000      -0.457770       -12.4566
  21   2.0000      -0.448149       -12.1947
  22   2.0000      -0.411584       -11.1998
  23   2.0000      -0.277326        -7.5464
  24   0.0000       0.059354         1.6151
  25   0.0000       0.085356         2.3227
  26   0.0000       0.088636         2.4119
  27   0.0000       0.096658         2.6302
  28   0.0000       0.115895         3.1537

MULLIKEN ATOMIC CHARGES
-----------------------
   0 C :   -0.468706
   1 C :   -0.814167
   2 C :    0.517101
   3 N :   -0.480688
   4 N :   -0.589979
   5 H :    0.265385
   6 H :    0.253478
   7 H :    0.362890
   8 H :    0.258153
   9 H :    0.194420
  10 C :   -1.197780
  11 H :    0.289504
  12 H :    0.365633
  13 H :    0.312377
  14 H :    0.362406
  15 H :    0.369972
Sum of atomic charges:   -0.0000000

LOEWDIN ATOMIC CHARGES
----------------------
   0 C :   -0.310860
   1 C :   -0.153421
   2 C :   -0.563826
   3 N :    0.119125
   4 N :    0.104506
   5 H :    0.114271
   6 H :    0.104408
   7 H :    0.068043
   8 H :    0.111308
   9 H :    0.113126
  10 C :   -0.122496
  11 H :    0.108126
  12 H :    0.094642
  13 H :    0.072629
  14 H :    0.073366
  15 H :    0.067053

  Mayer bond orders larger than 0.100000
B(  0-C ,  1-C ) :   0.5690 B(  0-C , 10-C ) :   0.5178 B(  0-C , 11-H ) :   1.0417
B(  0-C , 12-H ) :   0.8915 B(  1-C ,  2-C ) :   1.3550 B(  1-C ,  7-H ) :   1.0300
B(  2-C ,  3-N ) :   0.8410 B(  2-C ,  4-N ) :   0.9756 B(  2-C ,  7-H ) :  -0.2193
B(  3-N ,  8-H ) :   0.9161 B(  3-N ,  9-H ) :   1.0274 B(  4-N ,  5-H ) :   0.9163
B(  4-N ,  6-H ) :   0.9339 B( 10-C , 13-H ) :   0.9746 B( 10-C , 14-H ) :   0.9541
B( 10-C , 15-H ) :   0.9412 B( 11-H , 12-H ) :   0.1236

FINAL SINGLE POINT ENERGY      -267.126247542274

DIPOLE MOMENT
-------------
                                X             Y             Z
Electronic contribution:     -0.33751      -1.34784      -4.95851
Nuclear contribution   :     -0.44240       2.20379       4.66256
                        -----------------------------------------
Total Dipole Moment    :     -0.77991       0.85594      -0.29595
                        -----------------------------------------
Magnitude (a.u.)       :      1.19519
Magnitude (Debye)      :      3.03794

Rotational constants in cm-1:     0.209447     0.075194     0.066975
Rotational constants in MHz :  6279.068019  2254.272519  2007.845458

                             ****ORCA TERMINATED NORMALLY****
TOTAL RUN TIME: 0 days 0 hours 1 minutes 18 seconds 491 msec
