                         Program Version 5.0.0 -  RELEASE  -
|  1> !LC-PBE RIJCOSX def2-TZVPD def2/J TightSCF
|  2> *xyz 0 1
|  3> C         -1.10433        0.25137       -2.86006
|  4> C         -0.71189        0.84252       -4.21834
|  5> H          0.15463        1.49980       -4.13091
|  6> H         -1.53813        1.45922       -4.58267
|  7> C         -0.39762       -0.20587       -5.28802
|  8> O          0.61717       -0.00535       -5.99827
|  9> F         -1.13317       -1.22138       -5.34147
| 10> H         -1.95489       -0.38644       -2.98099
| 11> H         -1.34603        1.04362       -2.18269
| 12> H         -0.28606       -0.31581       -2.46809
| 13> *
| 14>
| 15> %MaxCore 64000
| 16>
| 17> %pal nprocs 4
| 18> end
| 19>
| 20> %scf
| 21>   MaxIter 150
| 22> end
| 23>
| 24>
| 25>                          ****END OF INPUT****

CARTESIAN COORDINATES (ANGSTROEM)
---------------------------------
  C     -1.104330    0.251370   -2.860060
  C     -0.711890    0.842520   -4.218340
  H      0.154630    1.499800   -4.130910
  H     -1.538130    1.459220   -4.582670
  C     -0.397620   -0.205870   -5.288020
  O      0.617170   -0.005350   -5.998270
  F     -1.133170   -1.221380   -5.341470
  H     -1.954890   -0.386440   -2.980990
  H     -1.346030    1.043620   -2.182690
  H     -0.286060   -0.315810   -2.468090

 Total Charge           Charge          ....    0
 Multiplicity           Mult            ....    1
 Number of Electrons    NEL             ....   40
 Basis Dimension        Dim             ....  236

ORBITAL ENERGIES
----------------

  NO   OCC          E(Eh)            E(eV)
   0   2.0000     -24.563761      -668.4139
   1   2.0000     -18.984482      -516.5940
   2   2.0000     -10.302603      -280.3481
   3   2.0000     -10.149768      -276.1892
   4   2.0000     -10.122602      -275.4500
   5   2.0000      -1.480288       -40.2807
   6   2.0000      -1.200114       -32.6568
   7   2.0000      -0.984171       -26.7806
   8   2.0000      -0.852049       -23.1854
   9   2.0000      -0.805162       -21.9096
  10   2.0000      -0.710033       -19.3210
  11   2.0000      -0.699688       -19.0395
  12   2.0000      -0.648986       -17.6598
  13   2.0000      -0.613413       -16.6918
  14   2.0000      -0.577082       -15.7032
  15   2.0000      -0.542158       -14.7529
  16   2.0000      -0.523126       -14.2350
  17   2.0000      -0.512317       -13.9409
  18   2.0000      -0.483769       -13.1640
  19   2.0000      -0.427008       -11.6195
  20   0.0000       0.056164         1.5283
  21   0.0000       0.069398         1.8884
  22   0.0000       0.082305         2.2396
  23   0.0000       0.088135         2.3983
  24   0.0000       0.101875         2.7722

MULLIKEN ATOMIC CHARGES
-----------------------
   0 C :   -1.207748
   1 C :   -0.401149
   2 H :    0.306445
   3 H :    0.339618
   4 C :    0.509178
   5 O :   -0.481133
   6 F :   -0.158570
   7 H :    0.366238
   8 H :    0.349186
   9 H :    0.377935
Sum of atomic charges:    0.0000000

LOEWDIN ATOMIC CHARGES
----------------------
   0 C :   -0.115953
   1 C :   -0.169991
   2 H :    0.126307
   3 H :    0.129391
   4 C :   -0.504627
   5 O :    0.077579
   6 F :    0.220900
   7 H :    0.076065
   8 H :    0.077453
   9 H :    0.082876

  Mayer bond orders larger than 0.100000
B(  0-C ,  1-C ) :   0.5724 B(  0-C ,  7-H ) :   0.9199 B(  0-C ,  8-H ) :   0.9403
B(  0-C ,  9-H ) :   0.9121 B(  1-C ,  2-H ) :   0.9451 B(  1-C ,  3-H ) :   0.8991
B(  1-C ,  4-C ) :   0.9327 B(  4-C ,  5-O ) :   1.7344 B(  4-C ,  6-F ) :   1.0445

FINAL SINGLE POINT ENERGY      -291.696327567962

DIPOLE MOMENT
-------------
                                X             Y             Z
Electronic contribution:      0.65294      -4.34992      -6.55267
Nuclear contribution   :     -1.45527       4.68977       7.53208
                        -----------------------------------------
Total Dipole Moment    :     -0.80232       0.33985       0.97941
                        -----------------------------------------
Magnitude (a.u.)       :      1.31090
Magnitude (Debye)      :      3.33204

Rotational constants in cm-1:     0.298240     0.132464     0.099915
Rotational constants in MHz :  8940.998095  3971.171647  2995.369122

                             ****ORCA TERMINATED NORMALLY****
TOTAL RUN TIME: 0 days 0 hours 0 minutes 40 seconds 720 msec
