                         Program Version 5.0.0 -  RELEASE  -
|  1> !LC-PBE RIJCOSX def2-TZVPD def2/J TightSCF
|  2> *xyz 0 1
|  3> C          2.23447       -2.98975       -2.39762
|  4> N          2.75680       -2.94555       -3.76503
|  5> C          1.98721       -2.59045       -4.81898
|  6> C          0.74322       -3.01749       -4.91352
|  7> N          2.49964       -1.84860       -5.80324
|  8> H          3.30978       -1.29282       -5.55895
|  9> H          1.80103       -1.30430       -6.28913
| 10> H          3.71612       -2.62880       -3.82953
| 11> H          0.39583       -3.62775       -4.18502
| 12> H          0.03920       -2.45438       -5.37137
| 13> C          2.19120       -1.61950       -1.71549
| 14> H          2.87278       -3.66637       -1.82801
| 15> H          1.24619       -3.44744       -2.40784
| 16> H          1.56387       -0.96046       -2.27853
| 17> H          3.18033       -1.21449       -1.66568
| 18> H          1.79916       -1.72608       -0.72562
| 19> *
| 20>
| 21> %MaxCore 64000
| 22>
| 23> %pal nprocs 4
| 24> end
| 25>
| 26> %scf
| 27>   MaxIter 150
| 28> end
| 29>
| 30>
| 31>                          ****END OF INPUT****

CARTESIAN COORDINATES (ANGSTROEM)
---------------------------------
  C      2.234470   -2.989750   -2.397620
  N      2.756800   -2.945550   -3.765030
  C      1.987210   -2.590450   -4.818980
  C      0.743220   -3.017490   -4.913520
  N      2.499640   -1.848600   -5.803240
  H      3.309780   -1.292820   -5.558950
  H      1.801030   -1.304300   -6.289130
  H      3.716120   -2.628800   -3.829530
  H      0.395830   -3.627750   -4.185020
  H      0.039200   -2.454380   -5.371370
  C      2.191200   -1.619500   -1.715490
  H      2.872780   -3.666370   -1.828010
  H      1.246190   -3.447440   -2.407840
  H      1.563870   -0.960460   -2.278530
  H      3.180330   -1.214490   -1.665680
  H      1.799160   -1.726080   -0.725620

 Total Charge           Charge          ....    0
 Multiplicity           Mult            ....    1
 Number of Electrons    NEL             ....   48
 Basis Dimension        Dim             ....  312

ORBITAL ENERGIES
----------------

  NO   OCC          E(Eh)            E(eV)
   0   2.0000     -14.217821      -386.8866
   1   2.0000     -14.214449      -386.7948
   2   2.0000     -10.166962      -276.6571
   3   2.0000     -10.148188      -276.1462
   4   2.0000     -10.101631      -274.8794
   5   2.0000     -10.029979      -272.9296
   6   2.0000      -1.147361       -31.2213
   7   2.0000      -1.061182       -28.8762
   8   2.0000      -0.930092       -25.3091
   9   2.0000      -0.885544       -24.0969
  10   2.0000      -0.803908       -21.8755
  11   2.0000      -0.715530       -19.4706
  12   2.0000      -0.694350       -18.8942
  13   2.0000      -0.659338       -17.9415
  14   2.0000      -0.607300       -16.5255
  15   2.0000      -0.589517       -16.0416
  16   2.0000      -0.560186       -15.2434
  17   2.0000      -0.534025       -14.5316
  18   2.0000      -0.531542       -14.4640
  19   2.0000      -0.503703       -13.7065
  20   2.0000      -0.497123       -13.5274
  21   2.0000      -0.477281       -12.9875
  22   2.0000      -0.384409       -10.4603
  23   2.0000      -0.296524        -8.0688
  24   0.0000       0.061945         1.6856
  25   0.0000       0.083089         2.2610
  26   0.0000       0.089814         2.4440
  27   0.0000       0.091497         2.4898
  28   0.0000       0.117495         3.1972

MULLIKEN ATOMIC CHARGES
-----------------------
   0 C :   -0.522297
   1 N :   -0.352172
   2 C :    0.540798
   3 C :   -1.071101
   4 N :   -0.575778
   5 H :    0.249047
   6 H :    0.246908
   7 H :    0.221602
   8 H :    0.417661
   9 H :    0.265161
  10 C :   -1.167044
  11 H :    0.354898
  12 H :    0.337260
  13 H :    0.311078
  14 H :    0.345475
  15 H :    0.398503
Sum of atomic charges:   -0.0000000

LOEWDIN ATOMIC CHARGES
----------------------
   0 C :   -0.258523
   1 N :    0.004113
   2 C :   -0.575201
   3 C :   -0.008994
   4 N :    0.101544
   5 H :    0.103438
   6 H :    0.112293
   7 H :    0.134806
   8 H :    0.018580
   9 H :    0.028452
  10 C :   -0.105342
  11 H :    0.118244
  12 H :    0.108261
  13 H :    0.075141
  14 H :    0.070355
  15 H :    0.072833

  Mayer bond orders larger than 0.100000
B(  0-C ,  1-N ) :   0.7161 B(  0-C , 10-C ) :   0.5691 B(  0-C , 11-H ) :   0.8987
B(  0-C , 12-H ) :   0.9358 B(  1-N ,  2-C ) :   0.9068 B(  1-N ,  7-H ) :   0.9739
B(  2-C ,  3-C ) :   1.4180 B(  2-C ,  4-N ) :   0.8241 B(  2-C ,  9-H ) :  -0.1180
B(  3-C ,  8-H ) :   0.8472 B(  3-C ,  9-H ) :   1.0942 B(  4-N ,  5-H ) :   0.9501
B(  4-N ,  6-H ) :   0.9292 B( 10-C , 13-H ) :   0.9792 B( 10-C , 14-H ) :   0.9449
B( 10-C , 15-H ) :   0.9086

FINAL SINGLE POINT ENERGY      -267.120411254913

DIPOLE MOMENT
-------------
                                X             Y             Z
Electronic contribution:      1.49234      -1.22005      -3.81907
Nuclear contribution   :     -0.86957       2.18853       4.41892
                        -----------------------------------------
Total Dipole Moment    :      0.62277       0.96847       0.59985
                        -----------------------------------------
Magnitude (a.u.)       :      1.29831
Magnitude (Debye)      :      3.30003

Rotational constants in cm-1:     0.214718     0.075736     0.068547
Rotational constants in MHz :  6437.075121  2270.519635  2054.974198

                             ****ORCA TERMINATED NORMALLY****
TOTAL RUN TIME: 0 days 0 hours 1 minutes 8 seconds 509 msec
