                         Program Version 5.0.0 -  RELEASE  -
|  1> !LC-PBE RIJCOSX def2-TZVPD def2/J TightSCF
|  2> *xyz 0 1
|  3> C          2.23447       -2.98975       -2.39762
|  4> N          2.75680       -2.94555       -3.76503
|  5> C          1.98721       -2.59045       -4.81898
|  6> N          0.74322       -3.01749       -4.91352
|  7> C          2.49964       -1.84860       -5.80324
|  8> H          3.30978       -1.29282       -5.55895
|  9> H          1.80103       -1.30430       -6.28913
| 10> H          3.71612       -2.62880       -3.82953
| 11> H          0.39583       -3.62775       -4.18502
| 12> H          0.03920       -2.45438       -5.37137
| 13> C          2.19120       -1.61950       -1.71549
| 14> H          2.87278       -3.66637       -1.82801
| 15> H          1.24619       -3.44744       -2.40784
| 16> H          1.56387       -0.96046       -2.27853
| 17> H          3.18033       -1.21449       -1.66568
| 18> H          1.79916       -1.72608       -0.72562
| 19> *
| 20>
| 21> %MaxCore 64000
| 22>
| 23> %pal nprocs 4
| 24> end
| 25>
| 26> %scf
| 27>   MaxIter 150
| 28> end
| 29>
| 30>
| 31>                          ****END OF INPUT****

CARTESIAN COORDINATES (ANGSTROEM)
---------------------------------
  C      2.234470   -2.989750   -2.397620
  N      2.756800   -2.945550   -3.765030
  C      1.987210   -2.590450   -4.818980
  N      0.743220   -3.017490   -4.913520
  C      2.499640   -1.848600   -5.803240
  H      3.309780   -1.292820   -5.558950
  H      1.801030   -1.304300   -6.289130
  H      3.716120   -2.628800   -3.829530
  H      0.395830   -3.627750   -4.185020
  H      0.039200   -2.454380   -5.371370
  C      2.191200   -1.619500   -1.715490
  H      2.872780   -3.666370   -1.828010
  H      1.246190   -3.447440   -2.407840
  H      1.563870   -0.960460   -2.278530
  H      3.180330   -1.214490   -1.665680
  H      1.799160   -1.726080   -0.725620

 Total Charge           Charge          ....    0
 Multiplicity           Mult            ....    1
 Number of Electrons    NEL             ....   48
 Basis Dimension        Dim             ....  312

ORBITAL ENERGIES
----------------

  NO   OCC          E(Eh)            E(eV)
   0   2.0000     -14.217336      -386.8734
   1   2.0000     -14.217199      -386.8697
   2   2.0000     -10.171291      -276.7749
   3   2.0000     -10.157098      -276.3887
   4   2.0000     -10.105811      -274.9931
   5   2.0000     -10.024891      -272.7911
   6   2.0000      -1.149841       -31.2888
   7   2.0000      -1.060769       -28.8650
   8   2.0000      -0.943909       -25.6851
   9   2.0000      -0.878727       -23.9114
  10   2.0000      -0.792985       -21.5782
  11   2.0000      -0.756348       -20.5813
  12   2.0000      -0.689963       -18.7748
  13   2.0000      -0.638572       -17.3764
  14   2.0000      -0.634718       -17.2716
  15   2.0000      -0.579349       -15.7649
  16   2.0000      -0.571727       -15.5575
  17   2.0000      -0.542876       -14.7724
  18   2.0000      -0.511279       -13.9126
  19   2.0000      -0.505861       -13.7652
  20   2.0000      -0.498184       -13.5563
  21   2.0000      -0.486436       -13.2366
  22   2.0000      -0.387141       -10.5346
  23   2.0000      -0.291127        -7.9220
  24   0.0000       0.060235         1.6391
  25   0.0000       0.080789         2.1984
  26   0.0000       0.088057         2.3962
  27   0.0000       0.094144         2.5618
  28   0.0000       0.120591         3.2814

MULLIKEN ATOMIC CHARGES
-----------------------
   0 C :   -0.589782
   1 N :   -0.316299
   2 C :    0.511880
   3 N :   -0.468909
   4 C :   -1.034101
   5 H :    0.300027
   6 H :    0.300438
   7 H :    0.235413
   8 H :    0.266364
   9 H :    0.216609
  10 C :   -1.145111
  11 H :    0.350097
  12 H :    0.318410
  13 H :    0.313380
  14 H :    0.342908
  15 H :    0.398676
Sum of atomic charges:    0.0000000

LOEWDIN ATOMIC CHARGES
----------------------
   0 C :   -0.261777
   1 N :    0.007709
   2 C :   -0.577272
   3 N :    0.116988
   4 C :   -0.028520
   5 H :    0.016775
   6 H :    0.017851
   7 H :    0.141740
   8 H :    0.102180
   9 H :    0.123367
  10 C :   -0.103733
  11 H :    0.117793
  12 H :    0.103931
  13 H :    0.076304
  14 H :    0.074300
  15 H :    0.072366

  Mayer bond orders larger than 0.100000
B(  0-C ,  1-N ) :   0.7868 B(  0-C ,  2-C ) :  -0.1219 B(  0-C , 10-C ) :   0.6170
B(  0-C , 11-H ) :   0.9218 B(  0-C , 12-H ) :   0.9302 B(  1-N ,  2-C ) :   0.9904
B(  1-N ,  7-H ) :   0.9142 B(  2-C ,  3-N ) :   0.8544 B(  2-C ,  4-C ) :   1.2868
B(  2-C ,  5-H ) :  -0.1287 B(  3-N ,  8-H ) :   0.9158 B(  3-N ,  9-H ) :   0.9794
B(  4-C ,  5-H ) :   1.0781 B(  4-C ,  6-H ) :   1.0222 B( 10-C , 13-H ) :   0.9652
B( 10-C , 14-H ) :   0.9423 B( 10-C , 15-H ) :   0.9148

FINAL SINGLE POINT ENERGY      -267.114612919890

DIPOLE MOMENT
-------------
                                X             Y             Z
Electronic contribution:     -0.13206      -2.36862      -2.92383
Nuclear contribution   :     -0.49695       2.43650       4.23017
                        -----------------------------------------
Total Dipole Moment    :     -0.62901       0.06788       1.30634
                        -----------------------------------------
Magnitude (a.u.)       :      1.45148
Magnitude (Debye)      :      3.68937

Rotational constants in cm-1:     0.211102     0.077011     0.069221
Rotational constants in MHz :  6328.667765  2308.731604  2075.192956

                             ****ORCA TERMINATED NORMALLY****
TOTAL RUN TIME: 0 days 0 hours 1 minutes 11 seconds 514 msec
