                         Program Version 5.0.0 -  RELEASE  -
|  1> !LC-PBE RIJCOSX def2-TZVPD def2/J TightSCF xyzfile
|  2>
|  3> *xyzfile 0 1 D1.xyz
|  4>
|  5> %MaxCore 64000
|  6>
|  7> %pal nprocs 4
|  8> end
|  9>
| 10> %scf
| 11>   MaxIter 150
| 12> end
| 13>
| 14>
| 15>                          ****END OF INPUT****

CARTESIAN COORDINATES (ANGSTROEM)
---------------------------------
  C      2.234473   -2.989754   -2.397622
  C      2.756799   -2.945553   -3.765029
  C     -1.104325    0.251374   -2.860056
  C     -0.711893    0.842517   -4.218344
  H      0.154626    1.499800   -4.130909
  H     -1.538134    1.459222   -4.582671
  C     -0.397624   -0.205875   -5.288018
  C      1.987208   -2.590451   -4.818975
  N      0.743221   -3.017493   -4.913524
  N      2.499636   -1.848598   -5.803241
  H      3.309780   -1.292818   -5.558947
  H      1.801025   -1.304298   -6.289129
  H      3.716116   -2.628797   -3.829533
  H      0.395828   -3.627747   -4.185024
  H      0.039201   -2.454383   -5.371367
  F      0.617165   -0.005348   -5.998273
  O     -1.133173   -1.221380   -5.341465
  C      2.191199   -1.619503   -1.715492
  H      2.872783   -3.666368   -1.828014
  H      1.246188   -3.447444   -2.407842
  C      1.298729   -0.554314   -2.359773
  H      1.872917   -1.787955   -0.681310
  H      3.216809   -1.238432   -1.654428
  C     -0.196255   -0.863365   -2.325763
  H      1.612531   -0.371346   -3.393065
  H      1.480944    0.388638   -1.834444
  H     -0.404105   -1.761825   -2.909448
  H     -0.490439   -1.087880   -1.294131
  H     -1.143842    1.066711   -2.129680
  H     -2.114401   -0.156834   -2.930323

 Total Charge           Charge          ....    0
 Multiplicity           Mult            ....    1
 Number of Electrons    NEL             ....  102
 Basis Dimension        Dim             ....  640

ORBITAL ENERGIES
----------------

  NO   OCC          E(Eh)            E(eV)
   0   2.0000     -24.598779      -669.3668
   1   2.0000     -19.018071      -517.5080
   2   2.0000     -14.201657      -386.4467
   3   2.0000     -14.191580      -386.1725
   4   2.0000     -10.334081      -281.2046
   5   2.0000     -10.163532      -276.5638
   6   2.0000     -10.158291      -276.4212
   7   2.0000     -10.136484      -275.8278
   8   2.0000     -10.114915      -275.2408
   9   2.0000     -10.111158      -275.1386
  10   2.0000     -10.098379      -274.7909
  11   2.0000     -10.087077      -274.4833
  12   2.0000     -10.027625      -272.8655
  13   2.0000      -1.517871       -41.3034
  14   2.0000      -1.239415       -33.7262
  15   2.0000      -1.135758       -30.9055
  16   2.0000      -1.033812       -28.1315
  17   2.0000      -1.014911       -27.6171
  18   2.0000      -0.971121       -26.4256
  19   2.0000      -0.929606       -25.2959
  20   2.0000      -0.879236       -23.9252
  21   2.0000      -0.855308       -23.2741
  22   2.0000      -0.817949       -22.2575
  23   2.0000      -0.776757       -21.1366
  24   2.0000      -0.751649       -20.4534
  25   2.0000      -0.738475       -20.0949
  26   2.0000      -0.726976       -19.7820
  27   2.0000      -0.705428       -19.1957
  28   2.0000      -0.697364       -18.9762
  29   2.0000      -0.667825       -18.1724
  30   2.0000      -0.641721       -17.4621
  31   2.0000      -0.632348       -17.2071
  32   2.0000      -0.622957       -16.9515
  33   2.0000      -0.598749       -16.2928
  34   2.0000      -0.587718       -15.9926
  35   2.0000      -0.581262       -15.8169
  36   2.0000      -0.565146       -15.3784
  37   2.0000      -0.551079       -14.9956
  38   2.0000      -0.534678       -14.5493
  39   2.0000      -0.525498       -14.2995
  40   2.0000      -0.513393       -13.9701
  41   2.0000      -0.508256       -13.8304
  42   2.0000      -0.490999       -13.3608
  43   2.0000      -0.477864       -13.0033
  44   2.0000      -0.468646       -12.7525
  45   2.0000      -0.458658       -12.4807
  46   2.0000      -0.444777       -12.1030
  47   2.0000      -0.438152       -11.9227
  48   2.0000      -0.429860       -11.6971
  49   2.0000      -0.391294       -10.6476
  50   2.0000      -0.265601        -7.2274
  51   0.0000       0.034168         0.9298
  52   0.0000       0.051386         1.3983
  53   0.0000       0.067670         1.8414
  54   0.0000       0.071530         1.9464
  55   0.0000       0.079154         2.1539

MULLIKEN ATOMIC CHARGES
-----------------------
   0 C :   -0.608794
   1 C :   -0.873625
   2 C :   -0.838825
   3 C :   -0.603563
   4 H :    0.429269
   5 H :    0.388000
   6 C :    0.583719
   7 C :    0.158859
   8 N :   -0.464074
   9 N :   -0.656607
  10 H :    0.247088
  11 H :    0.394049
  12 H :    0.431583
  13 H :    0.266478
  14 H :    0.313123
  15 F :   -0.264164
  16 O :   -0.575499
  17 C :   -0.803876
  18 H :    0.295333
  19 H :    0.456368
  20 C :   -0.601465
  21 H :    0.358117
  22 H :    0.393831
  23 C :   -0.568676
  24 H :    0.337105
  25 H :    0.359258
  26 H :    0.291214
  27 H :    0.376985
  28 H :    0.384029
  29 H :    0.394759
Sum of atomic charges:   -0.0000000

LOEWDIN ATOMIC CHARGES
----------------------
   0 C :   -0.258663
   1 C :   -0.144452
   2 C :   -0.207377
   3 C :   -0.113232
   4 H :    0.126844
   5 H :    0.137866
   6 C :   -0.464530
   7 C :   -0.558520
   8 N :    0.143301
   9 N :    0.118574
  10 H :    0.118608
  11 H :    0.074626
  12 H :    0.068380
  13 H :    0.118079
  14 H :    0.049396
  15 F :    0.208172
  16 O :    0.080472
  17 C :   -0.215521
  18 H :    0.112065
  19 H :    0.100763
  20 C :   -0.219970
  21 H :    0.116333
  22 H :    0.120206
  23 C :   -0.221305
  24 H :    0.107240
  25 H :    0.124715
  26 H :    0.100134
  27 H :    0.129112
  28 H :    0.125582
  29 H :    0.123102

  Mayer bond orders larger than 0.100000
B(  0-C ,  1-C ) :   0.5655 B(  0-C , 17-C ) :   0.6556 B(  0-C , 18-H ) :   1.0938
B(  0-C , 19-H ) :   0.7952 B(  0-C , 23-C ) :   0.1111 B(  1-C ,  7-C ) :   1.3141
B(  1-C , 12-H ) :   1.0726 B(  2-C ,  3-C ) :   0.7507 B(  2-C , 23-C ) :   0.8138
B(  2-C , 28-H ) :   0.9121 B(  2-C , 29-H ) :   0.8796 B(  3-C ,  4-H ) :   0.8947
B(  3-C ,  5-H ) :   0.8687 B(  3-C ,  6-C ) :   0.8533 B(  3-C , 23-C ) :  -0.1056
B(  6-C , 15-F ) :   0.8183 B(  6-C , 16-O ) :   1.5764 B(  7-C ,  8-N ) :   0.8712
B(  7-C ,  9-N ) :   0.7965 B(  7-C , 12-H ) :  -0.2003 B(  7-C , 20-C ) :   0.1061
B(  8-N , 13-H ) :   0.8733 B(  8-N , 14-H ) :   0.7252 B(  9-N , 10-H ) :   0.9279
B(  9-N , 11-H ) :   0.6729 B( 17-C , 20-C ) :   0.8982 B( 17-C , 21-H ) :   0.9066
B( 17-C , 22-H ) :   0.9144 B( 20-C , 23-C ) :   0.3693 B( 20-C , 24-H ) :   1.0308
B( 20-C , 25-H ) :   0.8799 B( 20-C , 26-H ) :  -0.1200 B( 23-C , 24-H ) :  -0.1197
B( 23-C , 26-H ) :   1.1442 B( 23-C , 27-H ) :   0.8386

FINAL SINGLE POINT ENERGY      -636.000991491450

DIPOLE MOMENT
-------------
                                X             Y             Z
Electronic contribution:     -3.11773       2.31798     -14.47359
Nuclear contribution   :      2.31842      -0.27661      14.74721
                        -----------------------------------------
Total Dipole Moment    :     -0.79931       2.04138       0.27362
                        -----------------------------------------
Magnitude (a.u.)       :      2.20929
Magnitude (Debye)      :      5.61558

Rotational constants in cm-1:     0.032691     0.023990     0.017099
Rotational constants in MHz :   980.050971   719.190545   512.606858

                             ****ORCA TERMINATED NORMALLY****
TOTAL RUN TIME: 0 days 0 hours 6 minutes 48 seconds 434 msec
