                         Program Version 5.0.0 -  RELEASE  -
|  1> !LC-PBE RIJCOSX def2-TZVPD def2/J TightSCF xyzfile
|  2>
|  3> *xyzfile 0 1 D2.xyz
|  4>
|  5> %MaxCore 64000
|  6>
|  7> %pal nprocs 4
|  8> end
|  9>
| 10> %scf
| 11>   MaxIter 150
| 12> end
| 13>
| 14>
| 15>                          ****END OF INPUT****

CARTESIAN COORDINATES (ANGSTROEM)
---------------------------------
  C      2.234473   -2.989754   -2.397622
  N      2.756799   -2.945553   -3.765029
  C     -1.104325    0.251374   -2.860056
  C     -0.711893    0.842517   -4.218344
  H      0.154626    1.499800   -4.130909
  H     -1.538134    1.459222   -4.582671
  C     -0.397624   -0.205875   -5.288018
  C      1.987208   -2.590451   -4.818975
  C      0.743221   -3.017493   -4.913524
  N      2.499636   -1.848598   -5.803241
  H      3.309780   -1.292818   -5.558947
  H      1.801025   -1.304298   -6.289129
  H      3.716116   -2.628797   -3.829533
  H      0.395828   -3.627747   -4.185024
  H      0.039201   -2.454383   -5.371367
  F      0.617165   -0.005348   -5.998273
  O     -1.133173   -1.221380   -5.341465
  C      2.191199   -1.619503   -1.715492
  H      2.872783   -3.666368   -1.828014
  H      1.246188   -3.447444   -2.407842
  C      1.298729   -0.554314   -2.359773
  H      1.872917   -1.787955   -0.681310
  H      3.216809   -1.238432   -1.654428
  C     -0.196255   -0.863365   -2.325763
  H      1.612531   -0.371346   -3.393065
  H      1.480944    0.388638   -1.834444
  H     -0.404105   -1.761825   -2.909448
  H     -0.490439   -1.087880   -1.294131
  H     -1.143842    1.066711   -2.129680
  H     -2.114401   -0.156834   -2.930323

 Total Charge           Charge          ....    0
 Multiplicity           Mult            ....    1
 Number of Electrons    NEL             ....  102
 Basis Dimension        Dim             ....  640

ORBITAL ENERGIES
----------------

  NO   OCC          E(Eh)            E(eV)
   0   2.0000     -24.581324      -668.8918
   1   2.0000     -18.992857      -516.8219
   2   2.0000     -14.208277      -386.6269
   3   2.0000     -14.199083      -386.3767
   4   2.0000     -10.312039      -280.6049
   5   2.0000     -10.152784      -276.2713
   6   2.0000     -10.151973      -276.2492
   7   2.0000     -10.142996      -276.0050
   8   2.0000     -10.129942      -275.6497
   9   2.0000     -10.117709      -275.3169
  10   2.0000     -10.116927      -275.2956
  11   2.0000     -10.110910      -275.1319
  12   2.0000     -10.007537      -272.3189
  13   2.0000      -1.500139       -40.8209
  14   2.0000      -1.214373       -33.0448
  15   2.0000      -1.137230       -30.9456
  16   2.0000      -1.053554       -28.6687
  17   2.0000      -1.006754       -27.3952
  18   2.0000      -0.963590       -26.2206
  19   2.0000      -0.907771       -24.7017
  20   2.0000      -0.877675       -23.8827
  21   2.0000      -0.858833       -23.3700
  22   2.0000      -0.825670       -22.4676
  23   2.0000      -0.781765       -21.2729
  24   2.0000      -0.748291       -20.3620
  25   2.0000      -0.727194       -19.7880
  26   2.0000      -0.702179       -19.1073
  27   2.0000      -0.699809       -19.0428
  28   2.0000      -0.682332       -18.5672
  29   2.0000      -0.675881       -18.3917
  30   2.0000      -0.642872       -17.4934
  31   2.0000      -0.632367       -17.2076
  32   2.0000      -0.616974       -16.7887
  33   2.0000      -0.593696       -16.1553
  34   2.0000      -0.587373       -15.9832
  35   2.0000      -0.565607       -15.3910
  36   2.0000      -0.556623       -15.1465
  37   2.0000      -0.548591       -14.9279
  38   2.0000      -0.537820       -14.6348
  39   2.0000      -0.520243       -14.1565
  40   2.0000      -0.511856       -13.9283
  41   2.0000      -0.498928       -13.5765
  42   2.0000      -0.498290       -13.5592
  43   2.0000      -0.486079       -13.2269
  44   2.0000      -0.479131       -13.0378
  45   2.0000      -0.457651       -12.4533
  46   2.0000      -0.449623       -12.2349
  47   2.0000      -0.444945       -12.1076
  48   2.0000      -0.418564       -11.3897
  49   2.0000      -0.373909       -10.1746
  50   2.0000      -0.281223        -7.6525
  51   0.0000       0.050205         1.3661
  52   0.0000       0.055045         1.4979
  53   0.0000       0.067754         1.8437
  54   0.0000       0.071749         1.9524
  55   0.0000       0.078888         2.1466

MULLIKEN ATOMIC CHARGES
-----------------------
   0 C :   -0.854601
   1 N :   -0.312863
   2 C :   -0.859371
   3 C :   -0.640993
   4 H :    0.430200
   5 H :    0.400239
   6 C :    0.556530
   7 C :    0.171749
   8 C :   -1.686191
   9 N :   -0.585542
  10 H :    0.244967
  11 H :    0.330105
  12 H :    0.223814
  13 H :    0.685395
  14 H :    0.901275
  15 F :   -0.283884
  16 O :   -0.516186
  17 C :   -0.730274
  18 H :    0.363553
  19 H :    0.367327
  20 C :   -0.541041
  21 H :    0.389323
  22 H :    0.366835
  23 C :   -0.575383
  24 H :    0.308244
  25 H :    0.383170
  26 H :    0.298113
  27 H :    0.383594
  28 H :    0.378686
  29 H :    0.403211
Sum of atomic charges:    0.0000000

LOEWDIN ATOMIC CHARGES
----------------------
   0 C :   -0.207283
   1 N :    0.021218
   2 C :   -0.206699
   3 C :   -0.115233
   4 H :    0.124176
   5 H :    0.135969
   6 C :   -0.472461
   7 C :   -0.567281
   8 C :    0.001699
   9 N :    0.111519
  10 H :    0.107387
  11 H :    0.080775
  12 H :    0.135712
  13 H :    0.039196
  14 H :   -0.010699
  15 F :    0.205041
  16 O :    0.076550
  17 C :   -0.203121
  18 H :    0.122292
  19 H :    0.113547
  20 C :   -0.219936
  21 H :    0.120331
  22 H :    0.116668
  23 C :   -0.219493
  24 H :    0.106923
  25 H :    0.125080
  26 H :    0.102784
  27 H :    0.127944
  28 H :    0.123597
  29 H :    0.123798

  Mayer bond orders larger than 0.100000
B(  0-C ,  1-N ) :   0.7615 B(  0-C ,  8-C ) :   0.1216 B(  0-C , 17-C ) :   0.6801
B(  0-C , 18-H ) :   0.9347 B(  0-C , 19-H ) :   0.9658 B(  0-C , 23-C ) :   0.1072
B(  1-N ,  7-C ) :   0.8318 B(  1-N , 12-H ) :   0.9250 B(  2-C ,  3-C ) :   0.7545
B(  2-C , 23-C ) :   0.8273 B(  2-C , 28-H ) :   0.9225 B(  2-C , 29-H ) :   0.8600
B(  3-C ,  4-H ) :   0.8953 B(  3-C ,  5-H ) :   0.8640 B(  3-C ,  6-C ) :   0.8465
B(  3-C , 20-C ) :   0.1040 B(  3-C , 23-C ) :  -0.1099 B(  6-C , 15-F ) :   0.7800
B(  6-C , 16-O ) :   1.7268 B(  7-C ,  8-C ) :   1.7123 B(  7-C ,  9-N ) :   0.6626
B(  7-C , 14-H ) :  -0.2591 B(  8-C , 13-H ) :   0.6593 B(  8-C , 14-H ) :   0.3081
B(  9-N , 10-H ) :   0.9139 B(  9-N , 11-H ) :   0.7659 B( 13-H , 14-H ) :   0.2504
B( 14-H , 16-O ) :  -0.1705 B( 17-C , 20-C ) :   0.8276 B( 17-C , 21-H ) :   0.9146
B( 17-C , 22-H ) :   0.9314 B( 20-C , 23-C ) :   0.4148 B( 20-C , 24-H ) :   1.0107
B( 20-C , 25-H ) :   0.8500 B( 20-C , 26-H ) :  -0.1195 B( 23-C , 26-H ) :   1.1355
B( 23-C , 27-H ) :   0.8329

FINAL SINGLE POINT ENERGY      -635.980422209063

DIPOLE MOMENT
-------------
                                X             Y             Z
Electronic contribution:     -1.49449       2.24050     -13.49048
Nuclear contribution   :      2.00823      -0.28769      14.57028
                        -----------------------------------------
Total Dipole Moment    :      0.51374       1.95281       1.07980
                        -----------------------------------------
Magnitude (a.u.)       :      2.28984
Magnitude (Debye)      :      5.82030

Rotational constants in cm-1:     0.033070     0.023715     0.016943
Rotational constants in MHz :   991.423248   710.957140   507.940500

                             ****ORCA TERMINATED NORMALLY****
TOTAL RUN TIME: 0 days 0 hours 6 minutes 46 seconds 393 msec
