                         Program Version 5.0.0 -  RELEASE  -
|  1> !LC-PBE RIJCOSX def2-TZVPD def2/J TightSCF xyzfile
|  2>
|  3> *xyzfile 0 1 D3.xyz
|  4>
|  5> %MaxCore 64000
|  6>
|  7> %pal nprocs 4
|  8> end
|  9>
| 10> %scf
| 11>   MaxIter 150
| 12> end
| 13>
| 14>
| 15>                          ****END OF INPUT****

CARTESIAN COORDINATES (ANGSTROEM)
---------------------------------
  C      2.234473   -2.989754   -2.397622
  N      2.756799   -2.945553   -3.765029
  C     -1.104325    0.251374   -2.860056
  C     -0.711893    0.842517   -4.218344
  H      0.154626    1.499800   -4.130909
  H     -1.538134    1.459222   -4.582671
  C     -0.397624   -0.205875   -5.288018
  C      1.987208   -2.590451   -4.818975
  N      0.743221   -3.017493   -4.913524
  C      2.499636   -1.848598   -5.803241
  H      3.309780   -1.292818   -5.558947
  H      1.801025   -1.304298   -6.289129
  H      3.716116   -2.628797   -3.829533
  H      0.395828   -3.627747   -4.185024
  H      0.039201   -2.454383   -5.371367
  F      0.617165   -0.005348   -5.998273
  O     -1.133173   -1.221380   -5.341465
  C      2.191199   -1.619503   -1.715492
  H      2.872783   -3.666368   -1.828014
  H      1.246188   -3.447444   -2.407842
  C      1.298729   -0.554314   -2.359773
  H      1.872917   -1.787955   -0.681310
  H      3.216809   -1.238432   -1.654428
  C     -0.196255   -0.863365   -2.325763
  H      1.612531   -0.371346   -3.393065
  H      1.480944    0.388638   -1.834444
  H     -0.404105   -1.761825   -2.909448
  H     -0.490439   -1.087880   -1.294131
  H     -1.143842    1.066711   -2.129680
  H     -2.114401   -0.156834   -2.930323

 Total Charge           Charge          ....    0
 Multiplicity           Mult            ....    1
 Number of Electrons    NEL             ....  102
 Basis Dimension        Dim             ....  640

ORBITAL ENERGIES
----------------

  NO   OCC          E(Eh)            E(eV)
   0   2.0000     -24.574454      -668.7049
   1   2.0000     -19.006181      -517.1845
   2   2.0000     -14.208656      -386.6372
   3   2.0000     -14.189017      -386.1028
   4   2.0000     -10.322532      -280.8904
   5   2.0000     -10.158752      -276.4337
   6   2.0000     -10.157810      -276.4081
   7   2.0000     -10.151118      -276.2260
   8   2.0000     -10.136658      -275.8325
   9   2.0000     -10.120662      -275.3972
  10   2.0000     -10.120500      -275.3928
  11   2.0000     -10.120079      -275.3813
  12   2.0000     -10.010450      -272.3982
  13   2.0000      -1.494684       -40.6724
  14   2.0000      -1.227952       -33.4143
  15   2.0000      -1.137410       -30.9505
  16   2.0000      -1.048135       -28.5212
  17   2.0000      -1.013264       -27.5723
  18   2.0000      -0.969751       -26.3883
  19   2.0000      -0.918958       -25.0061
  20   2.0000      -0.881366       -23.9832
  21   2.0000      -0.854672       -23.2568
  22   2.0000      -0.815962       -22.2035
  23   2.0000      -0.780782       -21.2462
  24   2.0000      -0.754555       -20.5325
  25   2.0000      -0.738319       -20.0907
  26   2.0000      -0.718360       -19.5476
  27   2.0000      -0.697556       -18.9815
  28   2.0000      -0.684515       -18.6266
  29   2.0000      -0.675221       -18.3737
  30   2.0000      -0.644738       -17.5442
  31   2.0000      -0.629208       -17.1216
  32   2.0000      -0.619917       -16.8688
  33   2.0000      -0.606853       -16.5133
  34   2.0000      -0.593191       -16.1415
  35   2.0000      -0.577613       -15.7176
  36   2.0000      -0.556630       -15.1467
  37   2.0000      -0.548790       -14.9333
  38   2.0000      -0.529037       -14.3958
  39   2.0000      -0.520379       -14.1602
  40   2.0000      -0.514356       -13.9963
  41   2.0000      -0.502654       -13.6779
  42   2.0000      -0.497724       -13.5437
  43   2.0000      -0.493120       -13.4185
  44   2.0000      -0.478228       -13.0132
  45   2.0000      -0.463659       -12.6168
  46   2.0000      -0.461922       -12.5695
  47   2.0000      -0.452166       -12.3041
  48   2.0000      -0.442422       -12.0389
  49   2.0000      -0.371233       -10.1018
  50   2.0000      -0.278539        -7.5794
  51   0.0000       0.043671         1.1884
  52   0.0000       0.057278         1.5586
  53   0.0000       0.065364         1.7786
  54   0.0000       0.068385         1.8609
  55   0.0000       0.076083         2.0703

MULLIKEN ATOMIC CHARGES
-----------------------
   0 C :   -0.922205
   1 N :   -0.299681
   2 C :   -0.825125
   3 C :   -0.640142
   4 H :    0.426191
   5 H :    0.395938
   6 C :    0.556410
   7 C :    0.168684
   8 N :   -0.461893
   9 C :   -1.125601
  10 H :    0.363150
  11 H :    0.564291
  12 H :    0.252176
  13 H :    0.290978
  14 H :    0.301065
  15 F :   -0.220693
  16 O :   -0.596725
  17 C :   -0.695472
  18 H :    0.347619
  19 H :    0.364993
  20 C :   -0.597268
  21 H :    0.383041
  22 H :    0.374196
  23 C :   -0.571202
  24 H :    0.363546
  25 H :    0.370504
  26 H :    0.280904
  27 H :    0.373389
  28 H :    0.380198
  29 H :    0.398736
Sum of atomic charges:    0.0000000

LOEWDIN ATOMIC CHARGES
----------------------
   0 C :   -0.210585
   1 N :    0.026827
   2 C :   -0.207073
   3 C :   -0.111526
   4 H :    0.127479
   5 H :    0.137556
   6 C :   -0.463754
   7 C :   -0.571497
   8 N :    0.139154
   9 C :   -0.023669
  10 H :    0.026054
  11 H :   -0.000948
  12 H :    0.142537
  13 H :    0.110135
  14 H :    0.055949
  15 F :    0.206543
  16 O :    0.075928
  17 C :   -0.202677
  18 H :    0.121772
  19 H :    0.110038
  20 C :   -0.217110
  21 H :    0.119566
  22 H :    0.119779
  23 C :   -0.223321
  24 H :    0.110874
  25 H :    0.126521
  26 H :    0.099287
  27 H :    0.127757
  28 H :    0.125065
  29 H :    0.123336

  Mayer bond orders larger than 0.100000
B(  0-C ,  1-N ) :   0.8177 B(  0-C ,  7-C ) :  -0.1365 B(  0-C ,  8-N ) :   0.1450
B(  0-C , 17-C ) :   0.6306 B(  0-C , 18-H ) :   0.9783 B(  0-C , 19-H ) :   0.9686
B(  1-N ,  7-C ) :   0.9049 B(  1-N , 12-H ) :   0.8695 B(  2-C ,  3-C ) :   0.7537
B(  2-C , 23-C ) :   0.8180 B(  2-C , 28-H ) :   0.9182 B(  2-C , 29-H ) :   0.8673
B(  3-C ,  4-H ) :   0.8937 B(  3-C ,  5-H ) :   0.8608 B(  3-C ,  6-C ) :   0.8570
B(  3-C , 23-C ) :  -0.1004 B(  6-C , 15-F ) :   0.8751 B(  6-C , 16-O ) :   1.5667
B(  7-C ,  8-N ) :   0.7786 B(  7-C ,  9-C ) :   1.4813 B(  7-C , 10-H ) :  -0.1725
B(  7-C , 11-H ) :  -0.1057 B(  8-N , 13-H ) :   0.8274 B(  8-N , 14-H ) :   0.7515
B(  9-C , 10-H ) :   1.1504 B(  9-C , 11-H ) :   0.6776 B( 17-C , 20-C ) :   0.8526
B( 17-C , 21-H ) :   0.9386 B( 17-C , 22-H ) :   0.9203 B( 20-C , 23-C ) :   0.3526
B( 20-C , 24-H ) :   0.9963 B( 20-C , 25-H ) :   0.8510 B( 20-C , 26-H ) :  -0.1317
B( 23-C , 26-H ) :   1.1394 B( 23-C , 27-H ) :   0.8521

FINAL SINGLE POINT ENERGY      -635.985446545559

DIPOLE MOMENT
-------------
                                X             Y             Z
Electronic contribution:     -2.86872       1.40720     -12.67209
Nuclear contribution   :      2.27881      -0.10762      14.43322
                        -----------------------------------------
Total Dipole Moment    :     -0.58992       1.29958       1.76113
                        -----------------------------------------
Magnitude (a.u.)       :      2.26682
Magnitude (Debye)      :      5.76181

Rotational constants in cm-1:     0.033336     0.023673     0.017062
Rotational constants in MHz :   999.388459   709.685364   511.514310

                             ****ORCA TERMINATED NORMALLY****
TOTAL RUN TIME: 0 days 0 hours 6 minutes 43 seconds 571 msec
