                         Program Version 5.0.0 -  RELEASE  -
|  1> !LC-PBE RIJCOSX def2-TZVPD def2/J TightSCF xyzfile
|  2>
|  3> *xyzfile 0 1 D4.xyz
|  4>
|  5> %MaxCore 64000
|  6>
|  7> %pal nprocs 4
|  8> end
|  9>
| 10> %scf
| 11>   MaxIter 150
| 12> end
| 13>
| 14>
| 15>                          ****END OF INPUT****

CARTESIAN COORDINATES (ANGSTROEM)
---------------------------------
  C      2.234473   -2.989754   -2.397622
  C      2.756799   -2.945553   -3.765029
  C     -1.104325    0.251374   -2.860056
  C     -0.711893    0.842517   -4.218344
  H      0.154626    1.499800   -4.130909
  H     -1.538134    1.459222   -4.582671
  C     -0.397624   -0.205875   -5.288018
  C      1.987208   -2.590451   -4.818975
  N      0.743221   -3.017493   -4.913524
  N      2.499636   -1.848598   -5.803241
  H      3.309780   -1.292818   -5.558947
  H      1.801025   -1.304298   -6.289129
  H      3.716116   -2.628797   -3.829533
  H      0.395828   -3.627747   -4.185024
  H      0.039201   -2.454383   -5.371367
  O      0.617165   -0.005348   -5.998273
  F     -1.133173   -1.221380   -5.341465
  C      2.191199   -1.619503   -1.715492
  H      2.872783   -3.666368   -1.828014
  H      1.246188   -3.447444   -2.407842
  C      1.298729   -0.554314   -2.359773
  H      1.872917   -1.787955   -0.681310
  H      3.216809   -1.238432   -1.654428
  C     -0.196255   -0.863365   -2.325763
  H      1.612531   -0.371346   -3.393065
  H      1.480944    0.388638   -1.834444
  H     -0.404105   -1.761825   -2.909448
  H     -0.490439   -1.087880   -1.294131
  H     -1.143842    1.066711   -2.129680
  H     -2.114401   -0.156834   -2.930323

 Total Charge           Charge          ....    0
 Multiplicity           Mult            ....    1
 Number of Electrons    NEL             ....  102
 Basis Dimension        Dim             ....  640

ORBITAL ENERGIES
----------------

  NO   OCC          E(Eh)            E(eV)
   0   2.0000     -24.599133      -669.3764
   1   2.0000     -19.018022      -517.5067
   2   2.0000     -14.204262      -386.5176
   3   2.0000     -14.185808      -386.0154
   4   2.0000     -10.333144      -281.1792
   5   2.0000     -10.162403      -276.5331
   6   2.0000     -10.156658      -276.3767
   7   2.0000     -10.140561      -275.9387
   8   2.0000     -10.120879      -275.4031
   9   2.0000     -10.109444      -275.0920
  10   2.0000     -10.097848      -274.7764
  11   2.0000     -10.087342      -274.4905
  12   2.0000     -10.026124      -272.8247
  13   2.0000      -1.519029       -41.3349
  14   2.0000      -1.237214       -33.6663
  15   2.0000      -1.133670       -30.8487
  16   2.0000      -1.031446       -28.0671
  17   2.0000      -1.019016       -27.7288
  18   2.0000      -0.971505       -26.4360
  19   2.0000      -0.928843       -25.2751
  20   2.0000      -0.875088       -23.8123
  21   2.0000      -0.854463       -23.2511
  22   2.0000      -0.822286       -22.3755
  23   2.0000      -0.778213       -21.1762
  24   2.0000      -0.758761       -20.6469
  25   2.0000      -0.739978       -20.1358
  26   2.0000      -0.729049       -19.8384
  27   2.0000      -0.717254       -19.5175
  28   2.0000      -0.679222       -18.4826
  29   2.0000      -0.666879       -18.1467
  30   2.0000      -0.636739       -17.3266
  31   2.0000      -0.633931       -17.2501
  32   2.0000      -0.622990       -16.9524
  33   2.0000      -0.591763       -16.1027
  34   2.0000      -0.585111       -15.9217
  35   2.0000      -0.580986       -15.8094
  36   2.0000      -0.573698       -15.6111
  37   2.0000      -0.544343       -14.8123
  38   2.0000      -0.539363       -14.6768
  39   2.0000      -0.533443       -14.5157
  40   2.0000      -0.520475       -14.1628
  41   2.0000      -0.502066       -13.6619
  42   2.0000      -0.495630       -13.4868
  43   2.0000      -0.477327       -12.9887
  44   2.0000      -0.469243       -12.7688
  45   2.0000      -0.456914       -12.4333
  46   2.0000      -0.445406       -12.1201
  47   2.0000      -0.435393       -11.8476
  48   2.0000      -0.430879       -11.7248
  49   2.0000      -0.390541       -10.6272
  50   2.0000      -0.264074        -7.1858
  51   0.0000       0.037072         1.0088
  52   0.0000       0.051387         1.3983
  53   0.0000       0.066090         1.7984
  54   0.0000       0.071613         1.9487
  55   0.0000       0.078490         2.1358

MULLIKEN ATOMIC CHARGES
-----------------------
   0 C :   -0.606645
   1 C :   -0.844918
   2 C :   -0.864610
   3 C :   -0.556157
   4 H :    0.377679
   5 H :    0.402691
   6 C :    0.577136
   7 C :    0.075572
   8 N :   -0.488122
   9 N :   -0.634413
  10 H :    0.237415
  11 H :    0.431525
  12 H :    0.426613
  13 H :    0.275955
  14 H :    0.347510
  15 O :   -0.597366
  16 F :   -0.262370
  17 C :   -0.800116
  18 H :    0.289601
  19 H :    0.452802
  20 C :   -0.604372
  21 H :    0.358269
  22 H :    0.394490
  23 C :   -0.546147
  24 H :    0.381823
  25 H :    0.363591
  26 H :    0.258473
  27 H :    0.377338
  28 H :    0.378999
  29 H :    0.397753
Sum of atomic charges:   -0.0000000

LOEWDIN ATOMIC CHARGES
----------------------
   0 C :   -0.260186
   1 C :   -0.143589
   2 C :   -0.213634
   3 C :   -0.108597
   4 H :    0.134509
   5 H :    0.136430
   6 C :   -0.466904
   7 C :   -0.556837
   8 N :    0.144405
   9 N :    0.117919
  10 H :    0.119019
  11 H :    0.056315
  12 H :    0.069574
  13 H :    0.117049
  14 H :    0.070903
  15 O :    0.076090
  16 F :    0.208508
  17 C :   -0.215644
  18 H :    0.111828
  19 H :    0.099167
  20 C :   -0.218001
  21 H :    0.115574
  22 H :    0.120986
  23 C :   -0.223745
  24 H :    0.110630
  25 H :    0.125585
  26 H :    0.098248
  27 H :    0.128834
  28 H :    0.125836
  29 H :    0.119727

  Mayer bond orders larger than 0.100000
B(  0-C ,  1-C ) :   0.5736 B(  0-C , 17-C ) :   0.6489 B(  0-C , 18-H ) :   1.0987
B(  0-C , 19-H ) :   0.7920 B(  0-C , 23-C ) :   0.1056 B(  1-C ,  7-C ) :   1.3207
B(  1-C , 12-H ) :   1.0692 B(  2-C ,  3-C ) :   0.6847 B(  2-C , 23-C ) :   0.7324
B(  2-C , 28-H ) :   0.9147 B(  2-C , 29-H ) :   0.9149 B(  3-C ,  4-H ) :   0.9450
B(  3-C ,  5-H ) :   0.8767 B(  3-C ,  6-C ) :   0.8634 B(  3-C , 23-C ) :  -0.1456
B(  6-C , 15-O ) :   1.5060 B(  6-C , 16-F ) :   0.8553 B(  7-C ,  8-N ) :   0.9235
B(  7-C ,  9-N ) :   0.8321 B(  7-C , 12-H ) :  -0.1895 B(  7-C , 20-C ) :   0.1146
B(  8-N , 13-H ) :   0.8674 B(  8-N , 14-H ) :   0.6819 B(  9-N , 10-H ) :   0.9287
B(  9-N , 11-H ) :   0.6575 B( 17-C , 20-C ) :   0.8884 B( 17-C , 21-H ) :   0.9096
B( 17-C , 22-H ) :   0.9128 B( 20-C , 23-C ) :   0.3906 B( 20-C , 24-H ) :   1.0128
B( 20-C , 25-H ) :   0.8679 B( 20-C , 26-H ) :  -0.1227 B( 23-C , 26-H ) :   1.1541
B( 23-C , 27-H ) :   0.8514

FINAL SINGLE POINT ENERGY      -636.001051985276

DIPOLE MOMENT
-------------
                                X             Y             Z
Electronic contribution:     -6.07081       0.28404     -13.35395
Nuclear contribution   :      4.38568       1.15960      13.97148
                        -----------------------------------------
Total Dipole Moment    :     -1.68513       1.44364       0.61753
                        -----------------------------------------
Magnitude (a.u.)       :      2.30328
Magnitude (Debye)      :      5.85446

Rotational constants in cm-1:     0.032892     0.023844     0.017123
Rotational constants in MHz :   986.091711   714.821905   513.334630

                             ****ORCA TERMINATED NORMALLY****
TOTAL RUN TIME: 0 days 0 hours 6 minutes 46 seconds 768 msec
