                         Program Version 5.0.0 -  RELEASE  -
|  1> !LC-PBE RIJCOSX def2-TZVPD def2/J TightSCF xyzfile
|  2>
|  3> *xyzfile 0 1 D5.xyz
|  4>
|  5> %MaxCore 64000
|  6>
|  7> %pal nprocs 4
|  8> end
|  9>
| 10> %scf
| 11>   MaxIter 150
| 12> end
| 13>
| 14>
| 15>                          ****END OF INPUT****

CARTESIAN COORDINATES (ANGSTROEM)
---------------------------------
  C      2.234473   -2.989754   -2.397622
  N      2.756799   -2.945553   -3.765029
  C     -1.104325    0.251374   -2.860056
  C     -0.711893    0.842517   -4.218344
  H      0.154626    1.499800   -4.130909
  H     -1.538134    1.459222   -4.582671
  C     -0.397624   -0.205875   -5.288018
  C      1.987208   -2.590451   -4.818975
  C      0.743221   -3.017493   -4.913524
  N      2.499636   -1.848598   -5.803241
  H      3.309780   -1.292818   -5.558947
  H      1.801025   -1.304298   -6.289129
  H      3.716116   -2.628797   -3.829533
  H      0.395828   -3.627747   -4.185024
  H      0.039201   -2.454383   -5.371367
  O      0.617165   -0.005348   -5.998273
  F     -1.133173   -1.221380   -5.341465
  C      2.191199   -1.619503   -1.715492
  H      2.872783   -3.666368   -1.828014
  H      1.246188   -3.447444   -2.407842
  C      1.298729   -0.554314   -2.359773
  H      1.872917   -1.787955   -0.681310
  H      3.216809   -1.238432   -1.654428
  C     -0.196255   -0.863365   -2.325763
  H      1.612531   -0.371346   -3.393065
  H      1.480944    0.388638   -1.834444
  H     -0.404105   -1.761825   -2.909448
  H     -0.490439   -1.087880   -1.294131
  H     -1.143842    1.066711   -2.129680
  H     -2.114401   -0.156834   -2.930323

 Total Charge           Charge          ....    0
 Multiplicity           Mult            ....    1
 Number of Electrons    NEL             ....  102
 Basis Dimension        Dim             ....  640

ORBITAL ENERGIES
----------------

  NO   OCC          E(Eh)            E(eV)
   0   2.0000     -24.570752      -668.6041
   1   2.0000     -19.000499      -517.0299
   2   2.0000     -14.208595      -386.6355
   3   2.0000     -14.185671      -386.0117
   4   2.0000     -10.316713      -280.7320
   5   2.0000     -10.154134      -276.3080
   6   2.0000     -10.152925      -276.2751
   7   2.0000     -10.143884      -276.0291
   8   2.0000     -10.134635      -275.7774
   9   2.0000     -10.117006      -275.2977
  10   2.0000     -10.116524      -275.2846
  11   2.0000     -10.116249      -275.2771
  12   2.0000     -10.014118      -272.4980
  13   2.0000      -1.491805       -40.5941
  14   2.0000      -1.219900       -33.1952
  15   2.0000      -1.133501       -30.8441
  16   2.0000      -1.047277       -28.4979
  17   2.0000      -1.011253       -27.5176
  18   2.0000      -0.964043       -26.2330
  19   2.0000      -0.907964       -24.7070
  20   2.0000      -0.875878       -23.8338
  21   2.0000      -0.854933       -23.2639
  22   2.0000      -0.824385       -22.4326
  23   2.0000      -0.782231       -21.2856
  24   2.0000      -0.747016       -20.3273
  25   2.0000      -0.730709       -19.8836
  26   2.0000      -0.711202       -19.3528
  27   2.0000      -0.695493       -18.9253
  28   2.0000      -0.678333       -18.4584
  29   2.0000      -0.668028       -18.1780
  30   2.0000      -0.636555       -17.3215
  31   2.0000      -0.629951       -17.1418
  32   2.0000      -0.621402       -16.9092
  33   2.0000      -0.595480       -16.2038
  34   2.0000      -0.587041       -15.9742
  35   2.0000      -0.564291       -15.3551
  36   2.0000      -0.553433       -15.0597
  37   2.0000      -0.550635       -14.9836
  38   2.0000      -0.531697       -14.4682
  39   2.0000      -0.529689       -14.4136
  40   2.0000      -0.512927       -13.9575
  41   2.0000      -0.505107       -13.7447
  42   2.0000      -0.491425       -13.3724
  43   2.0000      -0.488933       -13.3045
  44   2.0000      -0.477833       -13.0025
  45   2.0000      -0.459648       -12.5076
  46   2.0000      -0.457005       -12.4358
  47   2.0000      -0.446270       -12.1436
  48   2.0000      -0.435032       -11.8378
  49   2.0000      -0.368147       -10.0178
  50   2.0000      -0.284019        -7.7285
  51   0.0000       0.049957         1.3594
  52   0.0000       0.058521         1.5924
  53   0.0000       0.068257         1.8574
  54   0.0000       0.069755         1.8981
  55   0.0000       0.079385         2.1602

MULLIKEN ATOMIC CHARGES
-----------------------
   0 C :   -0.856807
   1 N :   -0.303207
   2 C :   -0.878513
   3 C :   -0.593360
   4 H :    0.380447
   5 H :    0.412831
   6 C :    0.570141
   7 C :    0.165905
   8 C :   -1.622066
   9 N :   -0.570590
  10 H :    0.238611
  11 H :    0.360021
  12 H :    0.225279
  13 H :    0.716260
  14 H :    0.759705
  15 O :   -0.615830
  16 F :   -0.208083
  17 C :   -0.721970
  18 H :    0.362388
  19 H :    0.358289
  20 C :   -0.555783
  21 H :    0.388930
  22 H :    0.367120
  23 C :   -0.546434
  24 H :    0.351014
  25 H :    0.385864
  26 H :    0.269794
  27 H :    0.383209
  28 H :    0.373359
  29 H :    0.403477
Sum of atomic charges:   -0.0000000

LOEWDIN ATOMIC CHARGES
----------------------
   0 C :   -0.207742
   1 N :    0.024745
   2 C :   -0.212123
   3 C :   -0.108947
   4 H :    0.132338
   5 H :    0.135371
   6 C :   -0.468665
   7 C :   -0.562622
   8 C :   -0.004506
   9 N :    0.115389
  10 H :    0.108948
  11 H :    0.062926
  12 H :    0.137367
  13 H :    0.034796
  14 H :    0.004285
  15 O :    0.069372
  16 F :    0.201074
  17 C :   -0.202895
  18 H :    0.122254
  19 H :    0.112537
  20 C :   -0.218079
  21 H :    0.119798
  22 H :    0.117457
  23 C :   -0.222283
  24 H :    0.109999
  25 H :    0.125920
  26 H :    0.100872
  27 H :    0.127624
  28 H :    0.124030
  29 H :    0.120760

  Mayer bond orders larger than 0.100000
B(  0-C ,  1-N ) :   0.7624 B(  0-C ,  8-C ) :   0.1158 B(  0-C , 17-C ) :   0.6767
B(  0-C , 18-H ) :   0.9368 B(  0-C , 19-H ) :   0.9697 B(  0-C , 23-C ) :   0.1050
B(  1-N ,  7-C ) :   0.8486 B(  1-N , 12-H ) :   0.9197 B(  2-C ,  3-C ) :   0.6824
B(  2-C , 23-C ) :   0.7533 B(  2-C , 28-H ) :   0.9274 B(  2-C , 29-H ) :   0.8955
B(  3-C ,  4-H ) :   0.9507 B(  3-C ,  5-H ) :   0.8683 B(  3-C ,  6-C ) :   0.8637
B(  3-C , 23-C ) :  -0.1513 B(  6-C , 15-O ) :   1.4704 B(  6-C , 16-F ) :   0.9491
B(  7-C ,  8-C ) :   1.7020 B(  7-C ,  9-N ) :   0.7257 B(  7-C , 14-H ) :  -0.1958
B(  7-C , 15-O ) :   0.1013 B(  8-C , 13-H ) :   0.6041 B(  8-C , 14-H ) :   0.3907
B(  9-N , 10-H ) :   0.9129 B(  9-N , 11-H ) :   0.7480 B( 13-H , 14-H ) :   0.2142
B( 17-C , 20-C ) :   0.8188 B( 17-C , 21-H ) :   0.9155 B( 17-C , 22-H ) :   0.9306
B( 20-C , 23-C ) :   0.4321 B( 20-C , 24-H ) :   0.9848 B( 20-C , 25-H ) :   0.8436
B( 20-C , 26-H ) :  -0.1232 B( 23-C , 26-H ) :   1.1454 B( 23-C , 27-H ) :   0.8421

FINAL SINGLE POINT ENERGY      -635.990908526336

DIPOLE MOMENT
-------------
                                X             Y             Z
Electronic contribution:     -4.40071       0.25733     -12.34315
Nuclear contribution   :      4.07548       1.14852      13.79455
                        -----------------------------------------
Total Dipole Moment    :     -0.32522       1.40585       1.45140
                        -----------------------------------------
Magnitude (a.u.)       :      2.04665
Magnitude (Debye)      :      5.20216

Rotational constants in cm-1:     0.033274     0.023559     0.016968
Rotational constants in MHz :   997.539108   706.293545   508.690532

                             ****ORCA TERMINATED NORMALLY****
TOTAL RUN TIME: 0 days 0 hours 6 minutes 42 seconds 611 msec
