                         Program Version 5.0.0 -  RELEASE  -
|  1> !LC-PBE RIJCOSX def2-TZVPD def2/J TightSCF xyzfile
|  2>
|  3> *xyzfile 0 1 D6.xyz
|  4>
|  5> %MaxCore 64000
|  6>
|  7> %pal nprocs 4
|  8> end
|  9>
| 10> %scf
| 11>   MaxIter 150
| 12> end
| 13>
| 14>
| 15>                          ****END OF INPUT****

CARTESIAN COORDINATES (ANGSTROEM)
---------------------------------
  C      2.234473   -2.989754   -2.397622
  N      2.756799   -2.945553   -3.765029
  C     -1.104325    0.251374   -2.860056
  C     -0.711893    0.842517   -4.218344
  H      0.154626    1.499800   -4.130909
  H     -1.538134    1.459222   -4.582671
  C     -0.397624   -0.205875   -5.288018
  C      1.987208   -2.590451   -4.818975
  N      0.743221   -3.017493   -4.913524
  C      2.499636   -1.848598   -5.803241
  H      3.309780   -1.292818   -5.558947
  H      1.801025   -1.304298   -6.289129
  H      3.716116   -2.628797   -3.829533
  H      0.395828   -3.627747   -4.185024
  H      0.039201   -2.454383   -5.371367
  O      0.617165   -0.005348   -5.998273
  F     -1.133173   -1.221380   -5.341465
  C      2.191199   -1.619503   -1.715492
  H      2.872783   -3.666368   -1.828014
  H      1.246188   -3.447444   -2.407842
  C      1.298729   -0.554314   -2.359773
  H      1.872917   -1.787955   -0.681310
  H      3.216809   -1.238432   -1.654428
  C     -0.196255   -0.863365   -2.325763
  H      1.612531   -0.371346   -3.393065
  H      1.480944    0.388638   -1.834444
  H     -0.404105   -1.761825   -2.909448
  H     -0.490439   -1.087880   -1.294131
  H     -1.143842    1.066711   -2.129680
  H     -2.114401   -0.156834   -2.930323

 Total Charge           Charge          ....    0
 Multiplicity           Mult            ....    1
 Number of Electrons    NEL             ....  102
 Basis Dimension        Dim             ....  640

ORBITAL ENERGIES
----------------

  NO   OCC          E(Eh)            E(eV)
   0   2.0000     -24.585116      -668.9950
   1   2.0000     -18.997233      -516.9410
   2   2.0000     -14.205995      -386.5648
   3   2.0000     -14.200793      -386.4232
   4   2.0000     -10.313663      -280.6490
   5   2.0000     -10.154470      -276.3172
   6   2.0000     -10.153522      -276.2914
   7   2.0000     -10.150496      -276.2090
   8   2.0000     -10.138995      -275.8961
   9   2.0000     -10.125416      -275.5266
  10   2.0000     -10.119520      -275.3661
  11   2.0000     -10.118052      -275.3262
  12   2.0000     -10.000854      -272.1371
  13   2.0000      -1.505281       -40.9608
  14   2.0000      -1.215995       -33.0889
  15   2.0000      -1.138286       -30.9743
  16   2.0000      -1.051886       -28.6233
  17   2.0000      -1.016243       -27.6534
  18   2.0000      -0.969175       -26.3726
  19   2.0000      -0.916364       -24.9355
  20   2.0000      -0.879930       -23.9441
  21   2.0000      -0.847797       -23.0697
  22   2.0000      -0.827868       -22.5274
  23   2.0000      -0.780556       -21.2400
  24   2.0000      -0.763885       -20.7864
  25   2.0000      -0.741274       -20.1711
  26   2.0000      -0.722765       -19.6674
  27   2.0000      -0.715158       -19.4604
  28   2.0000      -0.679297       -18.4846
  29   2.0000      -0.660864       -17.9830
  30   2.0000      -0.643739       -17.5170
  31   2.0000      -0.629371       -17.1260
  32   2.0000      -0.615755       -16.7556
  33   2.0000      -0.605020       -16.4634
  34   2.0000      -0.589582       -16.0433
  35   2.0000      -0.580118       -15.7858
  36   2.0000      -0.556023       -15.1302
  37   2.0000      -0.549349       -14.9486
  38   2.0000      -0.529674       -14.4132
  39   2.0000      -0.520583       -14.1658
  40   2.0000      -0.517267       -14.0755
  41   2.0000      -0.506381       -13.7793
  42   2.0000      -0.501689       -13.6516
  43   2.0000      -0.494764       -13.4632
  44   2.0000      -0.472050       -12.8451
  45   2.0000      -0.462024       -12.5723
  46   2.0000      -0.459620       -12.5069
  47   2.0000      -0.451571       -12.2879
  48   2.0000      -0.419791       -11.4231
  49   2.0000      -0.374933       -10.2024
  50   2.0000      -0.272607        -7.4180
  51   0.0000       0.048452         1.3184
  52   0.0000       0.056974         1.5503
  53   0.0000       0.065994         1.7958
  54   0.0000       0.067163         1.8276
  55   0.0000       0.075347         2.0503

MULLIKEN ATOMIC CHARGES
-----------------------
   0 C :   -0.917143
   1 N :   -0.299777
   2 C :   -0.853325
   3 C :   -0.579700
   4 H :    0.372735
   5 H :    0.402513
   6 C :    0.506327
   7 C :    0.060905
   8 N :   -0.480721
   9 C :   -1.088815
  10 H :    0.339056
  11 H :    0.655494
  12 H :    0.256873
  13 H :    0.307336
  14 H :    0.325052
  15 O :   -0.525853
  16 F :   -0.278779
  17 C :   -0.694566
  18 H :    0.344595
  19 H :    0.358181
  20 C :   -0.589664
  21 H :    0.381394
  22 H :    0.375031
  23 C :   -0.548668
  24 H :    0.390436
  25 H :    0.379789
  26 H :    0.250837
  27 H :    0.373467
  28 H :    0.375005
  29 H :    0.401984
Sum of atomic charges:    0.0000000

LOEWDIN ATOMIC CHARGES
----------------------
   0 C :   -0.212498
   1 N :    0.024539
   2 C :   -0.214054
   3 C :   -0.109137
   4 H :    0.134284
   5 H :    0.135098
   6 C :   -0.473485
   7 C :   -0.571998
   8 N :    0.139254
   9 C :   -0.017961
  10 H :    0.030359
  11 H :   -0.012905
  12 H :    0.142919
  13 H :    0.108821
  14 H :    0.077789
  15 O :    0.079352
  16 F :    0.203262
  17 C :   -0.203052
  18 H :    0.121413
  19 H :    0.108453
  20 C :   -0.214999
  21 H :    0.118772
  22 H :    0.120391
  23 C :   -0.225824
  24 H :    0.114273
  25 H :    0.127399
  26 H :    0.097439
  27 H :    0.127360
  28 H :    0.124941
  29 H :    0.119796

  Mayer bond orders larger than 0.100000
B(  0-C ,  1-N ) :   0.8193 B(  0-C ,  7-C ) :  -0.1415 B(  0-C ,  8-N ) :   0.1371
B(  0-C , 17-C ) :   0.6283 B(  0-C , 18-H ) :   0.9846 B(  0-C , 19-H ) :   0.9686
B(  1-N ,  7-C ) :   0.8956 B(  1-N , 12-H ) :   0.8627 B(  2-C ,  3-C ) :   0.6895
B(  2-C , 23-C ) :   0.7394 B(  2-C , 28-H ) :   0.9200 B(  2-C , 29-H ) :   0.9031
B(  3-C ,  4-H ) :   0.9441 B(  3-C ,  5-H ) :   0.8792 B(  3-C ,  6-C ) :   0.8676
B(  3-C , 23-C ) :  -0.1431 B(  6-C , 15-O ) :   1.6164 B(  6-C , 16-F ) :   0.8324
B(  7-C ,  8-N ) :   0.8113 B(  7-C ,  9-C ) :   1.5490 B(  7-C , 10-H ) :  -0.1572
B(  7-C , 11-H ) :  -0.1259 B(  8-N , 13-H ) :   0.8145 B(  8-N , 14-H ) :   0.7163
B(  9-C , 10-H ) :   1.1593 B(  9-C , 11-H ) :   0.6302 B( 11-H , 15-O ) :  -0.1641
B( 17-C , 20-C ) :   0.8486 B( 17-C , 21-H ) :   0.9413 B( 17-C , 22-H ) :   0.9195
B( 20-C , 23-C ) :   0.3763 B( 20-C , 24-H ) :   0.9827 B( 20-C , 25-H ) :   0.8364
B( 20-C , 26-H ) :  -0.1357 B( 23-C , 26-H ) :   1.1491 B( 23-C , 27-H ) :   0.8654

FINAL SINGLE POINT ENERGY      -635.974898192205

DIPOLE MOMENT
-------------
                                X             Y             Z
Electronic contribution:     -5.75183      -0.63994     -11.63022
Nuclear contribution   :      4.34606       1.32859      13.65749
                        -----------------------------------------
Total Dipole Moment    :     -1.40576       0.68865       2.02727
                        -----------------------------------------
Magnitude (a.u.)       :      2.56129
Magnitude (Debye)      :      6.51029

Rotational constants in cm-1:     0.033551     0.023540     0.017085
Rotational constants in MHz :  1005.818710   705.725032   512.192443

                             ****ORCA TERMINATED NORMALLY****
TOTAL RUN TIME: 0 days 0 hours 6 minutes 42 seconds 971 msec
