                         Program Version 5.0.0 -  RELEASE  -
|  1> !BLYP D3BJ RIJCOSX def2-SVPD def2/J TightSCF
|  2> *xyz -1 1
|  3> C          3.84189       -6.95161       -3.63283
|  4> S          4.31812       -6.91593       -5.36869
|  5> O          5.40615       -5.89948       -5.51297
|  6> O          3.11191       -6.44508       -6.04379
|  7> O          4.76340       -8.23942       -5.69863
|  8> H          3.06224       -7.67071       -3.49159
|  9> H          3.49217       -5.98401       -3.33897
| 10> H          4.68822       -7.22131       -3.03626
| 11> *
| 12>
| 13> %MaxCore 64000
| 14>
| 15> %pal nprocs 8
| 16> end
| 17>
| 18> %scf
| 19>   MaxIter 150
| 20> end
| 21>
| 22>
| 23>                          ****END OF INPUT****

CARTESIAN COORDINATES (ANGSTROEM)
---------------------------------
  C      3.841890   -6.951610   -3.632830
  S      4.318120   -6.915930   -5.368690
  O      5.406150   -5.899480   -5.512970
  O      3.111910   -6.445080   -6.043790
  O      4.763400   -8.239420   -5.698630
  H      3.062240   -7.670710   -3.491590
  H      3.492170   -5.984010   -3.338970
  H      4.688220   -7.221310   -3.036260

 Total Charge           Charge          ....   -1
 Multiplicity           Mult            ....    1
 Number of Electrons    NEL             ....   50
 Basis Dimension        Dim             ....  140

ORBITAL ENERGIES
----------------

  NO   OCC          E(Eh)            E(eV)
   0   2.0000     -88.129354     -2398.1216
   1   2.0000     -18.573961      -505.4232
   2   2.0000     -18.564127      -505.1556
   3   2.0000     -18.558005      -504.9890
   4   2.0000      -9.776105      -266.0213
   5   2.0000      -7.665784      -208.5966
   6   2.0000      -5.700864      -155.1284
   7   2.0000      -5.700737      -155.1249
   8   2.0000      -5.700258      -155.1119
   9   2.0000      -0.830790       -22.6069
  10   2.0000      -0.698861       -19.0170
  11   2.0000      -0.669669       -18.2226
  12   2.0000      -0.505006       -13.7419
  13   2.0000      -0.324759        -8.8371
  14   2.0000      -0.242021        -6.5857
  15   2.0000      -0.237605        -6.4656
  16   2.0000      -0.235600        -6.4110
  17   2.0000      -0.193498        -5.2654
  18   2.0000      -0.190865        -5.1937
  19   2.0000      -0.097992        -2.6665
  20   2.0000      -0.096681        -2.6308
  21   2.0000      -0.069425        -1.8892
  22   2.0000      -0.061374        -1.6701
  23   2.0000      -0.049487        -1.3466
  24   2.0000      -0.013434        -0.3655
  25   0.0000       0.135259         3.6806
  26   0.0000       0.174608         4.7513
  27   0.0000       0.174925         4.7599
  28   0.0000       0.177652         4.8342
  29   0.0000       0.198289         5.3957

MULLIKEN ATOMIC CHARGES
-----------------------
   0 C :    0.908086
   1 S :    0.909521
   2 O :   -0.748589
   3 O :   -0.718996
   4 O :   -0.682816
   5 H :   -0.213587
   6 H :   -0.217225
   7 H :   -0.236395
Sum of atomic charges:   -1.0000000

LOEWDIN ATOMIC CHARGES
----------------------
   0 C :    0.065737
   1 S :    0.794120
   2 O :   -0.585456
   3 O :   -0.575316
   4 O :   -0.558633
   5 H :   -0.046812
   6 H :   -0.045405
   7 H :   -0.048235

  Mayer bond orders larger than 0.100000
B(  0-C ,  1-S ) :   0.9049 B(  0-C ,  5-H ) :   0.8423 B(  0-C ,  6-H ) :   0.8479
B(  0-C ,  7-H ) :   0.8456 B(  1-S ,  2-O ) :   1.3287 B(  1-S ,  3-O ) :   1.3639
B(  1-S ,  4-O ) :   1.3888 B(  1-S ,  5-H ) :   0.1349 B(  1-S ,  6-H ) :   0.1486
B(  1-S ,  7-H ) :   0.1436

Dispersion correction           -0.013592157
FINAL SINGLE POINT ENERGY      -663.445064076625

DIPOLE MOMENT
-------------
                                X             Y             Z
Electronic contribution:      1.10434      -0.05500      -4.18478
Nuclear contribution   :     -1.53523      -0.17928       5.57610
                        -----------------------------------------
Total Dipole Moment    :     -0.43089      -0.23428       1.39132
                        -----------------------------------------
Magnitude (a.u.)       :      1.47524
Magnitude (Debye)      :      3.74976

Rotational constants in cm-1:     0.172657     0.156250     0.152500
Rotational constants in MHz :  5176.120042  4684.252187  4571.835124

                             ****ORCA TERMINATED NORMALLY****
TOTAL RUN TIME: 0 days 0 hours 0 minutes 3 seconds 565 msec
