                         Program Version 5.0.0 -  RELEASE  -
|  1> !BLYP D3BJ RIJCOSX def2-SVPD def2/J TightSCF
|  2> *xyz 1 1
|  3> C          5.55821       -1.99291       -6.21505
|  4> C          4.18188       -2.58967       -6.29891
|  5> N          3.14587       -1.76843       -6.48675
|  6> N          4.01910       -3.86431       -6.22743
|  7> H          4.76849       -4.59115       -5.99077
|  8> H          3.12241       -4.33339       -6.31462
|  9> H          3.28164       -0.77779       -6.56655
| 10> H          2.21255       -2.13419       -6.56225
| 11> H          5.49055       -0.92791       -6.29315
| 12> H          6.16046       -2.37160       -7.01429
| 13> H          6.00378       -2.25423       -5.27799
| 14> *
| 15>
| 16> %MaxCore 64000
| 17>
| 18> %pal nprocs 8
| 19> end
| 20>
| 21> %scf
| 22>   MaxIter 150
| 23> end
| 24>
| 25>
| 26>                          ****END OF INPUT****

CARTESIAN COORDINATES (ANGSTROEM)
---------------------------------
  C      5.558210   -1.992910   -6.215050
  C      4.181880   -2.589670   -6.298910
  N      3.145870   -1.768430   -6.486750
  N      4.019100   -3.864310   -6.227430
  H      4.768490   -4.591150   -5.990770
  H      3.122410   -4.333390   -6.314620
  H      3.281640   -0.777790   -6.566550
  H      2.212550   -2.134190   -6.562250
  H      5.490550   -0.927910   -6.293150
  H      6.160460   -2.371600   -7.014290
  H      6.003780   -2.254230   -5.277990

 Total Charge           Charge          ....    1
 Multiplicity           Mult            ....    1
 Number of Electrons    NEL             ....   32
 Basis Dimension        Dim             ....  136

ORBITAL ENERGIES
----------------

  NO   OCC          E(Eh)            E(eV)
   0   2.0000     -14.281483      -388.6189
   1   2.0000     -14.271854      -388.3569
   2   2.0000     -10.247993      -278.8621
   3   2.0000     -10.120709      -275.3985
   4   2.0000      -1.111783       -30.2531
   5   2.0000      -1.021209       -27.7885
   6   2.0000      -0.873415       -23.7668
   7   2.0000      -0.784123       -21.3371
   8   2.0000      -0.726703       -19.7746
   9   2.0000      -0.707035       -19.2394
  10   2.0000      -0.651673       -17.7329
  11   2.0000      -0.608262       -16.5516
  12   2.0000      -0.567357       -15.4386
  13   2.0000      -0.551507       -15.0073
  14   2.0000      -0.530268       -14.4293
  15   2.0000      -0.457511       -12.4495
  16   0.0000      -0.246220        -6.7000
  17   0.0000      -0.189844        -5.1659
  18   0.0000      -0.150192        -4.0869
  19   0.0000      -0.144451        -3.9307
  20   0.0000      -0.119037        -3.2392

MULLIKEN ATOMIC CHARGES
-----------------------
   0 C :    0.972326
   1 C :    0.244594
   2 N :    0.272266
   3 N :    0.354180
   4 H :   -0.003564
   5 H :   -0.230297
   6 H :   -0.062483
   7 H :   -0.201907
   8 H :   -0.117014
   9 H :   -0.121516
  10 H :   -0.106585
Sum of atomic charges:    1.0000000

LOEWDIN ATOMIC CHARGES
----------------------
   0 C :    0.248507
   1 C :   -0.086518
   2 N :    0.307113
   3 N :    0.271755
   4 H :    0.106931
   5 H :    0.044500
   6 H :    0.037532
   7 H :    0.036604
   8 H :    0.000556
   9 H :    0.017267
  10 H :    0.015753

  Mayer bond orders larger than 0.100000
B(  0-C ,  1-C ) :   1.2934 B(  0-C ,  8-H ) :   0.7004 B(  0-C ,  9-H ) :   0.6858
B(  0-C , 10-H ) :   0.6678 B(  1-C ,  2-N ) :   1.0539 B(  1-C ,  3-N ) :   1.2378
B(  1-C ,  4-H ) :  -0.1145 B(  1-C ,  5-H ) :  -0.2175 B(  1-C ,  7-H ) :  -0.2548
B(  1-C ,  8-H ) :   0.3184 B(  1-C ,  9-H ) :   0.2153 B(  1-C , 10-H ) :   0.2302
B(  2-N ,  3-N ) :   0.1745 B(  2-N ,  6-H ) :   1.1266 B(  2-N ,  7-H ) :   1.3287
B(  3-N ,  4-H ) :   1.1637 B(  3-N ,  5-H ) :   1.2427 B(  4-H ,  5-H ) :  -0.1711
B(  6-H ,  7-H ) :  -0.2003 B(  8-H , 10-H ) :   0.1138 B(  9-H , 10-H ) :   0.1046

Dispersion correction           -0.014013276
FINAL SINGLE POINT ENERGY      -189.517838180703

DIPOLE MOMENT
-------------
                                X             Y             Z
Electronic contribution:     -1.93177      -0.88685      -0.12074
Nuclear contribution   :      1.48163       0.51565       0.12876
                        -----------------------------------------
Total Dipole Moment    :     -0.45015      -0.37120       0.00802
                        -----------------------------------------
Magnitude (a.u.)       :      0.58351
Magnitude (Debye)      :      1.48316

Rotational constants in cm-1:     0.329497     0.300036     0.161709
Rotational constants in MHz :  9878.065920  8994.849253  4847.907140

                             ****ORCA TERMINATED NORMALLY****
TOTAL RUN TIME: 0 days 0 hours 0 minutes 3 seconds 412 msec
