                         Program Version 5.0.0 -  RELEASE  -
|  1> !BLYP D3BJ RIJCOSX def2-SVPD def2/J TightSCF xyzfile
|  2>
|  3> *xyzfile 0 1 B.xyz
|  4>
|  5> %MaxCore 64000
|  6>
|  7> %pal nprocs 4
|  8> end
|  9>
| 10> %scf
| 11>   MaxIter 150
| 12> end
| 13>
| 14>
| 15>                          ****END OF INPUT****

CARTESIAN COORDINATES (ANGSTROEM)
---------------------------------
  C      5.558206   -1.992914   -6.215054
  C      4.930199   -7.375319   -2.649623
  C      3.841892   -6.951611   -3.632829
  H      3.458144   -5.954425   -3.407121
  H      2.988484   -7.643606   -3.567078
  S      4.318115   -6.915930   -5.368692
  C      4.181880   -2.589671   -6.298911
  N      3.145873   -1.768431   -6.486753
  N      4.019102   -3.864307   -6.227427
  H      4.768490   -4.591153   -5.990773
  H      3.122405   -4.333392   -6.314620
  H      3.281635   -0.777786   -6.566549
  H      2.212549   -2.134193   -6.562246
  O      5.406154   -5.899480   -5.512972
  O      3.111910   -6.445079   -6.043792
  C      6.419260   -2.542944   -5.077630
  C      5.872267   -5.002756   -2.427819
  C      6.173994   -6.485522   -2.606315
  H      6.734852   -6.613767   -3.534015
  H      6.821463   -6.831018   -1.793617
  H      4.469612   -7.406168   -1.655876
  H      5.230134   -8.398678   -2.885906
  C      5.896512   -2.169314   -3.694552
  H      7.428880   -2.143665   -5.208078
  H      6.505894   -3.627541   -5.175502
  C      6.807804   -2.623428   -2.551019
  H      4.894708   -2.589732   -3.557501
  H      5.778823   -1.081255   -3.635790
  C      7.111544   -4.122463   -2.520363
  H      7.751615   -2.071393   -2.614406
  H      6.345837   -2.326401   -1.604086
  H      5.362882   -4.828697   -1.471335
  H      5.174429   -4.702577   -3.211298
  H      7.778329   -4.329347   -1.677651
  H      7.673189   -4.402845   -3.417586
  O      4.763396   -8.239424   -5.698629
  H      6.036826   -2.198189   -7.176852
  H      5.467610   -0.907371   -6.127968

 Total Charge           Charge          ....    0
 Multiplicity           Mult            ....    1
 Number of Electrons    NEL             ....  136
 Basis Dimension        Dim             ....  512

ORBITAL ENERGIES
----------------

  NO   OCC          E(Eh)            E(eV)
   0   2.0000     -88.284478     -2402.3428
   1   2.0000     -18.734363      -509.7879
   2   2.0000     -18.723351      -509.4883
   3   2.0000     -18.718144      -509.3466
   4   2.0000     -14.114501      -384.0751
   5   2.0000     -14.073291      -382.9537
   6   2.0000     -10.071329      -274.0548
   7   2.0000      -9.977943      -271.5136
   8   2.0000      -9.945923      -270.6423
   9   2.0000      -9.934754      -270.3384
  10   2.0000      -9.923459      -270.0310
  11   2.0000      -9.915833      -269.8235
  12   2.0000      -9.911543      -269.7068
  13   2.0000      -9.905105      -269.5316
  14   2.0000      -9.903583      -269.4902
  15   2.0000      -9.896385      -269.2943
  16   2.0000      -7.820030      -212.7938
  17   2.0000      -5.856063      -159.3516
  18   2.0000      -5.854895      -159.3198
  19   2.0000      -5.853618      -159.2850
  20   2.0000      -0.990183       -26.9443
  21   2.0000      -0.940033       -25.5796
  22   2.0000      -0.856259       -23.3000
  23   2.0000      -0.847209       -23.0537
  24   2.0000      -0.840880       -22.8815
  25   2.0000      -0.754342       -20.5267
  26   2.0000      -0.720309       -19.6006
  27   2.0000      -0.698829       -19.0161
  28   2.0000      -0.662864       -18.0375
  29   2.0000      -0.633163       -17.2292
  30   2.0000      -0.605066       -16.4647
  31   2.0000      -0.585613       -15.9353
  32   2.0000      -0.560942       -15.2640
  33   2.0000      -0.550208       -14.9719
  34   2.0000      -0.535801       -14.5799
  35   2.0000      -0.511149       -13.9091
  36   2.0000      -0.496184       -13.5019
  37   2.0000      -0.483292       -13.1510
  38   2.0000      -0.453585       -12.3427
  39   2.0000      -0.449147       -12.2219
  40   2.0000      -0.433821       -11.8049
  41   2.0000      -0.419889       -11.4258
  42   2.0000      -0.414230       -11.2718
  43   2.0000      -0.400438       -10.8965
  44   2.0000      -0.395026       -10.7492
  45   2.0000      -0.387741       -10.5510
  46   2.0000      -0.379564       -10.3285
  47   2.0000      -0.372768       -10.1435
  48   2.0000      -0.358764        -9.7625
  49   2.0000      -0.352760        -9.5991
  50   2.0000      -0.348264        -9.4767
  51   2.0000      -0.345050        -9.3893
  52   2.0000      -0.328821        -8.9477
  53   2.0000      -0.322605        -8.7785
  54   2.0000      -0.317338        -8.6352
  55   2.0000      -0.301762        -8.2114
  56   2.0000      -0.293020        -7.9735
  57   2.0000      -0.287131        -7.8132
  58   2.0000      -0.284005        -7.7282
  59   2.0000      -0.273174        -7.4334
  60   2.0000      -0.270434        -7.3589
  61   2.0000      -0.262048        -7.1307
  62   2.0000      -0.257508        -7.0071
  63   2.0000      -0.251281        -6.8377
  64   2.0000      -0.218678        -5.9505
  65   2.0000      -0.214686        -5.8419
  66   2.0000      -0.208993        -5.6870
  67   2.0000      -0.183387        -4.9902
  68   0.0000      -0.079687        -2.1684
  69   0.0000      -0.046572        -1.2673
  70   0.0000      -0.011244        -0.3060
  71   0.0000      -0.000637        -0.0173
  72   0.0000       0.007012         0.1908

MULLIKEN ATOMIC CHARGES
-----------------------
   0 C :    0.791954
   1 C :    0.790014
   2 C :    0.362734
   3 H :    0.056188
   4 H :   -0.460166
   5 S :    1.206947
   6 C :    0.363168
   7 N :    0.423073
   8 N :    0.911869
   9 H :   -0.162968
  10 H :   -0.346725
  11 H :   -0.167964
  12 H :   -0.250488
  13 O :   -0.979139
  14 O :   -0.798033
  15 C :    0.780523
  16 C :    0.281595
  17 C :    0.553567
  18 H :   -0.021798
  19 H :   -0.524051
  20 H :   -0.073046
  21 H :   -0.171038
  22 C :    0.190743
  23 H :   -0.271357
  24 H :   -0.781111
  25 C :    0.913326
  26 H :    0.014313
  27 H :   -0.533172
  28 C :    0.410028
  29 H :   -0.114899
  30 H :   -0.198635
  31 H :   -0.096622
  32 H :   -0.519721
  33 H :   -0.501223
  34 H :   -0.016705
  35 O :   -0.745541
  36 H :   -0.262317
  37 H :   -0.053321
Sum of atomic charges:   -0.0000000

LOEWDIN ATOMIC CHARGES
----------------------
   0 C :    0.050754
   1 C :   -0.022705
   2 C :   -0.067001
   3 H :   -0.004395
   4 H :    0.019664
   5 S :    0.916050
   6 C :   -0.069361
   7 N :    0.271800
   8 N :    0.314850
   9 H :   -0.095481
  10 H :   -0.005801
  11 H :    0.009719
  12 H :    0.018497
  13 O :   -0.495612
  14 O :   -0.520347
  15 C :    0.000657
  16 C :   -0.027596
  17 C :   -0.019781
  18 H :    0.010567
  19 H :    0.020201
  20 H :    0.019544
  21 H :    0.023191
  22 C :   -0.025695
  23 H :    0.033451
  24 H :   -0.001523
  25 C :   -0.019428
  26 H :    0.008921
  27 H :    0.016281
  28 C :   -0.021362
  29 H :    0.017013
  30 H :    0.018454
  31 H :    0.031079
  32 H :   -0.024033
  33 H :    0.020589
  34 H :    0.017059
  35 O :   -0.479242
  36 H :    0.042065
  37 H :    0.018958

  Mayer bond orders larger than 0.100000
B(  0-C ,  6-C ) :   0.9797 B(  0-C ,  7-N ) :   0.1000 B(  0-C ,  8-N ) :   0.1205
B(  0-C , 15-C ) :   1.1438 B(  0-C , 23-H ) :   0.1149 B(  0-C , 24-H ) :   0.1851
B(  0-C , 36-H ) :   0.4477 B(  0-C , 37-H ) :   0.6418 B(  1-C ,  2-C ) :   1.1975
B(  1-C ,  3-H ) :   0.1329 B(  1-C ,  4-H ) :   0.2001 B(  1-C , 16-C ) :   0.1209
B(  1-C , 17-C ) :   1.1845 B(  1-C , 18-H ) :   0.1132 B(  1-C , 20-H ) :   0.5638
B(  1-C , 21-H ) :   0.5060 B(  2-C ,  3-H ) :   0.7801 B(  2-C ,  4-H ) :   0.6522
B(  2-C ,  5-S ) :   0.9050 B(  2-C , 17-C ) :   0.1417 B(  2-C , 20-H ) :   0.2600
B(  2-C , 21-H ) :   0.1455 B(  2-C , 35-O ) :   0.1512 B(  3-H , 17-C ) :  -0.1288
B(  4-H ,  5-S ) :   0.1644 B(  5-S , 13-O ) :   1.0324 B(  5-S , 14-O ) :   1.2866
B(  5-S , 35-O ) :   1.3889 B(  6-C ,  7-N ) :   1.0223 B(  6-C ,  8-N ) :   1.3729
B(  6-C ,  9-H ) :  -0.3004 B(  6-C , 10-H ) :  -0.3753 B(  6-C , 12-H ) :  -0.1854
B(  6-C , 15-C ) :   0.1124 B(  6-C , 24-H ) :  -0.1065 B(  6-C , 36-H ) :   0.2402
B(  6-C , 37-H ) :   0.2179 B(  7-N ,  8-N ) :   0.1826 B(  7-N , 11-H ) :   1.1823
B(  7-N , 12-H ) :   1.3028 B(  8-N ,  9-H ) :   0.8827 B(  8-N , 10-H ) :   1.0821
B(  8-N , 24-H ) :   0.1311 B(  9-H , 10-H ) :  -0.2604 B(  9-H , 13-O ) :   0.2514
B( 10-H , 14-O ) :   0.1904 B( 11-H , 12-H ) :  -0.1880 B( 13-O , 14-O ) :   0.1591
B( 13-O , 18-H ) :   0.1120 B( 13-O , 24-H ) :   0.2280 B( 13-O , 35-O ) :   0.1253
B( 15-C , 22-C ) :   1.1516 B( 15-C , 23-H ) :   0.5824 B( 15-C , 24-H ) :   0.2918
B( 15-C , 26-H ) :   0.1867 B( 15-C , 27-H ) :   0.1933 B( 15-C , 36-H ) :   0.3876
B( 15-C , 37-H ) :   0.2054 B( 16-C , 17-C ) :   1.1843 B( 16-C , 18-H ) :   0.1863
B( 16-C , 19-H ) :   0.2005 B( 16-C , 28-C ) :   1.1771 B( 16-C , 31-H ) :   0.6495
B( 16-C , 32-H ) :   0.8609 B( 16-C , 33-H ) :   0.2460 B( 16-C , 34-H ) :   0.1882
B( 17-C , 18-H ) :   0.7414 B( 17-C , 19-H ) :   0.6215 B( 17-C , 20-H ) :   0.1202
B( 17-C , 21-H ) :   0.3188 B( 17-C , 28-C ) :   0.1979 B( 17-C , 31-H ) :   0.1217
B( 17-C , 32-H ) :   0.1495 B( 18-H , 19-H ) :  -0.1080 B( 20-H , 21-H ) :  -0.1516
B( 22-C , 23-H ) :   0.1848 B( 22-C , 24-H ) :   0.2949 B( 22-C , 25-C ) :   1.0324
B( 22-C , 26-H ) :   0.7797 B( 22-C , 27-H ) :   0.8676 B( 22-C , 28-C ) :   0.2208
B( 22-C , 29-H ) :   0.1700 B( 22-C , 30-H ) :   0.3327 B( 22-C , 34-H ) :  -0.1052
B( 23-H , 27-H ) :   0.1038 B( 24-H , 34-H ) :   0.1183 B( 25-C , 28-C ) :   1.0748
B( 25-C , 29-H ) :   0.5321 B( 25-C , 30-H ) :   0.5362 B( 25-C , 34-H ) :   0.1061
B( 26-H , 27-H ) :  -0.1115 B( 26-H , 32-H ) :   0.1784 B( 28-C , 29-H ) :   0.2944
B( 28-C , 30-H ) :   0.1504 B( 28-C , 31-H ) :   0.1383 B( 28-C , 32-H ) :   0.1162
B( 28-C , 33-H ) :   0.7713 B( 28-C , 34-H ) :   0.7373 B( 29-H , 30-H ) :  -0.1661
B( 33-H , 34-H ) :  -0.1171 B( 36-H , 37-H ) :  -0.1454

Dispersion correction           -0.092603405
FINAL SINGLE POINT ENERGY     -1126.817524174252

DIPOLE MOMENT
-------------
                                X             Y             Z
Electronic contribution:     -9.19273     -11.52822     -14.17555
Nuclear contribution   :      8.53517      16.50844      14.36520
                        -----------------------------------------
Total Dipole Moment    :     -0.65756       4.98022       0.18964
                        -----------------------------------------
Magnitude (a.u.)       :      5.02702
Magnitude (Debye)      :     12.77766

Rotational constants in cm-1:     0.017951     0.012436     0.008288
Rotational constants in MHz :   538.163255   372.824050   248.467077

                             ****ORCA TERMINATED NORMALLY****
TOTAL RUN TIME: 0 days 0 hours 1 minutes 5 seconds 968 msec
