                         Program Version 5.0.0 -  RELEASE  -
|  1> !BLYP D3BJ RIJCOSX def2-SVPD def2/J TightSCF
|  2> *xyz 0 1
|  3> C          3.84189       -6.95161       -3.63283
|  4> S          4.31812       -6.91593       -5.36869
|  5> F          5.40615       -5.89948       -5.51297
|  6> O          3.11191       -6.44508       -6.04379
|  7> O          4.76340       -8.23942       -5.69863
|  8> H          3.06224       -7.67071       -3.49159
|  9> H          3.49217       -5.98401       -3.33897
| 10> H          4.68822       -7.22131       -3.03626
| 11> *
| 12>
| 13> %MaxCore 64000
| 14>
| 15> %pal nprocs 8
| 16> end
| 17>
| 18> %scf
| 19>   MaxIter 150
| 20> end
| 21>
| 22>
| 23>                          ****END OF INPUT****

CARTESIAN COORDINATES (ANGSTROEM)
---------------------------------
  C      3.841890   -6.951610   -3.632830
  S      4.318120   -6.915930   -5.368690
  F      5.406150   -5.899480   -5.512970
  O      3.111910   -6.445080   -6.043790
  O      4.763400   -8.239420   -5.698630
  H      3.062240   -7.670710   -3.491590
  H      3.492170   -5.984010   -3.338970
  H      4.688220   -7.221310   -3.036260

 Total Charge           Charge          ....    0
 Multiplicity           Mult            ....    1
 Number of Electrons    NEL             ....   50
 Basis Dimension        Dim             ....  140

ORBITAL ENERGIES
----------------

  NO   OCC          E(Eh)            E(eV)
   0   2.0000     -88.387766     -2405.1534
   1   2.0000     -24.400136      -663.9615
   2   2.0000     -18.810828      -511.8687
   3   2.0000     -18.800580      -511.5898
   4   2.0000      -9.983798      -271.6730
   5   2.0000      -7.925025      -215.6509
   6   2.0000      -5.964084      -162.2910
   7   2.0000      -5.957977      -162.1248
   8   2.0000      -5.956844      -162.0940
   9   2.0000      -1.227873       -33.4121
  10   2.0000      -1.023632       -27.8544
  11   2.0000      -0.931056       -25.3353
  12   2.0000      -0.722607       -19.6631
  13   2.0000      -0.632142       -17.2015
  14   2.0000      -0.527520       -14.3546
  15   2.0000      -0.495180       -13.4745
  16   2.0000      -0.489691       -13.3252
  17   2.0000      -0.428067       -11.6483
  18   2.0000      -0.425281       -11.5725
  19   2.0000      -0.416795       -11.3416
  20   2.0000      -0.393341       -10.7034
  21   2.0000      -0.342531        -9.3207
  22   2.0000      -0.299909        -8.1609
  23   2.0000      -0.288906        -7.8615
  24   2.0000      -0.273332        -7.4378
  25   0.0000      -0.037556        -1.0220
  26   0.0000      -0.002952        -0.0803
  27   0.0000       0.012001         0.3266
  28   0.0000       0.031736         0.8636
  29   0.0000       0.032701         0.8899

MULLIKEN ATOMIC CHARGES
-----------------------
   0 C :    0.877507
   1 S :    1.095144
   2 F :   -0.356849
   3 O :   -0.585363
   4 O :   -0.553178
   5 H :   -0.153396
   6 H :   -0.152520
   7 H :   -0.171345
Sum of atomic charges:   -0.0000000

LOEWDIN ATOMIC CHARGES
----------------------
   0 C :    0.134126
   1 S :    1.066345
   2 F :   -0.263693
   3 O :   -0.454832
   4 O :   -0.439158
   5 H :   -0.004892
   6 H :   -0.017611
   7 H :   -0.020286

  Mayer bond orders larger than 0.100000
B(  0-C ,  1-S ) :   0.9636 B(  0-C ,  5-H ) :   0.8418 B(  0-C ,  6-H ) :   0.8532
B(  0-C ,  7-H ) :   0.8504 B(  1-S ,  2-F ) :   0.6966 B(  1-S ,  3-O ) :   1.5604
B(  1-S ,  4-O ) :   1.5837 B(  1-S ,  5-H ) :   0.1345 B(  1-S ,  6-H ) :   0.1214
B(  1-S ,  7-H ) :   0.1166 B(  3-O ,  4-O ) :   0.1177

Dispersion correction           -0.012742521
FINAL SINGLE POINT ENERGY      -687.954556503442

DIPOLE MOMENT
-------------
                                X             Y             Z
Electronic contribution:      2.88084       1.58601      -4.34928
Nuclear contribution   :     -2.64549      -1.17311       5.81218
                        -----------------------------------------
Total Dipole Moment    :      0.23535       0.41290       1.46290
                        -----------------------------------------
Magnitude (a.u.)       :      1.53816
Magnitude (Debye)      :      3.90970

Rotational constants in cm-1:     0.165958     0.149400     0.146699
Rotational constants in MHz :  4975.281722  4478.884828  4397.931002

                             ****ORCA TERMINATED NORMALLY****
TOTAL RUN TIME: 0 days 0 hours 0 minutes 3 seconds 574 msec
