                         Program Version 5.0.0 -  RELEASE  -
|  1> !BLYP D3BJ RIJCOSX def2-SVPD def2/J TightSCF
|  2> *xyz 0 1
|  3> C          5.55821       -1.99291       -6.21505
|  4> C          4.18188       -2.58967       -6.29891
|  5> C          3.14587       -1.76843       -6.48675
|  6> N          4.01910       -3.86431       -6.22743
|  7> H          4.76849       -4.59115       -5.99077
|  8> H          3.12241       -4.33339       -6.31462
|  9> H          3.28164       -0.77779       -6.56655
| 10> H          2.21255       -2.13419       -6.56225
| 11> H          5.49055       -0.92791       -6.29315
| 12> H          6.16046       -2.37160       -7.01429
| 13> H          6.00378       -2.25423       -5.27799
| 14> *
| 15>
| 16> %MaxCore 64000
| 17>
| 18> %pal nprocs 8
| 19> end
| 20>
| 21> %scf
| 22>   MaxIter 150
| 23> end
| 24>
| 25>
| 26>                          ****END OF INPUT****

CARTESIAN COORDINATES (ANGSTROEM)
---------------------------------
  C      5.558210   -1.992910   -6.215050
  C      4.181880   -2.589670   -6.298910
  C      3.145870   -1.768430   -6.486750
  N      4.019100   -3.864310   -6.227430
  H      4.768490   -4.591150   -5.990770
  H      3.122410   -4.333390   -6.314620
  H      3.281640   -0.777790   -6.566550
  H      2.212550   -2.134190   -6.562250
  H      5.490550   -0.927910   -6.293150
  H      6.160460   -2.371600   -7.014290
  H      6.003780   -2.254230   -5.277990

 Total Charge           Charge          ....    0
 Multiplicity           Mult            ....    1
 Number of Electrons    NEL             ....   32
 Basis Dimension        Dim             ....  136

ORBITAL ENERGIES
----------------

  NO   OCC          E(Eh)            E(eV)
   0   2.0000     -14.034247      -381.8913
   1   2.0000      -9.942296      -270.5436
   2   2.0000      -9.912475      -269.7322
   3   2.0000      -9.853278      -268.1213
   4   2.0000      -0.838611       -22.8198
   5   2.0000      -0.671293       -18.2668
   6   2.0000      -0.605726       -16.4827
   7   2.0000      -0.524528       -14.2731
   8   2.0000      -0.457945       -12.4613
   9   2.0000      -0.417313       -11.3557
  10   2.0000      -0.380241       -10.3469
  11   2.0000      -0.349172        -9.5014
  12   2.0000      -0.341480        -9.2921
  13   2.0000      -0.303655        -8.2629
  14   2.0000      -0.292010        -7.9460
  15   2.0000      -0.151898        -4.1334
  16   0.0000      -0.005951        -0.1619
  17   0.0000       0.021219         0.5774
  18   0.0000       0.032012         0.8711
  19   0.0000       0.040633         1.1057
  20   0.0000       0.064170         1.7461

MULLIKEN ATOMIC CHARGES
-----------------------
   0 C :    1.234123
   1 C :   -0.534836
   2 C :    0.786170
   3 N :    0.465352
   4 H :   -0.173157
   5 H :   -0.295547
   6 H :   -0.360613
   7 H :   -0.654990
   8 H :   -0.104635
   9 H :   -0.184372
  10 H :   -0.177495
Sum of atomic charges:   -0.0000000

LOEWDIN ATOMIC CHARGES
----------------------
   0 C :    0.178549
   1 C :   -0.304220
   2 C :    0.189333
   3 N :    0.157690
   4 H :    0.041845
   5 H :    0.000928
   6 H :   -0.101394
   7 H :   -0.100734
   8 H :   -0.020740
   9 H :   -0.019795
  10 H :   -0.021465

  Mayer bond orders larger than 0.100000
B(  0-C ,  1-C ) :   1.2645 B(  0-C ,  2-C ) :   0.1175 B(  0-C ,  8-H ) :   0.7276
B(  0-C ,  9-H ) :   0.5499 B(  0-C , 10-H ) :   0.5345 B(  1-C ,  2-C ) :   1.4802
B(  1-C ,  3-N ) :   1.2998 B(  1-C ,  7-H ) :   0.1826 B(  1-C ,  8-H ) :   0.2720
B(  1-C ,  9-H ) :   0.3564 B(  1-C , 10-H ) :   0.3625 B(  2-C ,  3-N ) :   0.3006
B(  2-C ,  6-H ) :   0.9055 B(  2-C ,  7-H ) :   0.5602 B(  3-N ,  4-H ) :   1.2059
B(  3-N ,  5-H ) :   1.1931 B(  4-H ,  5-H ) :  -0.1454 B(  8-H ,  9-H ) :   0.1096
B(  8-H , 10-H ) :   0.1163

Dispersion correction           -0.014784597
FINAL SINGLE POINT ENERGY      -173.049386225160

DIPOLE MOMENT
-------------
                                X             Y             Z
Electronic contribution:     -0.91166      -1.47499       0.03626
Nuclear contribution   :      1.24351       0.69391       0.08872
                        -----------------------------------------
Total Dipole Moment    :      0.33185      -0.78108       0.12498
                        -----------------------------------------
Magnitude (a.u.)       :      0.85781
Magnitude (Debye)      :      2.18038

Rotational constants in cm-1:     0.350694     0.303314     0.167659
Rotational constants in MHz : 10513.535482  9093.138449  5026.287342

                             ****ORCA TERMINATED NORMALLY****
TOTAL RUN TIME: 0 days 0 hours 0 minutes 3 seconds 610 msec
