                         Program Version 5.0.0 -  RELEASE  -
|  1> !BLYP D3BJ RIJCOSX def2-SVPD def2/J TightSCF
|  2> *xyz 0 1
|  3> C          3.84189       -6.95161       -3.63283
|  4> S          4.31812       -6.91593       -5.36869
|  5> O          5.40615       -5.89948       -5.51297
|  6> F          3.11191       -6.44508       -6.04379
|  7> O          4.76340       -8.23942       -5.69863
|  8> H          3.06224       -7.67071       -3.49159
|  9> H          3.49217       -5.98401       -3.33897
| 10> H          4.68822       -7.22131       -3.03626
| 11> *
| 12>
| 13> %MaxCore 64000
| 14>
| 15> %pal nprocs 8
| 16> end
| 17>
| 18> %scf
| 19>   MaxIter 150
| 20> end
| 21>
| 22>
| 23>                          ****END OF INPUT****

CARTESIAN COORDINATES (ANGSTROEM)
---------------------------------
  C      3.841890   -6.951610   -3.632830
  S      4.318120   -6.915930   -5.368690
  O      5.406150   -5.899480   -5.512970
  F      3.111910   -6.445080   -6.043790
  O      4.763400   -8.239420   -5.698630
  H      3.062240   -7.670710   -3.491590
  H      3.492170   -5.984010   -3.338970
  H      4.688220   -7.221310   -3.036260

 Total Charge           Charge          ....    0
 Multiplicity           Mult            ....    1
 Number of Electrons    NEL             ....   50
 Basis Dimension        Dim             ....  140

ORBITAL ENERGIES
----------------

  NO   OCC          E(Eh)            E(eV)
   0   2.0000     -88.389756     -2405.2075
   1   2.0000     -24.413530      -664.3259
   2   2.0000     -18.810587      -511.8621
   3   2.0000     -18.794154      -511.4149
   4   2.0000      -9.984703      -271.6976
   5   2.0000      -7.926963      -215.7036
   6   2.0000      -5.966256      -162.3501
   7   2.0000      -5.959838      -162.1754
   8   2.0000      -5.958520      -162.1396
   9   2.0000      -1.254231       -34.1293
  10   2.0000      -1.017994       -27.7010
  11   2.0000      -0.913182       -24.8489
  12   2.0000      -0.726993       -19.7825
  13   2.0000      -0.643275       -17.5044
  14   2.0000      -0.536295       -14.5933
  15   2.0000      -0.513325       -13.9683
  16   2.0000      -0.495087       -13.4720
  17   2.0000      -0.429483       -11.6868
  18   2.0000      -0.426798       -11.6138
  19   2.0000      -0.415310       -11.3012
  20   2.0000      -0.390036       -10.6134
  21   2.0000      -0.339792        -9.2462
  22   2.0000      -0.299241        -8.1428
  23   2.0000      -0.280679        -7.6377
  24   2.0000      -0.260985        -7.1018
  25   0.0000      -0.032947        -0.8965
  26   0.0000       0.003495         0.0951
  27   0.0000       0.009923         0.2700
  28   0.0000       0.030387         0.8269
  29   0.0000       0.031644         0.8611

MULLIKEN ATOMIC CHARGES
-----------------------
   0 C :    0.875584
   1 S :    1.086254
   2 O :   -0.601773
   3 F :   -0.340448
   4 O :   -0.543764
   5 H :   -0.145541
   6 H :   -0.155126
   7 H :   -0.175186
Sum of atomic charges:   -0.0000000

LOEWDIN ATOMIC CHARGES
----------------------
   0 C :    0.133728
   1 S :    1.066311
   2 O :   -0.462698
   3 F :   -0.255750
   4 O :   -0.439429
   5 H :   -0.018331
   6 H :   -0.018038
   7 H :   -0.005792

  Mayer bond orders larger than 0.100000
B(  0-C ,  1-S ) :   0.9625 B(  0-C ,  5-H ) :   0.8473 B(  0-C ,  6-H ) :   0.8526
B(  0-C ,  7-H ) :   0.8462 B(  1-S ,  2-O ) :   1.5292 B(  1-S ,  3-F ) :   0.7453
B(  1-S ,  4-O ) :   1.5889 B(  1-S ,  5-H ) :   0.1101 B(  1-S ,  6-H ) :   0.1218
B(  1-S ,  7-H ) :   0.1435 B(  2-O ,  4-O ) :   0.1034

Dispersion correction           -0.012728657
FINAL SINGLE POINT ENERGY      -687.944095426577

DIPOLE MOMENT
-------------
                                X             Y             Z
Electronic contribution:     -0.88817       0.68258      -5.22904
Nuclear contribution   :     -0.35339      -0.62802       6.34251
                        -----------------------------------------
Total Dipole Moment    :     -1.24157       0.05456       1.11347
                        -----------------------------------------
Magnitude (a.u.)       :      1.66862
Magnitude (Debye)      :      4.24129

Rotational constants in cm-1:     0.162638     0.154373     0.145390
Rotational constants in MHz :  4875.774584  4627.990015  4358.691210

                             ****ORCA TERMINATED NORMALLY****
TOTAL RUN TIME: 0 days 0 hours 0 minutes 3 seconds 584 msec
