                         Program Version 5.0.0 -  RELEASE  -
|  1> !BLYP D3BJ RIJCOSX def2-SVPD def2/J TightSCF
|  2> *xyz 0 1
|  3> C          5.55821       -1.99291       -6.21505
|  4> C          4.18188       -2.58967       -6.29891
|  5> N          3.14587       -1.76843       -6.48675
|  6> C          4.01910       -3.86431       -6.22743
|  7> H          4.76849       -4.59115       -5.99077
|  8> H          3.12241       -4.33339       -6.31462
|  9> H          3.28164       -0.77779       -6.56655
| 10> H          2.21255       -2.13419       -6.56225
| 11> H          5.49055       -0.92791       -6.29315
| 12> H          6.16046       -2.37160       -7.01429
| 13> H          6.00378       -2.25423       -5.27799
| 14> *
| 15>
| 16> %MaxCore 64000
| 17>
| 18> %pal nprocs 8
| 19> end
| 20>
| 21> %scf
| 22>   MaxIter 150
| 23> end
| 24>
| 25>
| 26>                          ****END OF INPUT****

CARTESIAN COORDINATES (ANGSTROEM)
---------------------------------
  C      5.558210   -1.992910   -6.215050
  C      4.181880   -2.589670   -6.298910
  N      3.145870   -1.768430   -6.486750
  C      4.019100   -3.864310   -6.227430
  H      4.768490   -4.591150   -5.990770
  H      3.122410   -4.333390   -6.314620
  H      3.281640   -0.777790   -6.566550
  H      2.212550   -2.134190   -6.562250
  H      5.490550   -0.927910   -6.293150
  H      6.160460   -2.371600   -7.014290
  H      6.003780   -2.254230   -5.277990

 Total Charge           Charge          ....    0
 Multiplicity           Mult            ....    1
 Number of Electrons    NEL             ....   32
 Basis Dimension        Dim             ....  136

ORBITAL ENERGIES
----------------

  NO   OCC          E(Eh)            E(eV)
   0   2.0000     -14.024295      -381.6205
   1   2.0000      -9.939631      -270.4711
   2   2.0000      -9.913652      -269.7642
   3   2.0000      -9.858026      -268.2505
   4   2.0000      -0.829644       -22.5758
   5   2.0000      -0.674295       -18.3485
   6   2.0000      -0.611466       -16.6388
   7   2.0000      -0.507257       -13.8032
   8   2.0000      -0.470354       -12.7990
   9   2.0000      -0.422625       -11.5002
  10   2.0000      -0.378521       -10.3001
  11   2.0000      -0.348045        -9.4708
  12   2.0000      -0.344788        -9.3822
  13   2.0000      -0.299350        -8.1457
  14   2.0000      -0.286563        -7.7978
  15   2.0000      -0.156595        -4.2612
  16   0.0000      -0.000417        -0.0114
  17   0.0000       0.019990         0.5440
  18   0.0000       0.036398         0.9904
  19   0.0000       0.042822         1.1652
  20   0.0000       0.065882         1.7928

MULLIKEN ATOMIC CHARGES
-----------------------
   0 C :    1.195305
   1 C :   -0.151840
   2 N :    0.427632
   3 C :    0.268270
   4 H :   -0.204282
   5 H :   -0.542909
   6 H :   -0.242095
   7 H :   -0.245851
   8 H :   -0.282215
   9 H :   -0.133230
  10 H :   -0.088785
Sum of atomic charges:    0.0000000

LOEWDIN ATOMIC CHARGES
----------------------
   0 C :    0.181020
   1 C :   -0.292915
   2 N :    0.194482
   3 C :    0.149367
   4 H :   -0.046579
   5 H :   -0.096132
   6 H :   -0.021978
   7 H :   -0.005906
   8 H :   -0.034868
   9 H :   -0.012967
  10 H :   -0.013525

  Mayer bond orders larger than 0.100000
B(  0-C ,  1-C ) :   1.0723 B(  0-C ,  2-N ) :   0.1423 B(  0-C ,  3-C ) :   0.1010
B(  0-C ,  8-H ) :   0.5684 B(  0-C ,  9-H ) :   0.6777 B(  0-C , 10-H ) :   0.6378
B(  1-C ,  2-N ) :   1.1062 B(  1-C ,  3-C ) :   1.3092 B(  1-C ,  5-H ) :   0.1479
B(  1-C ,  7-H ) :  -0.1419 B(  1-C ,  8-H ) :   0.3637 B(  1-C ,  9-H ) :   0.2163
B(  1-C , 10-H ) :   0.2397 B(  2-N ,  3-C ) :   0.3272 B(  2-N ,  6-H ) :   1.1206
B(  2-N ,  7-H ) :   1.2694 B(  3-C ,  4-H ) :   0.8980 B(  3-C ,  5-H ) :   0.6972
B(  6-H ,  7-H ) :  -0.1803

Dispersion correction           -0.014790811
FINAL SINGLE POINT ENERGY      -173.057180716683

DIPOLE MOMENT
-------------
                                X             Y             Z
Electronic contribution:     -1.64702       0.42673      -0.21265
Nuclear contribution   :      1.43935       0.22387       0.14687
                        -----------------------------------------
Total Dipole Moment    :     -0.20767       0.65060      -0.06577
                        -----------------------------------------
Magnitude (a.u.)       :      0.68610
Magnitude (Debye)      :      1.74393

Rotational constants in cm-1:     0.350137     0.303099     0.167465
Rotational constants in MHz : 10496.847516  9086.685989  5020.487860

                             ****ORCA TERMINATED NORMALLY****
TOTAL RUN TIME: 0 days 0 hours 0 minutes 3 seconds 613 msec
