                         Program Version 5.0.0 -  RELEASE  -
|  1> !BLYP D3BJ RIJCOSX def2-SVPD def2/J TightSCF
|  2> *xyz 0 1
|  3> C          3.84189       -6.95161       -3.63283
|  4> S          4.31812       -6.91593       -5.36869
|  5> O          5.40615       -5.89948       -5.51297
|  6> O          3.11191       -6.44508       -6.04379
|  7> F          4.76340       -8.23942       -5.69863
|  8> H          3.06224       -7.67071       -3.49159
|  9> H          3.49217       -5.98401       -3.33897
| 10> H          4.68822       -7.22131       -3.03626
| 11> *
| 12>
| 13> %MaxCore 64000
| 14>
| 15> %pal nprocs 8
| 16> end
| 17>
| 18> %scf
| 19>   MaxIter 150
| 20> end
| 21>
| 22>
| 23>                          ****END OF INPUT****

CARTESIAN COORDINATES (ANGSTROEM)
---------------------------------
  C      3.841890   -6.951610   -3.632830
  S      4.318120   -6.915930   -5.368690
  O      5.406150   -5.899480   -5.512970
  O      3.111910   -6.445080   -6.043790
  F      4.763400   -8.239420   -5.698630
  H      3.062240   -7.670710   -3.491590
  H      3.492170   -5.984010   -3.338970
  H      4.688220   -7.221310   -3.036260

 Total Charge           Charge          ....    0
 Multiplicity           Mult            ....    1
 Number of Electrons    NEL             ....   50
 Basis Dimension        Dim             ....  140

ORBITAL ENERGIES
----------------

  NO   OCC          E(Eh)            E(eV)
   0   2.0000     -88.391144     -2405.2453
   1   2.0000     -24.427355      -664.7021
   2   2.0000     -18.800871      -511.5977
   3   2.0000     -18.794716      -511.4302
   4   2.0000      -9.985104      -271.7085
   5   2.0000      -7.928341      -215.7411
   6   2.0000      -5.967804      -162.3922
   7   2.0000      -5.961006      -162.2072
   8   2.0000      -5.959805      -162.1745
   9   2.0000      -1.276527       -34.7361
  10   2.0000      -1.006889       -27.3988
  11   2.0000      -0.905474       -24.6392
  12   2.0000      -0.727174       -19.7874
  13   2.0000      -0.654367       -17.8062
  14   2.0000      -0.546273       -14.8648
  15   2.0000      -0.528586       -14.3836
  16   2.0000      -0.498229       -13.5575
  17   2.0000      -0.429575       -11.6893
  18   2.0000      -0.424732       -11.5576
  19   2.0000      -0.416641       -11.3374
  20   2.0000      -0.386051       -10.5050
  21   2.0000      -0.332717        -9.0537
  22   2.0000      -0.289292        -7.8720
  23   2.0000      -0.278864        -7.5883
  24   2.0000      -0.254684        -6.9303
  25   0.0000      -0.035610        -0.9690
  26   0.0000       0.002077         0.0565
  27   0.0000       0.008935         0.2431
  28   0.0000       0.026072         0.7094
  29   0.0000       0.031122         0.8469

MULLIKEN ATOMIC CHARGES
-----------------------
   0 C :    0.877442
   1 S :    1.084877
   2 O :   -0.594695
   3 O :   -0.569141
   4 F :   -0.324556
   5 H :   -0.145506
   6 H :   -0.158778
   7 H :   -0.169643
Sum of atomic charges:    0.0000000

LOEWDIN ATOMIC CHARGES
----------------------
   0 C :    0.133239
   1 S :    1.068045
   2 O :   -0.462032
   3 O :   -0.454576
   4 F :   -0.242121
   5 H :   -0.018535
   6 H :   -0.004037
   7 H :   -0.019984

  Mayer bond orders larger than 0.100000
B(  0-C ,  1-S ) :   0.9645 B(  0-C ,  5-H ) :   0.8458 B(  0-C ,  6-H ) :   0.8492
B(  0-C ,  7-H ) :   0.8506 B(  1-S ,  2-O ) :   1.5294 B(  1-S ,  3-O ) :   1.5662
B(  1-S ,  4-F ) :   0.7755 B(  1-S ,  5-H ) :   0.1079 B(  1-S ,  6-H ) :   0.1467
B(  1-S ,  7-H ) :   0.1155

Dispersion correction           -0.012734753
FINAL SINGLE POINT ENERGY      -687.931796477815

DIPOLE MOMENT
-------------
                                X             Y             Z
Electronic contribution:      1.81387      -2.24058      -4.66020
Nuclear contribution   :     -2.00334       1.16464       5.99767
                        -----------------------------------------
Total Dipole Moment    :     -0.18947      -1.07593       1.33747
                        -----------------------------------------
Magnitude (a.u.)       :      1.72695
Magnitude (Debye)      :      4.38956

Rotational constants in cm-1:     0.163678     0.154408     0.144413
Rotational constants in MHz :  4906.945035  4629.020676  4329.393152

                             ****ORCA TERMINATED NORMALLY****
TOTAL RUN TIME: 0 days 0 hours 0 minutes 3 seconds 616 msec
