                         Program Version 5.0.0 -  RELEASE  -
|  1> !BLYP D3BJ RIJCOSX def2-SVPD def2/J TightSCF xyzfile
|  2>
|  3> *xyzfile 0 1 D1.xyz
|  4>
|  5> %MaxCore 64000
|  6>
|  7> %pal nprocs 4
|  8> end
|  9>
| 10> %scf
| 11>   MaxIter 150
| 12> end
| 13>
| 14>
| 15>                          ****END OF INPUT****

CARTESIAN COORDINATES (ANGSTROEM)
---------------------------------
  C      5.558206   -1.992914   -6.215054
  C      4.930199   -7.375319   -2.649623
  C      3.841892   -6.951611   -3.632829
  H      3.458144   -5.954425   -3.407121
  H      2.988484   -7.643606   -3.567078
  S      4.318115   -6.915930   -5.368692
  C      4.181880   -2.589671   -6.298911
  C      3.145873   -1.768431   -6.486753
  N      4.019102   -3.864307   -6.227427
  H      4.768490   -4.591153   -5.990773
  H      3.122405   -4.333392   -6.314620
  H      3.281635   -0.777786   -6.566549
  H      2.212549   -2.134193   -6.562246
  F      5.406154   -5.899480   -5.512972
  O      3.111910   -6.445079   -6.043792
  C      6.419260   -2.542944   -5.077630
  C      5.872267   -5.002756   -2.427819
  C      6.173994   -6.485522   -2.606315
  H      6.734852   -6.613767   -3.534015
  H      6.821463   -6.831018   -1.793617
  H      4.469612   -7.406168   -1.655876
  H      5.230134   -8.398678   -2.885906
  C      5.896512   -2.169314   -3.694552
  H      7.428880   -2.143665   -5.208078
  H      6.505894   -3.627541   -5.175502
  C      6.807804   -2.623428   -2.551019
  H      4.894708   -2.589732   -3.557501
  H      5.778823   -1.081255   -3.635790
  C      7.111544   -4.122463   -2.520363
  H      7.751615   -2.071393   -2.614406
  H      6.345837   -2.326401   -1.604086
  H      5.362882   -4.828697   -1.471335
  H      5.174429   -4.702577   -3.211298
  H      7.778329   -4.329347   -1.677651
  H      7.673189   -4.402845   -3.417586
  O      4.763396   -8.239424   -5.698629
  H      6.036826   -2.198189   -7.176852
  H      5.467610   -0.907371   -6.127968

 Total Charge           Charge          ....    0
 Multiplicity           Mult            ....    1
 Number of Electrons    NEL             ....  136
 Basis Dimension        Dim             ....  512

ORBITAL ENERGIES
----------------

  NO   OCC          E(Eh)            E(eV)
   0   2.0000     -88.399429     -2405.4708
   1   2.0000     -24.425580      -664.6538
   2   2.0000     -18.823492      -512.2133
   3   2.0000     -18.815608      -511.9987
   4   2.0000     -14.007659      -381.1678
   5   2.0000      -9.993213      -271.9291
   6   2.0000      -9.958222      -270.9770
   7   2.0000      -9.941742      -270.5285
   8   2.0000      -9.932881      -270.2874
   9   2.0000      -9.926999      -270.1274
  10   2.0000      -9.925701      -270.0921
  11   2.0000      -9.920344      -269.9463
  12   2.0000      -9.918799      -269.9042
  13   2.0000      -9.915187      -269.8059
  14   2.0000      -9.912886      -269.7433
  15   2.0000      -9.842060      -267.8161
  16   2.0000      -7.936061      -215.9512
  17   2.0000      -5.975635      -162.6053
  18   2.0000      -5.969035      -162.4257
  19   2.0000      -5.967204      -162.3759
  20   2.0000      -1.257314       -34.2133
  21   2.0000      -1.038376       -28.2556
  22   2.0000      -0.945888       -25.7389
  23   2.0000      -0.824329       -22.4311
  24   2.0000      -0.767308       -20.8795
  25   2.0000      -0.734153       -19.9773
  26   2.0000      -0.709015       -19.2933
  27   2.0000      -0.680653       -18.5215
  28   2.0000      -0.665801       -18.1174
  29   2.0000      -0.636503       -17.3201
  30   2.0000      -0.621609       -16.9148
  31   2.0000      -0.586945       -15.9716
  32   2.0000      -0.557218       -15.1627
  33   2.0000      -0.547591       -14.9007
  34   2.0000      -0.540283       -14.7019
  35   2.0000      -0.520422       -14.1614
  36   2.0000      -0.509250       -13.8574
  37   2.0000      -0.497068       -13.5259
  38   2.0000      -0.495125       -13.4730
  39   2.0000      -0.455344       -12.3905
  40   2.0000      -0.448877       -12.2146
  41   2.0000      -0.436581       -11.8800
  42   2.0000      -0.433541       -11.7972
  43   2.0000      -0.422735       -11.5032
  44   2.0000      -0.412484       -11.2243
  45   2.0000      -0.409565       -11.1448
  46   2.0000      -0.399356       -10.8670
  47   2.0000      -0.385906       -10.5010
  48   2.0000      -0.382407       -10.4058
  49   2.0000      -0.373084       -10.1521
  50   2.0000      -0.362235        -9.8569
  51   2.0000      -0.359511        -9.7828
  52   2.0000      -0.347189        -9.4475
  53   2.0000      -0.333164        -9.0659
  54   2.0000      -0.326647        -8.8885
  55   2.0000      -0.324485        -8.8297
  56   2.0000      -0.322829        -8.7846
  57   2.0000      -0.312335        -8.4991
  58   2.0000      -0.307439        -8.3658
  59   2.0000      -0.301333        -8.1997
  60   2.0000      -0.296088        -8.0570
  61   2.0000      -0.292482        -7.9588
  62   2.0000      -0.290359        -7.9011
  63   2.0000      -0.284991        -7.7550
  64   2.0000      -0.278588        -7.5808
  65   2.0000      -0.270983        -7.3738
  66   2.0000      -0.265858        -7.2344
  67   2.0000      -0.140229        -3.8158
  68   0.0000      -0.046402        -1.2627
  69   0.0000      -0.010339        -0.2813
  70   0.0000      -0.004773        -0.1299
  71   0.0000      -0.000128        -0.0035
  72   0.0000       0.006041         0.1644

MULLIKEN ATOMIC CHARGES
-----------------------
   0 C :    1.137859
   1 C :    0.803420
   2 C :    0.322658
   3 H :    0.121163
   4 H :   -0.447527
   5 S :    1.310778
   6 C :   -0.510167
   7 C :    0.650893
   8 N :    1.328384
   9 H :   -0.457872
  10 H :   -0.359201
  11 H :   -0.449156
  12 H :   -0.535111
  13 F :   -0.659061
  14 O :   -0.653668
  15 C :    0.735787
  16 C :    0.319139
  17 C :    0.514093
  18 H :   -0.080742
  19 H :   -0.489670
  20 H :   -0.044393
  21 H :   -0.172178
  22 C :    0.189523
  23 H :   -0.298734
  24 H :   -0.812393
  25 C :    0.912598
  26 H :    0.000640
  27 H :   -0.503994
  28 C :    0.418827
  29 H :   -0.107982
  30 H :   -0.210144
  31 H :   -0.092438
  32 H :   -0.558336
  33 H :   -0.513523
  34 H :   -0.021004
  35 O :   -0.632639
  36 H :   -0.312114
  37 H :    0.156286
Sum of atomic charges:   -0.0000000

LOEWDIN ATOMIC CHARGES
----------------------
   0 C :    0.024686
   1 C :   -0.019649
   2 C :   -0.032454
   3 H :    0.013941
   4 H :    0.039351
   5 S :    1.103596
   6 C :   -0.260071
   7 C :    0.193250
   8 N :    0.206663
   9 H :   -0.074778
  10 H :   -0.025227
  11 H :   -0.104006
  12 H :   -0.098420
  13 F :   -0.261569
  14 O :   -0.428039
  15 C :   -0.020687
  16 C :   -0.025967
  17 C :   -0.020260
  18 H :    0.010929
  19 H :    0.028995
  20 H :    0.033050
  21 H :    0.026333
  22 C :   -0.020871
  23 H :    0.024172
  24 H :   -0.017686
  25 C :   -0.021101
  26 H :    0.010345
  27 H :    0.023513
  28 C :   -0.024052
  29 H :    0.018004
  30 H :    0.017198
  31 H :    0.037388
  32 H :   -0.022258
  33 H :    0.020706
  34 H :    0.012602
  35 O :   -0.411680
  36 H :    0.022912
  37 H :    0.021142

  Mayer bond orders larger than 0.100000
B(  0-C ,  6-C ) :   0.8582 B(  0-C ,  8-N ) :   0.2158 B(  0-C ,  9-H ) :  -0.1019
B(  0-C , 12-H ) :   0.1000 B(  0-C , 15-C ) :   1.0647 B(  0-C , 23-H ) :   0.1388
B(  0-C , 24-H ) :   0.2104 B(  0-C , 36-H ) :   0.2569 B(  0-C , 37-H ) :   0.6011
B(  1-C ,  2-C ) :   1.2176 B(  1-C ,  3-H ) :   0.1125 B(  1-C ,  4-H ) :   0.2094
B(  1-C , 17-C ) :   1.1825 B(  1-C , 20-H ) :   0.5611 B(  1-C , 21-H ) :   0.5159
B(  2-C ,  3-H ) :   0.8202 B(  2-C ,  4-H ) :   0.6039 B(  2-C ,  5-S ) :   0.9534
B(  2-C , 17-C ) :   0.1394 B(  2-C , 20-H ) :   0.2527 B(  2-C , 21-H ) :   0.1497
B(  2-C , 35-O ) :   0.1095 B(  4-H ,  5-S ) :   0.1746 B(  5-S , 13-F ) :   0.6007
B(  5-S , 14-O ) :   1.5347 B(  5-S , 35-O ) :   1.5531 B(  6-C ,  7-C ) :   1.3288
B(  6-C ,  8-N ) :   1.3936 B(  6-C , 10-H ) :  -0.2195 B(  6-C , 11-H ) :   0.1450
B(  6-C , 12-H ) :   0.3878 B(  6-C , 15-C ) :   0.1902 B(  6-C , 24-H ) :  -0.1338
B(  6-C , 36-H ) :   0.3746 B(  6-C , 37-H ) :   0.1765 B(  7-C ,  8-N ) :   0.1951
B(  7-C , 10-H ) :  -0.1418 B(  7-C , 11-H ) :   0.7650 B(  7-C , 12-H ) :   0.4243
B(  8-N ,  9-H ) :   0.4445 B(  8-N , 10-H ) :   0.8429 B(  8-N , 13-F ) :  -0.1854
B(  8-N , 24-H ) :   0.1080 B(  9-H , 10-H ) :  -0.1803 B(  9-H , 13-F ) :   0.2442
B( 10-H , 14-O ) :   0.1687 B( 13-F , 14-O ) :   0.1401 B( 13-F , 24-H ) :   0.1692
B( 13-F , 35-O ) :   0.1098 B( 15-C , 22-C ) :   1.1537 B( 15-C , 23-H ) :   0.5839
B( 15-C , 24-H ) :   0.3034 B( 15-C , 26-H ) :   0.1748 B( 15-C , 27-H ) :   0.2027
B( 15-C , 36-H ) :   0.3560 B( 15-C , 37-H ) :   0.1837 B( 16-C , 17-C ) :   1.1769
B( 16-C , 18-H ) :   0.1870 B( 16-C , 19-H ) :   0.2153 B( 16-C , 28-C ) :   1.1770
B( 16-C , 31-H ) :   0.6527 B( 16-C , 32-H ) :   0.8552 B( 16-C , 33-H ) :   0.2363
B( 16-C , 34-H ) :   0.1874 B( 17-C , 18-H ) :   0.7596 B( 17-C , 19-H ) :   0.6569
B( 17-C , 20-H ) :   0.1151 B( 17-C , 21-H ) :   0.3224 B( 17-C , 28-C ) :   0.1856
B( 17-C , 31-H ) :   0.1296 B( 17-C , 32-H ) :   0.1249 B( 18-H , 19-H ) :  -0.1419
B( 20-H , 21-H ) :  -0.1505 B( 22-C , 23-H ) :   0.1788 B( 22-C , 24-H ) :   0.2959
B( 22-C , 25-C ) :   1.0278 B( 22-C , 26-H ) :   0.8013 B( 22-C , 27-H ) :   0.8542
B( 22-C , 28-C ) :   0.2194 B( 22-C , 29-H ) :   0.1671 B( 22-C , 30-H ) :   0.3192
B( 22-C , 34-H ) :  -0.1020 B( 24-H , 34-H ) :   0.1095 B( 25-C , 28-C ) :   1.0816
B( 25-C , 29-H ) :   0.5491 B( 25-C , 30-H ) :   0.5428 B( 25-C , 34-H ) :   0.1073
B( 26-H , 27-H ) :  -0.1050 B( 26-H , 32-H ) :   0.1777 B( 28-C , 29-H ) :   0.3004
B( 28-C , 30-H ) :   0.1481 B( 28-C , 31-H ) :   0.1370 B( 28-C , 32-H ) :   0.1279
B( 28-C , 33-H ) :   0.7739 B( 28-C , 34-H ) :   0.7376 B( 29-H , 30-H ) :  -0.1725
B( 33-H , 34-H ) :  -0.1198 B( 36-H , 37-H ) :  -0.1419

Dispersion correction           -0.091615588
FINAL SINGLE POINT ENERGY     -1134.673861104599

DIPOLE MOMENT
-------------
                                X             Y             Z
Electronic contribution:     -7.04323     -18.79940     -13.23215
Nuclear contribution   :      7.78491      18.17172      15.09294
                        -----------------------------------------
Total Dipole Moment    :      0.74168      -0.62768       1.86079
                        -----------------------------------------
Magnitude (a.u.)       :      2.09919
Magnitude (Debye)      :      5.33572

Rotational constants in cm-1:     0.018190     0.012573     0.008405
Rotational constants in MHz :   545.327178   376.916509   251.974803

                             ****ORCA TERMINATED NORMALLY****
TOTAL RUN TIME: 0 days 0 hours 1 minutes 9 seconds 30 msec
