                         Program Version 5.0.0 -  RELEASE  -
|  1> !BLYP D3BJ RIJCOSX def2-SVPD def2/J TightSCF xyzfile
|  2>
|  3> *xyzfile 0 1 D3.xyz
|  4>
|  5> %MaxCore 64000
|  6>
|  7> %pal nprocs 4
|  8> end
|  9>
| 10> %scf
| 11>   MaxIter 150
| 12> end
| 13>
| 14>
| 15>                          ****END OF INPUT****

CARTESIAN COORDINATES (ANGSTROEM)
---------------------------------
  C      5.558206   -1.992914   -6.215054
  C      4.930199   -7.375319   -2.649623
  C      3.841892   -6.951611   -3.632829
  H      3.458144   -5.954425   -3.407121
  H      2.988484   -7.643606   -3.567078
  S      4.318115   -6.915930   -5.368692
  C      4.181880   -2.589671   -6.298911
  C      3.145873   -1.768431   -6.486753
  N      4.019102   -3.864307   -6.227427
  H      4.768490   -4.591153   -5.990773
  H      3.122405   -4.333392   -6.314620
  H      3.281635   -0.777786   -6.566549
  H      2.212549   -2.134193   -6.562246
  O      5.406154   -5.899480   -5.512972
  F      3.111910   -6.445079   -6.043792
  C      6.419260   -2.542944   -5.077630
  C      5.872267   -5.002756   -2.427819
  C      6.173994   -6.485522   -2.606315
  H      6.734852   -6.613767   -3.534015
  H      6.821463   -6.831018   -1.793617
  H      4.469612   -7.406168   -1.655876
  H      5.230134   -8.398678   -2.885906
  C      5.896512   -2.169314   -3.694552
  H      7.428880   -2.143665   -5.208078
  H      6.505894   -3.627541   -5.175502
  C      6.807804   -2.623428   -2.551019
  H      4.894708   -2.589732   -3.557501
  H      5.778823   -1.081255   -3.635790
  C      7.111544   -4.122463   -2.520363
  H      7.751615   -2.071393   -2.614406
  H      6.345837   -2.326401   -1.604086
  H      5.362882   -4.828697   -1.471335
  H      5.174429   -4.702577   -3.211298
  H      7.778329   -4.329347   -1.677651
  H      7.673189   -4.402845   -3.417586
  O      4.763396   -8.239424   -5.698629
  H      6.036826   -2.198189   -7.176852
  H      5.467610   -0.907371   -6.127968

 Total Charge           Charge          ....    0
 Multiplicity           Mult            ....    1
 Number of Electrons    NEL             ....  136
 Basis Dimension        Dim             ....  512

ORBITAL ENERGIES
----------------

  NO   OCC          E(Eh)            E(eV)
   0   2.0000     -88.408928     -2405.7292
   1   2.0000     -24.433829      -664.8783
   2   2.0000     -18.828740      -512.3561
   3   2.0000     -18.820643      -512.1357
   4   2.0000     -13.996245      -380.8572
   5   2.0000      -9.998142      -272.0633
   6   2.0000      -9.960349      -271.0349
   7   2.0000      -9.930614      -270.2257
   8   2.0000      -9.921289      -269.9720
   9   2.0000      -9.920973      -269.9634
  10   2.0000      -9.915141      -269.8047
  11   2.0000      -9.911470      -269.7048
  12   2.0000      -9.905853      -269.5520
  13   2.0000      -9.905801      -269.5505
  14   2.0000      -9.904681      -269.5201
  15   2.0000      -9.836510      -267.6650
  16   2.0000      -7.945256      -216.2014
  17   2.0000      -5.984592      -162.8490
  18   2.0000      -5.978565      -162.6850
  19   2.0000      -5.976325      -162.6241
  20   2.0000      -1.274681       -34.6858
  21   2.0000      -1.039593       -28.2888
  22   2.0000      -0.944036       -25.6885
  23   2.0000      -0.816291       -22.2124
  24   2.0000      -0.766562       -20.8592
  25   2.0000      -0.726930       -19.7808
  26   2.0000      -0.705112       -19.1871
  27   2.0000      -0.679378       -18.4868
  28   2.0000      -0.659546       -17.9471
  29   2.0000      -0.632342       -17.2069
  30   2.0000      -0.612940       -16.6789
  31   2.0000      -0.581672       -15.8281
  32   2.0000      -0.553570       -15.0634
  33   2.0000      -0.541731       -14.7413
  34   2.0000      -0.532066       -14.4782
  35   2.0000      -0.526403       -14.3241
  36   2.0000      -0.512706       -13.9514
  37   2.0000      -0.497710       -13.5434
  38   2.0000      -0.487098       -13.2546
  39   2.0000      -0.464255       -12.6330
  40   2.0000      -0.451825       -12.2948
  41   2.0000      -0.441296       -12.0083
  42   2.0000      -0.427977       -11.6458
  43   2.0000      -0.413613       -11.2550
  44   2.0000      -0.407811       -11.0971
  45   2.0000      -0.403473       -10.9791
  46   2.0000      -0.393607       -10.7106
  47   2.0000      -0.382635       -10.4120
  48   2.0000      -0.373044       -10.1510
  49   2.0000      -0.367067        -9.9884
  50   2.0000      -0.362371        -9.8606
  51   2.0000      -0.355494        -9.6735
  52   2.0000      -0.344480        -9.3738
  53   2.0000      -0.333404        -9.0724
  54   2.0000      -0.325932        -8.8691
  55   2.0000      -0.318019        -8.6537
  56   2.0000      -0.314596        -8.5606
  57   2.0000      -0.309585        -8.4242
  58   2.0000      -0.305076        -8.3015
  59   2.0000      -0.294697        -8.0191
  60   2.0000      -0.289774        -7.8852
  61   2.0000      -0.284602        -7.7444
  62   2.0000      -0.281659        -7.6643
  63   2.0000      -0.272697        -7.4205
  64   2.0000      -0.268317        -7.3013
  65   2.0000      -0.260805        -7.0969
  66   2.0000      -0.256827        -6.9886
  67   2.0000      -0.134259        -3.6534
  68   0.0000      -0.043027        -1.1708
  69   0.0000      -0.021025        -0.5721
  70   0.0000      -0.000752        -0.0205
  71   0.0000       0.007207         0.1961
  72   0.0000       0.012312         0.3350

MULLIKEN ATOMIC CHARGES
-----------------------
   0 C :    1.126309
   1 C :    0.760787
   2 C :    0.245676
   3 H :    0.125357
   4 H :   -0.385733
   5 S :    1.391653
   6 C :   -0.556064
   7 C :    0.672110
   8 N :    1.273902
   9 H :   -0.447527
  10 H :   -0.371229
  11 H :   -0.441165
  12 H :   -0.558526
  13 O :   -0.899210
  14 F :   -0.438582
  15 C :    0.772988
  16 C :    0.267360
  17 C :    0.572420
  18 H :   -0.044219
  19 H :   -0.512384
  20 H :   -0.053679
  21 H :   -0.162253
  22 C :    0.195496
  23 H :   -0.280705
  24 H :   -0.833685
  25 C :    0.914880
  26 H :    0.013935
  27 H :   -0.511167
  28 C :    0.401392
  29 H :   -0.107062
  30 H :   -0.215305
  31 H :   -0.095558
  32 H :   -0.489682
  33 H :   -0.517552
  34 H :   -0.005014
  35 O :   -0.634966
  36 H :   -0.321275
  37 H :    0.148279
Sum of atomic charges:    0.0000000

LOEWDIN ATOMIC CHARGES
----------------------
   0 C :    0.026182
   1 C :   -0.006281
   2 C :   -0.041669
   3 H :    0.013020
   4 H :    0.026645
   5 S :    1.137422
   6 C :   -0.261227
   7 C :    0.186221
   8 N :    0.197326
   9 H :   -0.117815
  10 H :   -0.023121
  11 H :   -0.106764
  12 H :   -0.104107
  13 O :   -0.422249
  14 F :   -0.239590
  15 C :   -0.015336
  16 C :   -0.024756
  17 C :   -0.016105
  18 H :    0.012273
  19 H :    0.027310
  20 H :    0.035900
  21 H :    0.028094
  22 C :   -0.021785
  23 H :    0.023073
  24 H :   -0.013951
  25 C :   -0.022321
  26 H :    0.009521
  27 H :    0.021288
  28 C :   -0.021716
  29 H :    0.016942
  30 H :    0.015389
  31 H :    0.033767
  32 H :   -0.020607
  33 H :    0.018987
  34 H :    0.016053
  35 O :   -0.408850
  36 H :    0.023254
  37 H :    0.019581

  Mayer bond orders larger than 0.100000
B(  0-C ,  6-C ) :   0.8582 B(  0-C ,  8-N ) :   0.2121 B(  0-C , 15-C ) :   1.0697
B(  0-C , 23-H ) :   0.1501 B(  0-C , 24-H ) :   0.2193 B(  0-C , 36-H ) :   0.2566
B(  0-C , 37-H ) :   0.5944 B(  1-C ,  2-C ) :   1.2616 B(  1-C ,  3-H ) :   0.1273
B(  1-C ,  4-H ) :   0.2227 B(  1-C , 16-C ) :   0.1136 B(  1-C , 17-C ) :   1.1652
B(  1-C , 18-H ) :   0.1107 B(  1-C , 20-H ) :   0.5663 B(  1-C , 21-H ) :   0.5143
B(  2-C ,  3-H ) :   0.7741 B(  2-C ,  4-H ) :   0.6715 B(  2-C ,  5-S ) :   0.9496
B(  2-C , 17-C ) :   0.1274 B(  2-C , 20-H ) :   0.2714 B(  2-C , 21-H ) :   0.1419
B(  2-C , 35-O ) :   0.1196 B(  3-H , 17-C ) :  -0.1149 B(  4-H ,  5-S ) :   0.1136
B(  5-S , 13-O ) :   1.2953 B(  5-S , 14-F ) :   0.6775 B(  5-S , 35-O ) :   1.5512
B(  6-C ,  7-C ) :   1.3470 B(  6-C ,  8-N ) :   1.4350 B(  6-C , 10-H ) :  -0.1769
B(  6-C , 11-H ) :   0.1452 B(  6-C , 12-H ) :   0.3792 B(  6-C , 15-C ) :   0.1982
B(  6-C , 24-H ) :  -0.1342 B(  6-C , 36-H ) :   0.3808 B(  6-C , 37-H ) :   0.1749
B(  7-C ,  8-N ) :   0.1878 B(  7-C , 10-H ) :  -0.1368 B(  7-C , 11-H ) :   0.7391
B(  7-C , 12-H ) :   0.4269 B(  8-N ,  9-H ) :   0.4593 B(  8-N , 10-H ) :   0.8252
B(  8-N , 13-O ) :  -0.1558 B(  8-N , 24-H ) :   0.1142 B(  9-H , 10-H ) :  -0.1935
B(  9-H , 13-O ) :   0.2583 B( 10-H , 14-F ) :   0.1246 B( 13-O , 14-F ) :   0.1053
B( 13-O , 18-H ) :   0.1058 B( 13-O , 24-H ) :   0.2380 B( 13-O , 35-O ) :   0.1713
B( 15-C , 22-C ) :   1.1470 B( 15-C , 23-H ) :   0.5632 B( 15-C , 24-H ) :   0.2031
B( 15-C , 26-H ) :   0.1842 B( 15-C , 27-H ) :   0.2193 B( 15-C , 36-H ) :   0.3536
B( 15-C , 37-H ) :   0.2038 B( 16-C , 17-C ) :   1.1695 B( 16-C , 18-H ) :   0.1837
B( 16-C , 19-H ) :   0.2034 B( 16-C , 28-C ) :   1.1913 B( 16-C , 31-H ) :   0.6591
B( 16-C , 32-H ) :   0.8655 B( 16-C , 33-H ) :   0.2400 B( 16-C , 34-H ) :   0.1930
B( 17-C , 18-H ) :   0.7529 B( 17-C , 19-H ) :   0.6308 B( 17-C , 20-H ) :   0.1198
B( 17-C , 21-H ) :   0.3244 B( 17-C , 28-C ) :   0.1999 B( 17-C , 31-H ) :   0.1225
B( 17-C , 32-H ) :   0.1268 B( 18-H , 19-H ) :  -0.1145 B( 20-H , 21-H ) :  -0.1560
B( 22-C , 23-H ) :   0.1817 B( 22-C , 24-H ) :   0.3088 B( 22-C , 25-C ) :   1.0241
B( 22-C , 26-H ) :   0.7904 B( 22-C , 27-H ) :   0.8573 B( 22-C , 28-C ) :   0.2173
B( 22-C , 29-H ) :   0.1698 B( 22-C , 30-H ) :   0.3199 B( 22-C , 34-H ) :  -0.1006
B( 23-H , 27-H ) :   0.1032 B( 24-H , 34-H ) :   0.1220 B( 25-C , 28-C ) :   1.0793
B( 25-C , 29-H ) :   0.5479 B( 25-C , 30-H ) :   0.5362 B( 25-C , 34-H ) :   0.1078
B( 26-H , 27-H ) :  -0.1184 B( 26-H , 32-H ) :   0.1723 B( 28-C , 29-H ) :   0.2980
B( 28-C , 30-H ) :   0.1513 B( 28-C , 31-H ) :   0.1388 B( 28-C , 32-H ) :   0.1229
B( 28-C , 33-H ) :   0.7753 B( 28-C , 34-H ) :   0.7324 B( 29-H , 30-H ) :  -0.1737
B( 33-H , 34-H ) :  -0.1177 B( 36-H , 37-H ) :  -0.1436

Dispersion correction           -0.092274874
FINAL SINGLE POINT ENERGY     -1134.672174763384

DIPOLE MOMENT
-------------
                                X             Y             Z
Electronic contribution:    -10.94359     -20.03759     -14.22463
Nuclear contribution   :     10.48431      18.81367      15.71750
                        -----------------------------------------
Total Dipole Moment    :     -0.45928      -1.22392       1.49287
                        -----------------------------------------
Magnitude (a.u.)       :      1.98434
Magnitude (Debye)      :      5.04378

Rotational constants in cm-1:     0.017977     0.012528     0.008321
Rotational constants in MHz :   538.924099   375.570730   249.458530

                             ****ORCA TERMINATED NORMALLY****
TOTAL RUN TIME: 0 days 0 hours 1 minutes 4 seconds 76 msec
