                         Program Version 5.0.0 -  RELEASE  -
|  1> !LC-PBE RIJCOSX def2-SVP def2/J TightSCF
|  2> *xyz -1 1
|  3> C          3.80351        1.37472       -3.26081
|  4> C          3.93993        0.32036       -4.36773
|  5> H          4.10504       -0.65508       -3.90773
|  6> H          3.02280        0.28052       -4.95712
|  7> C          5.10585        0.66802       -5.30546
|  8> O          4.80913        1.15019       -6.41436
|  9> O          6.26737        0.56500       -4.81948
| 10> H          3.64113        2.33595       -3.70189
| 11> H          4.69995        1.39701       -2.67703
| 12> H          2.97435        1.12625       -2.63180
| 13> *
| 14>
| 15> %MaxCore 64000
| 16>
| 17> %pal nprocs 4
| 18> end
| 19>
| 20> %scf
| 21>   MaxIter 150
| 22> end
| 23>
| 24>
| 25>                          ****END OF INPUT****

CARTESIAN COORDINATES (ANGSTROEM)
---------------------------------
  C      3.803510    1.374720   -3.260810
  C      3.939930    0.320360   -4.367730
  H      4.105040   -0.655080   -3.907730
  H      3.022800    0.280520   -4.957120
  C      5.105850    0.668020   -5.305460
  O      4.809130    1.150190   -6.414360
  O      6.267370    0.565000   -4.819480
  H      3.641130    2.335950   -3.701890
  H      4.699950    1.397010   -2.677030
  H      2.974350    1.126250   -2.631800

 Total Charge           Charge          ....   -1
 Multiplicity           Mult            ....    1
 Number of Electrons    NEL             ....   40
 Basis Dimension        Dim             ....   95

ORBITAL ENERGIES
----------------

  NO   OCC          E(Eh)            E(eV)
   0   2.0000     -18.687498      -508.5127
   1   2.0000     -18.683062      -508.3920
   2   2.0000      -9.985196      -271.7110
   3   2.0000      -9.957454      -270.9561
   4   2.0000      -9.936103      -270.3751
   5   2.0000      -0.947154       -25.7734
   6   2.0000      -0.843169       -22.9438
   7   2.0000      -0.765104       -20.8195
   8   2.0000      -0.618911       -16.8414
   9   2.0000      -0.453205       -12.3323
  10   2.0000      -0.426629       -11.6092
  11   2.0000      -0.381299       -10.3757
  12   2.0000      -0.354517        -9.6469
  13   2.0000      -0.333796        -9.0831
  14   2.0000      -0.327526        -8.9124
  15   2.0000      -0.290036        -7.8923
  16   2.0000      -0.282394        -7.6843
  17   2.0000      -0.143191        -3.8964
  18   2.0000      -0.140487        -3.8229
  19   2.0000      -0.130874        -3.5613
  20   0.0000       0.307689         8.3726
  21   0.0000       0.359833         9.7916
  22   0.0000       0.371269        10.1027
  23   0.0000       0.374381        10.1874
  24   0.0000       0.391031        10.6405

MULLIKEN ATOMIC CHARGES
-----------------------
   0 C :   -0.126304
   1 C :   -0.120190
   2 H :    0.008286
   3 H :    0.004397
   4 C :    0.013082
   5 O :   -0.416909
   6 O :   -0.449948
   7 H :    0.038388
   8 H :    0.045416
   9 H :    0.003782
Sum of atomic charges:   -1.0000000

LOEWDIN ATOMIC CHARGES
----------------------
   0 C :   -0.093312
   1 C :   -0.118764
   2 H :    0.012934
   3 H :    0.010044
   4 C :   -0.061253
   5 O :   -0.388386
   6 O :   -0.417864
   7 H :    0.024493
   8 H :    0.025761
   9 H :    0.006347

  Mayer bond orders larger than 0.100000
B(  0-C ,  1-C ) :   1.0781 B(  0-C ,  7-H ) :   0.9758 B(  0-C ,  8-H ) :   0.9704
B(  0-C ,  9-H ) :   0.9799 B(  1-C ,  2-H ) :   0.9531 B(  1-C ,  3-H ) :   0.9560
B(  1-C ,  4-C ) :   0.9170 B(  4-C ,  5-O ) :   1.8958 B(  4-C ,  6-O ) :   1.8450
B(  5-O ,  6-O ) :   0.1087

FINAL SINGLE POINT ENERGY      -266.832048194277

DIPOLE MOMENT
-------------
                                X             Y             Z
Electronic contribution:      3.78805      -0.46084      -4.53979
Nuclear contribution   :     -5.15232       0.33441       5.87398
                        -----------------------------------------
Total Dipole Moment    :     -1.36427      -0.12643       1.33419
                        -----------------------------------------
Magnitude (a.u.)       :      1.91240
Magnitude (Debye)      :      4.86094

Rotational constants in cm-1:     0.295355     0.137164     0.110193
Rotational constants in MHz :  8854.523706  4112.077980  3303.490503

                             ****ORCA TERMINATED NORMALLY****
TOTAL RUN TIME: 0 days 0 hours 0 minutes 12 seconds 220 msec
