                         Program Version 5.0.0 -  RELEASE  -
|  1> !LC-PBE RIJCOSX def2-SVP def2/J TightSCF
|  2> *xyz 1 1
|  3> C          3.90595        2.81985       -3.75292
|  4> N          5.29562        3.13151       -4.10533
|  5> C          3.80351        1.37472       -3.26081
|  6> C          5.70862        3.46889       -5.32419
|  7> N          6.90470        3.03895       -5.71708
|  8> N          4.98188        4.29357       -6.09746
|  9> H          5.00055        4.10131       -7.08776
| 10> H          4.08469        4.59690       -5.73965
| 11> H          5.96336        2.52611       -3.64239
| 12> H          7.04716        2.06686       -5.47360
| 13> H          7.19815        3.30799       -6.64523
| 14> H          3.28202        2.94919       -4.64026
| 15> H          3.56525        3.51457       -2.98252
| 16> H          4.14157        0.71142       -4.02935
| 17> H          2.78528        1.15146       -3.01944
| 18> H          4.41205        1.25066       -2.38949
| 19> *
| 20>
| 21> %MaxCore 64000
| 22>
| 23> %pal nprocs 4
| 24> end
| 25>
| 26> %scf
| 27>   MaxIter 150
| 28> end
| 29>
| 30>
| 31>                          ****END OF INPUT****

CARTESIAN COORDINATES (ANGSTROEM)
---------------------------------
  C      3.905950    2.819850   -3.752920
  N      5.295620    3.131510   -4.105330
  C      3.803510    1.374720   -3.260810
  C      5.708620    3.468890   -5.324190
  N      6.904700    3.038950   -5.717080
  N      4.981880    4.293570   -6.097460
  H      5.000550    4.101310   -7.087760
  H      4.084690    4.596900   -5.739650
  H      5.963360    2.526110   -3.642390
  H      7.047160    2.066860   -5.473600
  H      7.198150    3.307990   -6.645230
  H      3.282020    2.949190   -4.640260
  H      3.565250    3.514570   -2.982520
  H      4.141570    0.711420   -4.029350
  H      2.785280    1.151460   -3.019440
  H      4.412050    1.250660   -2.389490

 Total Charge           Charge          ....    1
 Multiplicity           Mult            ....    1
 Number of Electrons    NEL             ....   48
 Basis Dimension        Dim             ....  134

ORBITAL ENERGIES
----------------

  NO   OCC          E(Eh)            E(eV)
   0   2.0000     -14.456121      -393.3711
   1   2.0000     -14.456055      -393.3693
   2   2.0000     -14.454872      -393.3371
   3   2.0000     -10.473070      -284.9867
   4   2.0000     -10.337098      -281.2867
   5   2.0000     -10.269400      -279.4446
   6   2.0000      -1.396613       -38.0038
   7   2.0000      -1.274944       -34.6930
   8   2.0000      -1.263494       -34.3814
   9   2.0000      -1.103435       -30.0260
  10   2.0000      -0.990093       -26.9418
  11   2.0000      -0.966052       -26.2876
  12   2.0000      -0.930725       -25.3263
  13   2.0000      -0.895526       -24.3685
  14   2.0000      -0.850394       -23.1404
  15   2.0000      -0.830825       -22.6079
  16   2.0000      -0.798939       -21.7402
  17   2.0000      -0.769822       -20.9479
  18   2.0000      -0.741623       -20.1806
  19   2.0000      -0.697961       -18.9925
  20   2.0000      -0.670020       -18.2322
  21   2.0000      -0.653144       -17.7729
  22   2.0000      -0.622483       -16.9386
  23   2.0000      -0.586296       -15.9539
  24   0.0000      -0.092969        -2.5298
  25   0.0000      -0.042646        -1.1605
  26   0.0000      -0.007851        -0.2136
  27   0.0000       0.007229         0.1967
  28   0.0000       0.027395         0.7454

MULLIKEN ATOMIC CHARGES
-----------------------
   0 C :   -0.063261
   1 N :   -0.159981
   2 C :   -0.174750
   3 C :    0.063251
   4 N :   -0.092585
   5 N :   -0.102305
   6 H :    0.203568
   7 H :    0.203794
   8 H :    0.189872
   9 H :    0.203815
  10 H :    0.197552
  11 H :    0.092521
  12 H :    0.132872
  13 H :    0.079892
  14 H :    0.122400
  15 H :    0.103343
Sum of atomic charges:    1.0000000

LOEWDIN ATOMIC CHARGES
----------------------
   0 C :    0.015510
   1 N :    0.021032
   2 C :   -0.081284
   3 C :    0.148661
   4 N :    0.031701
   5 N :    0.030783
   6 H :    0.117421
   7 H :    0.117099
   8 H :    0.111111
   9 H :    0.117892
  10 H :    0.117791
  11 H :    0.040732
  12 H :    0.057090
  13 H :    0.040315
  14 H :    0.065169
  15 H :    0.048976

  Mayer bond orders larger than 0.100000
B(  0-C ,  1-N ) :   0.9084 B(  0-C ,  2-C ) :   1.0759 B(  0-C , 11-H ) :   0.9574
B(  0-C , 12-H ) :   0.9470 B(  1-N ,  3-C ) :   1.4025 B(  1-N ,  8-H ) :   0.9097
B(  2-C , 13-H ) :   0.9741 B(  2-C , 14-H ) :   0.9619 B(  2-C , 15-H ) :   0.9692
B(  3-C ,  4-N ) :   1.3795 B(  3-C ,  5-N ) :   1.3850 B(  4-N ,  9-H ) :   0.9233
B(  4-N , 10-H ) :   0.9245 B(  5-N ,  6-H ) :   0.9227 B(  5-N ,  7-H ) :   0.9183

FINAL SINGLE POINT ENERGY      -283.281749833454

DIPOLE MOMENT
-------------
                                X             Y             Z
Electronic contribution:      3.53419       3.36360      -2.75988
Nuclear contribution   :     -3.31456      -3.64300       1.57303
                        -----------------------------------------
Total Dipole Moment    :      0.21962      -0.27940      -1.18684
                        -----------------------------------------
Magnitude (a.u.)       :      1.23891
Magnitude (Debye)      :      3.14905

Rotational constants in cm-1:     0.229487     0.071000     0.059428
Rotational constants in MHz :  6879.840828  2128.520047  1781.605314

                             ****ORCA TERMINATED NORMALLY****
TOTAL RUN TIME: 0 days 0 hours 0 minutes 19 seconds 459 msec
