                         Program Version 5.0.0 -  RELEASE  -
|  1> !LC-PBE RIJCOSX def2-SVP def2/J TightSCF
|  2> *xyz 0 1
|  3> C          3.80351        1.37472       -3.26081
|  4> C          3.93993        0.32036       -4.36773
|  5> H          4.10504       -0.65508       -3.90773
|  6> H          3.02280        0.28052       -4.95712
|  7> C          5.10585        0.66802       -5.30546
|  8> F          4.80913        1.15019       -6.41436
|  9> O          6.26737        0.56500       -4.81948
| 10> H          3.64113        2.33595       -3.70189
| 11> H          4.69995        1.39701       -2.67703
| 12> H          2.97435        1.12625       -2.63180
| 13> *
| 14>
| 15> %MaxCore 64000
| 16>
| 17> %pal nprocs 4
| 18> end
| 19>
| 20> %scf
| 21>   MaxIter 150
| 22> end
| 23>
| 24>
| 25>                          ****END OF INPUT****

CARTESIAN COORDINATES (ANGSTROEM)
---------------------------------
  C      3.803510    1.374720   -3.260810
  C      3.939930    0.320360   -4.367730
  H      4.105040   -0.655080   -3.907730
  H      3.022800    0.280520   -4.957120
  C      5.105850    0.668020   -5.305460
  F      4.809130    1.150190   -6.414360
  O      6.267370    0.565000   -4.819480
  H      3.641130    2.335950   -3.701890
  H      4.699950    1.397010   -2.677030
  H      2.974350    1.126250   -2.631800

 Total Charge           Charge          ....    0
 Multiplicity           Mult            ....    1
 Number of Electrons    NEL             ....   40
 Basis Dimension        Dim             ....   95

ORBITAL ENERGIES
----------------

  NO   OCC          E(Eh)            E(eV)
   0   2.0000     -24.569284      -668.5642
   1   2.0000     -18.987137      -516.6663
   2   2.0000     -10.306497      -280.4540
   3   2.0000     -10.155510      -276.3455
   4   2.0000     -10.132497      -275.7193
   5   2.0000      -1.464545       -39.8523
   6   2.0000      -1.178272       -32.0624
   7   2.0000      -0.971687       -26.4410
   8   2.0000      -0.844337       -22.9756
   9   2.0000      -0.793698       -21.5976
  10   2.0000      -0.706147       -19.2152
  11   2.0000      -0.688565       -18.7368
  12   2.0000      -0.649864       -17.6837
  13   2.0000      -0.608068       -16.5464
  14   2.0000      -0.572606       -15.5814
  15   2.0000      -0.535070       -14.5600
  16   2.0000      -0.511661       -13.9230
  17   2.0000      -0.503733       -13.7073
  18   2.0000      -0.475215       -12.9313
  19   2.0000      -0.420141       -11.4326
  20   0.0000       0.077346         2.1047
  21   0.0000       0.153733         4.1833
  22   0.0000       0.200565         5.4577
  23   0.0000       0.202497         5.5102
  24   0.0000       0.225406         6.1336

MULLIKEN ATOMIC CHARGES
-----------------------
   0 C :   -0.142991
   1 C :   -0.196991
   2 H :    0.109850
   3 H :    0.078355
   4 C :    0.217427
   5 F :   -0.043907
   6 O :   -0.260412
   7 H :    0.070036
   8 H :    0.090999
   9 H :    0.077634
Sum of atomic charges:   -0.0000000

LOEWDIN ATOMIC CHARGES
----------------------
   0 C :   -0.072995
   1 C :   -0.099116
   2 H :    0.060115
   3 H :    0.039974
   4 C :    0.091111
   5 F :    0.065980
   6 O :   -0.207089
   7 H :    0.037180
   8 H :    0.044150
   9 H :    0.040691

  Mayer bond orders larger than 0.100000
B(  0-C ,  1-C ) :   1.0641 B(  0-C ,  7-H ) :   0.9773 B(  0-C ,  8-H ) :   0.9715
B(  0-C ,  9-H ) :   0.9760 B(  1-C ,  2-H ) :   0.9462 B(  1-C ,  3-H ) :   0.9494
B(  1-C ,  4-C ) :   0.9824 B(  4-C ,  5-F ) :   1.2393 B(  4-C ,  6-O ) :   2.0843

FINAL SINGLE POINT ENERGY      -291.353933243248

DIPOLE MOMENT
-------------
                                X             Y             Z
Electronic contribution:      4.02170      -0.01168      -7.46234
Nuclear contribution   :     -5.17129      -0.01923       7.59895
                        -----------------------------------------
Total Dipole Moment    :     -1.14959      -0.03091       0.13661
                        -----------------------------------------
Magnitude (a.u.)       :      1.15809
Magnitude (Debye)      :      2.94363

Rotational constants in cm-1:     0.282073     0.131822     0.105134
Rotational constants in MHz :  8456.328792  3951.925810  3151.840112

                             ****ORCA TERMINATED NORMALLY****
TOTAL RUN TIME: 0 days 0 hours 0 minutes 11 seconds 260 msec
