                         Program Version 5.0.0 -  RELEASE  -
|  1> !LC-PBE RIJCOSX def2-SVP def2/J TightSCF
|  2> *xyz 0 1
|  3> C          3.90595        2.81985       -3.75292
|  4> C          5.29562        3.13151       -4.10533
|  5> C          3.80351        1.37472       -3.26081
|  6> C          5.70862        3.46889       -5.32419
|  7> N          6.90470        3.03895       -5.71708
|  8> N          4.98188        4.29357       -6.09746
|  9> H          5.00055        4.10131       -7.08776
| 10> H          4.08469        4.59690       -5.73965
| 11> H          5.96336        2.52611       -3.64239
| 12> H          7.04716        2.06686       -5.47360
| 13> H          7.19815        3.30799       -6.64523
| 14> H          3.28202        2.94919       -4.64026
| 15> H          3.56525        3.51457       -2.98252
| 16> H          4.14157        0.71142       -4.02935
| 17> H          2.78528        1.15146       -3.01944
| 18> H          4.41205        1.25066       -2.38949
| 19> *
| 20>
| 21> %MaxCore 64000
| 22>
| 23> %pal nprocs 4
| 24> end
| 25>
| 26> %scf
| 27>   MaxIter 150
| 28> end
| 29>
| 30>
| 31>                          ****END OF INPUT****

CARTESIAN COORDINATES (ANGSTROEM)
---------------------------------
  C      3.905950    2.819850   -3.752920
  C      5.295620    3.131510   -4.105330
  C      3.803510    1.374720   -3.260810
  C      5.708620    3.468890   -5.324190
  N      6.904700    3.038950   -5.717080
  N      4.981880    4.293570   -6.097460
  H      5.000550    4.101310   -7.087760
  H      4.084690    4.596900   -5.739650
  H      5.963360    2.526110   -3.642390
  H      7.047160    2.066860   -5.473600
  H      7.198150    3.307990   -6.645230
  H      3.282020    2.949190   -4.640260
  H      3.565250    3.514570   -2.982520
  H      4.141570    0.711420   -4.029350
  H      2.785280    1.151460   -3.019440
  H      4.412050    1.250660   -2.389490

 Total Charge           Charge          ....    0
 Multiplicity           Mult            ....    1
 Number of Electrons    NEL             ....   48
 Basis Dimension        Dim             ....  134

ORBITAL ENERGIES
----------------

  NO   OCC          E(Eh)            E(eV)
   0   2.0000     -14.225211      -387.0877
   1   2.0000     -14.220636      -386.9632
   2   2.0000     -10.168278      -276.6929
   3   2.0000     -10.100602      -274.8514
   4   2.0000     -10.094136      -274.6754
   5   2.0000     -10.044242      -273.3177
   6   2.0000      -1.129422       -30.7331
   7   2.0000      -1.031114       -28.0580
   8   2.0000      -0.945404       -25.7258
   9   2.0000      -0.853560       -23.2266
  10   2.0000      -0.764648       -20.8071
  11   2.0000      -0.723813       -19.6960
  12   2.0000      -0.678836       -18.4721
  13   2.0000      -0.652210       -17.7475
  14   2.0000      -0.614910       -16.7325
  15   2.0000      -0.587465       -15.9857
  16   2.0000      -0.558691       -15.2027
  17   2.0000      -0.525417       -14.2973
  18   2.0000      -0.504553       -13.7296
  19   2.0000      -0.481239       -13.0952
  20   2.0000      -0.452577       -12.3152
  21   2.0000      -0.448599       -12.2070
  22   2.0000      -0.401584       -10.9276
  23   2.0000      -0.278197        -7.5701
  24   0.0000       0.136238         3.7072
  25   0.0000       0.164722         4.4823
  26   0.0000       0.176748         4.8096
  27   0.0000       0.184775         5.0280
  28   0.0000       0.204166         5.5556

MULLIKEN ATOMIC CHARGES
-----------------------
   0 C :   -0.108792
   1 C :   -0.147646
   2 C :   -0.130183
   3 C :   -0.086528
   4 N :   -0.145017
   5 N :   -0.142456
   6 H :    0.129547
   7 H :    0.150926
   8 H :   -0.035944
   9 H :    0.160404
  10 H :    0.124724
  11 H :    0.022999
  12 H :    0.052324
  13 H :    0.045029
  14 H :    0.049874
  15 H :    0.060736
Sum of atomic charges:   -0.0000000

LOEWDIN ATOMIC CHARGES
----------------------
   0 C :   -0.068542
   1 C :   -0.227562
   2 C :   -0.085199
   3 C :    0.012722
   4 N :   -0.036635
   5 N :   -0.042702
   6 H :    0.069069
   7 H :    0.087141
   8 H :    0.000709
   9 H :    0.088992
  10 H :    0.070639
  11 H :    0.016831
  12 H :    0.026662
  13 H :    0.027005
  14 H :    0.028645
  15 H :    0.032225

  Mayer bond orders larger than 0.100000
B(  0-C ,  1-C ) :   1.0315 B(  0-C ,  2-C ) :   1.0725 B(  0-C , 11-H ) :   0.9626
B(  0-C , 12-H ) :   0.9447 B(  1-C ,  3-C ) :   1.7544 B(  1-C ,  8-H ) :   0.9487
B(  2-C , 13-H ) :   0.9772 B(  2-C , 14-H ) :   0.9749 B(  2-C , 15-H ) :   0.9786
B(  3-C ,  4-N ) :   1.1964 B(  3-C ,  5-N ) :   1.2233 B(  4-N ,  9-H ) :   0.9472
B(  4-N , 10-H ) :   0.9565 B(  5-N ,  6-H ) :   0.9460 B(  5-N ,  7-H ) :   0.9434

FINAL SINGLE POINT ENERGY      -266.831614882313

DIPOLE MOMENT
-------------
                                X             Y             Z
Electronic contribution:      3.18463       3.24390      -2.99210
Nuclear contribution   :     -3.27358      -3.61654       1.70633
                        -----------------------------------------
Total Dipole Moment    :     -0.08895      -0.37264      -1.28578
                        -----------------------------------------
Magnitude (a.u.)       :      1.34164
Magnitude (Debye)      :      3.41017

Rotational constants in cm-1:     0.231961     0.071249     0.059473
Rotational constants in MHz :  6954.024434  2135.976855  1782.962814

                             ****ORCA TERMINATED NORMALLY****
TOTAL RUN TIME: 0 days 0 hours 0 minutes 19 seconds 921 msec
