                         Program Version 5.0.0 -  RELEASE  -
|  1> !LC-PBE RIJCOSX def2-SVP def2/J TightSCF
|  2> *xyz 0 1
|  3> C          3.80351        1.37472       -3.26081
|  4> C          3.93993        0.32036       -4.36773
|  5> H          4.10504       -0.65508       -3.90773
|  6> H          3.02280        0.28052       -4.95712
|  7> C          5.10585        0.66802       -5.30546
|  8> O          4.80913        1.15019       -6.41436
|  9> F          6.26737        0.56500       -4.81948
| 10> H          3.64113        2.33595       -3.70189
| 11> H          4.69995        1.39701       -2.67703
| 12> H          2.97435        1.12625       -2.63180
| 13> *
| 14>
| 15> %MaxCore 64000
| 16>
| 17> %pal nprocs 4
| 18> end
| 19>
| 20> %scf
| 21>   MaxIter 150
| 22> end
| 23>
| 24>
| 25>                          ****END OF INPUT****

CARTESIAN COORDINATES (ANGSTROEM)
---------------------------------
  C      3.803510    1.374720   -3.260810
  C      3.939930    0.320360   -4.367730
  H      4.105040   -0.655080   -3.907730
  H      3.022800    0.280520   -4.957120
  C      5.105850    0.668020   -5.305460
  O      4.809130    1.150190   -6.414360
  F      6.267370    0.565000   -4.819480
  H      3.641130    2.335950   -3.701890
  H      4.699950    1.397010   -2.677030
  H      2.974350    1.126250   -2.631800

 Total Charge           Charge          ....    0
 Multiplicity           Mult            ....    1
 Number of Electrons    NEL             ....   40
 Basis Dimension        Dim             ....   95

ORBITAL ENERGIES
----------------

  NO   OCC          E(Eh)            E(eV)
   0   2.0000     -24.562455      -668.3784
   1   2.0000     -18.990343      -516.7535
   2   2.0000     -10.304603      -280.4025
   3   2.0000     -10.154801      -276.3262
   4   2.0000     -10.135319      -275.7961
   5   2.0000      -1.450832       -39.4791
   6   2.0000      -1.189024       -32.3550
   7   2.0000      -0.973863       -26.5002
   8   2.0000      -0.839395       -22.8411
   9   2.0000      -0.790890       -21.5212
  10   2.0000      -0.700496       -19.0615
  11   2.0000      -0.684428       -18.6242
  12   2.0000      -0.646253       -17.5854
  13   2.0000      -0.607303       -16.5256
  14   2.0000      -0.574256       -15.6263
  15   2.0000      -0.539221       -14.6730
  16   2.0000      -0.517874       -14.0921
  17   2.0000      -0.504055       -13.7160
  18   2.0000      -0.484415       -13.1816
  19   2.0000      -0.420779       -11.4500
  20   0.0000       0.082441         2.2433
  21   0.0000       0.151402         4.1199
  22   0.0000       0.198127         5.3913
  23   0.0000       0.204646         5.5687
  24   0.0000       0.228885         6.2283

MULLIKEN ATOMIC CHARGES
-----------------------
   0 C :   -0.156810
   1 C :   -0.192767
   2 H :    0.088880
   3 H :    0.105154
   4 C :    0.219597
   5 O :   -0.234308
   6 F :   -0.070369
   7 H :    0.083396
   8 H :    0.075511
   9 H :    0.081716
Sum of atomic charges:    0.0000000

LOEWDIN ATOMIC CHARGES
----------------------
   0 C :   -0.078304
   1 C :   -0.096585
   2 H :    0.046925
   3 H :    0.056551
   4 C :    0.092739
   5 O :   -0.183951
   6 F :    0.041609
   7 H :    0.041385
   8 H :    0.037129
   9 H :    0.042503

  Mayer bond orders larger than 0.100000
B(  0-C ,  1-C ) :   1.0552 B(  0-C ,  7-H ) :   0.9747 B(  0-C ,  8-H ) :   0.9757
B(  0-C ,  9-H ) :   0.9754 B(  1-C ,  2-H ) :   0.9444 B(  1-C ,  3-H ) :   0.9558
B(  1-C ,  4-C ) :   0.9888 B(  4-C ,  5-O ) :   2.1220 B(  4-C ,  6-F ) :   1.2052

FINAL SINGLE POINT ENERGY      -291.359553061330

DIPOLE MOMENT
-------------
                                X             Y             Z
Electronic contribution:      6.44115      -0.98356      -4.79938
Nuclear contribution   :     -6.76123       0.61881       5.86003
                        -----------------------------------------
Total Dipole Moment    :     -0.32008      -0.36475       1.06065
                        -----------------------------------------
Magnitude (a.u.)       :      1.16639
Magnitude (Debye)      :      2.96474

Rotational constants in cm-1:     0.275298     0.134631     0.105723
Rotational constants in MHz :  8253.224169  4036.137572  3169.487264

                             ****ORCA TERMINATED NORMALLY****
TOTAL RUN TIME: 0 days 0 hours 0 minutes 14 seconds 536 msec
