                         Program Version 5.0.0 -  RELEASE  -
|  1> !LC-PBE RIJCOSX def2-SVP def2/J TightSCF
|  2> *xyz 0 1
|  3> C          3.90595        2.81985       -3.75292
|  4> N          5.29562        3.13151       -4.10533
|  5> C          3.80351        1.37472       -3.26081
|  6> C          5.70862        3.46889       -5.32419
|  7> C          6.90470        3.03895       -5.71708
|  8> N          4.98188        4.29357       -6.09746
|  9> H          5.00055        4.10131       -7.08776
| 10> H          4.08469        4.59690       -5.73965
| 11> H          5.96336        2.52611       -3.64239
| 12> H          7.04716        2.06686       -5.47360
| 13> H          7.19815        3.30799       -6.64523
| 14> H          3.28202        2.94919       -4.64026
| 15> H          3.56525        3.51457       -2.98252
| 16> H          4.14157        0.71142       -4.02935
| 17> H          2.78528        1.15146       -3.01944
| 18> H          4.41205        1.25066       -2.38949
| 19> *
| 20>
| 21> %MaxCore 64000
| 22>
| 23> %pal nprocs 4
| 24> end
| 25>
| 26> %scf
| 27>   MaxIter 150
| 28> end
| 29>
| 30>
| 31>                          ****END OF INPUT****

CARTESIAN COORDINATES (ANGSTROEM)
---------------------------------
  C      3.905950    2.819850   -3.752920
  N      5.295620    3.131510   -4.105330
  C      3.803510    1.374720   -3.260810
  C      5.708620    3.468890   -5.324190
  C      6.904700    3.038950   -5.717080
  N      4.981880    4.293570   -6.097460
  H      5.000550    4.101310   -7.087760
  H      4.084690    4.596900   -5.739650
  H      5.963360    2.526110   -3.642390
  H      7.047160    2.066860   -5.473600
  H      7.198150    3.307990   -6.645230
  H      3.282020    2.949190   -4.640260
  H      3.565250    3.514570   -2.982520
  H      4.141570    0.711420   -4.029350
  H      2.785280    1.151460   -3.019440
  H      4.412050    1.250660   -2.389490

 Total Charge           Charge          ....    0
 Multiplicity           Mult            ....    1
 Number of Electrons    NEL             ....   48
 Basis Dimension        Dim             ....  134

ORBITAL ENERGIES
----------------

  NO   OCC          E(Eh)            E(eV)
   0   2.0000     -14.225358      -387.0917
   1   2.0000     -14.224634      -387.0720
   2   2.0000     -10.174327      -276.8575
   3   2.0000     -10.166158      -276.6352
   4   2.0000     -10.125569      -275.5307
   5   2.0000     -10.031304      -272.9657
   6   2.0000      -1.137278       -30.9469
   7   2.0000      -1.047347       -28.4997
   8   2.0000      -0.941274       -25.6134
   9   2.0000      -0.866529       -23.5794
  10   2.0000      -0.785385       -21.3714
  11   2.0000      -0.745747       -20.2928
  12   2.0000      -0.679236       -18.4829
  13   2.0000      -0.636045       -17.3077
  14   2.0000      -0.631642       -17.1878
  15   2.0000      -0.590987       -16.0816
  16   2.0000      -0.561469       -15.2783
  17   2.0000      -0.539456       -14.6793
  18   2.0000      -0.513915       -13.9844
  19   2.0000      -0.504966       -13.7408
  20   2.0000      -0.502528       -13.6745
  21   2.0000      -0.468978       -12.7615
  22   2.0000      -0.386466       -10.5163
  23   2.0000      -0.285120        -7.7585
  24   0.0000       0.138439         3.7671
  25   0.0000       0.156432         4.2567
  26   0.0000       0.170050         4.6273
  27   0.0000       0.183297         4.9878
  28   0.0000       0.200071         5.4442

MULLIKEN ATOMIC CHARGES
-----------------------
   0 C :   -0.024387
   1 N :   -0.194365
   2 C :   -0.165926
   3 C :   -0.033583
   4 C :   -0.189672
   5 N :   -0.161471
   6 H :    0.159120
   7 H :    0.133533
   8 H :    0.149383
   9 H :    0.004197
  10 H :   -0.016757
  11 H :    0.052957
  12 H :    0.072216
  13 H :    0.073875
  14 H :    0.069248
  15 H :    0.071632
Sum of atomic charges:    0.0000000

LOEWDIN ATOMIC CHARGES
----------------------
   0 C :    0.002953
   1 N :   -0.041684
   2 C :   -0.094779
   3 C :    0.037411
   4 C :   -0.288818
   5 N :   -0.036064
   6 H :    0.088474
   7 H :    0.071570
   8 H :    0.090016
   9 H :    0.003223
  10 H :   -0.001042
  11 H :    0.026018
  12 H :    0.028936
  13 H :    0.037903
  14 H :    0.040031
  15 H :    0.035852

  Mayer bond orders larger than 0.100000
B(  0-C ,  1-N ) :   0.9794 B(  0-C ,  2-C ) :   1.0809 B(  0-C , 11-H ) :   0.9578
B(  0-C , 12-H ) :   0.9587 B(  1-N ,  3-C ) :   1.2147 B(  1-N ,  8-H ) :   0.9339
B(  2-C , 13-H ) :   0.9757 B(  2-C , 14-H ) :   0.9708 B(  2-C , 15-H ) :   0.9743
B(  3-C ,  4-C ) :   1.7423 B(  3-C ,  5-N ) :   1.1989 B(  4-C ,  9-H ) :   0.9599
B(  4-C , 10-H ) :   0.9639 B(  5-N ,  6-H ) :   0.9491 B(  5-N ,  7-H ) :   0.9537

FINAL SINGLE POINT ENERGY      -266.819340678721

DIPOLE MOMENT
-------------
                                X             Y             Z
Electronic contribution:      1.44566       3.22069      -1.29744
Nuclear contribution   :     -2.93222      -3.63618       1.36440
                        -----------------------------------------
Total Dipole Moment    :     -1.48655      -0.41549       0.06697
                        -----------------------------------------
Magnitude (a.u.)       :      1.54498
Magnitude (Debye)      :      3.92702

Rotational constants in cm-1:     0.237993     0.072843     0.061284
Rotational constants in MHz :  7134.860770  2183.763760  1837.240960

                             ****ORCA TERMINATED NORMALLY****
TOTAL RUN TIME: 0 days 0 hours 0 minutes 20 seconds 600 msec
