                         Program Version 5.0.0 -  RELEASE  -
|  1> !LC-PBE RIJCOSX def2-SVP def2/J TightSCF
|  2> *xyz 0 1
|  3> C          3.90595        2.81985       -3.75292
|  4> N          5.29562        3.13151       -4.10533
|  5> C          3.80351        1.37472       -3.26081
|  6> C          5.70862        3.46889       -5.32419
|  7> N          6.90470        3.03895       -5.71708
|  8> C          4.98188        4.29357       -6.09746
|  9> H          5.00055        4.10131       -7.08776
| 10> H          4.08469        4.59690       -5.73965
| 11> H          5.96336        2.52611       -3.64239
| 12> H          7.04716        2.06686       -5.47360
| 13> H          7.19815        3.30799       -6.64523
| 14> H          3.28202        2.94919       -4.64026
| 15> H          3.56525        3.51457       -2.98252
| 16> H          4.14157        0.71142       -4.02935
| 17> H          2.78528        1.15146       -3.01944
| 18> H          4.41205        1.25066       -2.38949
| 19> *
| 20>
| 21> %MaxCore 64000
| 22>
| 23> %pal nprocs 4
| 24> end
| 25>
| 26> %scf
| 27>   MaxIter 150
| 28> end
| 29>
| 30>
| 31>                          ****END OF INPUT****

CARTESIAN COORDINATES (ANGSTROEM)
---------------------------------
  C      3.905950    2.819850   -3.752920
  N      5.295620    3.131510   -4.105330
  C      3.803510    1.374720   -3.260810
  C      5.708620    3.468890   -5.324190
  N      6.904700    3.038950   -5.717080
  C      4.981880    4.293570   -6.097460
  H      5.000550    4.101310   -7.087760
  H      4.084690    4.596900   -5.739650
  H      5.963360    2.526110   -3.642390
  H      7.047160    2.066860   -5.473600
  H      7.198150    3.307990   -6.645230
  H      3.282020    2.949190   -4.640260
  H      3.565250    3.514570   -2.982520
  H      4.141570    0.711420   -4.029350
  H      2.785280    1.151460   -3.019440
  H      4.412050    1.250660   -2.389490

 Total Charge           Charge          ....    0
 Multiplicity           Mult            ....    1
 Number of Electrons    NEL             ....   48
 Basis Dimension        Dim             ....  134

ORBITAL ENERGIES
----------------

  NO   OCC          E(Eh)            E(eV)
   0   2.0000     -14.226638      -387.1265
   1   2.0000     -14.224572      -387.0703
   2   2.0000     -10.173552      -276.8364
   3   2.0000     -10.158482      -276.4264
   4   2.0000     -10.122935      -275.4591
   5   2.0000     -10.036735      -273.1134
   6   2.0000      -1.141801       -31.0700
   7   2.0000      -1.050154       -28.5761
   8   2.0000      -0.928585       -25.2681
   9   2.0000      -0.867304       -23.6005
  10   2.0000      -0.800061       -21.7708
  11   2.0000      -0.714102       -19.4317
  12   2.0000      -0.682600       -18.5745
  13   2.0000      -0.658780       -17.9263
  14   2.0000      -0.618706       -16.8358
  15   2.0000      -0.597104       -16.2480
  16   2.0000      -0.543911       -14.8006
  17   2.0000      -0.537359       -14.6223
  18   2.0000      -0.526346       -14.3226
  19   2.0000      -0.503613       -13.7040
  20   2.0000      -0.493792       -13.4368
  21   2.0000      -0.469662       -12.7802
  22   2.0000      -0.383751       -10.4424
  23   2.0000      -0.287912        -7.8345
  24   0.0000       0.135959         3.6996
  25   0.0000       0.161858         4.4044
  26   0.0000       0.171757         4.6737
  27   0.0000       0.186797         5.0830
  28   0.0000       0.199968         5.4414

MULLIKEN ATOMIC CHARGES
-----------------------
   0 C :   -0.000322
   1 N :   -0.209339
   2 C :   -0.170802
   3 C :   -0.031199
   4 N :   -0.144892
   5 C :   -0.197000
   6 H :    0.001192
   7 H :   -0.000974
   8 H :    0.124393
   9 H :    0.129726
  10 H :    0.149191
  11 H :    0.077934
  12 H :    0.072301
  13 H :    0.062663
  14 H :    0.071334
  15 H :    0.065794
Sum of atomic charges:   -0.0000000

LOEWDIN ATOMIC CHARGES
----------------------
   0 C :    0.016626
   1 N :   -0.039382
   2 C :   -0.097927
   3 C :    0.028549
   4 N :   -0.038020
   5 C :   -0.279119
   6 H :    0.002074
   7 H :    0.001153
   8 H :    0.069460
   9 H :    0.069796
  10 H :    0.090238
  11 H :    0.038549
  12 H :    0.031060
  13 H :    0.032935
  14 H :    0.041455
  15 H :    0.032556

  Mayer bond orders larger than 0.100000
B(  0-C ,  1-N ) :   0.9768 B(  0-C ,  2-C ) :   1.0805 B(  0-C , 11-H ) :   0.9512
B(  0-C , 12-H ) :   0.9615 B(  1-N ,  3-C ) :   1.1881 B(  1-N ,  8-H ) :   0.9419
B(  2-C , 13-H ) :   0.9763 B(  2-C , 14-H ) :   0.9702 B(  2-C , 15-H ) :   0.9743
B(  3-C ,  4-N ) :   1.2123 B(  3-C ,  5-C ) :   1.7425 B(  4-N ,  9-H ) :   0.9493
B(  4-N , 10-H ) :   0.9472 B(  5-C ,  6-H ) :   0.9568 B(  5-C ,  7-H ) :   0.9562

FINAL SINGLE POINT ENERGY      -266.823425080821

DIPOLE MOMENT
-------------
                                X             Y             Z
Electronic contribution:      3.46052       1.96645      -1.00650
Nuclear contribution   :     -3.34013      -3.37002       1.28371
                        -----------------------------------------
Total Dipole Moment    :      0.12039      -1.40357       0.27721
                        -----------------------------------------
Magnitude (a.u.)       :      1.43574
Magnitude (Debye)      :      3.64935

Rotational constants in cm-1:     0.239537     0.072280     0.060961
Rotational constants in MHz :  7181.153552  2166.902802  1827.551447

                             ****ORCA TERMINATED NORMALLY****
TOTAL RUN TIME: 0 days 0 hours 0 minutes 22 seconds 175 msec
