                         Program Version 5.0.0 -  RELEASE  -
|  1> !LC-PBE RIJCOSX def2-TZVP def2/J TightSCF xyzfile
|  2>
|  3> *xyzfile 0 1 D2.xyz
|  4>
|  5> %MaxCore 64000
|  6>
|  7> %pal nprocs 18
|  8> end
|  9>
| 10> %scf
| 11>   MaxIter 150
| 12> end
| 13>
| 14>
| 15>                          ****END OF INPUT****

CARTESIAN COORDINATES (ANGSTROEM)
---------------------------------
  C      3.905947    2.819855   -3.752920
  N      5.295615    3.131515   -4.105334
  C      3.803511    1.374716   -3.260807
  C      3.939934    0.320362   -4.367729
  H      4.105043   -0.655085   -3.907733
  H      3.022801    0.280517   -4.957117
  C      5.105846    0.668022   -5.305463
  C      5.708619    3.468885   -5.324190
  C      6.904696    3.038954   -5.717084
  N      4.981884    4.293570   -6.097457
  H      5.000546    4.101311   -7.087761
  H      4.084693    4.596899   -5.739652
  H      5.963358    2.526112   -3.642391
  H      7.047164    2.066861   -5.473604
  H      7.198145    3.307994   -6.645225
  H      3.282025    2.949187   -4.640259
  H      3.565254    3.514574   -2.982523
  H      4.574833    1.215157   -2.500443
  H      2.843514    1.260845   -2.751465
  F      4.809132    1.150187   -6.414361
  O      6.267366    0.564999   -4.819481

 Total Charge           Charge          ....    0
 Multiplicity           Mult            ....    1
 Number of Electrons    NEL             ....   78
 Basis Dimension        Dim             ....  376

ORBITAL ENERGIES
----------------

  NO   OCC          E(Eh)            E(eV)
   0   2.0000     -24.571023      -668.6115
   1   2.0000     -18.986545      -516.6501
   2   2.0000     -14.216417      -386.8484
   3   2.0000     -14.211317      -386.7096
   4   2.0000     -10.311408      -280.5877
   5   2.0000     -10.165384      -276.6142
   6   2.0000     -10.158160      -276.4176
   7   2.0000     -10.157816      -276.4082
   8   2.0000     -10.148190      -276.1463
   9   2.0000     -10.005560      -272.2651
  10   2.0000      -1.491943       -40.5978
  11   2.0000      -1.206858       -32.8403
  12   2.0000      -1.148478       -31.2517
  13   2.0000      -1.061866       -28.8948
  14   2.0000      -0.999262       -27.1913
  15   2.0000      -0.916771       -24.9466
  16   2.0000      -0.868993       -23.6465
  17   2.0000      -0.825628       -22.4665
  18   2.0000      -0.783079       -21.3087
  19   2.0000      -0.750803       -20.4304
  20   2.0000      -0.722691       -19.6654
  21   2.0000      -0.703580       -19.1454
  22   2.0000      -0.687982       -18.7209
  23   2.0000      -0.660278       -17.9671
  24   2.0000      -0.643882       -17.5209
  25   2.0000      -0.631379       -17.1807
  26   2.0000      -0.611186       -16.6312
  27   2.0000      -0.585076       -15.9207
  28   2.0000      -0.558543       -15.1987
  29   2.0000      -0.547066       -14.8864
  30   2.0000      -0.535595       -14.5743
  31   2.0000      -0.528899       -14.3921
  32   2.0000      -0.502281       -13.6678
  33   2.0000      -0.497412       -13.5353
  34   2.0000      -0.480397       -13.0723
  35   2.0000      -0.472616       -12.8605
  36   2.0000      -0.416777       -11.3411
  37   2.0000      -0.388737       -10.5781
  38   2.0000      -0.283119        -7.7041
  39   0.0000       0.056499         1.5374
  40   0.0000       0.103241         2.8093
  41   0.0000       0.123832         3.3696
  42   0.0000       0.137504         3.7417
  43   0.0000       0.145886         3.9698

MULLIKEN ATOMIC CHARGES
-----------------------
   0 C :   -0.229498
   1 N :   -0.268354
   2 C :   -0.360815
   3 C :   -0.288332
   4 H :    0.182278
   5 H :    0.168726
   6 C :    0.313281
   7 C :    0.135884
   8 C :   -0.515084
   9 N :   -0.483113
  10 H :    0.268880
  11 H :    0.237101
  12 H :    0.271831
  13 H :    0.165507
  14 H :    0.093987
  15 H :    0.157765
  16 H :    0.165105
  17 H :    0.187213
  18 H :    0.160594
  19 F :   -0.040568
  20 O :   -0.322388
Sum of atomic charges:    0.0000000

LOEWDIN ATOMIC CHARGES
----------------------
   0 C :   -0.303581
   1 N :    0.117950
   2 C :   -0.278153
   3 C :   -0.243839
   4 H :    0.164481
   5 H :    0.151319
   6 C :   -0.513338
   7 C :   -0.506382
   8 C :   -0.350500
   9 N :   -0.023560
  10 H :    0.179585
  11 H :    0.163785
  12 H :    0.208030
  13 H :    0.109542
  14 H :    0.100262
  15 H :    0.139538
  16 H :    0.137507
  17 H :    0.155155
  18 H :    0.151489
  19 F :    0.373996
  20 O :    0.066716

  Mayer bond orders larger than 0.100000
B(  0-C ,  1-N ) :   0.9158 B(  0-C ,  2-C ) :   0.9304 B(  0-C , 15-H ) :   0.9825
B(  0-C , 16-H ) :   0.9748 B(  1-N ,  7-C ) :   1.1651 B(  1-N , 12-H ) :   0.9122
B(  2-C ,  3-C ) :   0.9247 B(  2-C , 17-H ) :   0.9700 B(  2-C , 18-H ) :   0.9734
B(  3-C ,  4-H ) :   0.9589 B(  3-C ,  5-H ) :   0.9642 B(  3-C ,  6-C ) :   0.9639
B(  6-C , 19-F ) :   1.2261 B(  6-C , 20-O ) :   2.0134 B(  7-C ,  8-C ) :   1.6958
B(  7-C ,  9-N ) :   1.0735 B(  8-C , 13-H ) :   0.9524 B(  8-C , 14-H ) :   1.0272
B(  9-N , 10-H ) :   0.9152 B(  9-N , 11-H ) :   0.9339

FINAL SINGLE POINT ENERGY      -518.413868566869

DIPOLE MOMENT
-------------
                                X             Y             Z
Electronic contribution:      1.96667      -3.80883      -5.18100
Nuclear contribution   :     -4.40347       3.21582       5.36161
                        -----------------------------------------
Total Dipole Moment    :     -2.43681      -0.59301       0.18061
                        -----------------------------------------
Magnitude (a.u.)       :      2.51442
Magnitude (Debye)      :      6.39115

Rotational constants in cm-1:     0.061226     0.043199     0.033926
Rotational constants in MHz :  1835.503528  1295.087558  1017.061512

                             ****ORCA TERMINATED NORMALLY****
TOTAL RUN TIME: 0 days 0 hours 0 minutes 32 seconds 989 msec
