                         Program Version 5.0.0 -  RELEASE  -
|  1> !LC-PBE RIJCOSX def2-TZVP def2/J TightSCF xyzfile
|  2>
|  3> *xyzfile 0 1 D4.xyz
|  4>
|  5> %MaxCore 64000
|  6>
|  7> %pal nprocs 18
|  8> end
|  9>
| 10> %scf
| 11>   MaxIter 150
| 12> end
| 13>
| 14>
| 15>                          ****END OF INPUT****

CARTESIAN COORDINATES (ANGSTROEM)
---------------------------------
  C      3.905947    2.819855   -3.752920
  C      5.295615    3.131515   -4.105334
  C      3.803511    1.374716   -3.260807
  C      3.939934    0.320362   -4.367729
  H      4.105043   -0.655085   -3.907733
  H      3.022801    0.280517   -4.957117
  C      5.105846    0.668022   -5.305463
  C      5.708619    3.468885   -5.324190
  N      6.904696    3.038954   -5.717084
  N      4.981884    4.293570   -6.097457
  H      5.000546    4.101311   -7.087761
  H      4.084693    4.596899   -5.739652
  H      5.963358    2.526112   -3.642391
  H      7.047164    2.066861   -5.473604
  H      7.198145    3.307994   -6.645225
  H      3.282025    2.949187   -4.640259
  H      3.565254    3.514574   -2.982523
  H      4.574833    1.215157   -2.500443
  H      2.843514    1.260845   -2.751465
  O      4.809132    1.150187   -6.414361
  F      6.267366    0.564999   -4.819481

 Total Charge           Charge          ....    0
 Multiplicity           Mult            ....    1
 Number of Electrons    NEL             ....   78
 Basis Dimension        Dim             ....  376

ORBITAL ENERGIES
----------------

  NO   OCC          E(Eh)            E(eV)
   0   2.0000     -24.569465      -668.5691
   1   2.0000     -18.985590      -516.6242
   2   2.0000     -14.212220      -386.7342
   3   2.0000     -14.201713      -386.4483
   4   2.0000     -10.304346      -280.3955
   5   2.0000     -10.163441      -276.5613
   6   2.0000     -10.142818      -276.0001
   7   2.0000     -10.123775      -275.4819
   8   2.0000     -10.101633      -274.8794
   9   2.0000     -10.039608      -273.1916
  10   2.0000      -1.485954       -40.4349
  11   2.0000      -1.209350       -32.9081
  12   2.0000      -1.138370       -30.9766
  13   2.0000      -1.040458       -28.3123
  14   2.0000      -1.000077       -27.2135
  15   2.0000      -0.924879       -25.1672
  16   2.0000      -0.860542       -23.4165
  17   2.0000      -0.819483       -22.2993
  18   2.0000      -0.769494       -20.9390
  19   2.0000      -0.746676       -20.3181
  20   2.0000      -0.713605       -19.4182
  21   2.0000      -0.698246       -19.0002
  22   2.0000      -0.675652       -18.3854
  23   2.0000      -0.656592       -17.8668
  24   2.0000      -0.651356       -17.7243
  25   2.0000      -0.611598       -16.6424
  26   2.0000      -0.610106       -16.6018
  27   2.0000      -0.584305       -15.8997
  28   2.0000      -0.571176       -15.5425
  29   2.0000      -0.537608       -14.6291
  30   2.0000      -0.526404       -14.3242
  31   2.0000      -0.509387       -13.8611
  32   2.0000      -0.497155       -13.5283
  33   2.0000      -0.477340       -12.9891
  34   2.0000      -0.469719       -12.7817
  35   2.0000      -0.456023       -12.4090
  36   2.0000      -0.426259       -11.5991
  37   2.0000      -0.398272       -10.8375
  38   2.0000      -0.287850        -7.8328
  39   0.0000       0.068612         1.8670
  40   0.0000       0.114963         3.1283
  41   0.0000       0.128421         3.4945
  42   0.0000       0.144383         3.9289
  43   0.0000       0.150705         4.1009

MULLIKEN ATOMIC CHARGES
-----------------------
   0 C :   -0.240850
   1 C :   -0.455196
   2 C :   -0.343370
   3 C :   -0.300735
   4 H :    0.167384
   5 H :    0.176517
   6 C :    0.315039
   7 C :    0.165166
   8 N :   -0.407003
   9 N :   -0.469451
  10 H :    0.247313
  11 H :    0.260618
  12 H :    0.161368
  13 H :    0.253134
  14 H :    0.235218
  15 H :    0.128359
  16 H :    0.153972
  17 H :    0.175196
  18 H :    0.152704
  19 O :   -0.280483
  20 F :   -0.094900
Sum of atomic charges:    0.0000000

LOEWDIN ATOMIC CHARGES
----------------------
   0 C :   -0.299989
   1 C :   -0.291641
   2 C :   -0.271923
   3 C :   -0.240261
   4 H :    0.153264
   5 H :    0.161767
   6 C :   -0.519046
   7 C :   -0.485047
   8 N :   -0.010104
   9 N :   -0.015231
  10 H :    0.168780
  11 H :    0.179650
  12 H :    0.131046
  13 H :    0.169827
  14 H :    0.168437
  15 H :    0.145350
  16 H :    0.143170
  17 H :    0.150854
  18 H :    0.146617
  19 O :    0.087139
  20 F :    0.327343

  Mayer bond orders larger than 0.100000
B(  0-C ,  1-C ) :   0.8807 B(  0-C ,  2-C ) :   0.9165 B(  0-C , 15-H ) :   0.9731
B(  0-C , 16-H ) :   0.9763 B(  1-C ,  7-C ) :   1.5731 B(  1-C , 12-H ) :   1.0688
B(  2-C ,  3-C ) :   0.9296 B(  2-C , 17-H ) :   0.9772 B(  2-C , 18-H ) :   0.9790
B(  3-C ,  4-H ) :   0.9614 B(  3-C ,  5-H ) :   0.9702 B(  3-C ,  6-C ) :   0.9808
B(  6-C , 19-O ) :   2.0808 B(  6-C , 20-F ) :   1.1300 B(  7-C ,  8-N ) :   1.1597
B(  7-C ,  9-N ) :   1.1579 B(  8-N , 13-H ) :   0.9040 B(  8-N , 14-H ) :   0.9271
B(  9-N , 10-H ) :   0.9150 B(  9-N , 11-H ) :   0.9227

FINAL SINGLE POINT ENERGY      -518.445649404269

DIPOLE MOMENT
-------------
                                X             Y             Z
Electronic contribution:      5.78330      -4.58223      -3.94808
Nuclear contribution   :     -6.25608       3.89116       3.75052
                        -----------------------------------------
Total Dipole Moment    :     -0.47277      -0.69107      -0.19755
                        -----------------------------------------
Magnitude (a.u.)       :      0.86030
Magnitude (Debye)      :      2.18671

Rotational constants in cm-1:     0.061229     0.042568     0.033282
Rotational constants in MHz :  1835.590871  1276.154029   997.769927

                             ****ORCA TERMINATED NORMALLY****
TOTAL RUN TIME: 0 days 0 hours 0 minutes 33 seconds 956 msec
