                         Program Version 5.0.0 -  RELEASE  -
|  1> !LC-PBE RIJCOSX def2-TZVP def2/J TightSCF xyzfile
|  2>
|  3> *xyzfile 0 1 D5.xyz
|  4>
|  5> %MaxCore 64000
|  6>
|  7> %pal nprocs 18
|  8> end
|  9>
| 10> %scf
| 11>   MaxIter 150
| 12> end
| 13>
| 14>
| 15>                          ****END OF INPUT****

CARTESIAN COORDINATES (ANGSTROEM)
---------------------------------
  C      3.905947    2.819855   -3.752920
  N      5.295615    3.131515   -4.105334
  C      3.803511    1.374716   -3.260807
  C      3.939934    0.320362   -4.367729
  H      4.105043   -0.655085   -3.907733
  H      3.022801    0.280517   -4.957117
  C      5.105846    0.668022   -5.305463
  C      5.708619    3.468885   -5.324190
  C      6.904696    3.038954   -5.717084
  N      4.981884    4.293570   -6.097457
  H      5.000546    4.101311   -7.087761
  H      4.084693    4.596899   -5.739652
  H      5.963358    2.526112   -3.642391
  H      7.047164    2.066861   -5.473604
  H      7.198145    3.307994   -6.645225
  H      3.282025    2.949187   -4.640259
  H      3.565254    3.514574   -2.982523
  H      4.574833    1.215157   -2.500443
  H      2.843514    1.260845   -2.751465
  O      4.809132    1.150187   -6.414361
  F      6.267366    0.564999   -4.819481

 Total Charge           Charge          ....    0
 Multiplicity           Mult            ....    1
 Number of Electrons    NEL             ....   78
 Basis Dimension        Dim             ....  376

ORBITAL ENERGIES
----------------

  NO   OCC          E(Eh)            E(eV)
   0   2.0000     -24.564839      -668.4433
   1   2.0000     -18.988620      -516.7066
   2   2.0000     -14.221692      -386.9919
   3   2.0000     -14.208014      -386.6197
   4   2.0000     -10.305999      -280.4405
   5   2.0000     -10.164540      -276.5912
   6   2.0000     -10.160318      -276.4763
   7   2.0000     -10.156208      -276.3645
   8   2.0000     -10.150009      -276.1958
   9   2.0000     -10.010308      -272.3943
  10   2.0000      -1.482285       -40.3350
  11   2.0000      -1.211444       -32.9651
  12   2.0000      -1.149960       -31.2920
  13   2.0000      -1.061370       -28.8814
  14   2.0000      -0.999602       -27.2006
  15   2.0000      -0.916892       -24.9499
  16   2.0000      -0.870174       -23.6786
  17   2.0000      -0.820205       -22.3189
  18   2.0000      -0.784759       -21.3544
  19   2.0000      -0.755725       -20.5643
  20   2.0000      -0.716079       -19.4855
  21   2.0000      -0.711045       -19.3485
  22   2.0000      -0.670236       -18.2380
  23   2.0000      -0.658710       -17.9244
  24   2.0000      -0.645942       -17.5770
  25   2.0000      -0.635859       -17.3026
  26   2.0000      -0.608615       -16.5613
  27   2.0000      -0.583703       -15.8834
  28   2.0000      -0.563094       -15.3226
  29   2.0000      -0.546410       -14.8686
  30   2.0000      -0.531008       -14.4495
  31   2.0000      -0.522643       -14.2218
  32   2.0000      -0.507802       -13.8180
  33   2.0000      -0.497499       -13.5376
  34   2.0000      -0.493542       -13.4300
  35   2.0000      -0.458787       -12.4842
  36   2.0000      -0.430430       -11.7126
  37   2.0000      -0.392021       -10.6674
  38   2.0000      -0.283621        -7.7177
  39   0.0000       0.065240         1.7753
  40   0.0000       0.104264         2.8372
  41   0.0000       0.122817         3.3420
  42   0.0000       0.138067         3.7570
  43   0.0000       0.149485         4.0677

MULLIKEN ATOMIC CHARGES
-----------------------
   0 C :   -0.210974
   1 N :   -0.261298
   2 C :   -0.387128
   3 C :   -0.283356
   4 H :    0.174360
   5 H :    0.182511
   6 C :    0.282892
   7 C :    0.170891
   8 C :   -0.484398
   9 N :   -0.487997
  10 H :    0.277247
  11 H :    0.236017
  12 H :    0.252178
  13 H :    0.104393
  14 H :    0.097937
  15 H :    0.166274
  16 H :    0.163728
  17 H :    0.184404
  18 H :    0.162942
  19 O :   -0.257406
  20 F :   -0.083218
Sum of atomic charges:   -0.0000000

LOEWDIN ATOMIC CHARGES
----------------------
   0 C :   -0.300551
   1 N :    0.117395
   2 C :   -0.283889
   3 C :   -0.242600
   4 H :    0.155567
   5 H :    0.162988
   6 C :   -0.520591
   7 C :   -0.495584
   8 C :   -0.354591
   9 N :   -0.014624
  10 H :    0.183716
  11 H :    0.164682
  12 H :    0.200608
  13 H :    0.101625
  14 H :    0.102325
  15 H :    0.144966
  16 H :    0.137147
  17 H :    0.150544
  18 H :    0.152429
  19 O :    0.105679
  20 F :    0.332758

  Mayer bond orders larger than 0.100000
B(  0-C ,  1-N ) :   0.9024 B(  0-C ,  2-C ) :   0.9231 B(  0-C , 15-H ) :   0.9778
B(  0-C , 16-H ) :   0.9730 B(  1-N ,  7-C ) :   1.1626 B(  1-N , 12-H ) :   0.9191
B(  2-C ,  3-C ) :   0.9164 B(  2-C , 17-H ) :   0.9753 B(  2-C , 18-H ) :   0.9718
B(  3-C ,  4-H ) :   0.9631 B(  3-C ,  5-H ) :   0.9702 B(  3-C ,  6-C ) :   0.9694
B(  6-C , 19-O ) :   2.0928 B(  6-C , 20-F ) :   1.1642 B(  7-C ,  8-C ) :   1.6790
B(  7-C ,  9-N ) :   1.0839 B(  8-C , 13-H ) :   0.9751 B(  8-C , 14-H ) :   1.0252
B(  9-N , 10-H ) :   0.9138 B(  9-N , 11-H ) :   0.9350

FINAL SINGLE POINT ENERGY      -518.419218798974

DIPOLE MOMENT
-------------
                                X             Y             Z
Electronic contribution:      4.33120      -4.71556      -2.57502
Nuclear contribution   :     -6.05797       3.87976       3.55209
                        -----------------------------------------
Total Dipole Moment    :     -1.72676      -0.83580       0.97707
                        -----------------------------------------
Magnitude (a.u.)       :      2.15289
Magnitude (Debye)      :      5.47220

Rotational constants in cm-1:     0.061282     0.043164     0.033679
Rotational constants in MHz :  1837.191639  1294.028651  1009.659886

                             ****ORCA TERMINATED NORMALLY****
TOTAL RUN TIME: 0 days 0 hours 0 minutes 31 seconds 351 msec
