                         Program Version 5.0.0 -  RELEASE  -
|  1> !M062X D3Zero RIJCOSX def2-SVPD def2/J TightSCF
|  2> *xyz -1 1
|  3> C          4.93020       -7.37532       -2.64962
|  4> C          3.84189       -6.95161       -3.63283
|  5> H          3.45814       -5.95442       -3.40712
|  6> H          2.98848       -7.64361       -3.56708
|  7> S          4.31812       -6.91593       -5.36869
|  8> O          5.40615       -5.89948       -5.51297
|  9> O          3.11191       -6.44508       -6.04379
| 10> O          4.76340       -8.23942       -5.69863
| 11> H          5.27901       -8.35440       -2.90385
| 12> H          4.53000       -7.38577       -1.65734
| 13> H          5.74437       -6.68276       -2.69856
| 14> *
| 15>
| 16> %MaxCore 64000
| 17>
| 18> %pal nprocs 4
| 19> end
| 20>
| 21> %scf
| 22>   MaxIter 150
| 23> end
| 24>
| 25>
| 26>                          ****END OF INPUT****

CARTESIAN COORDINATES (ANGSTROEM)
---------------------------------
  C      4.930200   -7.375320   -2.649620
  C      3.841890   -6.951610   -3.632830
  H      3.458140   -5.954420   -3.407120
  H      2.988480   -7.643610   -3.567080
  S      4.318120   -6.915930   -5.368690
  O      5.406150   -5.899480   -5.512970
  O      3.111910   -6.445080   -6.043790
  O      4.763400   -8.239420   -5.698630
  H      5.279010   -8.354400   -2.903850
  H      4.530000   -7.385770   -1.657340
  H      5.744370   -6.682760   -2.698560

 Total Charge           Charge          ....   -1
 Multiplicity           Mult            ....    1
 Number of Electrons    NEL             ....   58
 Basis Dimension        Dim             ....  176

ORBITAL ENERGIES
----------------

  NO   OCC          E(Eh)            E(eV)
   0   2.0000     -89.937090     -2447.3126
   1   2.0000     -19.422063      -528.5012
   2   2.0000     -19.412640      -528.2448
   3   2.0000     -19.405336      -528.0460
   4   2.0000     -10.418000      -283.4882
   5   2.0000     -10.412090      -283.3274
   6   2.0000      -8.260381      -224.7764
   7   2.0000      -6.185707      -168.3216
   8   2.0000      -6.185489      -168.3157
   9   2.0000      -6.185204      -168.3080
  10   2.0000      -1.046736       -28.4831
  11   2.0000      -0.905416       -24.6376
  12   2.0000      -0.873954       -23.7815
  13   2.0000      -0.726825       -19.7779
  14   2.0000      -0.593363       -16.1462
  15   2.0000      -0.465964       -12.6795
  16   2.0000      -0.396125       -10.7791
  17   2.0000      -0.392810       -10.6889
  18   2.0000      -0.354880        -9.6568
  19   2.0000      -0.343830        -9.3561
  20   2.0000      -0.331648        -9.0246
  21   2.0000      -0.299151        -8.1403
  22   2.0000      -0.280466        -7.6319
  23   2.0000      -0.225959        -6.1487
  24   2.0000      -0.223057        -6.0697
  25   2.0000      -0.187805        -5.1104
  26   2.0000      -0.172607        -4.6969
  27   2.0000      -0.168425        -4.5831
  28   2.0000      -0.135048        -3.6748
  29   0.0000       0.155707         4.2370
  30   0.0000       0.178570         4.8591
  31   0.0000       0.181502         4.9389
  32   0.0000       0.189937         5.1685
  33   0.0000       0.208840         5.6828

MULLIKEN ATOMIC CHARGES
-----------------------
   0 C :    0.727845
   1 C :   -0.372792
   2 H :   -0.075056
   3 H :   -0.017878
   4 S :    1.436064
   5 O :   -0.866615
   6 O :   -0.839648
   7 O :   -0.821456
   8 H :   -0.041514
   9 H :   -0.083475
  10 H :   -0.045475
Sum of atomic charges:   -1.0000000

LOEWDIN ATOMIC CHARGES
----------------------
   0 C :    0.103405
   1 C :   -0.139337
   2 H :    0.004452
   3 H :    0.009594
   4 S :    0.894923
   5 O :   -0.614197
   6 O :   -0.603425
   7 O :   -0.585699
   8 H :   -0.019175
   9 H :   -0.032598
  10 H :   -0.017943

  Mayer bond orders larger than 0.100000
B(  0-C ,  1-C ) :   1.2870 B(  0-C ,  8-H ) :   0.8163 B(  0-C ,  9-H ) :   0.7478
B(  0-C , 10-H ) :   0.8262 B(  1-C ,  2-H ) :   1.0187 B(  1-C ,  3-H ) :   0.9931
B(  1-C ,  4-S ) :   0.9007 B(  1-C ,  8-H ) :   0.1997 B(  1-C ,  9-H ) :   0.2147
B(  1-C , 10-H ) :   0.1927 B(  4-S ,  5-O ) :   1.2315 B(  4-S ,  6-O ) :   1.2890
B(  4-S ,  7-O ) :   1.2720

Dispersion correction           -0.000150687
FINAL SINGLE POINT ENERGY      -702.626291506253

DIPOLE MOMENT
-------------
                                X             Y             Z
Electronic contribution:     -0.37587       0.79065      -7.71099
Nuclear contribution   :      0.07504      -1.14369       9.75001
                        -----------------------------------------
Total Dipole Moment    :     -0.30082      -0.35304       2.03902
                        -----------------------------------------
Magnitude (a.u.)       :      2.09111
Magnitude (Debye)      :      5.31517

Rotational constants in cm-1:     0.160553     0.082191     0.080550
Rotational constants in MHz :  4813.250478  2464.013016  2414.833054

                             ****ORCA TERMINATED NORMALLY****
TOTAL RUN TIME: 0 days 0 hours 0 minutes 23 seconds 125 msec
