                         Program Version 5.0.0 -  RELEASE  -
|  1> !M062X D3Zero RIJCOSX def2-SVPD def2/J TightSCF
|  2> *xyz 1 1
|  3> C          5.55821       -1.99291       -6.21505
|  4> C          4.18188       -2.58967       -6.29891
|  5> N          3.14587       -1.76843       -6.48675
|  6> N          4.01910       -3.86431       -6.22743
|  7> H          4.76849       -4.59115       -5.99077
|  8> H          3.12241       -4.33339       -6.31462
|  9> H          3.28164       -0.77779       -6.56655
| 10> H          2.21255       -2.13419       -6.56225
| 11> C          6.41926       -2.54294       -5.07763
| 12> H          6.03683       -2.19819       -7.17685
| 13> H          5.46761       -0.90737       -6.12797
| 14> H          6.50056       -3.60553       -5.17358
| 15> H          5.96544       -2.30329       -4.13874
| 16> H          7.39438       -2.10494       -5.12457
| 17> *
| 18>
| 19> %MaxCore 64000
| 20>
| 21> %pal nprocs 4
| 22> end
| 23>
| 24> %scf
| 25>   MaxIter 150
| 26> end
| 27>
| 28>
| 29>                          ****END OF INPUT****

CARTESIAN COORDINATES (ANGSTROEM)
---------------------------------
  C      5.558210   -1.992910   -6.215050
  C      4.181880   -2.589670   -6.298910
  N      3.145870   -1.768430   -6.486750
  N      4.019100   -3.864310   -6.227430
  H      4.768490   -4.591150   -5.990770
  H      3.122410   -4.333390   -6.314620
  H      3.281640   -0.777790   -6.566550
  H      2.212550   -2.134190   -6.562250
  C      6.419260   -2.542940   -5.077630
  H      6.036830   -2.198190   -7.176850
  H      5.467610   -0.907370   -6.127970
  H      6.500560   -3.605530   -5.173580
  H      5.965440   -2.303290   -4.138740
  H      7.394380   -2.104940   -5.124570

 Total Charge           Charge          ....    1
 Multiplicity           Mult            ....    1
 Number of Electrons    NEL             ....   40
 Basis Dimension        Dim             ....  172

ORBITAL ENERGIES
----------------

  NO   OCC          E(Eh)            E(eV)
   0   2.0000     -15.015563      -408.5943
   1   2.0000     -15.003837      -408.2752
   2   2.0000     -10.879511      -296.0465
   3   2.0000     -10.749529      -292.5095
   4   2.0000     -10.706956      -291.3511
   5   2.0000      -1.305252       -35.5177
   6   2.0000      -1.199445       -32.6385
   7   2.0000      -1.058654       -28.8075
   8   2.0000      -0.949047       -25.8249
   9   2.0000      -0.895801       -24.3760
  10   2.0000      -0.850851       -23.1528
  11   2.0000      -0.822108       -22.3707
  12   2.0000      -0.768469       -20.9111
  13   2.0000      -0.727971       -19.8091
  14   2.0000      -0.690714       -18.7953
  15   2.0000      -0.672926       -18.3113
  16   2.0000      -0.612195       -16.6587
  17   2.0000      -0.602828       -16.4038
  18   2.0000      -0.586627       -15.9629
  19   2.0000      -0.554557       -15.0903
  20   0.0000      -0.168790        -4.5930
  21   0.0000      -0.135261        -3.6807
  22   0.0000      -0.099624        -2.7109
  23   0.0000      -0.091235        -2.4826
  24   0.0000      -0.066721        -1.8156

MULLIKEN ATOMIC CHARGES
-----------------------
   0 C :   -0.419598
   1 C :    0.949274
   2 N :   -0.048364
   3 N :    0.003416
   4 H :    0.070117
   5 H :   -0.158593
   6 H :    0.023223
   7 H :   -0.136849
   8 C :    0.702026
   9 H :    0.035893
  10 H :    0.080533
  11 H :   -0.121666
  12 H :   -0.020415
  13 H :    0.041003
Sum of atomic charges:    1.0000000

LOEWDIN ATOMIC CHARGES
----------------------
   0 C :    0.011526
   1 C :   -0.038100
   2 N :    0.278587
   3 N :    0.256146
   4 H :    0.099866
   5 H :    0.052378
   6 H :    0.041190
   7 H :    0.040832
   8 C :    0.166218
   9 H :    0.057666
  10 H :    0.039676
  11 H :   -0.021515
  12 H :    0.004981
  13 H :    0.010549

  Mayer bond orders larger than 0.100000
B(  0-C ,  1-C ) :   1.0650 B(  0-C ,  8-C ) :   1.3239 B(  0-C ,  9-H ) :   0.9156
B(  0-C , 10-H ) :   0.8966 B(  0-C , 11-H ) :   0.1898 B(  0-C , 12-H ) :   0.2065
B(  0-C , 13-H ) :   0.1682 B(  1-C ,  2-N ) :   0.9240 B(  1-C ,  3-N ) :   1.0657
B(  1-C ,  4-H ) :  -0.1033 B(  1-C ,  5-H ) :  -0.2602 B(  1-C ,  7-H ) :  -0.2446
B(  1-C ,  9-H ) :   0.1184 B(  1-C , 10-H ) :   0.1245 B(  2-N ,  3-N ) :   0.1492
B(  2-N ,  6-H ) :   1.1116 B(  2-N ,  7-H ) :   1.3577 B(  3-N ,  4-H ) :   1.1199
B(  3-N ,  5-H ) :   1.3236 B(  4-H ,  5-H ) :  -0.1883 B(  6-H ,  7-H ) :  -0.1978
B(  8-C , 10-H ) :   0.1011 B(  8-C , 11-H ) :   0.8378 B(  8-C , 12-H ) :   0.7637
B(  8-C , 13-H ) :   0.8258

Dispersion correction           -0.000203409
FINAL SINGLE POINT ENERGY      -228.754165000861

DIPOLE MOMENT
-------------
                                X             Y             Z
Electronic contribution:     -3.76590      -0.48286      -1.56221
Nuclear contribution   :      2.76041       0.12669       1.26265
                        -----------------------------------------
Total Dipole Moment    :     -1.00549      -0.35617      -0.29956
                        -----------------------------------------
Magnitude (a.u.)       :      1.10797
Magnitude (Debye)      :      2.81625

Rotational constants in cm-1:     0.280918     0.124524     0.094121
Rotational constants in MHz :  8421.697738  3733.133254  2821.684112

                             ****ORCA TERMINATED NORMALLY****
TOTAL RUN TIME: 0 days 0 hours 0 minutes 24 seconds 21 msec
