                         Program Version 5.0.0 -  RELEASE  -
|  1> !M062X D3Zero RIJCOSX def2-SVPD def2/J TightSCF xyzfile
|  2>
|  3> *xyzfile 0 1 B.xyz
|  4>
|  5> %MaxCore 64000
|  6>
|  7> %pal nprocs 4
|  8> end
|  9>
| 10> %scf
| 11>   MaxIter 150
| 12> end
| 13>
| 14>
| 15>                          ****END OF INPUT****

CARTESIAN COORDINATES (ANGSTROEM)
---------------------------------
  C      5.558206   -1.992914   -6.215054
  C      4.930199   -7.375319   -2.649623
  C      3.841892   -6.951611   -3.632829
  H      3.458144   -5.954425   -3.407121
  H      2.988484   -7.643606   -3.567078
  S      4.318115   -6.915930   -5.368692
  C      4.181880   -2.589671   -6.298911
  N      3.145873   -1.768431   -6.486753
  N      4.019102   -3.864307   -6.227427
  H      4.768490   -4.591153   -5.990773
  H      3.122405   -4.333392   -6.314620
  H      3.281635   -0.777786   -6.566549
  H      2.212549   -2.134193   -6.562246
  O      5.406154   -5.899480   -5.512972
  O      3.111910   -6.445079   -6.043792
  C      6.419260   -2.542944   -5.077630
  C      5.872267   -5.002756   -2.427819
  C      6.173994   -6.485522   -2.606315
  H      6.734852   -6.613767   -3.534015
  H      6.821463   -6.831018   -1.793617
  H      4.469612   -7.406168   -1.655876
  H      5.230134   -8.398678   -2.885906
  C      5.896512   -2.169314   -3.694552
  H      7.428880   -2.143665   -5.208078
  H      6.505894   -3.627541   -5.175502
  C      6.807804   -2.623428   -2.551019
  H      4.894708   -2.589732   -3.557501
  H      5.778823   -1.081255   -3.635790
  C      7.111544   -4.122463   -2.520363
  H      7.751615   -2.071393   -2.614406
  H      6.345837   -2.326401   -1.604086
  H      5.362882   -4.828697   -1.471335
  H      5.174429   -4.702577   -3.211298
  H      7.778329   -4.329347   -1.677651
  H      7.673189   -4.402845   -3.417586
  O      4.763396   -8.239424   -5.698629
  H      6.036826   -2.198189   -7.176852
  H      5.467610   -0.907371   -6.127968

 Total Charge           Charge          ....    0
 Multiplicity           Mult            ....    1
 Number of Electrons    NEL             ....  136
 Basis Dimension        Dim             ....  512

ORBITAL ENERGIES
----------------

  NO   OCC          E(Eh)            E(eV)
   0   2.0000     -90.094206     -2451.5880
   1   2.0000     -19.584169      -532.9123
   2   2.0000     -19.571765      -532.5748
   3   2.0000     -19.564995      -532.3906
   4   2.0000     -14.854633      -404.2151
   5   2.0000     -14.816064      -403.1656
   6   2.0000     -10.714621      -291.5597
   7   2.0000     -10.609625      -288.7026
   8   2.0000     -10.577159      -287.8191
   9   2.0000     -10.564984      -287.4878
  10   2.0000     -10.553463      -287.1743
  11   2.0000     -10.547305      -287.0068
  12   2.0000     -10.541349      -286.8447
  13   2.0000     -10.535477      -286.6849
  14   2.0000     -10.533591      -286.6336
  15   2.0000     -10.526148      -286.4310
  16   2.0000      -8.416492      -229.0244
  17   2.0000      -6.342501      -172.5882
  18   2.0000      -6.341611      -172.5640
  19   2.0000      -6.340820      -172.5425
  20   2.0000      -1.206370       -32.8270
  21   2.0000      -1.141126       -31.0516
  22   2.0000      -1.059858       -28.8402
  23   2.0000      -1.052254       -28.6333
  24   2.0000      -1.030704       -28.0469
  25   2.0000      -0.934587       -25.4314
  26   2.0000      -0.899097       -24.4657
  27   2.0000      -0.874519       -23.7969
  28   2.0000      -0.831775       -22.6337
  29   2.0000      -0.794448       -21.6180
  30   2.0000      -0.759521       -20.6676
  31   2.0000      -0.737940       -20.0804
  32   2.0000      -0.708930       -19.2910
  33   2.0000      -0.686082       -18.6692
  34   2.0000      -0.675009       -18.3679
  35   2.0000      -0.656752       -17.8711
  36   2.0000      -0.638356       -17.3706
  37   2.0000      -0.618577       -16.8323
  38   2.0000      -0.592550       -16.1241
  39   2.0000      -0.577093       -15.7035
  40   2.0000      -0.563044       -15.3212
  41   2.0000      -0.545816       -14.8524
  42   2.0000      -0.543336       -14.7849
  43   2.0000      -0.528456       -14.3800
  44   2.0000      -0.519459       -14.1352
  45   2.0000      -0.511809       -13.9270
  46   2.0000      -0.502457       -13.6726
  47   2.0000      -0.500440       -13.6177
  48   2.0000      -0.488731       -13.2991
  49   2.0000      -0.468467       -12.7476
  50   2.0000      -0.464560       -12.6413
  51   2.0000      -0.460866       -12.5408
  52   2.0000      -0.438905       -11.9432
  53   2.0000      -0.432347       -11.7648
  54   2.0000      -0.426107       -11.5949
  55   2.0000      -0.407159       -11.0794
  56   2.0000      -0.398936       -10.8556
  57   2.0000      -0.394037       -10.7223
  58   2.0000      -0.391543       -10.6544
  59   2.0000      -0.383331       -10.4310
  60   2.0000      -0.381116       -10.3707
  61   2.0000      -0.374341       -10.1863
  62   2.0000      -0.366687        -9.9781
  63   2.0000      -0.360999        -9.8233
  64   2.0000      -0.337881        -9.1942
  65   2.0000      -0.335420        -9.1272
  66   2.0000      -0.314994        -8.5714
  67   2.0000      -0.303529        -8.2594
  68   0.0000      -0.014049        -0.3823
  69   0.0000      -0.005814        -0.1582
  70   0.0000       0.026984         0.7343
  71   0.0000       0.036599         0.9959
  72   0.0000       0.041745         1.1359

MULLIKEN ATOMIC CHARGES
-----------------------
   0 C :    0.477779
   1 C :    0.530644
   2 C :    0.071591
   3 H :    0.206144
   4 H :   -0.275073
   5 S :    1.425175
   6 C :    0.814371
   7 N :    0.009910
   8 N :    0.601601
   9 H :   -0.115599
  10 H :   -0.277416
  11 H :   -0.070169
  12 H :   -0.153612
  13 O :   -1.051111
  14 O :   -0.867052
  15 C :    0.410719
  16 C :   -0.007370
  17 C :    0.257478
  18 H :    0.100589
  19 H :   -0.375774
  20 H :    0.056589
  21 H :   -0.022427
  22 C :   -0.059189
  23 H :   -0.153786
  24 H :   -0.618331
  25 C :    0.657814
  26 H :    0.175823
  27 H :   -0.386015
  28 C :    0.141037
  29 H :    0.027006
  30 H :   -0.057048
  31 H :    0.002796
  32 H :   -0.373330
  33 H :   -0.348864
  34 H :    0.105635
  35 O :   -0.880804
  36 H :   -0.088954
  37 H :    0.109222
Sum of atomic charges:    0.0000000

LOEWDIN ATOMIC CHARGES
----------------------
   0 C :    0.045032
   1 C :   -0.030741
   2 C :   -0.068028
   3 H :    0.002210
   4 H :    0.026891
   5 S :    0.982226
   6 C :   -0.047489
   7 N :    0.245867
   8 N :    0.299534
   9 H :   -0.086530
  10 H :    0.003910
  11 H :    0.017159
  12 H :    0.025981
  13 O :   -0.531672
  14 O :   -0.557128
  15 C :   -0.006547
  16 C :   -0.036477
  17 C :   -0.028015
  18 H :    0.015584
  19 H :    0.025848
  20 H :    0.025679
  21 H :    0.029087
  22 C :   -0.034369
  23 H :    0.038810
  24 H :    0.000884
  25 C :   -0.029432
  26 H :    0.013608
  27 H :    0.021742
  28 C :   -0.030654
  29 H :    0.023010
  30 H :    0.024456
  31 H :    0.036513
  32 H :   -0.022633
  33 H :    0.026058
  34 H :    0.021679
  35 O :   -0.516492
  36 H :    0.048743
  37 H :    0.025692

  Mayer bond orders larger than 0.100000
B(  0-C ,  6-C ) :   0.9762 B(  0-C , 15-C ) :   1.2172 B(  0-C , 24-H ) :   0.1123
B(  0-C , 36-H ) :   0.6717 B(  0-C , 37-H ) :   0.7311 B(  1-C ,  2-C ) :   1.2162
B(  1-C ,  4-H ) :   0.1262 B(  1-C , 17-C ) :   1.2365 B(  1-C , 20-H ) :   0.7218
B(  1-C , 21-H ) :   0.6712 B(  2-C ,  3-H ) :   0.7954 B(  2-C ,  4-H ) :   0.9023
B(  2-C ,  5-S ) :   0.9300 B(  2-C , 20-H ) :   0.1750 B(  2-C , 21-H ) :   0.1013
B(  2-C , 35-O ) :   0.1288 B(  3-H , 17-C ) :  -0.1184 B(  4-H ,  5-S ) :   0.1366
B(  5-S , 13-O ) :   0.9617 B(  5-S , 14-O ) :   1.2209 B(  5-S , 35-O ) :   1.3113
B(  6-C ,  7-N ) :   0.8554 B(  6-C ,  8-N ) :   1.2909 B(  6-C ,  9-H ) :  -0.2648
B(  6-C , 10-H ) :  -0.3704 B(  6-C , 11-H ) :  -0.1105 B(  6-C , 12-H ) :  -0.2039
B(  6-C , 24-H ) :  -0.1129 B(  6-C , 36-H ) :   0.2033 B(  6-C , 37-H ) :   0.1632
B(  7-N ,  8-N ) :   0.1519 B(  7-N , 11-H ) :   1.1953 B(  7-N , 12-H ) :   1.3344
B(  8-N ,  9-H ) :   0.9506 B(  8-N , 10-H ) :   1.1695 B(  8-N , 13-O ) :  -0.1022
B(  8-N , 24-H ) :   0.1091 B(  9-H , 10-H ) :  -0.2466 B(  9-H , 13-O ) :   0.2094
B( 10-H , 14-O ) :   0.1726 B( 11-H , 12-H ) :  -0.1934 B( 13-O , 14-O ) :   0.1126
B( 13-O , 18-H ) :   0.1085 B( 13-O , 24-H ) :   0.2346 B( 15-C , 22-C ) :   1.1877
B( 15-C , 23-H ) :   0.7907 B( 15-C , 24-H ) :   0.6609 B( 15-C , 26-H ) :   0.1220
B( 15-C , 27-H ) :   0.1697 B( 15-C , 36-H ) :   0.2817 B( 15-C , 37-H ) :   0.1563
B( 16-C , 17-C ) :   1.1981 B( 16-C , 18-H ) :   0.1272 B( 16-C , 19-H ) :   0.1715
B( 16-C , 28-C ) :   1.1978 B( 16-C , 31-H ) :   0.7644 B( 16-C , 32-H ) :   1.0689
B( 16-C , 33-H ) :   0.2135 B( 16-C , 34-H ) :   0.1351 B( 17-C , 18-H ) :   0.8299
B( 17-C , 19-H ) :   0.9073 B( 17-C , 21-H ) :   0.2438 B( 17-C , 28-C ) :   0.1340
B( 20-H , 21-H ) :  -0.1401 B( 22-C , 23-H ) :   0.1399 B( 22-C , 24-H ) :   0.2113
B( 22-C , 25-C ) :   1.0790 B( 22-C , 26-H ) :   0.8158 B( 22-C , 27-H ) :   1.1158
B( 22-C , 28-C ) :   0.1293 B( 22-C , 29-H ) :   0.1206 B( 22-C , 30-H ) :   0.2456
B( 23-H , 27-H ) :   0.1103 B( 24-H , 34-H ) :   0.1212 B( 25-C , 28-C ) :   1.1216
B( 25-C , 29-H ) :   0.6882 B( 25-C , 30-H ) :   0.7176 B( 26-H , 32-H ) :   0.1745
B( 28-C , 29-H ) :   0.2192 B( 28-C , 30-H ) :   0.1046 B( 28-C , 31-H ) :   0.1081
B( 28-C , 33-H ) :   1.0206 B( 28-C , 34-H ) :   0.8101 B( 29-H , 30-H ) :  -0.1460
B( 31-H , 32-H ) :   0.1073 B( 36-H , 37-H ) :  -0.1101

Dispersion correction           -0.002782603
FINAL SINGLE POINT ENERGY     -1126.701177291075

DIPOLE MOMENT
-------------
                                X             Y             Z
Electronic contribution:     -9.19232     -11.40027     -14.11451
Nuclear contribution   :      8.53517      16.50844      14.36520
                        -----------------------------------------
Total Dipole Moment    :     -0.65715       5.10817       0.25069
                        -----------------------------------------
Magnitude (a.u.)       :      5.15636
Magnitude (Debye)      :     13.10643

Rotational constants in cm-1:     0.017951     0.012436     0.008288
Rotational constants in MHz :   538.163255   372.824050   248.467077

                             ****ORCA TERMINATED NORMALLY****
TOTAL RUN TIME: 0 days 0 hours 4 minutes 36 seconds 679 msec
