                         Program Version 5.0.0 -  RELEASE  -
|  1> !M062X D3Zero RIJCOSX def2-SVPD def2/J TightSCF
|  2> *xyz 0 1
|  3> C          4.93020       -7.37532       -2.64962
|  4> C          3.84189       -6.95161       -3.63283
|  5> H          3.45814       -5.95442       -3.40712
|  6> H          2.98848       -7.64361       -3.56708
|  7> S          4.31812       -6.91593       -5.36869
|  8> F          5.40615       -5.89948       -5.51297
|  9> O          3.11191       -6.44508       -6.04379
| 10> O          4.76340       -8.23942       -5.69863
| 11> H          5.27901       -8.35440       -2.90385
| 12> H          4.53000       -7.38577       -1.65734
| 13> H          5.74437       -6.68276       -2.69856
| 14> *
| 15>
| 16> %MaxCore 64000
| 17>
| 18> %pal nprocs 4
| 19> end
| 20>
| 21> %scf
| 22>   MaxIter 150
| 23> end
| 24>
| 25>
| 26>                          ****END OF INPUT****

CARTESIAN COORDINATES (ANGSTROEM)
---------------------------------
  C      4.930200   -7.375320   -2.649620
  C      3.841890   -6.951610   -3.632830
  H      3.458140   -5.954420   -3.407120
  H      2.988480   -7.643610   -3.567080
  S      4.318120   -6.915930   -5.368690
  F      5.406150   -5.899480   -5.512970
  O      3.111910   -6.445080   -6.043790
  O      4.763400   -8.239420   -5.698630
  H      5.279010   -8.354400   -2.903850
  H      4.530000   -7.385770   -1.657340
  H      5.744370   -6.682760   -2.698560

 Total Charge           Charge          ....    0
 Multiplicity           Mult            ....    1
 Number of Electrons    NEL             ....   58
 Basis Dimension        Dim             ....  176

ORBITAL ENERGIES
----------------

  NO   OCC          E(Eh)            E(eV)
   0   2.0000     -90.197007     -2454.3853
   1   2.0000     -25.357408      -690.0101
   2   2.0000     -19.658327      -534.9303
   3   2.0000     -19.648185      -534.6543
   4   2.0000     -10.620799      -289.0066
   5   2.0000     -10.577751      -287.8352
   6   2.0000      -8.521149      -231.8722
   7   2.0000      -6.449281      -175.4938
   8   2.0000      -6.444407      -175.3612
   9   2.0000      -6.443462      -175.3355
  10   2.0000      -1.475360       -40.1466
  11   2.0000      -1.236634       -33.6505
  12   2.0000      -1.135661       -30.9029
  13   2.0000      -0.920329       -25.0434
  14   2.0000      -0.816994       -22.2315
  15   2.0000      -0.763614       -20.7790
  16   2.0000      -0.671971       -18.2853
  17   2.0000      -0.660540       -17.9742
  18   2.0000      -0.635604       -17.2957
  19   2.0000      -0.572355       -15.5746
  20   2.0000      -0.561809       -15.2876
  21   2.0000      -0.538808       -14.6617
  22   2.0000      -0.510766       -13.8986
  23   2.0000      -0.480930       -13.0868
  24   2.0000      -0.475320       -12.9341
  25   2.0000      -0.451743       -12.2926
  26   2.0000      -0.416361       -11.3298
  27   2.0000      -0.399078       -10.8595
  28   2.0000      -0.394234       -10.7277
  29   0.0000       0.008493         0.2311
  30   0.0000       0.038813         1.0561
  31   0.0000       0.042496         1.1564
  32   0.0000       0.044264         1.2045
  33   0.0000       0.067125         1.8266

MULLIKEN ATOMIC CHARGES
-----------------------
   0 C :    0.718407
   1 C :   -0.446294
   2 H :   -0.004535
   3 H :    0.059938
   4 S :    1.589550
   5 F :   -0.447137
   6 O :   -0.708140
   7 O :   -0.696986
   8 H :   -0.003023
   9 H :   -0.031086
  10 H :   -0.030693
Sum of atomic charges:    0.0000000

LOEWDIN ATOMIC CHARGES
----------------------
   0 C :    0.133912
   1 C :   -0.090156
   2 H :    0.023631
   3 H :    0.042575
   4 S :    1.155619
   5 F :   -0.287653
   6 O :   -0.489719
   7 O :   -0.472582
   8 H :   -0.004235
   9 H :   -0.003895
  10 H :   -0.007495

  Mayer bond orders larger than 0.100000
B(  0-C ,  1-C ) :   1.3133 B(  0-C ,  8-H ) :   0.8267 B(  0-C ,  9-H ) :   0.7594
B(  0-C , 10-H ) :   0.8244 B(  1-C ,  2-H ) :   1.0216 B(  1-C ,  3-H ) :   0.9852
B(  1-C ,  4-S ) :   0.9767 B(  1-C ,  8-H ) :   0.1937 B(  1-C ,  9-H ) :   0.2023
B(  1-C , 10-H ) :   0.1823 B(  4-S ,  5-F ) :   0.5597 B(  4-S ,  6-O ) :   1.5164
B(  4-S ,  7-O ) :   1.5060

Dispersion correction           -0.000156631
FINAL SINGLE POINT ENERGY      -727.126520889619

DIPOLE MOMENT
-------------
                                X             Y             Z
Electronic contribution:      1.30183       2.62538      -8.65874
Nuclear contribution   :     -0.98922      -2.24849      10.35711
                        -----------------------------------------
Total Dipole Moment    :      0.31261       0.37688       1.69837
                        -----------------------------------------
Magnitude (a.u.)       :      1.76754
Magnitude (Debye)      :      4.49274

Rotational constants in cm-1:     0.151436     0.080885     0.078670
Rotational constants in MHz :  4539.936009  2424.868817  2358.476812

                             ****ORCA TERMINATED NORMALLY****
TOTAL RUN TIME: 0 days 0 hours 0 minutes 29 seconds 92 msec
