                         Program Version 5.0.0 -  RELEASE  -
|  1> !M062X D3Zero RIJCOSX def2-SVPD def2/J TightSCF
|  2> *xyz 0 1
|  3> C          5.55821       -1.99291       -6.21505
|  4> C          4.18188       -2.58967       -6.29891
|  5> C          3.14587       -1.76843       -6.48675
|  6> N          4.01910       -3.86431       -6.22743
|  7> H          4.76849       -4.59115       -5.99077
|  8> H          3.12241       -4.33339       -6.31462
|  9> H          3.28164       -0.77779       -6.56655
| 10> H          2.21255       -2.13419       -6.56225
| 11> C          6.41926       -2.54294       -5.07763
| 12> H          6.03683       -2.19819       -7.17685
| 13> H          5.46761       -0.90737       -6.12797
| 14> H          6.50056       -3.60553       -5.17358
| 15> H          5.96544       -2.30329       -4.13874
| 16> H          7.39438       -2.10494       -5.12457
| 17> *
| 18>
| 19> %MaxCore 64000
| 20>
| 21> %pal nprocs 4
| 22> end
| 23>
| 24> %scf
| 25>   MaxIter 150
| 26> end
| 27>
| 28>
| 29>                          ****END OF INPUT****

CARTESIAN COORDINATES (ANGSTROEM)
---------------------------------
  C      5.558210   -1.992910   -6.215050
  C      4.181880   -2.589670   -6.298910
  C      3.145870   -1.768430   -6.486750
  N      4.019100   -3.864310   -6.227430
  H      4.768490   -4.591150   -5.990770
  H      3.122410   -4.333390   -6.314620
  H      3.281640   -0.777790   -6.566550
  H      2.212550   -2.134190   -6.562250
  C      6.419260   -2.542940   -5.077630
  H      6.036830   -2.198190   -7.176850
  H      5.467610   -0.907370   -6.127970
  H      6.500560   -3.605530   -5.173580
  H      5.965440   -2.303290   -4.138740
  H      7.394380   -2.104940   -5.124570

 Total Charge           Charge          ....    0
 Multiplicity           Mult            ....    1
 Number of Electrons    NEL             ....   40
 Basis Dimension        Dim             ....  172

ORBITAL ENERGIES
----------------

  NO   OCC          E(Eh)            E(eV)
   0   2.0000     -14.770342      -401.9214
   1   2.0000     -10.573279      -287.7136
   2   2.0000     -10.549292      -287.0608
   3   2.0000     -10.539756      -286.8013
   4   2.0000     -10.479705      -285.1673
   5   2.0000      -1.031981       -28.0816
   6   2.0000      -0.866940       -23.5906
   7   2.0000      -0.803808       -21.8727
   8   2.0000      -0.711367       -19.3573
   9   2.0000      -0.658942       -17.9307
  10   2.0000      -0.590692       -16.0735
  11   2.0000      -0.543854       -14.7990
  12   2.0000      -0.512069       -13.9341
  13   2.0000      -0.489508       -13.3202
  14   2.0000      -0.458660       -12.4808
  15   2.0000      -0.448702       -12.2098
  16   2.0000      -0.420054       -11.4302
  17   2.0000      -0.397697       -10.8219
  18   2.0000      -0.390415       -10.6237
  19   2.0000      -0.237728        -6.4689
  20   0.0000       0.034545         0.9400
  21   0.0000       0.063488         1.7276
  22   0.0000       0.068035         1.8513
  23   0.0000       0.081764         2.2249
  24   0.0000       0.093611         2.5473

MULLIKEN ATOMIC CHARGES
-----------------------
   0 C :   -0.146668
   1 C :   -0.024170
   2 C :    0.511569
   3 N :    0.110384
   4 H :   -0.080703
   5 H :   -0.234651
   6 H :   -0.219727
   7 H :   -0.470917
   8 C :    0.710768
   9 H :   -0.062507
  10 H :    0.122435
  11 H :   -0.160976
  12 H :   -0.040725
  13 H :   -0.014111
Sum of atomic charges:   -0.0000000

LOEWDIN ATOMIC CHARGES
----------------------
   0 C :   -0.031255
   1 C :   -0.271265
   2 C :    0.181654
   3 N :    0.137997
   4 H :    0.043613
   5 H :    0.012359
   6 H :   -0.095255
   7 H :   -0.093261
   8 C :    0.126483
   9 H :    0.028532
  10 H :    0.024564
  11 H :   -0.037919
  12 H :   -0.009741
  13 H :   -0.016505

  Mayer bond orders larger than 0.100000
B(  0-C ,  1-C ) :   1.1061 B(  0-C ,  6-H ) :  -0.1088 B(  0-C ,  8-C ) :   1.2765
B(  0-C ,  9-H ) :   0.8463 B(  0-C , 10-H ) :   0.8754 B(  0-C , 11-H ) :   0.2080
B(  0-C , 12-H ) :   0.2056 B(  0-C , 13-H ) :   0.1936 B(  1-C ,  2-C ) :   1.6132
B(  1-C ,  3-N ) :   1.1996 B(  1-C ,  5-H ) :  -0.1322 B(  1-C ,  7-H ) :   0.2073
B(  1-C ,  9-H ) :   0.2207 B(  2-C ,  3-N ) :   0.2436 B(  2-C ,  6-H ) :   1.0710
B(  2-C ,  7-H ) :   0.6452 B(  3-N ,  4-H ) :   1.1990 B(  3-N ,  5-H ) :   1.2546
B(  4-H ,  5-H ) :  -0.1701 B(  8-C , 10-H ) :   0.1068 B(  8-C , 11-H ) :   0.8207
B(  8-C , 12-H ) :   0.7734 B(  8-C , 13-H ) :   0.7973

Dispersion correction           -0.000199845
FINAL SINGLE POINT ENERGY      -212.296366539986

DIPOLE MOMENT
-------------
                                X             Y             Z
Electronic contribution:     -2.03803      -1.05838      -1.02557
Nuclear contribution   :      2.41345       0.31141       1.16343
                        -----------------------------------------
Total Dipole Moment    :      0.37543      -0.74697       0.13786
                        -----------------------------------------
Magnitude (a.u.)       :      0.84730
Magnitude (Debye)      :      2.15367

Rotational constants in cm-1:     0.287957     0.129204     0.097498
Rotational constants in MHz :  8632.737925  3873.424745  2922.919500

                             ****ORCA TERMINATED NORMALLY****
TOTAL RUN TIME: 0 days 0 hours 0 minutes 23 seconds 509 msec
