                         Program Version 5.0.0 -  RELEASE  -
|  1> !M062X D3Zero RIJCOSX def2-SVPD def2/J TightSCF
|  2> *xyz 0 1
|  3> C          4.93020       -7.37532       -2.64962
|  4> C          3.84189       -6.95161       -3.63283
|  5> H          3.45814       -5.95442       -3.40712
|  6> H          2.98848       -7.64361       -3.56708
|  7> S          4.31812       -6.91593       -5.36869
|  8> O          5.40615       -5.89948       -5.51297
|  9> F          3.11191       -6.44508       -6.04379
| 10> O          4.76340       -8.23942       -5.69863
| 11> H          5.27901       -8.35440       -2.90385
| 12> H          4.53000       -7.38577       -1.65734
| 13> H          5.74437       -6.68276       -2.69856
| 14> *
| 15>
| 16> %MaxCore 64000
| 17>
| 18> %pal nprocs 4
| 19> end
| 20>
| 21> %scf
| 22>   MaxIter 150
| 23> end
| 24>
| 25>
| 26>                          ****END OF INPUT****

CARTESIAN COORDINATES (ANGSTROEM)
---------------------------------
  C      4.930200   -7.375320   -2.649620
  C      3.841890   -6.951610   -3.632830
  H      3.458140   -5.954420   -3.407120
  H      2.988480   -7.643610   -3.567080
  S      4.318120   -6.915930   -5.368690
  O      5.406150   -5.899480   -5.512970
  F      3.111910   -6.445080   -6.043790
  O      4.763400   -8.239420   -5.698630
  H      5.279010   -8.354400   -2.903850
  H      4.530000   -7.385770   -1.657340
  H      5.744370   -6.682760   -2.698560

 Total Charge           Charge          ....    0
 Multiplicity           Mult            ....    1
 Number of Electrons    NEL             ....   58
 Basis Dimension        Dim             ....  176

ORBITAL ENERGIES
----------------

  NO   OCC          E(Eh)            E(eV)
   0   2.0000     -90.198389     -2454.4229
   1   2.0000     -25.372365      -690.4172
   2   2.0000     -19.657817      -534.9164
   3   2.0000     -19.640468      -534.4443
   4   2.0000     -10.621790      -289.0336
   5   2.0000     -10.576058      -287.7892
   6   2.0000      -8.522690      -231.9142
   7   2.0000      -6.450972      -175.5399
   8   2.0000      -6.445845      -175.4004
   9   2.0000      -6.444789      -175.3716
  10   2.0000      -1.503687       -40.9174
  11   2.0000      -1.229781       -33.4640
  12   2.0000      -1.115917       -30.3656
  13   2.0000      -0.920451       -25.0468
  14   2.0000      -0.832941       -22.6655
  15   2.0000      -0.764281       -20.7971
  16   2.0000      -0.681031       -18.5318
  17   2.0000      -0.675998       -18.3948
  18   2.0000      -0.644653       -17.5419
  19   2.0000      -0.572567       -15.5803
  20   2.0000      -0.566479       -15.4147
  21   2.0000      -0.524820       -14.2811
  22   2.0000      -0.504489       -13.7278
  23   2.0000      -0.481516       -13.1027
  24   2.0000      -0.462773       -12.5927
  25   2.0000      -0.457495       -12.4491
  26   2.0000      -0.410250       -11.1635
  27   2.0000      -0.393590       -10.7101
  28   2.0000      -0.381664       -10.3856
  29   0.0000       0.010170         0.2767
  30   0.0000       0.034470         0.9380
  31   0.0000       0.042523         1.1571
  32   0.0000       0.045645         1.2421
  33   0.0000       0.072174         1.9639

MULLIKEN ATOMIC CHARGES
-----------------------
   0 C :    0.687997
   1 C :   -0.467995
   2 H :    0.005619
   3 H :    0.063925
   4 S :    1.609777
   5 O :   -0.733025
   6 F :   -0.435124
   7 O :   -0.686684
   8 H :   -0.005810
   9 H :   -0.029375
  10 H :   -0.009305
Sum of atomic charges:   -0.0000000

LOEWDIN ATOMIC CHARGES
----------------------
   0 C :    0.149662
   1 C :   -0.102579
   2 H :    0.022527
   3 H :    0.028406
   4 S :    1.158355
   5 O :   -0.500634
   6 F :   -0.278308
   7 O :   -0.474427
   8 H :   -0.001341
   9 H :   -0.001626
  10 H :   -0.000034

  Mayer bond orders larger than 0.100000
B(  0-C ,  1-C ) :   1.3609 B(  0-C ,  8-H ) :   0.8190 B(  0-C ,  9-H ) :   0.7655
B(  0-C , 10-H ) :   0.8306 B(  1-C ,  2-H ) :   1.0038 B(  1-C ,  3-H ) :   0.9716
B(  1-C ,  4-S ) :   0.9485 B(  1-C ,  8-H ) :   0.1910 B(  1-C ,  9-H ) :   0.2024
B(  1-C , 10-H ) :   0.1861 B(  4-S ,  5-O ) :   1.4514 B(  4-S ,  6-F ) :   0.6149
B(  4-S ,  7-O ) :   1.5003

Dispersion correction           -0.000145343
FINAL SINGLE POINT ENERGY      -727.114730508277

DIPOLE MOMENT
-------------
                                X             Y             Z
Electronic contribution:     -2.61392       1.68765      -9.57645
Nuclear contribution   :      1.40145      -1.67996      10.91024
                        -----------------------------------------
Total Dipole Moment    :     -1.21247       0.00769       1.33379
                        -----------------------------------------
Magnitude (a.u.)       :      1.80254
Magnitude (Debye)      :      4.58169

Rotational constants in cm-1:     0.155875     0.079864     0.077188
Rotational constants in MHz :  4673.017506  2394.277415  2314.027118

                             ****ORCA TERMINATED NORMALLY****
TOTAL RUN TIME: 0 days 0 hours 0 minutes 24 seconds 666 msec
