                         Program Version 5.0.0 -  RELEASE  -
|  1> !M062X D3Zero RIJCOSX def2-SVPD def2/J TightSCF
|  2> *xyz 0 1
|  3> C          5.55821       -1.99291       -6.21505
|  4> C          4.18188       -2.58967       -6.29891
|  5> N          3.14587       -1.76843       -6.48675
|  6> C          4.01910       -3.86431       -6.22743
|  7> H          4.76849       -4.59115       -5.99077
|  8> H          3.12241       -4.33339       -6.31462
|  9> H          3.28164       -0.77779       -6.56655
| 10> H          2.21255       -2.13419       -6.56225
| 11> C          6.41926       -2.54294       -5.07763
| 12> H          6.03683       -2.19819       -7.17685
| 13> H          5.46761       -0.90737       -6.12797
| 14> H          6.50056       -3.60553       -5.17358
| 15> H          5.96544       -2.30329       -4.13874
| 16> H          7.39438       -2.10494       -5.12457
| 17> *
| 18>
| 19> %MaxCore 64000
| 20>
| 21> %pal nprocs 4
| 22> end
| 23>
| 24> %scf
| 25>   MaxIter 150
| 26> end
| 27>
| 28>
| 29>                          ****END OF INPUT****

CARTESIAN COORDINATES (ANGSTROEM)
---------------------------------
  C      5.558210   -1.992910   -6.215050
  C      4.181880   -2.589670   -6.298910
  N      3.145870   -1.768430   -6.486750
  C      4.019100   -3.864310   -6.227430
  H      4.768490   -4.591150   -5.990770
  H      3.122410   -4.333390   -6.314620
  H      3.281640   -0.777790   -6.566550
  H      2.212550   -2.134190   -6.562250
  C      6.419260   -2.542940   -5.077630
  H      6.036830   -2.198190   -7.176850
  H      5.467610   -0.907370   -6.127970
  H      6.500560   -3.605530   -5.173580
  H      5.965440   -2.303290   -4.138740
  H      7.394380   -2.104940   -5.124570

 Total Charge           Charge          ....    0
 Multiplicity           Mult            ....    1
 Number of Electrons    NEL             ....   40
 Basis Dimension        Dim             ....  172

ORBITAL ENERGIES
----------------

  NO   OCC          E(Eh)            E(eV)
   0   2.0000     -14.759288      -401.6207
   1   2.0000     -10.570955      -287.6503
   2   2.0000     -10.550402      -287.0910
   3   2.0000     -10.533877      -286.6414
   4   2.0000     -10.487009      -285.3660
   5   2.0000      -1.021422       -27.7943
   6   2.0000      -0.871103       -23.7039
   7   2.0000      -0.799809       -21.7639
   8   2.0000      -0.721929       -19.6447
   9   2.0000      -0.632930       -17.2229
  10   2.0000      -0.596239       -16.2245
  11   2.0000      -0.558341       -15.1932
  12   2.0000      -0.517241       -14.0748
  13   2.0000      -0.485166       -13.2020
  14   2.0000      -0.450374       -12.2553
  15   2.0000      -0.437491       -11.9047
  16   2.0000      -0.412906       -11.2357
  17   2.0000      -0.397380       -10.8133
  18   2.0000      -0.390204       -10.6180
  19   2.0000      -0.247236        -6.7276
  20   0.0000       0.040343         1.0978
  21   0.0000       0.061489         1.6732
  22   0.0000       0.070122         1.9081
  23   0.0000       0.080809         2.1989
  24   0.0000       0.095230         2.5913

MULLIKEN ATOMIC CHARGES
-----------------------
   0 C :   -0.077273
   1 C :    0.366172
   2 N :    0.092124
   3 C :    0.077042
   4 H :   -0.031962
   5 H :   -0.530643
   6 H :   -0.140546
   7 H :   -0.182620
   8 C :    0.743885
   9 H :   -0.073714
  10 H :   -0.051017
  11 H :   -0.131824
  12 H :   -0.047541
  13 H :   -0.012082
Sum of atomic charges:   -0.0000000

LOEWDIN ATOMIC CHARGES
----------------------
   0 C :   -0.034333
   1 C :   -0.258726
   2 N :    0.164402
   3 C :    0.155805
   4 H :   -0.046503
   5 H :   -0.085298
   6 H :   -0.012858
   7 H :    0.002146
   8 C :    0.131937
   9 H :    0.030288
  10 H :    0.012233
  11 H :   -0.030988
  12 H :   -0.010146
  13 H :   -0.017960

  Mayer bond orders larger than 0.100000
B(  0-C ,  1-C ) :   0.9814 B(  0-C ,  2-N ) :   0.1159 B(  0-C ,  8-C ) :   1.3075
B(  0-C ,  9-H ) :   0.8931 B(  0-C , 10-H ) :   0.8188 B(  0-C , 11-H ) :   0.1932
B(  0-C , 12-H ) :   0.2137 B(  0-C , 13-H ) :   0.1761 B(  1-C ,  2-N ) :   0.9636
B(  1-C ,  3-C ) :   1.4690 B(  1-C ,  7-H ) :  -0.1553 B(  1-C ,  9-H ) :   0.1522
B(  1-C , 10-H ) :   0.1503 B(  2-N ,  3-C ) :   0.2874 B(  2-N ,  6-H ) :   1.1379
B(  2-N ,  7-H ) :   1.2986 B(  3-C ,  4-H ) :   0.9199 B(  3-C ,  5-H ) :   0.8582
B(  4-H ,  5-H ) :  -0.1706 B(  6-H ,  7-H ) :  -0.1777 B(  8-C , 11-H ) :   0.8272
B(  8-C , 12-H ) :   0.7756 B(  8-C , 13-H ) :   0.8004

Dispersion correction           -0.000200514
FINAL SINGLE POINT ENERGY      -212.306192857603

DIPOLE MOMENT
-------------
                                X             Y             Z
Electronic contribution:     -2.79687       0.78821      -1.28236
Nuclear contribution   :      2.61570      -0.17401       1.22349
                        -----------------------------------------
Total Dipole Moment    :     -0.18117       0.61420      -0.05887
                        -----------------------------------------
Magnitude (a.u.)       :      0.64306
Magnitude (Debye)      :      1.63452

Rotational constants in cm-1:     0.298189     0.125314     0.096441
Rotational constants in MHz :  8939.495008  3756.825352  2891.223400

                             ****ORCA TERMINATED NORMALLY****
TOTAL RUN TIME: 0 days 0 hours 0 minutes 24 seconds 809 msec
