                         Program Version 5.0.0 -  RELEASE  -
|  1> !M062X D3Zero RIJCOSX def2-SVPD def2/J TightSCF
|  2> *xyz 0 1
|  3> C          4.93020       -7.37532       -2.64962
|  4> C          3.84189       -6.95161       -3.63283
|  5> H          3.45814       -5.95442       -3.40712
|  6> H          2.98848       -7.64361       -3.56708
|  7> S          4.31812       -6.91593       -5.36869
|  8> O          5.40615       -5.89948       -5.51297
|  9> O          3.11191       -6.44508       -6.04379
| 10> F          4.76340       -8.23942       -5.69863
| 11> H          5.27901       -8.35440       -2.90385
| 12> H          4.53000       -7.38577       -1.65734
| 13> H          5.74437       -6.68276       -2.69856
| 14> *
| 15>
| 16> %MaxCore 64000
| 17>
| 18> %pal nprocs 4
| 19> end
| 20>
| 21> %scf
| 22>   MaxIter 150
| 23> end
| 24>
| 25>
| 26>                          ****END OF INPUT****

CARTESIAN COORDINATES (ANGSTROEM)
---------------------------------
  C      4.930200   -7.375320   -2.649620
  C      3.841890   -6.951610   -3.632830
  H      3.458140   -5.954420   -3.407120
  H      2.988480   -7.643610   -3.567080
  S      4.318120   -6.915930   -5.368690
  O      5.406150   -5.899480   -5.512970
  O      3.111910   -6.445080   -6.043790
  F      4.763400   -8.239420   -5.698630
  H      5.279010   -8.354400   -2.903850
  H      4.530000   -7.385770   -1.657340
  H      5.744370   -6.682760   -2.698560

 Total Charge           Charge          ....    0
 Multiplicity           Mult            ....    1
 Number of Electrons    NEL             ....   58
 Basis Dimension        Dim             ....  176

ORBITAL ENERGIES
----------------

  NO   OCC          E(Eh)            E(eV)
   0   2.0000     -90.199538     -2454.4542
   1   2.0000     -25.386077      -690.7903
   2   2.0000     -19.648684      -534.6679
   3   2.0000     -19.641473      -534.4717
   4   2.0000     -10.622108      -289.0423
   5   2.0000     -10.578912      -287.8668
   6   2.0000      -8.523943      -231.9483
   7   2.0000      -6.452442      -175.5799
   8   2.0000      -6.446838      -175.4274
   9   2.0000      -6.445918      -175.4023
  10   2.0000      -1.526818       -41.5468
  11   2.0000      -1.217832       -33.1389
  12   2.0000      -1.108148       -30.1542
  13   2.0000      -0.923545       -25.1309
  14   2.0000      -0.838921       -22.8282
  15   2.0000      -0.773423       -21.0459
  16   2.0000      -0.700849       -19.0711
  17   2.0000      -0.695154       -18.9161
  18   2.0000      -0.636210       -17.3122
  19   2.0000      -0.570489       -15.5238
  20   2.0000      -0.560566       -15.2538
  21   2.0000      -0.530742       -14.4422
  22   2.0000      -0.507241       -13.8027
  23   2.0000      -0.479832       -13.0569
  24   2.0000      -0.468476       -12.7479
  25   2.0000      -0.448908       -12.2154
  26   2.0000      -0.401525       -10.9261
  27   2.0000      -0.393055       -10.6956
  28   2.0000      -0.376002       -10.2315
  29   0.0000       0.006387         0.1738
  30   0.0000       0.036643         0.9971
  31   0.0000       0.041204         1.1212
  32   0.0000       0.045404         1.2355
  33   0.0000       0.071536         1.9466

MULLIKEN ATOMIC CHARGES
-----------------------
   0 C :    0.715045
   1 C :   -0.443550
   2 H :    0.000828
   3 H :    0.055180
   4 S :    1.573067
   5 O :   -0.725757
   6 O :   -0.690760
   7 F :   -0.421141
   8 H :   -0.025272
   9 H :   -0.030644
  10 H :   -0.006995
Sum of atomic charges:   -0.0000000

LOEWDIN ATOMIC CHARGES
----------------------
   0 C :    0.133768
   1 C :   -0.090825
   2 H :    0.036654
   3 H :    0.029545
   4 S :    1.158416
   5 O :   -0.498517
   6 O :   -0.489354
   7 F :   -0.264447
   8 H :   -0.008838
   9 H :   -0.003658
  10 H :   -0.002742

  Mayer bond orders larger than 0.100000
B(  0-C ,  1-C ) :   1.3113 B(  0-C ,  8-H ) :   0.8138 B(  0-C ,  9-H ) :   0.7604
B(  0-C , 10-H ) :   0.8385 B(  1-C ,  2-H ) :   1.0200 B(  1-C ,  3-H ) :   0.9889
B(  1-C ,  4-S ) :   0.9708 B(  1-C ,  8-H ) :   0.1867 B(  1-C ,  9-H ) :   0.2028
B(  1-C , 10-H ) :   0.1877 B(  4-S ,  5-O ) :   1.4646 B(  4-S ,  6-O ) :   1.5217
B(  4-S ,  7-F ) :   0.6222

Dispersion correction           -0.000156990
FINAL SINGLE POINT ENERGY      -727.102778233974

DIPOLE MOMENT
-------------
                                X             Y             Z
Electronic contribution:      0.19378      -1.34656      -8.97644
Nuclear contribution   :     -0.31946       0.18980      10.55057
                        -----------------------------------------
Total Dipole Moment    :     -0.12568      -1.15676       1.57413
                        -----------------------------------------
Magnitude (a.u.)       :      1.95749
Magnitude (Debye)      :      4.97555

Rotational constants in cm-1:     0.151421     0.081183     0.078684
Rotational constants in MHz :  4539.489207  2433.790160  2358.892966

                             ****ORCA TERMINATED NORMALLY****
TOTAL RUN TIME: 0 days 0 hours 0 minutes 30 seconds 171 msec
