                         Program Version 5.0.0 -  RELEASE  -
|  1> !M062X D3Zero RIJCOSX def2-SVPD def2/J TightSCF xyzfile
|  2>
|  3> *xyzfile 0 1 D1.xyz
|  4>
|  5> %MaxCore 64000
|  6>
|  7> %pal nprocs 4
|  8> end
|  9>
| 10> %scf
| 11>   MaxIter 150
| 12> end
| 13>
| 14>
| 15>                          ****END OF INPUT****

CARTESIAN COORDINATES (ANGSTROEM)
---------------------------------
  C      5.558206   -1.992914   -6.215054
  C      4.930199   -7.375319   -2.649623
  C      3.841892   -6.951611   -3.632829
  H      3.458144   -5.954425   -3.407121
  H      2.988484   -7.643606   -3.567078
  S      4.318115   -6.915930   -5.368692
  C      4.181880   -2.589671   -6.298911
  C      3.145873   -1.768431   -6.486753
  N      4.019102   -3.864307   -6.227427
  H      4.768490   -4.591153   -5.990773
  H      3.122405   -4.333392   -6.314620
  H      3.281635   -0.777786   -6.566549
  H      2.212549   -2.134193   -6.562246
  F      5.406154   -5.899480   -5.512972
  O      3.111910   -6.445079   -6.043792
  C      6.419260   -2.542944   -5.077630
  C      5.872267   -5.002756   -2.427819
  C      6.173994   -6.485522   -2.606315
  H      6.734852   -6.613767   -3.534015
  H      6.821463   -6.831018   -1.793617
  H      4.469612   -7.406168   -1.655876
  H      5.230134   -8.398678   -2.885906
  C      5.896512   -2.169314   -3.694552
  H      7.428880   -2.143665   -5.208078
  H      6.505894   -3.627541   -5.175502
  C      6.807804   -2.623428   -2.551019
  H      4.894708   -2.589732   -3.557501
  H      5.778823   -1.081255   -3.635790
  C      7.111544   -4.122463   -2.520363
  H      7.751615   -2.071393   -2.614406
  H      6.345837   -2.326401   -1.604086
  H      5.362882   -4.828697   -1.471335
  H      5.174429   -4.702577   -3.211298
  H      7.778329   -4.329347   -1.677651
  H      7.673189   -4.402845   -3.417586
  O      4.763396   -8.239424   -5.698629
  H      6.036826   -2.198189   -7.176852
  H      5.467610   -0.907371   -6.127968

 Total Charge           Charge          ....    0
 Multiplicity           Mult            ....    1
 Number of Electrons    NEL             ....  136
 Basis Dimension        Dim             ....  512

ORBITAL ENERGIES
----------------

  NO   OCC          E(Eh)            E(eV)
   0   2.0000     -90.216241     -2454.9087
   1   2.0000     -25.387365      -690.8253
   2   2.0000     -19.674664      -535.3748
   3   2.0000     -19.667240      -535.1728
   4   2.0000     -14.746496      -401.2726
   5   2.0000     -10.627411      -289.1865
   6   2.0000     -10.589807      -288.1633
   7   2.0000     -10.572755      -287.6993
   8   2.0000     -10.563719      -287.4534
   9   2.0000     -10.562265      -287.4138
  10   2.0000     -10.555940      -287.2417
  11   2.0000     -10.550365      -287.0900
  12   2.0000     -10.549369      -287.0629
  13   2.0000     -10.544987      -286.9437
  14   2.0000     -10.543223      -286.8957
  15   2.0000     -10.470790      -284.9247
  16   2.0000      -8.539293      -232.3660
  17   2.0000      -6.467830      -175.9986
  18   2.0000      -6.462503      -175.8536
  19   2.0000      -6.461356      -175.8224
  20   2.0000      -1.509525       -41.0763
  21   2.0000      -1.255140       -34.1541
  22   2.0000      -1.154389       -31.4125
  23   2.0000      -1.018780       -27.7224
  24   2.0000      -0.948672       -25.8147
  25   2.0000      -0.913971       -24.8704
  26   2.0000      -0.884886       -24.0790
  27   2.0000      -0.852810       -23.2061
  28   2.0000      -0.835442       -22.7335
  29   2.0000      -0.803038       -21.8518
  30   2.0000      -0.785460       -21.3735
  31   2.0000      -0.745217       -20.2784
  32   2.0000      -0.715329       -19.4651
  33   2.0000      -0.709552       -19.3079
  34   2.0000      -0.691927       -18.8283
  35   2.0000      -0.677998       -18.4493
  36   2.0000      -0.653829       -17.7916
  37   2.0000      -0.640462       -17.4279
  38   2.0000      -0.635951       -17.3051
  39   2.0000      -0.586814       -15.9680
  40   2.0000      -0.584432       -15.9032
  41   2.0000      -0.568102       -15.4588
  42   2.0000      -0.562461       -15.3054
  43   2.0000      -0.554275       -15.0826
  44   2.0000      -0.538731       -14.6596
  45   2.0000      -0.536158       -14.5896
  46   2.0000      -0.524734       -14.2787
  47   2.0000      -0.504822       -13.7369
  48   2.0000      -0.502421       -13.6716
  49   2.0000      -0.493052       -13.4166
  50   2.0000      -0.482199       -13.1213
  51   2.0000      -0.476332       -12.9617
  52   2.0000      -0.462309       -12.5801
  53   2.0000      -0.446040       -12.1374
  54   2.0000      -0.442279       -12.0350
  55   2.0000      -0.438900       -11.9431
  56   2.0000      -0.433135       -11.7862
  57   2.0000      -0.423714       -11.5299
  58   2.0000      -0.422293       -11.4912
  59   2.0000      -0.413441       -11.2503
  60   2.0000      -0.406254       -11.0547
  61   2.0000      -0.402414       -10.9503
  62   2.0000      -0.400321       -10.8933
  63   2.0000      -0.391488       -10.6529
  64   2.0000      -0.379393       -10.3238
  65   2.0000      -0.372824       -10.1451
  66   2.0000      -0.369633       -10.0582
  67   2.0000      -0.227739        -6.1971
  68   0.0000       0.008498         0.2312
  69   0.0000       0.024308         0.6615
  70   0.0000       0.032741         0.8909
  71   0.0000       0.037815         1.0290
  72   0.0000       0.049161         1.3377

MULLIKEN ATOMIC CHARGES
-----------------------
   0 C :    0.799933
   1 C :    0.530161
   2 C :    0.022058
   3 H :    0.268806
   4 H :   -0.245700
   5 S :    1.515590
   6 C :   -0.253741
   7 C :    0.347421
   8 N :    0.946941
   9 H :   -0.394253
  10 H :   -0.293588
  11 H :   -0.308785
  12 H :   -0.350129
  13 F :   -0.667062
  14 O :   -0.730022
  15 C :    0.370981
  16 C :    0.025707
  17 C :    0.210204
  18 H :    0.050346
  19 H :   -0.338440
  20 H :    0.094057
  21 H :   -0.016660
  22 C :   -0.062420
  23 H :   -0.190996
  24 H :   -0.609519
  25 C :    0.659739
  26 H :    0.153704
  27 H :   -0.358115
  28 C :    0.144255
  29 H :    0.034470
  30 H :   -0.067672
  31 H :    0.011277
  32 H :   -0.408508
  33 H :   -0.360537
  34 H :    0.103798
  35 O :   -0.772968
  36 H :   -0.152304
  37 H :    0.291969
Sum of atomic charges:   -0.0000000

LOEWDIN ATOMIC CHARGES
----------------------
   0 C :    0.017138
   1 C :   -0.027566
   2 C :   -0.031064
   3 H :    0.019978
   4 H :    0.046366
   5 S :    1.172613
   6 C :   -0.257756
   7 C :    0.185731
   8 N :    0.182701
   9 H :   -0.065796
  10 H :   -0.017912
  11 H :   -0.097992
  12 H :   -0.091239
  13 F :   -0.288917
  14 O :   -0.464129
  15 C :   -0.029034
  16 C :   -0.034731
  17 C :   -0.028695
  18 H :    0.016441
  19 H :    0.034488
  20 H :    0.038732
  21 H :    0.032042
  22 C :   -0.029342
  23 H :    0.029702
  24 H :   -0.014385
  25 C :   -0.031152
  26 H :    0.015162
  27 H :    0.028728
  28 C :   -0.033304
  29 H :    0.024002
  30 H :    0.023283
  31 H :    0.042666
  32 H :   -0.020523
  33 H :    0.026165
  34 H :    0.017269
  35 O :   -0.447344
  36 H :    0.030735
  37 H :    0.026939

  Mayer bond orders larger than 0.100000
B(  0-C ,  6-C ) :   0.9604 B(  0-C ,  8-N ) :   0.1624 B(  0-C , 12-H ) :   0.1164
B(  0-C , 15-C ) :   1.1573 B(  0-C , 24-H ) :   0.1300 B(  0-C , 36-H ) :   0.5228
B(  0-C , 37-H ) :   0.6549 B(  1-C ,  2-C ) :   1.2339 B(  1-C ,  4-H ) :   0.1402
B(  1-C , 17-C ) :   1.2292 B(  1-C , 20-H ) :   0.7134 B(  1-C , 21-H ) :   0.6841
B(  2-C ,  3-H ) :   0.8217 B(  2-C ,  4-H ) :   0.8582 B(  2-C ,  5-S ) :   0.9947
B(  2-C , 20-H ) :   0.1699 B(  2-C , 21-H ) :   0.1061 B(  4-H ,  5-S ) :   0.1353
B(  5-S , 13-F ) :   0.5044 B(  5-S , 14-O ) :   1.4707 B(  5-S , 35-O ) :   1.4756
B(  6-C ,  7-C ) :   1.6406 B(  6-C ,  8-N ) :   1.2651 B(  6-C , 10-H ) :  -0.2143
B(  6-C , 11-H ) :   0.1488 B(  6-C , 12-H ) :   0.2849 B(  6-C , 15-C ) :   0.1063
B(  6-C , 24-H ) :  -0.1304 B(  6-C , 36-H ) :   0.2933 B(  6-C , 37-H ) :   0.1306
B(  7-C ,  8-N ) :   0.1380 B(  7-C , 10-H ) :  -0.1115 B(  7-C , 11-H ) :   0.9259
B(  7-C , 12-H ) :   0.6333 B(  8-N ,  9-H ) :   0.7314 B(  8-N , 10-H ) :   0.9375
B(  8-N , 13-F ) :  -0.1966 B(  8-N , 14-O ) :  -0.1006 B(  9-H , 10-H ) :  -0.1981
B(  9-H , 13-F ) :   0.1331 B( 10-H , 14-O ) :   0.1556 B( 13-F , 24-H ) :   0.1603
B( 15-C , 22-C ) :   1.1803 B( 15-C , 23-H ) :   0.7988 B( 15-C , 24-H ) :   0.6390
B( 15-C , 26-H ) :   0.1195 B( 15-C , 27-H ) :   0.1855 B( 15-C , 36-H ) :   0.2514
B( 15-C , 37-H ) :   0.1413 B( 16-C , 17-C ) :   1.1873 B( 16-C , 18-H ) :   0.1219
B( 16-C , 19-H ) :   0.1864 B( 16-C , 28-C ) :   1.2019 B( 16-C , 31-H ) :   0.7646
B( 16-C , 32-H ) :   1.0721 B( 16-C , 33-H ) :   0.2066 B( 16-C , 34-H ) :   0.1293
B( 17-C , 18-H ) :   0.8548 B( 17-C , 19-H ) :   0.9303 B( 17-C , 21-H ) :   0.2473
B( 17-C , 28-C ) :   0.1195 B( 18-H , 19-H ) :  -0.1250 B( 20-H , 21-H ) :  -0.1344
B( 22-C , 23-H ) :   0.1349 B( 22-C , 24-H ) :   0.2177 B( 22-C , 25-C ) :   1.0726
B( 22-C , 26-H ) :   0.8345 B( 22-C , 27-H ) :   1.0899 B( 22-C , 28-C ) :   0.1276
B( 22-C , 29-H ) :   0.1191 B( 22-C , 30-H ) :   0.2321 B( 24-H , 34-H ) :   0.1105
B( 25-C , 28-C ) :   1.1266 B( 25-C , 29-H ) :   0.6968 B( 25-C , 30-H ) :   0.7279
B( 26-H , 32-H ) :   0.1775 B( 28-C , 29-H ) :   0.2263 B( 28-C , 30-H ) :   0.1004
B( 28-C , 31-H ) :   0.1065 B( 28-C , 33-H ) :   1.0306 B( 28-C , 34-H ) :   0.8102
B( 29-H , 30-H ) :  -0.1517 B( 36-H , 37-H ) :  -0.1116

Dispersion correction           -0.002781590
FINAL SINGLE POINT ENERGY     -1134.561261399951

DIPOLE MOMENT
-------------
                                X             Y             Z
Electronic contribution:     -7.00881     -18.72561     -13.14067
Nuclear contribution   :      7.78491      18.17172      15.09294
                        -----------------------------------------
Total Dipole Moment    :      0.77610      -0.55389       1.95227
                        -----------------------------------------
Magnitude (a.u.)       :      2.17267
Magnitude (Debye)      :      5.52249

Rotational constants in cm-1:     0.018190     0.012573     0.008405
Rotational constants in MHz :   545.327178   376.916509   251.974803

                             ****ORCA TERMINATED NORMALLY****
TOTAL RUN TIME: 0 days 0 hours 4 minutes 41 seconds 238 msec
