                         Program Version 5.0.0 -  RELEASE  -
|  1> !M062X D3Zero RIJCOSX def2-SVPD def2/J TightSCF xyzfile
|  2>
|  3> *xyzfile 0 1 D2.xyz
|  4>
|  5> %MaxCore 64000
|  6>
|  7> %pal nprocs 4
|  8> end
|  9>
| 10> %scf
| 11>   MaxIter 150
| 12> end
| 13>
| 14>
| 15>                          ****END OF INPUT****

CARTESIAN COORDINATES (ANGSTROEM)
---------------------------------
  C      5.558206   -1.992914   -6.215054
  C      4.930199   -7.375319   -2.649623
  C      3.841892   -6.951611   -3.632829
  H      3.458144   -5.954425   -3.407121
  H      2.988484   -7.643606   -3.567078
  S      4.318115   -6.915930   -5.368692
  C      4.181880   -2.589671   -6.298911
  N      3.145873   -1.768431   -6.486753
  C      4.019102   -3.864307   -6.227427
  H      4.768490   -4.591153   -5.990773
  H      3.122405   -4.333392   -6.314620
  H      3.281635   -0.777786   -6.566549
  H      2.212549   -2.134193   -6.562246
  F      5.406154   -5.899480   -5.512972
  O      3.111910   -6.445079   -6.043792
  C      6.419260   -2.542944   -5.077630
  C      5.872267   -5.002756   -2.427819
  C      6.173994   -6.485522   -2.606315
  H      6.734852   -6.613767   -3.534015
  H      6.821463   -6.831018   -1.793617
  H      4.469612   -7.406168   -1.655876
  H      5.230134   -8.398678   -2.885906
  C      5.896512   -2.169314   -3.694552
  H      7.428880   -2.143665   -5.208078
  H      6.505894   -3.627541   -5.175502
  C      6.807804   -2.623428   -2.551019
  H      4.894708   -2.589732   -3.557501
  H      5.778823   -1.081255   -3.635790
  C      7.111544   -4.122463   -2.520363
  H      7.751615   -2.071393   -2.614406
  H      6.345837   -2.326401   -1.604086
  H      5.362882   -4.828697   -1.471335
  H      5.174429   -4.702577   -3.211298
  H      7.778329   -4.329347   -1.677651
  H      7.673189   -4.402845   -3.417586
  O      4.763396   -8.239424   -5.698629
  H      6.036826   -2.198189   -7.176852
  H      5.467610   -0.907371   -6.127968

 Total Charge           Charge          ....    0
 Multiplicity           Mult            ....    1
 Number of Electrons    NEL             ....  136
 Basis Dimension        Dim             ....  512

ORBITAL ENERGIES
----------------

  NO   OCC          E(Eh)            E(eV)
   0   2.0000     -90.195567     -2454.3462
   1   2.0000     -25.356895      -689.9962
   2   2.0000     -19.655317      -534.8484
   3   2.0000     -19.642801      -534.5078
   4   2.0000     -14.754205      -401.4823
   5   2.0000     -10.612074      -288.7692
   6   2.0000     -10.578505      -287.8557
   7   2.0000     -10.562942      -287.4323
   8   2.0000     -10.562729      -287.4265
   9   2.0000     -10.554928      -287.2142
  10   2.0000     -10.549945      -287.0786
  11   2.0000     -10.546790      -286.9927
  12   2.0000     -10.546701      -286.9903
  13   2.0000     -10.546011      -286.9715
  14   2.0000     -10.542172      -286.8671
  15   2.0000     -10.465489      -284.7804
  16   2.0000      -8.518168      -231.7911
  17   2.0000      -6.446595      -175.4208
  18   2.0000      -6.441473      -175.2814
  19   2.0000      -6.440478      -175.2543
  20   2.0000      -1.480682       -40.2914
  21   2.0000      -1.233606       -33.5681
  22   2.0000      -1.132187       -30.8084
  23   2.0000      -1.015484       -27.6327
  24   2.0000      -0.936329       -25.4788
  25   2.0000      -0.909009       -24.7354
  26   2.0000      -0.878323       -23.9004
  27   2.0000      -0.849911       -23.1273
  28   2.0000      -0.813484       -22.1360
  29   2.0000      -0.802213       -21.8293
  30   2.0000      -0.772963       -21.0334
  31   2.0000      -0.743353       -20.2277
  32   2.0000      -0.706843       -19.2342
  33   2.0000      -0.688178       -18.7263
  34   2.0000      -0.684773       -18.6336
  35   2.0000      -0.657443       -17.8899
  36   2.0000      -0.641612       -17.4592
  37   2.0000      -0.629295       -17.1240
  38   2.0000      -0.616872       -16.7859
  39   2.0000      -0.589805       -16.0494
  40   2.0000      -0.571147       -15.5417
  41   2.0000      -0.567746       -15.4491
  42   2.0000      -0.559305       -15.2195
  43   2.0000      -0.547058       -14.8862
  44   2.0000      -0.533577       -14.5194
  45   2.0000      -0.527510       -14.3543
  46   2.0000      -0.523650       -14.2493
  47   2.0000      -0.503962       -13.7135
  48   2.0000      -0.487913       -13.2768
  49   2.0000      -0.482123       -13.1192
  50   2.0000      -0.479245       -13.0409
  51   2.0000      -0.467439       -12.7197
  52   2.0000      -0.448933       -12.2161
  53   2.0000      -0.440077       -11.9751
  54   2.0000      -0.432389       -11.7659
  55   2.0000      -0.426670       -11.6103
  56   2.0000      -0.416699       -11.3390
  57   2.0000      -0.414197       -11.2709
  58   2.0000      -0.412049       -11.2124
  59   2.0000      -0.401676       -10.9302
  60   2.0000      -0.396301       -10.7839
  61   2.0000      -0.393514       -10.7081
  62   2.0000      -0.386796       -10.5253
  63   2.0000      -0.377693       -10.2775
  64   2.0000      -0.374174       -10.1818
  65   2.0000      -0.370872       -10.0919
  66   2.0000      -0.367595       -10.0028
  67   2.0000      -0.239125        -6.5069
  68   0.0000       0.020989         0.5711
  69   0.0000       0.032250         0.8776
  70   0.0000       0.039218         1.0672
  71   0.0000       0.042743         1.1631
  72   0.0000       0.054643         1.4869

MULLIKEN ATOMIC CHARGES
-----------------------
   0 C :    0.900283
   1 C :    0.542172
   2 C :    0.019831
   3 H :    0.274249
   4 H :   -0.253159
   5 S :    1.567152
   6 C :    0.229088
   7 N :    0.041384
   8 C :    1.422231
   9 H :   -0.474462
  10 H :   -1.114206
  11 H :   -0.126425
  12 H :   -0.179512
  13 F :   -0.644727
  14 O :   -0.724201
  15 C :    0.292410
  16 C :    0.019289
  17 C :    0.224345
  18 H :    0.047488
  19 H :   -0.335495
  20 H :    0.081872
  21 H :   -0.019153
  22 C :   -0.079751
  23 H :   -0.164394
  24 H :   -0.577267
  25 C :    0.679575
  26 H :    0.201940
  27 H :   -0.371945
  28 C :    0.153299
  29 H :    0.026787
  30 H :   -0.056378
  31 H :    0.007812
  32 H :   -0.426409
  33 H :   -0.347849
  34 H :    0.088659
  35 O :   -0.823061
  36 H :   -0.144772
  37 H :    0.043296
Sum of atomic charges:    0.0000000

LOEWDIN ATOMIC CHARGES
----------------------
   0 C :    0.016600
   1 C :   -0.029636
   2 C :   -0.032842
   3 H :    0.018772
   4 H :    0.043948
   5 S :    1.167674
   6 C :   -0.236885
   7 N :    0.172068
   8 C :    0.188949
   9 H :   -0.126017
  10 H :   -0.096905
  11 H :   -0.014311
  12 H :    0.004120
  13 F :   -0.305372
  14 O :   -0.468101
  15 C :   -0.022241
  16 C :   -0.033849
  17 C :   -0.029037
  18 H :    0.016837
  19 H :    0.032815
  20 H :    0.036401
  21 H :    0.030963
  22 C :   -0.031393
  23 H :    0.029868
  24 H :   -0.007294
  25 C :   -0.031968
  26 H :    0.013757
  27 H :    0.024211
  28 C :   -0.033240
  29 H :    0.022930
  30 H :    0.022530
  31 H :    0.041284
  32 H :   -0.018595
  33 H :    0.025427
  34 H :    0.017890
  35 O :   -0.457314
  36 H :    0.032848
  37 H :    0.015106

  Mayer bond orders larger than 0.100000
B(  0-C ,  6-C ) :   0.9136 B(  0-C ,  8-C ) :   0.1388 B(  0-C ,  9-H ) :  -0.1885
B(  0-C , 15-C ) :   1.2181 B(  0-C , 36-H ) :   0.5719 B(  0-C , 37-H ) :   0.6683
B(  1-C ,  2-C ) :   1.2184 B(  1-C ,  4-H ) :   0.1347 B(  1-C , 17-C ) :   1.2230
B(  1-C , 20-H ) :   0.7168 B(  1-C , 21-H ) :   0.6811 B(  2-C ,  3-H ) :   0.8176
B(  2-C ,  4-H ) :   0.8613 B(  2-C ,  5-S ) :   0.9887 B(  2-C , 20-H ) :   0.1720
B(  2-C , 21-H ) :   0.1096 B(  2-C , 35-O ) :   0.1013 B(  4-H ,  5-S ) :   0.1337
B(  5-S , 13-F ) :   0.5265 B(  5-S , 14-O ) :   1.4760 B(  5-S , 35-O ) :   1.4469
B(  6-C ,  7-N ) :   0.7389 B(  6-C ,  8-C ) :   1.7874 B(  6-C ,  9-H ) :  -0.1080
B(  6-C , 12-H ) :  -0.1871 B(  6-C , 36-H ) :   0.2724 B(  6-C , 37-H ) :   0.1185
B(  7-N ,  8-C ) :   0.5122 B(  7-N ,  9-H ) :   0.1058 B(  7-N , 10-H ) :  -0.1519
B(  7-N , 11-H ) :   1.1516 B(  7-N , 12-H ) :   1.3188 B(  8-C , 10-H ) :  -0.3245
B(  8-C , 14-O ) :  -0.3003 B(  8-C , 24-H ) :   0.1269 B(  9-H , 10-H ) :  -0.2719
B(  9-H , 14-O ) :   0.1402 B(  9-H , 24-H ) :   0.2268 B( 10-H , 14-O ) :   0.2813
B( 10-H , 24-H ) :  -0.1616 B( 11-H , 12-H ) :  -0.1768 B( 13-F , 24-H ) :   0.1427
B( 15-C , 22-C ) :   1.1883 B( 15-C , 23-H ) :   0.7859 B( 15-C , 24-H ) :   0.7343
B( 15-C , 26-H ) :   0.1214 B( 15-C , 27-H ) :   0.1681 B( 15-C , 36-H ) :   0.3060
B( 15-C , 37-H ) :   0.1586 B( 16-C , 17-C ) :   1.1816 B( 16-C , 18-H ) :   0.1202
B( 16-C , 19-H ) :   0.1827 B( 16-C , 28-C ) :   1.1953 B( 16-C , 31-H ) :   0.7566
B( 16-C , 32-H ) :   1.1033 B( 16-C , 33-H ) :   0.2157 B( 16-C , 34-H ) :   0.1381
B( 17-C , 18-H ) :   0.8614 B( 17-C , 19-H ) :   0.9195 B( 17-C , 21-H ) :   0.2471
B( 17-C , 28-C ) :   0.1243 B( 18-H , 19-H ) :  -0.1127 B( 20-H , 21-H ) :  -0.1359
B( 22-C , 23-H ) :   0.1500 B( 22-C , 24-H ) :   0.1858 B( 22-C , 25-C ) :   1.0786
B( 22-C , 26-H ) :   0.8182 B( 22-C , 27-H ) :   1.1382 B( 22-C , 28-C ) :   0.1386
B( 22-C , 29-H ) :   0.1373 B( 22-C , 30-H ) :   0.2491 B( 25-C , 28-C ) :   1.1193
B( 25-C , 29-H ) :   0.6705 B( 25-C , 30-H ) :   0.7090 B( 26-H , 27-H ) :  -0.1110
B( 26-H , 32-H ) :   0.1792 B( 28-C , 29-H ) :   0.2293 B( 28-C , 31-H ) :   0.1113
B( 28-C , 33-H ) :   1.0195 B( 28-C , 34-H ) :   0.8171 B( 29-H , 30-H ) :  -0.1454
B( 36-H , 37-H ) :  -0.1669

Dispersion correction           -0.002754897
FINAL SINGLE POINT ENERGY     -1134.554991704041

DIPOLE MOMENT
-------------
                                X             Y             Z
Electronic contribution:     -7.72330     -16.91678     -13.54491
Nuclear contribution   :      7.91684      17.85507      15.13212
                        -----------------------------------------
Total Dipole Moment    :      0.19355       0.93830       1.58721
                        -----------------------------------------
Magnitude (a.u.)       :      1.85394
Magnitude (Debye)      :      4.71234

Rotational constants in cm-1:     0.018015     0.012410     0.008313
Rotational constants in MHz :   540.084467   372.038374   249.228144

                             ****ORCA TERMINATED NORMALLY****
TOTAL RUN TIME: 0 days 0 hours 4 minutes 38 seconds 891 msec
