                         Program Version 5.0.0 -  RELEASE  -
|  1> !M062X D3Zero RIJCOSX def2-SVPD def2/J TightSCF xyzfile
|  2>
|  3> *xyzfile 0 1 D3.xyz
|  4>
|  5> %MaxCore 64000
|  6>
|  7> %pal nprocs 4
|  8> end
|  9>
| 10> %scf
| 11>   MaxIter 150
| 12> end
| 13>
| 14>
| 15>                          ****END OF INPUT****

CARTESIAN COORDINATES (ANGSTROEM)
---------------------------------
  C      5.558206   -1.992914   -6.215054
  C      4.930199   -7.375319   -2.649623
  C      3.841892   -6.951611   -3.632829
  H      3.458144   -5.954425   -3.407121
  H      2.988484   -7.643606   -3.567078
  S      4.318115   -6.915930   -5.368692
  C      4.181880   -2.589671   -6.298911
  C      3.145873   -1.768431   -6.486753
  N      4.019102   -3.864307   -6.227427
  H      4.768490   -4.591153   -5.990773
  H      3.122405   -4.333392   -6.314620
  H      3.281635   -0.777786   -6.566549
  H      2.212549   -2.134193   -6.562246
  O      5.406154   -5.899480   -5.512972
  F      3.111910   -6.445079   -6.043792
  C      6.419260   -2.542944   -5.077630
  C      5.872267   -5.002756   -2.427819
  C      6.173994   -6.485522   -2.606315
  H      6.734852   -6.613767   -3.534015
  H      6.821463   -6.831018   -1.793617
  H      4.469612   -7.406168   -1.655876
  H      5.230134   -8.398678   -2.885906
  C      5.896512   -2.169314   -3.694552
  H      7.428880   -2.143665   -5.208078
  H      6.505894   -3.627541   -5.175502
  C      6.807804   -2.623428   -2.551019
  H      4.894708   -2.589732   -3.557501
  H      5.778823   -1.081255   -3.635790
  C      7.111544   -4.122463   -2.520363
  H      7.751615   -2.071393   -2.614406
  H      6.345837   -2.326401   -1.604086
  H      5.362882   -4.828697   -1.471335
  H      5.174429   -4.702577   -3.211298
  H      7.778329   -4.329347   -1.677651
  H      7.673189   -4.402845   -3.417586
  O      4.763396   -8.239424   -5.698629
  H      6.036826   -2.198189   -7.176852
  H      5.467610   -0.907371   -6.127968

 Total Charge           Charge          ....    0
 Multiplicity           Mult            ....    1
 Number of Electrons    NEL             ....  136
 Basis Dimension        Dim             ....  512

ORBITAL ENERGIES
----------------

  NO   OCC          E(Eh)            E(eV)
   0   2.0000     -90.225821     -2455.1694
   1   2.0000     -25.397062      -691.0892
   2   2.0000     -19.680568      -535.5355
   3   2.0000     -19.673052      -535.3309
   4   2.0000     -14.734177      -400.9373
   5   2.0000     -10.632679      -289.3299
   6   2.0000     -10.591683      -288.2144
   7   2.0000     -10.560606      -287.3687
   8   2.0000     -10.555905      -287.2408
   9   2.0000     -10.551196      -287.1126
  10   2.0000     -10.544604      -286.9333
  11   2.0000     -10.540882      -286.8320
  12   2.0000     -10.535661      -286.6899
  13   2.0000     -10.535008      -286.6722
  14   2.0000     -10.534360      -286.6545
  15   2.0000     -10.464774      -284.7610
  16   2.0000      -8.548835      -232.6256
  17   2.0000      -6.477211      -176.2539
  18   2.0000      -6.472279      -176.1197
  19   2.0000      -6.470806      -176.0796
  20   2.0000      -1.528666       -41.5971
  21   2.0000      -1.256344       -34.1868
  22   2.0000      -1.152619       -31.3643
  23   2.0000      -1.010093       -27.4860
  24   2.0000      -0.946918       -25.7670
  25   2.0000      -0.906408       -24.6646
  26   2.0000      -0.881380       -23.9836
  27   2.0000      -0.852849       -23.2072
  28   2.0000      -0.829566       -22.5736
  29   2.0000      -0.799259       -21.7489
  30   2.0000      -0.776385       -21.1265
  31   2.0000      -0.739614       -20.1259
  32   2.0000      -0.711888       -19.3715
  33   2.0000      -0.708877       -19.2895
  34   2.0000      -0.685756       -18.6604
  35   2.0000      -0.680264       -18.5109
  36   2.0000      -0.659633       -17.9495
  37   2.0000      -0.638799       -17.3826
  38   2.0000      -0.627784       -17.0829
  39   2.0000      -0.601027       -16.3548
  40   2.0000      -0.583019       -15.8648
  41   2.0000      -0.572750       -15.5853
  42   2.0000      -0.559294       -15.2192
  43   2.0000      -0.543030       -14.7766
  44   2.0000      -0.531937       -14.4747
  45   2.0000      -0.528418       -14.3790
  46   2.0000      -0.517495       -14.0818
  47   2.0000      -0.501209       -13.6386
  48   2.0000      -0.492544       -13.4028
  49   2.0000      -0.490508       -13.3474
  50   2.0000      -0.481708       -13.1079
  51   2.0000      -0.469915       -12.7870
  52   2.0000      -0.457151       -12.4397
  53   2.0000      -0.455294       -12.3892
  54   2.0000      -0.439466       -11.9585
  55   2.0000      -0.432068       -11.7572
  56   2.0000      -0.427324       -11.6281
  57   2.0000      -0.421913       -11.4808
  58   2.0000      -0.414653       -11.2833
  59   2.0000      -0.402133       -10.9426
  60   2.0000      -0.396746       -10.7960
  61   2.0000      -0.394294       -10.7293
  62   2.0000      -0.389224       -10.5913
  63   2.0000      -0.379000       -10.3131
  64   2.0000      -0.368833       -10.0364
  65   2.0000      -0.362291        -9.8584
  66   2.0000      -0.359489        -9.7822
  67   2.0000      -0.221264        -6.0209
  68   0.0000       0.001397         0.0380
  69   0.0000       0.023976         0.6524
  70   0.0000       0.029298         0.7972
  71   0.0000       0.040327         1.0974
  72   0.0000       0.051467         1.4005

MULLIKEN ATOMIC CHARGES
-----------------------
   0 C :    0.790859
   1 C :    0.492359
   2 C :   -0.065360
   3 H :    0.280936
   4 H :   -0.194113
   5 S :    1.611168
   6 C :   -0.300724
   7 C :    0.369543
   8 N :    0.899920
   9 H :   -0.347497
  10 H :   -0.289858
  11 H :   -0.302401
  12 H :   -0.383153
  13 O :   -0.987686
  14 F :   -0.483186
  15 C :    0.419728
  16 C :   -0.016152
  17 C :    0.264552
  18 H :    0.085341
  19 H :   -0.360679
  20 H :    0.085799
  21 H :   -0.005338
  22 C :   -0.056302
  23 H :   -0.171929
  24 H :   -0.653251
  25 C :    0.663963
  26 H :    0.168361
  27 H :   -0.366272
  28 C :    0.131171
  29 H :    0.034032
  30 H :   -0.074136
  31 H :    0.006732
  32 H :   -0.348750
  33 H :   -0.365347
  34 H :    0.117793
  35 O :   -0.775567
  36 H :   -0.158028
  37 H :    0.283474
Sum of atomic charges:   -0.0000000

LOEWDIN ATOMIC CHARGES
----------------------
   0 C :    0.018465
   1 C :   -0.013572
   2 C :   -0.040767
   3 H :    0.019270
   4 H :    0.033628
   5 S :    1.207981
   6 C :   -0.259033
   7 C :    0.178034
   8 N :    0.171990
   9 H :   -0.110964
  10 H :   -0.014794
  11 H :   -0.100821
  12 H :   -0.096992
  13 O :   -0.457273
  14 F :   -0.264067
  15 C :   -0.023311
  16 C :   -0.033694
  17 C :   -0.024565
  18 H :    0.016982
  19 H :    0.032708
  20 H :    0.041211
  21 H :    0.033636
  22 C :   -0.030330
  23 H :    0.028676
  24 H :   -0.011296
  25 C :   -0.032509
  26 H :    0.014354
  27 H :    0.026518
  28 C :   -0.030895
  29 H :    0.022924
  30 H :    0.021480
  31 H :    0.038957
  32 H :   -0.019298
  33 H :    0.024445
  34 H :    0.020661
  35 O :   -0.444034
  36 H :    0.030971
  37 H :    0.025325

  Mayer bond orders larger than 0.100000
B(  0-C ,  6-C ) :   0.9588 B(  0-C ,  8-N ) :   0.1546 B(  0-C , 12-H ) :   0.1099
B(  0-C , 15-C ) :   1.1609 B(  0-C , 24-H ) :   0.1378 B(  0-C , 36-H ) :   0.5264
B(  0-C , 37-H ) :   0.6506 B(  1-C ,  2-C ) :   1.2808 B(  1-C ,  4-H ) :   0.1488
B(  1-C , 17-C ) :   1.2250 B(  1-C , 20-H ) :   0.7201 B(  1-C , 21-H ) :   0.6786
B(  2-C ,  3-H ) :   0.7683 B(  2-C ,  4-H ) :   0.9038 B(  2-C ,  5-S ) :   0.9725
B(  2-C , 20-H ) :   0.1845 B(  3-H , 17-C ) :  -0.1063 B(  5-S , 13-O ) :   1.2286
B(  5-S , 14-F ) :   0.5733 B(  5-S , 35-O ) :   1.4836 B(  6-C ,  7-C ) :   1.6519
B(  6-C ,  8-N ) :   1.3137 B(  6-C , 10-H ) :  -0.1652 B(  6-C , 11-H ) :   0.1477
B(  6-C , 12-H ) :   0.2757 B(  6-C , 15-C ) :   0.1184 B(  6-C , 24-H ) :  -0.1374
B(  6-C , 36-H ) :   0.2971 B(  6-C , 37-H ) :   0.1273 B(  7-C ,  8-N ) :   0.1302
B(  7-C , 11-H ) :   0.9003 B(  7-C , 12-H ) :   0.6399 B(  8-N ,  9-H ) :   0.7210
B(  8-N , 10-H ) :   0.8984 B(  8-N , 13-O ) :  -0.1770 B(  9-H , 10-H ) :  -0.2036
B(  9-H , 13-O ) :   0.1638 B(  9-H , 24-H ) :   0.1073 B( 10-H , 14-F ) :   0.1136
B( 13-O , 18-H ) :   0.1016 B( 13-O , 24-H ) :   0.2403 B( 13-O , 35-O ) :   0.1186
B( 15-C , 22-C ) :   1.1785 B( 15-C , 23-H ) :   0.7722 B( 15-C , 24-H ) :   0.5715
B( 15-C , 26-H ) :   0.1254 B( 15-C , 27-H ) :   0.1984 B( 15-C , 36-H ) :   0.2486
B( 15-C , 37-H ) :   0.1557 B( 16-C , 17-C ) :   1.1809 B( 16-C , 18-H ) :   0.1231
B( 16-C , 19-H ) :   0.1745 B( 16-C , 28-C ) :   1.2130 B( 16-C , 31-H ) :   0.7732
B( 16-C , 32-H ) :   1.0667 B( 16-C , 33-H ) :   0.2078 B( 16-C , 34-H ) :   0.1365
B( 17-C , 18-H ) :   0.8451 B( 17-C , 19-H ) :   0.9184 B( 17-C , 21-H ) :   0.2489
B( 17-C , 28-C ) :   0.1338 B( 20-H , 21-H ) :  -0.1391 B( 22-C , 23-H ) :   0.1378
B( 22-C , 24-H ) :   0.2264 B( 22-C , 25-C ) :   1.0701 B( 22-C , 26-H ) :   0.8219
B( 22-C , 27-H ) :   1.0946 B( 22-C , 28-C ) :   0.1264 B( 22-C , 29-H ) :   0.1206
B( 22-C , 30-H ) :   0.2335 B( 23-H , 27-H ) :   0.1111 B( 24-H , 34-H ) :   0.1243
B( 25-C , 28-C ) :   1.1258 B( 25-C , 29-H ) :   0.6951 B( 25-C , 30-H ) :   0.7223
B( 26-H , 32-H ) :   0.1743 B( 28-C , 29-H ) :   0.2240 B( 28-C , 30-H ) :   0.1027
B( 28-C , 31-H ) :   0.1087 B( 28-C , 33-H ) :   1.0304 B( 28-C , 34-H ) :   0.8017
B( 29-H , 30-H ) :  -0.1532 B( 36-H , 37-H ) :  -0.1104

Dispersion correction           -0.002752994
FINAL SINGLE POINT ENERGY     -1134.558694022075

DIPOLE MOMENT
-------------
                                X             Y             Z
Electronic contribution:    -10.99348     -20.00270     -14.16001
Nuclear contribution   :     10.48431      18.81367      15.71750
                        -----------------------------------------
Total Dipole Moment    :     -0.50916      -1.18903       1.55749
                        -----------------------------------------
Magnitude (a.u.)       :      2.02455
Magnitude (Debye)      :      5.14599

Rotational constants in cm-1:     0.017977     0.012528     0.008321
Rotational constants in MHz :   538.924099   375.570730   249.458530

                             ****ORCA TERMINATED NORMALLY****
TOTAL RUN TIME: 0 days 0 hours 5 minutes 10 seconds 549 msec
