                         Program Version 5.0.0 -  RELEASE  -
|  1> !M062X D3Zero RIJCOSX def2-SVPD def2/J TightSCF xyzfile
|  2>
|  3> *xyzfile 0 1 D6.xyz
|  4>
|  5> %MaxCore 64000
|  6>
|  7> %pal nprocs 4
|  8> end
|  9>
| 10> %scf
| 11>   MaxIter 150
| 12> end
| 13>
| 14>
| 15>                          ****END OF INPUT****

CARTESIAN COORDINATES (ANGSTROEM)
---------------------------------
  C      5.558206   -1.992914   -6.215054
  C      4.930199   -7.375319   -2.649623
  C      3.841892   -6.951611   -3.632829
  H      3.458144   -5.954425   -3.407121
  H      2.988484   -7.643606   -3.567078
  S      4.318115   -6.915930   -5.368692
  C      4.181880   -2.589671   -6.298911
  N      3.145873   -1.768431   -6.486753
  C      4.019102   -3.864307   -6.227427
  H      4.768490   -4.591153   -5.990773
  H      3.122405   -4.333392   -6.314620
  H      3.281635   -0.777786   -6.566549
  H      2.212549   -2.134193   -6.562246
  O      5.406154   -5.899480   -5.512972
  O      3.111910   -6.445079   -6.043792
  C      6.419260   -2.542944   -5.077630
  C      5.872267   -5.002756   -2.427819
  C      6.173994   -6.485522   -2.606315
  H      6.734852   -6.613767   -3.534015
  H      6.821463   -6.831018   -1.793617
  H      4.469612   -7.406168   -1.655876
  H      5.230134   -8.398678   -2.885906
  C      5.896512   -2.169314   -3.694552
  H      7.428880   -2.143665   -5.208078
  H      6.505894   -3.627541   -5.175502
  C      6.807804   -2.623428   -2.551019
  H      4.894708   -2.589732   -3.557501
  H      5.778823   -1.081255   -3.635790
  C      7.111544   -4.122463   -2.520363
  H      7.751615   -2.071393   -2.614406
  H      6.345837   -2.326401   -1.604086
  H      5.362882   -4.828697   -1.471335
  H      5.174429   -4.702577   -3.211298
  H      7.778329   -4.329347   -1.677651
  H      7.673189   -4.402845   -3.417586
  F      4.763396   -8.239424   -5.698629
  H      6.036826   -2.198189   -7.176852
  H      5.467610   -0.907371   -6.127968

 Total Charge           Charge          ....    0
 Multiplicity           Mult            ....    1
 Number of Electrons    NEL             ....  136
 Basis Dimension        Dim             ....  512

ORBITAL ENERGIES
----------------

  NO   OCC          E(Eh)            E(eV)
   0   2.0000     -90.205454     -2454.6152
   1   2.0000     -25.387785      -690.8368
   2   2.0000     -19.651122      -534.7342
   3   2.0000     -19.646578      -534.6106
   4   2.0000     -14.737278      -401.0217
   5   2.0000     -10.617815      -288.9254
   6   2.0000     -10.582526      -287.9652
   7   2.0000     -10.554262      -287.1961
   8   2.0000     -10.543278      -286.8972
   9   2.0000     -10.541454      -286.8476
  10   2.0000     -10.538593      -286.7697
  11   2.0000     -10.535608      -286.6885
  12   2.0000     -10.529942      -286.5343
  13   2.0000     -10.528607      -286.4980
  14   2.0000     -10.527919      -286.4793
  15   2.0000     -10.438865      -284.0560
  16   2.0000      -8.528137      -232.0624
  17   2.0000      -6.456767      -175.6976
  18   2.0000      -6.451289      -175.5485
  19   2.0000      -6.450250      -175.5202
  20   2.0000      -1.527714       -41.5712
  21   2.0000      -1.225118       -33.3372
  22   2.0000      -1.118209       -30.4280
  23   2.0000      -0.998047       -27.1582
  24   2.0000      -0.936718       -25.4894
  25   2.0000      -0.899423       -24.4746
  26   2.0000      -0.870437       -23.6858
  27   2.0000      -0.848151       -23.0794
  28   2.0000      -0.819679       -22.3046
  29   2.0000      -0.791569       -21.5397
  30   2.0000      -0.764862       -20.8129
  31   2.0000      -0.732350       -19.9283
  32   2.0000      -0.707543       -19.2532
  33   2.0000      -0.699610       -19.0374
  34   2.0000      -0.689039       -18.7497
  35   2.0000      -0.666355       -18.1324
  36   2.0000      -0.637484       -17.3468
  37   2.0000      -0.626843       -17.0573
  38   2.0000      -0.605578       -16.4786
  39   2.0000      -0.578097       -15.7308
  40   2.0000      -0.574098       -15.6220
  41   2.0000      -0.565133       -15.3780
  42   2.0000      -0.547075       -14.8867
  43   2.0000      -0.543088       -14.7782
  44   2.0000      -0.535740       -14.5782
  45   2.0000      -0.520221       -14.1559
  46   2.0000      -0.515329       -14.0228
  47   2.0000      -0.489397       -13.3172
  48   2.0000      -0.486097       -13.2274
  49   2.0000      -0.479967       -13.0606
  50   2.0000      -0.479144       -13.0382
  51   2.0000      -0.457220       -12.4416
  52   2.0000      -0.440786       -11.9944
  53   2.0000      -0.433614       -11.7992
  54   2.0000      -0.421679       -11.4745
  55   2.0000      -0.416771       -11.3409
  56   2.0000      -0.410843       -11.1796
  57   2.0000      -0.404205       -10.9990
  58   2.0000      -0.398208       -10.8358
  59   2.0000      -0.393459       -10.7066
  60   2.0000      -0.386451       -10.5159
  61   2.0000      -0.380911       -10.3651
  62   2.0000      -0.377247       -10.2654
  63   2.0000      -0.364124        -9.9083
  64   2.0000      -0.359264        -9.7761
  65   2.0000      -0.353926        -9.6308
  66   2.0000      -0.332611        -9.0508
  67   2.0000      -0.218750        -5.9525
  68   0.0000       0.007988         0.2174
  69   0.0000       0.031767         0.8644
  70   0.0000       0.039920         1.0863
  71   0.0000       0.045502         1.2382
  72   0.0000       0.052974         1.4415

MULLIKEN ATOMIC CHARGES
-----------------------
   0 C :    0.906722
   1 C :    0.535208
   2 C :   -0.037924
   3 H :    0.272445
   4 H :   -0.218831
   5 S :    1.675147
   6 C :    0.201755
   7 N :    0.046990
   8 C :    1.321902
   9 H :   -0.334901
  10 H :   -1.192449
  11 H :   -0.131619
  12 H :   -0.184744
  13 O :   -0.921911
  14 O :   -0.748496
  15 C :    0.342935
  16 C :   -0.019333
  17 C :    0.296224
  18 H :    0.090020
  19 H :   -0.357280
  20 H :    0.061636
  21 H :   -0.025442
  22 C :   -0.069353
  23 H :   -0.143162
  24 H :   -0.630253
  25 C :    0.681535
  26 H :    0.211979
  27 H :   -0.376384
  28 C :    0.134646
  29 H :    0.024051
  30 H :   -0.062012
  31 H :    0.015613
  32 H :   -0.391205
  33 H :   -0.348688
  34 H :    0.100517
  35 F :   -0.606860
  36 H :   -0.158776
  37 H :    0.040300
Sum of atomic charges:    0.0000000

LOEWDIN ATOMIC CHARGES
----------------------
   0 C :    0.014865
   1 C :   -0.031891
   2 C :   -0.032266
   3 H :    0.031737
   4 H :    0.031852
   5 S :    1.213296
   6 C :   -0.241947
   7 N :    0.163463
   8 C :    0.190166
   9 H :   -0.160102
  10 H :   -0.098225
  11 H :   -0.019424
  12 H :   -0.000644
  13 O :   -0.477984
  14 O :   -0.466103
  15 C :   -0.018294
  16 C :   -0.030946
  17 C :   -0.030291
  18 H :    0.011546
  19 H :    0.030077
  20 H :    0.036446
  21 H :    0.025541
  22 C :   -0.031792
  23 H :    0.027690
  24 H :   -0.005380
  25 C :   -0.033678
  26 H :    0.013585
  27 H :    0.022216
  28 C :   -0.031374
  29 H :    0.021604
  30 H :    0.020525
  31 H :    0.038370
  32 H :   -0.015569
  33 H :    0.023137
  34 H :    0.020671
  35 F :   -0.253901
  36 H :    0.031072
  37 H :    0.011953

  Mayer bond orders larger than 0.100000
B(  0-C ,  6-C ) :   0.9079 B(  0-C ,  8-C ) :   0.1431 B(  0-C ,  9-H ) :  -0.1708
B(  0-C , 15-C ) :   1.2083 B(  0-C , 36-H ) :   0.5589 B(  0-C , 37-H ) :   0.6713
B(  1-C ,  2-C ) :   1.2172 B(  1-C ,  4-H ) :   0.1272 B(  1-C , 17-C ) :   1.2192
B(  1-C , 20-H ) :   0.7321 B(  1-C , 21-H ) :   0.6611 B(  2-C ,  3-H ) :   0.7968
B(  2-C ,  4-H ) :   0.9022 B(  2-C ,  5-S ) :   0.9784 B(  2-C , 20-H ) :   0.1660
B(  2-C , 35-F ) :   0.1276 B(  3-H , 17-C ) :  -0.1029 B(  4-H ,  5-S ) :   0.1185
B(  5-S , 13-O ) :   1.2508 B(  5-S , 14-O ) :   1.4358 B(  5-S , 35-F ) :   0.4598
B(  6-C ,  7-N ) :   0.7314 B(  6-C ,  8-C ) :   1.8716 B(  6-C ,  9-H ) :  -0.1828
B(  6-C , 10-H ) :   0.1299 B(  6-C , 12-H ) :  -0.1812 B(  6-C , 36-H ) :   0.2941
B(  6-C , 37-H ) :   0.1138 B(  7-N ,  8-C ) :   0.5226 B(  7-N ,  9-H ) :   0.1153
B(  7-N , 10-H ) :  -0.1581 B(  7-N , 11-H ) :   1.1564 B(  7-N , 12-H ) :   1.3165
B(  8-C ,  9-H ) :   0.2836 B(  8-C , 10-H ) :  -0.4420 B(  8-C , 14-O ) :  -0.2386
B(  8-C , 24-H ) :   0.1616 B(  9-H , 10-H ) :  -0.3227 B(  9-H , 14-O ) :   0.1021
B(  9-H , 24-H ) :   0.2153 B( 10-H , 14-O ) :   0.3286 B( 10-H , 24-H ) :  -0.1790
B( 11-H , 12-H ) :  -0.1754 B( 13-O , 14-O ) :   0.1205 B( 13-O , 24-H ) :   0.1990
B( 15-C , 22-C ) :   1.1853 B( 15-C , 23-H ) :   0.7594 B( 15-C , 24-H ) :   0.6679
B( 15-C , 26-H ) :   0.1232 B( 15-C , 27-H ) :   0.1863 B( 15-C , 36-H ) :   0.3093
B( 15-C , 37-H ) :   0.1713 B( 16-C , 17-C ) :   1.1831 B( 16-C , 18-H ) :   0.1263
B( 16-C , 19-H ) :   0.1580 B( 16-C , 28-C ) :   1.2103 B( 16-C , 31-H ) :   0.7524
B( 16-C , 32-H ) :   1.0905 B( 16-C , 33-H ) :   0.2159 B( 16-C , 34-H ) :   0.1460
B( 17-C , 18-H ) :   0.8444 B( 17-C , 19-H ) :   0.9050 B( 17-C , 21-H ) :   0.2535
B( 17-C , 28-C ) :   0.1380 B( 20-H , 21-H ) :  -0.1435 B( 22-C , 23-H ) :   0.1502
B( 22-C , 24-H ) :   0.1908 B( 22-C , 25-C ) :   1.0749 B( 22-C , 26-H ) :   0.8115
B( 22-C , 27-H ) :   1.1397 B( 22-C , 28-C ) :   0.1382 B( 22-C , 29-H ) :   0.1397
B( 22-C , 30-H ) :   0.2481 B( 24-H , 34-H ) :   0.1139 B( 25-C , 28-C ) :   1.1184
B( 25-C , 29-H ) :   0.6690 B( 25-C , 30-H ) :   0.7060 B( 26-H , 27-H ) :  -0.1217
B( 26-H , 32-H ) :   0.1816 B( 28-C , 29-H ) :   0.2269 B( 28-C , 31-H ) :   0.1124
B( 28-C , 33-H ) :   1.0196 B( 28-C , 34-H ) :   0.8092 B( 29-H , 30-H ) :  -0.1459
B( 36-H , 37-H ) :  -0.1700

Dispersion correction           -0.002742820
FINAL SINGLE POINT ENERGY     -1134.532778861075

DIPOLE MOMENT
-------------
                                X             Y             Z
Electronic contribution:     -8.83545     -21.50366     -13.97338
Nuclear contribution   :      8.67311      20.60825      15.35056
                        -----------------------------------------
Total Dipole Moment    :     -0.16235      -0.89542       1.37718
                        -----------------------------------------
Magnitude (a.u.)       :      1.65068
Magnitude (Debye)      :      4.19571

Rotational constants in cm-1:     0.017976     0.012151     0.008188
Rotational constants in MHz :   538.898457   364.286417   245.482451

                             ****ORCA TERMINATED NORMALLY****
TOTAL RUN TIME: 0 days 0 hours 4 minutes 26 seconds 499 msec
