                         Program Version 5.0.0 -  RELEASE  -
|  1> !CAM-B3LYP RIJCOSX def2-SVPD def2/J TightSCF
|  2> *xyz -1 1
|  3> C         -0.72184       -0.99951       -3.43931
|  4> C          0.28725       -1.71177       -2.52740
|  5> H          1.13178       -2.06738       -3.15940
|  6> H         -0.20414       -2.63733       -2.17048
|  7> O          0.71050       -0.92751       -1.48177
|  8> H         -1.01315       -1.65739       -4.23129
|  9> H         -0.27123       -0.12142       -3.85259
| 10> H         -1.58442       -0.72333       -2.86958
| 11> *
| 12> %MaxCore 64000
| 13>
| 14> %pal nprocs 4
| 15> end
| 16>
| 17> %scf
| 18>   MaxIter 150
| 19> end
| 20>
| 21>
| 22>                          ****END OF INPUT****

CARTESIAN COORDINATES (ANGSTROEM)
---------------------------------
  C     -0.721840   -0.999510   -3.439310
  C      0.287250   -1.711770   -2.527400
  H      1.131780   -2.067380   -3.159400
  H     -0.204140   -2.637330   -2.170480
  O      0.710500   -0.927510   -1.481770
  H     -1.013150   -1.657390   -4.231290
  H     -0.271230   -0.121420   -3.852590
  H     -1.584420   -0.723330   -2.869580

 Total Charge           Charge          ....   -1
 Multiplicity           Mult            ....    1
 Number of Electrons    NEL             ....   26
 Basis Dimension        Dim             ....  103

ORBITAL ENERGIES
----------------

  NO   OCC          E(Eh)            E(eV)
   0   2.0000     -18.878494      -513.7099
   1   2.0000     -10.073261      -274.1074
   2   2.0000     -10.051116      -273.5048
   3   2.0000      -0.747842       -20.3498
   4   2.0000      -0.600778       -16.3480
   5   2.0000      -0.443394       -12.0654
   6   2.0000      -0.321841        -8.7577
   7   2.0000      -0.297580        -8.0976
   8   2.0000      -0.242072        -6.5871
   9   2.0000      -0.223372        -6.0783
  10   2.0000      -0.176158        -4.7935
  11   2.0000      -0.031986        -0.8704
  12   2.0000      -0.029717        -0.8086
  13   0.0000       0.207290         5.6406
  14   0.0000       0.238756         6.4969
  15   0.0000       0.275397         7.4939
  16   0.0000       0.288000         7.8369
  17   0.0000       0.305423         8.3110

MULLIKEN ATOMIC CHARGES
-----------------------
   0 C :    0.500175
   1 C :    0.244510
   2 H :   -0.211345
   3 H :   -0.219258
   4 O :   -0.888679
   5 H :   -0.122155
   6 H :   -0.154676
   7 H :   -0.148571
Sum of atomic charges:   -1.0000000

LOEWDIN ATOMIC CHARGES
----------------------
   0 C :    0.063125
   1 C :   -0.261658
   2 H :   -0.030721
   3 H :   -0.034411
   4 O :   -0.592068
   5 H :   -0.059425
   6 H :   -0.042845
   7 H :   -0.041997

  Mayer bond orders larger than 0.100000
B(  0-C ,  1-C ) :   1.1643 B(  0-C ,  2-H ) :   0.1232 B(  0-C ,  3-H ) :   0.1335
B(  0-C ,  4-O ) :   0.1283 B(  0-C ,  5-H ) :   0.8663 B(  0-C ,  6-H ) :   0.8722
B(  0-C ,  7-H ) :   0.8671 B(  1-C ,  2-H ) :   0.9619 B(  1-C ,  3-H ) :   0.9527
B(  1-C ,  4-O ) :   1.1755 B(  1-C ,  5-H ) :   0.1412 B(  1-C ,  6-H ) :   0.1924
B(  1-C ,  7-H ) :   0.1928

FINAL SINGLE POINT ENERGY      -154.246420274953

DIPOLE MOMENT
-------------
                                X             Y             Z
Electronic contribution:      1.39595       0.64576       2.23928
Nuclear contribution   :     -2.24828      -1.06600      -3.62481
                        -----------------------------------------
Total Dipole Moment    :     -0.85232      -0.42023      -1.38553
                        -----------------------------------------
Magnitude (a.u.)       :      1.68010
Magnitude (Debye)      :      4.27047

Rotational constants in cm-1:     1.278116     0.325414     0.286672
Rotational constants in MHz : 38316.964654  9755.653004  8594.216906

                             ****ORCA TERMINATED NORMALLY****
TOTAL RUN TIME: 0 days 0 hours 0 minutes 12 seconds 496 msec
