                         Program Version 5.0.0 -  RELEASE  -
|  1> !CAM-B3LYP RIJCOSX def2-SVPD def2/J TightSCF
|  2> *xyz 1 1
|  3> C          3.48828        1.60092       -1.52204
|  4> C          4.34297        1.31342       -2.75683
|  5> N          2.81029        0.42878       -1.01420
|  6> H          2.71455        2.33145       -1.76030
|  7> H          4.09099        2.06315       -0.73338
|  8> C          3.29098       -0.41802       -0.12908
|  9> N          2.51754       -1.43202        0.23936
| 10> N          4.53549       -0.28441        0.39580
| 11> H          5.04363        0.57189        0.22290
| 12> H          4.72335       -0.73327        1.28180
| 13> H          1.93479        0.10230       -1.40379
| 14> H          1.67464       -1.50562       -0.31610
| 15> H          2.92850       -2.21850        0.72549
| 16> H          3.73575        0.86277       -3.51385
| 17> H          5.13754        0.64699       -2.49333
| 18> H          4.75374        2.22930       -3.12740
| 19> *
| 20> %MaxCore 64000
| 21>
| 22> %pal nprocs 4
| 23> end
| 24>
| 25> %scf
| 26>   MaxIter 150
| 27> end
| 28>
| 29>
| 30>                          ****END OF INPUT****

CARTESIAN COORDINATES (ANGSTROEM)
---------------------------------
  C      3.488280    1.600920   -1.522040
  C      4.342970    1.313420   -2.756830
  N      2.810290    0.428780   -1.014200
  H      2.714550    2.331450   -1.760300
  H      4.090990    2.063150   -0.733380
  C      3.290980   -0.418020   -0.129080
  N      2.517540   -1.432020    0.239360
  N      4.535490   -0.284410    0.395800
  H      5.043630    0.571890    0.222900
  H      4.723350   -0.733270    1.281800
  H      1.934790    0.102300   -1.403790
  H      1.674640   -1.505620   -0.316100
  H      2.928500   -2.218500    0.725490
  H      3.735750    0.862770   -3.513850
  H      5.137540    0.646990   -2.493330
  H      4.753740    2.229300   -3.127400

 Total Charge           Charge          ....    1
 Multiplicity           Mult            ....    1
 Number of Electrons    NEL             ....   48
 Basis Dimension        Dim             ....  200

ORBITAL ENERGIES
----------------

  NO   OCC          E(Eh)            E(eV)
   0   2.0000     -14.635288      -398.2464
   1   2.0000     -14.631045      -398.1310
   2   2.0000     -14.628850      -398.0713
   3   2.0000     -10.599477      -288.4264
   4   2.0000     -10.470131      -284.9068
   5   2.0000     -10.396080      -282.8917
   6   2.0000      -1.299110       -35.3506
   7   2.0000      -1.184064       -32.2200
   8   2.0000      -1.169804       -31.8320
   9   2.0000      -1.011413       -27.5219
  10   2.0000      -0.913176       -24.8488
  11   2.0000      -0.883687       -24.0463
  12   2.0000      -0.856946       -23.3187
  13   2.0000      -0.821517       -22.3546
  14   2.0000      -0.765591       -20.8328
  15   2.0000      -0.754963       -20.5436
  16   2.0000      -0.727092       -19.7852
  17   2.0000      -0.714421       -19.4404
  18   2.0000      -0.674149       -18.3445
  19   2.0000      -0.631852       -17.1936
  20   2.0000      -0.601148       -16.3581
  21   2.0000      -0.580752       -15.8031
  22   2.0000      -0.546759       -14.8781
  23   2.0000      -0.518054       -14.0970
  24   0.0000      -0.128615        -3.4998
  25   0.0000      -0.121106        -3.2955
  26   0.0000      -0.090400        -2.4599
  27   0.0000      -0.077723        -2.1150
  28   0.0000      -0.047925        -1.3041

MULLIKEN ATOMIC CHARGES
-----------------------
   0 C :    0.406027
   1 C :    0.860173
   2 N :   -0.314331
   3 H :   -0.338600
   4 H :   -0.138982
   5 C :    1.125572
   6 N :    0.121679
   7 N :    0.104634
   8 H :   -0.065099
   9 H :   -0.156277
  10 H :   -0.248783
  11 H :   -0.006574
  12 H :   -0.098057
  13 H :   -0.109343
  14 H :   -0.115951
  15 H :   -0.026089
Sum of atomic charges:    1.0000000

LOEWDIN ATOMIC CHARGES
----------------------
   0 C :    0.039873
   1 C :    0.163385
   2 N :    0.044426
   3 H :    0.042558
   4 H :    0.028814
   5 C :   -0.034871
   6 N :    0.266715
   7 N :    0.285246
   8 H :    0.008389
   9 H :    0.034931
  10 H :    0.059304
  11 H :    0.033072
  12 H :    0.045624
  13 H :   -0.005513
  14 H :   -0.014984
  15 H :    0.003031

  Mayer bond orders larger than 0.100000
B(  0-C ,  1-C ) :   1.2416 B(  0-C ,  2-N ) :   0.9886 B(  0-C ,  3-H ) :   0.8732
B(  0-C ,  4-H ) :   0.8355 B(  0-C , 10-H ) :  -0.2103 B(  0-C , 13-H ) :   0.2613
B(  0-C , 14-H ) :   0.2103 B(  0-C , 15-H ) :   0.1733 B(  1-C , 13-H ) :   0.7550
B(  1-C , 14-H ) :   0.7888 B(  1-C , 15-H ) :   0.7760 B(  2-N ,  3-H ) :   0.1822
B(  2-N ,  4-H ) :   0.1510 B(  2-N ,  5-C ) :   1.0621 B(  2-N ,  6-N ) :   0.2405
B(  2-N ,  7-N ) :   0.1891 B(  2-N , 10-H ) :   1.3132 B(  5-C ,  6-N ) :   0.9816
B(  5-C ,  7-N ) :   0.9717 B(  5-C ,  8-H ) :  -0.1094 B(  5-C ,  9-H ) :  -0.1341
B(  5-C , 10-H ) :  -0.2729 B(  6-N ,  7-N ) :   0.1315 B(  6-N , 11-H ) :   1.0699
B(  6-N , 12-H ) :   1.1828 B(  7-N ,  8-H ) :   1.0478 B(  7-N ,  9-H ) :   1.2463
B(  8-H ,  9-H ) :  -0.1671 B( 11-H , 12-H ) :  -0.1448

FINAL SINGLE POINT ENERGY      -284.062540799365

DIPOLE MOMENT
-------------
                                X             Y             Z
Electronic contribution:     -1.93201      -3.00445       3.74159
Nuclear contribution   :      1.59382       2.33278      -3.02574
                        -----------------------------------------
Total Dipole Moment    :     -0.33819      -0.67167       0.71585
                        -----------------------------------------
Magnitude (a.u.)       :      1.03825
Magnitude (Debye)      :      2.63902

Rotational constants in cm-1:     0.232230     0.073139     0.063030
Rotational constants in MHz :  6962.079716  2192.649203  1889.578947

                             ****ORCA TERMINATED NORMALLY****
TOTAL RUN TIME: 0 days 0 hours 0 minutes 42 seconds 581 msec
