                         Program Version 5.0.0 -  RELEASE  -
|  1> !CAM-B3LYP RIJCOSX def2-SVPD def2/J TightSCF
|  2> *xyz 0 1
|  3> C         -0.72184       -0.99951       -3.43931
|  4> C          0.28725       -1.71177       -2.52740
|  5> H          1.13178       -2.06738       -3.15940
|  6> H         -0.20414       -2.63733       -2.17048
|  7> F          0.71050       -0.92751       -1.48177
|  8> H         -1.01315       -1.65739       -4.23129
|  9> H         -0.27123       -0.12142       -3.85259
| 10> H         -1.58442       -0.72333       -2.86958
| 11> *
| 12> %MaxCore 64000
| 13>
| 14> %pal nprocs 4
| 15> end
| 16>
| 17> %scf
| 18>   MaxIter 150
| 19> end
| 20>
| 21>
| 22>                          ****END OF INPUT****

CARTESIAN COORDINATES (ANGSTROEM)
---------------------------------
  C     -0.721840   -0.999510   -3.439310
  C      0.287250   -1.711770   -2.527400
  H      1.131780   -2.067380   -3.159400
  H     -0.204140   -2.637330   -2.170480
  F      0.710500   -0.927510   -1.481770
  H     -1.013150   -1.657390   -4.231290
  H     -0.271230   -0.121420   -3.852590
  H     -1.584420   -0.723330   -2.869580

 Total Charge           Charge          ....    0
 Multiplicity           Mult            ....    1
 Number of Electrons    NEL             ....   26
 Basis Dimension        Dim             ....  103

ORBITAL ENERGIES
----------------

  NO   OCC          E(Eh)            E(eV)
   0   2.0000     -24.762342      -673.8176
   1   2.0000     -10.341951      -281.4188
   2   2.0000     -10.257314      -279.1157
   3   2.0000      -1.264917       -34.4201
   4   2.0000      -0.843102       -22.9420
   5   2.0000      -0.706329       -19.2202
   6   2.0000      -0.583838       -15.8870
   7   2.0000      -0.572251       -15.5717
   8   2.0000      -0.533712       -14.5230
   9   2.0000      -0.477733       -12.9998
  10   2.0000      -0.471330       -12.8255
  11   2.0000      -0.408399       -11.1131
  12   2.0000      -0.400813       -10.9067
  13   0.0000       0.051438         1.3997
  14   0.0000       0.082343         2.2407
  15   0.0000       0.109566         2.9814
  16   0.0000       0.114271         3.1095
  17   0.0000       0.142077         3.8661

MULLIKEN ATOMIC CHARGES
-----------------------
   0 C :    0.534738
   1 C :    0.518885
   2 H :   -0.121894
   3 H :   -0.132233
   4 F :   -0.438796
   5 H :   -0.103474
   6 H :   -0.132004
   7 H :   -0.125221
Sum of atomic charges:    0.0000000

LOEWDIN ATOMIC CHARGES
----------------------
   0 C :    0.136456
   1 C :    0.061105
   2 H :    0.033593
   3 H :    0.029079
   4 F :   -0.218396
   5 H :   -0.013041
   6 H :   -0.014725
   7 H :   -0.014071

  Mayer bond orders larger than 0.100000
B(  0-C ,  1-C ) :   1.3165 B(  0-C ,  5-H ) :   0.8292 B(  0-C ,  6-H ) :   0.8597
B(  0-C ,  7-H ) :   0.8555 B(  1-C ,  2-H ) :   0.9249 B(  1-C ,  3-H ) :   0.9199
B(  1-C ,  4-F ) :   0.7681 B(  1-C ,  5-H ) :   0.1323 B(  1-C ,  6-H ) :   0.1524
B(  1-C ,  7-H ) :   0.1543

FINAL SINGLE POINT ENERGY      -178.862523667806

DIPOLE MOMENT
-------------
                                X             Y             Z
Electronic contribution:      2.68532       1.02237       4.18630
Nuclear contribution   :     -2.97459      -1.40206      -4.79987
                        -----------------------------------------
Total Dipole Moment    :     -0.28927      -0.37969      -0.61357
                        -----------------------------------------
Magnitude (a.u.)       :      0.77737
Magnitude (Debye)      :      1.97593

Rotational constants in cm-1:     1.257024     0.302702     0.267953
Rotational constants in MHz : 37684.643733  9074.792567  8033.038070

                             ****ORCA TERMINATED NORMALLY****
TOTAL RUN TIME: 0 days 0 hours 0 minutes 12 seconds 6 msec
