                         Program Version 5.0.0 -  RELEASE  -
|  1> !CAM-B3LYP RIJCOSX def2-SVPD def2/J TightSCF
|  2> *xyz 0 1
|  3> C          3.48828        1.60092       -1.52204
|  4> C          4.34297        1.31342       -2.75683
|  5> C          2.81029        0.42878       -1.01420
|  6> H          2.71455        2.33145       -1.76030
|  7> H          4.09099        2.06315       -0.73338
|  8> C          3.29098       -0.41802       -0.12908
|  9> N          2.51754       -1.43202        0.23936
| 10> N          4.53549       -0.28441        0.39580
| 11> H          5.04363        0.57189        0.22290
| 12> H          4.72335       -0.73327        1.28180
| 13> H          1.93479        0.10230       -1.40379
| 14> H          1.67464       -1.50562       -0.31610
| 15> H          2.92850       -2.21850        0.72549
| 16> H          3.73575        0.86277       -3.51385
| 17> H          5.13754        0.64699       -2.49333
| 18> H          4.75374        2.22930       -3.12740
| 19> *
| 20> %MaxCore 64000
| 21>
| 22> %pal nprocs 4
| 23> end
| 24>
| 25> %scf
| 26>   MaxIter 150
| 27> end
| 28>
| 29>
| 30>                          ****END OF INPUT****

CARTESIAN COORDINATES (ANGSTROEM)
---------------------------------
  C      3.488280    1.600920   -1.522040
  C      4.342970    1.313420   -2.756830
  C      2.810290    0.428780   -1.014200
  H      2.714550    2.331450   -1.760300
  H      4.090990    2.063150   -0.733380
  C      3.290980   -0.418020   -0.129080
  N      2.517540   -1.432020    0.239360
  N      4.535490   -0.284410    0.395800
  H      5.043630    0.571890    0.222900
  H      4.723350   -0.733270    1.281800
  H      1.934790    0.102300   -1.403790
  H      1.674640   -1.505620   -0.316100
  H      2.928500   -2.218500    0.725490
  H      3.735750    0.862770   -3.513850
  H      5.137540    0.646990   -2.493330
  H      4.753740    2.229300   -3.127400

 Total Charge           Charge          ....    0
 Multiplicity           Mult            ....    1
 Number of Electrons    NEL             ....   48
 Basis Dimension        Dim             ....  200

ORBITAL ENERGIES
----------------

  NO   OCC          E(Eh)            E(eV)
   0   2.0000     -14.406522      -392.0214
   1   2.0000     -14.401628      -391.8882
   2   2.0000     -10.301073      -280.3064
   3   2.0000     -10.235955      -278.5345
   4   2.0000     -10.225100      -278.2391
   5   2.0000     -10.182829      -277.0889
   6   2.0000      -1.035551       -28.1788
   7   2.0000      -0.944460       -25.7001
   8   2.0000      -0.852951       -23.2100
   9   2.0000      -0.771060       -20.9816
  10   2.0000      -0.687900       -18.7187
  11   2.0000      -0.653827       -17.7915
  12   2.0000      -0.610653       -16.6167
  13   2.0000      -0.581815       -15.8320
  14   2.0000      -0.536528       -14.5997
  15   2.0000      -0.510208       -13.8835
  16   2.0000      -0.489170       -13.3110
  17   2.0000      -0.468870       -12.7586
  18   2.0000      -0.451238       -12.2788
  19   2.0000      -0.421156       -11.4602
  20   2.0000      -0.399791       -10.8789
  21   2.0000      -0.386526       -10.5179
  22   2.0000      -0.332832        -9.0568
  23   2.0000      -0.221917        -6.0387
  24   0.0000       0.047285         1.2867
  25   0.0000       0.072240         1.9657
  26   0.0000       0.079850         2.1728
  27   0.0000       0.091987         2.5031
  28   0.0000       0.109647         2.9837

MULLIKEN ATOMIC CHARGES
-----------------------
   0 C :   -0.001899
   1 C :    0.826483
   2 C :   -0.244784
   3 H :   -0.112743
   4 H :   -0.118730
   5 C :    0.607869
   6 N :    0.106158
   7 N :    0.082072
   8 H :   -0.047713
   9 H :   -0.262922
  10 H :   -0.353748
  11 H :    0.044672
  12 H :   -0.217447
  13 H :   -0.110228
  14 H :   -0.127689
  15 H :   -0.069351
Sum of atomic charges:   -0.0000000

LOEWDIN ATOMIC CHARGES
----------------------
   0 C :   -0.097902
   1 C :    0.121361
   2 C :   -0.039025
   3 H :    0.014689
   4 H :    0.005911
   5 C :   -0.225006
   6 N :    0.176397
   7 N :    0.205916
   8 H :   -0.022135
   9 H :   -0.014704
  10 H :   -0.048561
  11 H :    0.000074
  12 H :   -0.006590
  13 H :   -0.018912
  14 H :   -0.024676
  15 H :   -0.026835

  Mayer bond orders larger than 0.100000
B(  0-C ,  1-C ) :   1.2022 B(  0-C ,  2-C ) :   1.2392 B(  0-C ,  3-H ) :   0.8031
B(  0-C ,  4-H ) :   0.7905 B(  0-C , 10-H ) :   0.2465 B(  0-C , 13-H ) :   0.2450
B(  0-C , 14-H ) :   0.2188 B(  0-C , 15-H ) :   0.1751 B(  1-C , 13-H ) :   0.7859
B(  1-C , 14-H ) :   0.7962 B(  1-C , 15-H ) :   0.7840 B(  2-C ,  3-H ) :   0.2544
B(  2-C ,  4-H ) :   0.2859 B(  2-C ,  5-C ) :   1.6543 B(  2-C ,  6-N ) :   0.3121
B(  2-C ,  7-N ) :   0.1846 B(  2-C ,  8-H ) :  -0.1108 B(  2-C , 10-H ) :   0.8727
B(  5-C ,  6-N ) :   0.9256 B(  5-C ,  7-N ) :   0.9473 B(  5-C , 10-H ) :   0.2453
B(  6-N , 11-H ) :   1.0353 B(  6-N , 12-H ) :   1.1868 B(  7-N ,  8-H ) :   1.0187
B(  7-N ,  9-H ) :   1.2413 B(  8-H ,  9-H ) :  -0.1438 B( 11-H , 12-H ) :  -0.1407

FINAL SINGLE POINT ENERGY      -267.594590167590

DIPOLE MOMENT
-------------
                                X             Y             Z
Electronic contribution:     -1.27457      -2.90849       3.63759
Nuclear contribution   :      1.44676       2.38443      -3.07370
                        -----------------------------------------
Total Dipole Moment    :      0.17219      -0.52407       0.56389
                        -----------------------------------------
Magnitude (a.u.)       :      0.78884
Magnitude (Debye)      :      2.00507

Rotational constants in cm-1:     0.235977     0.073199     0.063283
Rotational constants in MHz :  7074.404583  2194.453291  1897.179599

                             ****ORCA TERMINATED NORMALLY****
TOTAL RUN TIME: 0 days 0 hours 0 minutes 45 seconds 572 msec
