                         Program Version 5.0.0 -  RELEASE  -
|  1> !CAM-B3LYP RIJCOSX def2-SVPD def2/J TightSCF
|  2> *xyz 0 1
|  3> C          3.48828        1.60092       -1.52204
|  4> C          4.34297        1.31342       -2.75683
|  5> N          2.81029        0.42878       -1.01420
|  6> H          2.71455        2.33145       -1.76030
|  7> H          4.09099        2.06315       -0.73338
|  8> C          3.29098       -0.41802       -0.12908
|  9> C          2.51754       -1.43202        0.23936
| 10> N          4.53549       -0.28441        0.39580
| 11> H          5.04363        0.57189        0.22290
| 12> H          4.72335       -0.73327        1.28180
| 13> H          1.93479        0.10230       -1.40379
| 14> H          1.67464       -1.50562       -0.31610
| 15> H          2.92850       -2.21850        0.72549
| 16> H          3.73575        0.86277       -3.51385
| 17> H          5.13754        0.64699       -2.49333
| 18> H          4.75374        2.22930       -3.12740
| 19> *
| 20> %MaxCore 64000
| 21>
| 22> %pal nprocs 4
| 23> end
| 24>
| 25> %scf
| 26>   MaxIter 150
| 27> end
| 28>
| 29>
| 30>                          ****END OF INPUT****

CARTESIAN COORDINATES (ANGSTROEM)
---------------------------------
  C      3.488280    1.600920   -1.522040
  C      4.342970    1.313420   -2.756830
  N      2.810290    0.428780   -1.014200
  H      2.714550    2.331450   -1.760300
  H      4.090990    2.063150   -0.733380
  C      3.290980   -0.418020   -0.129080
  C      2.517540   -1.432020    0.239360
  N      4.535490   -0.284410    0.395800
  H      5.043630    0.571890    0.222900
  H      4.723350   -0.733270    1.281800
  H      1.934790    0.102300   -1.403790
  H      1.674640   -1.505620   -0.316100
  H      2.928500   -2.218500    0.725490
  H      3.735750    0.862770   -3.513850
  H      5.137540    0.646990   -2.493330
  H      4.753740    2.229300   -3.127400

 Total Charge           Charge          ....    0
 Multiplicity           Mult            ....    1
 Number of Electrons    NEL             ....   48
 Basis Dimension        Dim             ....  200

ORBITAL ENERGIES
----------------

  NO   OCC          E(Eh)            E(eV)
   0   2.0000     -14.406046      -392.0084
   1   2.0000     -14.405492      -391.9934
   2   2.0000     -10.305474      -280.4262
   3   2.0000     -10.302441      -280.3437
   4   2.0000     -10.250606      -278.9332
   5   2.0000     -10.167668      -276.6763
   6   2.0000      -1.046768       -28.4840
   7   2.0000      -0.958102       -26.0713
   8   2.0000      -0.853138       -23.2151
   9   2.0000      -0.777595       -21.1594
  10   2.0000      -0.703833       -19.1523
  11   2.0000      -0.672060       -18.2877
  12   2.0000      -0.609546       -16.5866
  13   2.0000      -0.571707       -15.5569
  14   2.0000      -0.549489       -14.9524
  15   2.0000      -0.510803       -13.8997
  16   2.0000      -0.501880       -13.6568
  17   2.0000      -0.474229       -12.9044
  18   2.0000      -0.446810       -12.1583
  19   2.0000      -0.440358       -11.9828
  20   2.0000      -0.432487       -11.7686
  21   2.0000      -0.424260       -11.5447
  22   2.0000      -0.324166        -8.8210
  23   2.0000      -0.220890        -6.0107
  24   0.0000       0.042288         1.1507
  25   0.0000       0.072408         1.9703
  26   0.0000       0.074967         2.0400
  27   0.0000       0.081473         2.2170
  28   0.0000       0.112705         3.0669

MULLIKEN ATOMIC CHARGES
-----------------------
   0 C :    0.431055
   1 C :    0.859861
   2 N :   -0.171943
   3 H :   -0.406749
   4 H :   -0.176049
   5 C :    0.524133
   6 C :    0.591374
   7 N :    0.164565
   8 H :   -0.191118
   9 H :   -0.160773
  10 H :   -0.306577
  11 H :   -0.300919
  12 H :   -0.515219
  13 H :   -0.138967
  14 H :   -0.128330
  15 H :   -0.074344
Sum of atomic charges:    0.0000000

LOEWDIN ATOMIC CHARGES
----------------------
   0 C :    0.010388
   1 C :    0.134688
   2 N :   -0.018251
   3 H :    0.018474
   4 H :    0.011304
   5 C :   -0.231736
   6 C :    0.135478
   7 N :    0.204891
   8 H :   -0.035405
   9 H :    0.002902
  10 H :    0.032897
  11 H :   -0.105926
  12 H :   -0.098591
  13 H :   -0.018035
  14 H :   -0.022516
  15 H :   -0.020563

  Mayer bond orders larger than 0.100000
B(  0-C ,  1-C ) :   1.2186 B(  0-C ,  2-N ) :   0.9683 B(  0-C ,  3-H ) :   0.8654
B(  0-C ,  4-H ) :   0.8393 B(  0-C , 10-H ) :  -0.2296 B(  0-C , 13-H ) :   0.2764
B(  0-C , 14-H ) :   0.2198 B(  0-C , 15-H ) :   0.1859 B(  1-C , 13-H ) :   0.7507
B(  1-C , 14-H ) :   0.7887 B(  1-C , 15-H ) :   0.7833 B(  2-N ,  3-H ) :   0.1844
B(  2-N ,  4-H ) :   0.1546 B(  2-N ,  5-C ) :   1.1093 B(  2-N ,  6-C ) :   0.2362
B(  2-N ,  7-N ) :   0.1032 B(  2-N , 10-H ) :   1.2551 B(  5-C ,  6-C ) :   1.6638
B(  5-C ,  7-N ) :   0.8997 B(  5-C ,  9-H ) :  -0.1175 B(  5-C , 10-H ) :  -0.2036
B(  5-C , 11-H ) :   0.2567 B(  5-C , 12-H ) :   0.2194 B(  6-C ,  7-N ) :   0.2157
B(  6-C , 11-H ) :   0.7516 B(  6-C , 12-H ) :   0.6544 B(  7-N ,  8-H ) :   1.0312
B(  7-N ,  9-H ) :   1.2101 B(  8-H ,  9-H ) :  -0.1558

FINAL SINGLE POINT ENERGY      -267.582431445590

DIPOLE MOMENT
-------------
                                X             Y             Z
Electronic contribution:     -0.87445      -1.04682       2.42037
Nuclear contribution   :      1.38466       1.98967      -2.80776
                        -----------------------------------------
Total Dipole Moment    :      0.51021       0.94285      -0.38739
                        -----------------------------------------
Magnitude (a.u.)       :      1.13989
Magnitude (Debye)      :      2.89737

Rotational constants in cm-1:     0.235618     0.075969     0.065309
Rotational constants in MHz :  7063.646698  2277.495424  1957.925383

                             ****ORCA TERMINATED NORMALLY****
TOTAL RUN TIME: 0 days 0 hours 0 minutes 45 seconds 243 msec
