                         Program Version 5.0.0 -  RELEASE  -
|  1> !CAM-B3LYP RIJCOSX def2-SVPD def2/J TightSCF
|  2> *xyz 0 1
|  3> C          3.48828        1.60092       -1.52204
|  4> C          4.34297        1.31342       -2.75683
|  5> N          2.81029        0.42878       -1.01420
|  6> H          2.71455        2.33145       -1.76030
|  7> H          4.09099        2.06315       -0.73338
|  8> C          3.29098       -0.41802       -0.12908
|  9> N          2.51754       -1.43202        0.23936
| 10> C          4.53549       -0.28441        0.39580
| 11> H          5.04363        0.57189        0.22290
| 12> H          4.72335       -0.73327        1.28180
| 13> H          1.93479        0.10230       -1.40379
| 14> H          1.67464       -1.50562       -0.31610
| 15> H          2.92850       -2.21850        0.72549
| 16> H          3.73575        0.86277       -3.51385
| 17> H          5.13754        0.64699       -2.49333
| 18> H          4.75374        2.22930       -3.12740
| 19> *
| 20> %MaxCore 64000
| 21>
| 22> %pal nprocs 4
| 23> end
| 24>
| 25> %scf
| 26>   MaxIter 150
| 27> end
| 28>
| 29>
| 30>                          ****END OF INPUT****

CARTESIAN COORDINATES (ANGSTROEM)
---------------------------------
  C      3.488280    1.600920   -1.522040
  C      4.342970    1.313420   -2.756830
  N      2.810290    0.428780   -1.014200
  H      2.714550    2.331450   -1.760300
  H      4.090990    2.063150   -0.733380
  C      3.290980   -0.418020   -0.129080
  N      2.517540   -1.432020    0.239360
  C      4.535490   -0.284410    0.395800
  H      5.043630    0.571890    0.222900
  H      4.723350   -0.733270    1.281800
  H      1.934790    0.102300   -1.403790
  H      1.674640   -1.505620   -0.316100
  H      2.928500   -2.218500    0.725490
  H      3.735750    0.862770   -3.513850
  H      5.137540    0.646990   -2.493330
  H      4.753740    2.229300   -3.127400

 Total Charge           Charge          ....    0
 Multiplicity           Mult            ....    1
 Number of Electrons    NEL             ....   48
 Basis Dimension        Dim             ....  200

ORBITAL ENERGIES
----------------

  NO   OCC          E(Eh)            E(eV)
   0   2.0000     -14.412087      -392.1728
   1   2.0000     -14.408309      -392.0700
   2   2.0000     -10.308710      -280.5142
   3   2.0000     -10.294629      -280.1311
   4   2.0000     -10.242752      -278.7195
   5   2.0000     -10.169521      -276.7267
   6   2.0000      -1.056113       -28.7383
   7   2.0000      -0.964009       -26.2320
   8   2.0000      -0.832685       -22.6585
   9   2.0000      -0.782481       -21.2924
  10   2.0000      -0.719060       -19.5666
  11   2.0000      -0.635812       -17.3013
  12   2.0000      -0.617254       -16.7963
  13   2.0000      -0.601080       -16.3562
  14   2.0000      -0.539406       -14.6780
  15   2.0000      -0.511507       -13.9188
  16   2.0000      -0.498877       -13.5751
  17   2.0000      -0.464589       -12.6421
  18   2.0000      -0.447331       -12.1725
  19   2.0000      -0.437745       -11.9117
  20   2.0000      -0.428463       -11.6591
  21   2.0000      -0.414058       -11.2671
  22   2.0000      -0.318212        -8.6590
  23   2.0000      -0.224265        -6.1026
  24   0.0000       0.042300         1.1510
  25   0.0000       0.066854         1.8192
  26   0.0000       0.079315         2.1583
  27   0.0000       0.084292         2.2937
  28   0.0000       0.114340         3.1114

MULLIKEN ATOMIC CHARGES
-----------------------
   0 C :    0.417607
   1 C :    0.870903
   2 N :   -0.313362
   3 H :   -0.395949
   4 H :   -0.045642
   5 C :    0.549303
   6 N :    0.166928
   7 C :    0.584000
   8 H :   -0.266506
   9 H :   -0.580472
  10 H :   -0.369365
  11 H :   -0.151884
  12 H :   -0.095562
  13 H :   -0.147034
  14 H :   -0.147756
  15 H :   -0.075210
Sum of atomic charges:   -0.0000000

LOEWDIN ATOMIC CHARGES
----------------------
   0 C :    0.018067
   1 C :    0.138769
   2 N :   -0.020155
   3 H :    0.018043
   4 H :    0.019076
   5 C :   -0.238706
   6 N :    0.188909
   7 C :    0.156456
   8 H :   -0.128788
   9 H :   -0.109751
  10 H :    0.020465
  11 H :   -0.013992
  12 H :    0.013553
  13 H :   -0.021836
  14 H :   -0.020545
  15 H :   -0.019565

  Mayer bond orders larger than 0.100000
B(  0-C ,  1-C ) :   1.2000 B(  0-C ,  2-N ) :   0.9833 B(  0-C ,  3-H ) :   0.8952
B(  0-C ,  4-H ) :   0.8263 B(  0-C , 10-H ) :  -0.2089 B(  0-C , 13-H ) :   0.2442
B(  0-C , 14-H ) :   0.2203 B(  0-C , 15-H ) :   0.1813 B(  1-C , 13-H ) :   0.7649
B(  1-C , 14-H ) :   0.7988 B(  1-C , 15-H ) :   0.7881 B(  2-N ,  3-H ) :   0.1632
B(  2-N ,  4-H ) :   0.1396 B(  2-N ,  5-C ) :   0.9546 B(  2-N ,  6-N ) :   0.1526
B(  2-N ,  7-C ) :   0.3875 B(  2-N , 10-H ) :   1.3583 B(  5-C ,  6-N ) :   0.9077
B(  5-C ,  7-C ) :   1.7236 B(  5-C ,  8-H ) :   0.3089 B(  5-C ,  9-H ) :   0.1984
B(  5-C , 10-H ) :  -0.2824 B(  6-N ,  7-C ) :   0.2762 B(  6-N , 11-H ) :   1.0712
B(  6-N , 12-H ) :   1.1716 B(  7-C ,  8-H ) :   0.6387 B(  7-C ,  9-H ) :   0.6873
B(  8-H ,  9-H ) :   0.1473 B( 11-H , 12-H ) :  -0.1365

FINAL SINGLE POINT ENERGY      -267.582648776945

DIPOLE MOMENT
-------------
                                X             Y             Z
Electronic contribution:     -2.80860      -2.28702       2.19249
Nuclear contribution   :      1.81275       2.23313      -2.77458
                        -----------------------------------------
Total Dipole Moment    :     -0.99585      -0.05390      -0.58209
                        -----------------------------------------
Magnitude (a.u.)       :      1.15475
Magnitude (Debye)      :      2.93514

Rotational constants in cm-1:     0.245202     0.073668     0.064348
Rotational constants in MHz :  7350.977980  2208.513334  1929.108541

                             ****ORCA TERMINATED NORMALLY****
TOTAL RUN TIME: 0 days 0 hours 0 minutes 42 seconds 662 msec
