                         Program Version 5.0.0 -  RELEASE  -
|  1> !BLYP D3BJ RIJCOSX def2-TZVPD def2/J TightSCF
|  2> *xyz -1 1
|  3> C         -0.72184       -0.99951       -3.43931
|  4> C          0.28725       -1.71177       -2.52740
|  5> H          1.13178       -2.06738       -3.15940
|  6> H         -0.20414       -2.63733       -2.17048
|  7> O          0.71050       -0.92751       -1.48177
|  8> H         -1.01315       -1.65739       -4.23129
|  9> H         -0.27123       -0.12142       -3.85259
| 10> H         -1.58442       -0.72333       -2.86958
| 11> *
| 12> %MaxCore 64000
| 13>
| 14> %pal nprocs 4
| 15> end
| 16>
| 17> %scf
| 18>   MaxIter 150
| 19> end
| 20>
| 21>
| 22>                          ****END OF INPUT****

CARTESIAN COORDINATES (ANGSTROEM)
---------------------------------
  C     -0.721840   -0.999510   -3.439310
  C      0.287250   -1.711770   -2.527400
  H      1.131780   -2.067380   -3.159400
  H     -0.204140   -2.637330   -2.170480
  O      0.710500   -0.927510   -1.481770
  H     -1.013150   -1.657390   -4.231290
  H     -0.271230   -0.121420   -3.852590
  H     -1.584420   -0.723330   -2.869580

 Total Charge           Charge          ....   -1
 Multiplicity           Mult            ....    1
 Number of Electrons    NEL             ....   26
 Basis Dimension        Dim             ....  159

ORBITAL ENERGIES
----------------

  NO   OCC          E(Eh)            E(eV)
   0   2.0000     -18.457635      -502.2578
   1   2.0000      -9.723084      -264.5786
   2   2.0000      -9.697873      -263.8926
   3   2.0000      -0.599863       -16.3231
   4   2.0000      -0.454693       -12.3728
   5   2.0000      -0.313372        -8.5273
   6   2.0000      -0.202046        -5.4980
   7   2.0000      -0.180991        -4.9250
   8   2.0000      -0.131257        -3.5717
   9   2.0000      -0.114790        -3.1236
  10   2.0000      -0.073662        -2.0044
  11   2.0000       0.062209         1.6928
  12   2.0000       0.066328         1.8049
  13   0.0000       0.140560         3.8248
  14   0.0000       0.163959         4.4616
  15   0.0000       0.188617         5.1325
  16   0.0000       0.193716         5.2713
  17   0.0000       0.213961         5.8222

MULLIKEN ATOMIC CHARGES
-----------------------
   0 C :   -1.213617
   1 C :   -0.245867
   2 H :    0.214521
   3 H :    0.208607
   4 O :   -0.923522
   5 H :    0.408977
   6 H :    0.278369
   7 H :    0.272531
Sum of atomic charges:   -1.0000000

LOEWDIN ATOMIC CHARGES
----------------------
   0 C :   -0.176439
   1 C :   -0.618780
   2 H :    0.048036
   3 H :    0.045321
   4 O :   -0.381234
   5 H :    0.017029
   6 H :    0.032725
   7 H :    0.033341

  Mayer bond orders larger than 0.100000
B(  0-C ,  1-C ) :   0.7216 B(  0-C ,  4-O ) :   0.6336 B(  0-C ,  5-H ) :   0.9049
B(  0-C ,  6-H ) :   0.9813 B(  0-C ,  7-H ) :   0.9846 B(  1-C ,  2-H ) :   1.0456
B(  1-C ,  3-H ) :   1.0559 B(  1-C ,  4-O ) :   0.7899 B(  2-H ,  3-H ) :   0.1147
B(  4-O ,  5-H ) :  -0.1259

Dispersion correction           -0.007741611
FINAL SINGLE POINT ENERGY      -154.441277926035

DIPOLE MOMENT
-------------
                                X             Y             Z
Electronic contribution:      1.59256       0.73807       2.55981
Nuclear contribution   :     -2.24828      -1.06600      -3.62481
                        -----------------------------------------
Total Dipole Moment    :     -0.65572      -0.32792      -1.06499
                        -----------------------------------------
Magnitude (a.u.)       :      1.29295
Magnitude (Debye)      :      3.28641

Rotational constants in cm-1:     1.278116     0.325414     0.286672
Rotational constants in MHz : 38316.964654  9755.653004  8594.216906

                             ****ORCA TERMINATED NORMALLY****
TOTAL RUN TIME: 0 days 0 hours 0 minutes 8 seconds 751 msec
