                         Program Version 5.0.0 -  RELEASE  -
|  1> !BLYP D3BJ RIJCOSX def2-TZVPD def2/J TightSCF
|  2> *xyz 1 1
|  3> C          3.48828        1.60092       -1.52204
|  4> C          4.34297        1.31342       -2.75683
|  5> N          2.81029        0.42878       -1.01420
|  6> H          2.71455        2.33145       -1.76030
|  7> H          4.09099        2.06315       -0.73338
|  8> C          3.29098       -0.41802       -0.12908
|  9> N          2.51754       -1.43202        0.23936
| 10> N          4.53549       -0.28441        0.39580
| 11> H          5.04363        0.57189        0.22290
| 12> H          4.72335       -0.73327        1.28180
| 13> H          1.93479        0.10230       -1.40379
| 14> H          1.67464       -1.50562       -0.31610
| 15> H          2.92850       -2.21850        0.72549
| 16> H          3.73575        0.86277       -3.51385
| 17> H          5.13754        0.64699       -2.49333
| 18> H          4.75374        2.22930       -3.12740
| 19> *
| 20> %MaxCore 64000
| 21>
| 22> %pal nprocs 4
| 23> end
| 24>
| 25> %scf
| 26>   MaxIter 150
| 27> end
| 28>
| 29>
| 30>                          ****END OF INPUT****

CARTESIAN COORDINATES (ANGSTROEM)
---------------------------------
  C      3.488280    1.600920   -1.522040
  C      4.342970    1.313420   -2.756830
  N      2.810290    0.428780   -1.014200
  H      2.714550    2.331450   -1.760300
  H      4.090990    2.063150   -0.733380
  C      3.290980   -0.418020   -0.129080
  N      2.517540   -1.432020    0.239360
  N      4.535490   -0.284410    0.395800
  H      5.043630    0.571890    0.222900
  H      4.723350   -0.733270    1.281800
  H      1.934790    0.102300   -1.403790
  H      1.674640   -1.505620   -0.316100
  H      2.928500   -2.218500    0.725490
  H      3.735750    0.862770   -3.513850
  H      5.137540    0.646990   -2.493330
  H      4.753740    2.229300   -3.127400

 Total Charge           Charge          ....    1
 Multiplicity           Mult            ....    1
 Number of Electrons    NEL             ....   48
 Basis Dimension        Dim             ....  312

ORBITAL ENERGIES
----------------

  NO   OCC          E(Eh)            E(eV)
   0   2.0000     -14.232644      -387.2899
   1   2.0000     -14.227461      -387.1489
   2   2.0000     -14.225847      -387.1050
   3   2.0000     -10.228063      -278.3197
   4   2.0000     -10.114556      -275.2311
   5   2.0000     -10.041010      -273.2298
   6   2.0000      -1.126120       -30.6433
   7   2.0000      -1.022103       -27.8128
   8   2.0000      -1.009740       -27.4764
   9   2.0000      -0.858434       -23.3592
  10   2.0000      -0.772764       -21.0280
  11   2.0000      -0.744235       -20.2517
  12   2.0000      -0.721172       -19.6241
  13   2.0000      -0.689169       -18.7532
  14   2.0000      -0.639961       -17.4142
  15   2.0000      -0.631586       -17.1863
  16   2.0000      -0.602569       -16.3967
  17   2.0000      -0.584012       -15.8918
  18   2.0000      -0.553460       -15.0604
  19   2.0000      -0.513687       -13.9781
  20   2.0000      -0.487768       -13.2728
  21   2.0000      -0.470034       -12.7903
  22   2.0000      -0.433595       -11.7987
  23   2.0000      -0.411132       -11.1875
  24   0.0000      -0.201796        -5.4911
  25   0.0000      -0.188136        -5.1195
  26   0.0000      -0.157352        -4.2818
  27   0.0000      -0.142822        -3.8864
  28   0.0000      -0.118180        -3.2158

MULLIKEN ATOMIC CHARGES
-----------------------
   0 C :   -0.485808
   1 C :   -1.071444
   2 N :   -0.056708
   3 H :    0.290657
   4 H :    0.344224
   5 C :    0.595581
   6 N :   -0.259377
   7 N :   -0.302472
   8 H :    0.196463
   9 H :    0.201636
  10 H :    0.147329
  11 H :    0.178091
  12 H :    0.199140
  13 H :    0.327284
  14 H :    0.344684
  15 H :    0.350720
Sum of atomic charges:    1.0000000

LOEWDIN ATOMIC CHARGES
----------------------
   0 C :   -0.200346
   1 C :   -0.046015
   2 N :    0.094399
   3 H :    0.129470
   4 H :    0.118909
   5 C :   -0.443863
   6 N :    0.216369
   7 N :    0.226700
   8 H :    0.112632
   9 H :    0.131328
  10 H :    0.165004
  11 H :    0.131993
  12 H :    0.139087
  13 H :    0.075548
  14 H :    0.068242
  15 H :    0.080543

  Mayer bond orders larger than 0.100000
B(  0-C ,  1-C ) :   0.6200 B(  0-C ,  2-N ) :   0.8364 B(  0-C ,  3-H ) :   0.9439
B(  0-C ,  4-H ) :   0.8447 B(  1-C , 13-H ) :   0.9631 B(  1-C , 14-H ) :   0.9381
B(  1-C , 15-H ) :   0.9453 B(  2-N ,  5-C ) :   1.2490 B(  2-N , 10-H ) :   1.0035
B(  5-C ,  6-N ) :   1.1402 B(  5-C ,  7-N ) :   1.1649 B(  6-N , 11-H ) :   0.9689
B(  6-N , 12-H ) :   0.9709 B(  7-N ,  8-H ) :   0.9261 B(  7-N ,  9-H ) :   0.9822

Dispersion correction           -0.024961793
FINAL SINGLE POINT ENERGY      -284.405409656301

DIPOLE MOMENT
-------------
                                X             Y             Z
Electronic contribution:     -1.91422      -2.98190       3.71247
Nuclear contribution   :      1.59382       2.33278      -3.02574
                        -----------------------------------------
Total Dipole Moment    :     -0.32040      -0.64912       0.68674
                        -----------------------------------------
Magnitude (a.u.)       :      0.99781
Magnitude (Debye)      :      2.53623

Rotational constants in cm-1:     0.232230     0.073139     0.063030
Rotational constants in MHz :  6962.079716  2192.649203  1889.578947

                             ****ORCA TERMINATED NORMALLY****
TOTAL RUN TIME: 0 days 0 hours 0 minutes 17 seconds 163 msec
