                         Program Version 5.0.0 -  RELEASE  -
|  1> !BLYP D3BJ RIJCOSX def2-TZVPD def2/J TightSCF xyzfile
|  2>
|  3> *xyzfile 0 1 B.xyz
|  4>
|  5> %MaxCore 64000
|  6>
|  7> %pal nprocs 4
|  8> end
|  9>
| 10> %scf
| 11>   MaxIter 150
| 12> end
| 13>
| 14>
| 15>                          ****END OF INPUT****

CARTESIAN COORDINATES (ANGSTROEM)
---------------------------------
  C      3.488276    1.600919   -1.522040
  C      4.342970    1.313419   -2.756826
  N      2.810285    0.428783   -1.014196
  H      5.132033    0.604994   -2.484466
  C      3.535896    0.749253   -3.924604
  H      4.841247    2.242136   -3.054083
  H      2.991617   -0.132199   -3.574137
  H      4.225505    0.392784   -4.695962
  C      2.564776    1.750890   -4.544523
  H      1.918749    2.171679   -3.769419
  C      1.686235    1.161657   -5.650111
  H      3.132494    2.594775   -4.951604
  C      0.839616   -0.037582   -5.220473
  H      2.323886    0.866395   -6.490796
  H      1.029518    1.951850   -6.029329
  C     -0.151019    0.254955   -4.094256
  H      1.499442   -0.857141   -4.922958
  H      0.290097   -0.410143   -6.091131
  H      0.328265    0.833022   -3.299125
  C     -0.721843   -0.999513   -3.439309
  H     -0.957367    0.884951   -4.485450
  H     -1.083403   -1.697555   -4.205656
  H     -1.581056   -0.723848   -2.820490
  C      0.287250   -1.711771   -2.527405
  H      1.131780   -2.067380   -3.159396
  H     -0.204137   -2.637326   -2.170480
  O      0.710505   -0.927506   -1.481767
  H      2.714548    2.331455   -1.760302
  H      4.090991    2.063151   -0.733382
  C      3.290978   -0.418021   -0.129083
  N      2.517536   -1.432017    0.239360
  N      4.535490   -0.284410    0.395800
  H      5.043627    0.571888    0.222899
  H      4.723346   -0.733273    1.281800
  H      1.934787    0.102305   -1.403788
  H      1.674638   -1.505616   -0.316095
  H      2.928503   -2.218502    0.725494

 Total Charge           Charge          ....    0
 Multiplicity           Mult            ....    1
 Number of Electrons    NEL             ....  112
 Basis Dimension        Dim             ....  728

ORBITAL ENERGIES
----------------

  NO   OCC          E(Eh)            E(eV)
   0   2.0000     -18.648860      -507.4613
   1   2.0000     -14.062067      -382.6483
   2   2.0000     -14.025665      -381.6578
   3   2.0000     -14.018481      -381.4623
   4   2.0000     -10.041504      -273.2432
   5   2.0000      -9.956838      -270.9393
   6   2.0000      -9.913161      -269.7508
   7   2.0000      -9.896368      -269.2939
   8   2.0000      -9.890757      -269.1412
   9   2.0000      -9.884194      -268.9626
  10   2.0000      -9.884179      -268.9622
  11   2.0000      -9.872539      -268.6455
  12   2.0000      -9.862621      -268.3756
  13   2.0000      -9.851617      -268.0761
  14   2.0000      -0.939405       -25.5625
  15   2.0000      -0.843093       -22.9417
  16   2.0000      -0.824488       -22.4355
  17   2.0000      -0.796397       -21.6711
  18   2.0000      -0.730394       -19.8750
  19   2.0000      -0.698380       -19.0039
  20   2.0000      -0.663005       -18.0413
  21   2.0000      -0.629363       -17.1258
  22   2.0000      -0.591084       -16.0842
  23   2.0000      -0.583242       -15.8708
  24   2.0000      -0.547080       -14.8868
  25   2.0000      -0.537068       -14.6144
  26   2.0000      -0.531957       -14.4753
  27   2.0000      -0.505201       -13.7472
  28   2.0000      -0.483332       -13.1521
  29   2.0000      -0.464250       -12.6329
  30   2.0000      -0.453759       -12.3474
  31   2.0000      -0.440607       -11.9895
  32   2.0000      -0.429571       -11.6892
  33   2.0000      -0.419020       -11.4021
  34   2.0000      -0.408068       -11.1041
  35   2.0000      -0.397701       -10.8220
  36   2.0000      -0.383535       -10.4365
  37   2.0000      -0.368676       -10.0322
  38   2.0000      -0.363058        -9.8793
  39   2.0000      -0.345559        -9.4031
  40   2.0000      -0.342154        -9.3105
  41   2.0000      -0.331089        -9.0094
  42   2.0000      -0.313617        -8.5340
  43   2.0000      -0.307712        -8.3733
  44   2.0000      -0.299390        -8.1468
  45   2.0000      -0.289521        -7.8783
  46   2.0000      -0.278797        -7.5864
  47   2.0000      -0.269665        -7.3379
  48   2.0000      -0.266295        -7.2463
  49   2.0000      -0.260805        -7.0969
  50   2.0000      -0.248424        -6.7600
  51   2.0000      -0.244402        -6.6505
  52   2.0000      -0.239698        -6.5225
  53   2.0000      -0.225424        -6.1341
  54   2.0000      -0.138342        -3.7645
  55   2.0000      -0.130995        -3.5646
  56   0.0000      -0.043249        -1.1769
  57   0.0000      -0.024481        -0.6662
  58   0.0000      -0.012381        -0.3369
  59   0.0000       0.003710         0.1009
  60   0.0000       0.004471         0.1216

MULLIKEN ATOMIC CHARGES
-----------------------
   0 C :   -1.080911
   1 C :   -0.385551
   2 N :   -0.133053
   3 H :    0.278894
   4 C :   -0.289313
   5 H :    0.268632
   6 H :    0.093818
   7 H :    0.277353
   8 C :   -0.415919
   9 H :    0.277177
  10 C :   -0.798411
  11 H :    0.245975
  12 C :   -0.444498
  13 H :    0.274638
  14 H :    0.282916
  15 C :   -0.239989
  16 H :    0.187492
  17 H :    0.303556
  18 H :    0.074228
  19 C :   -0.667664
  20 H :    0.300825
  21 H :    0.251128
  22 H :    0.270697
  23 C :   -0.475376
  24 H :    0.253481
  25 H :    0.274579
  26 O :   -1.072226
  27 H :    0.326691
  28 H :    0.382839
  29 C :    0.475483
  30 N :   -0.301490
  31 N :   -0.317689
  32 H :    0.178589
  33 H :    0.176662
  34 H :    0.636812
  35 H :    0.411673
  36 H :    0.117954
Sum of atomic charges:    0.0000000

LOEWDIN ATOMIC CHARGES
----------------------
   0 C :   -0.170618
   1 C :   -0.180006
   2 N :    0.104005
   3 H :    0.103857
   4 C :   -0.199210
   5 H :    0.110397
   6 H :    0.098654
   7 H :    0.116193
   8 C :   -0.211276
   9 H :    0.091865
  10 C :   -0.205299
  11 H :    0.110212
  12 C :   -0.214248
  13 H :    0.103989
  14 H :    0.105670
  15 C :   -0.213469
  16 H :    0.089064
  17 H :    0.108964
  18 H :    0.088367
  19 C :   -0.199335
  20 H :    0.107904
  21 H :    0.102817
  22 H :    0.101718
  23 C :   -0.406404
  24 H :    0.088667
  25 H :    0.093593
  26 O :   -0.285667
  27 H :    0.116534
  28 H :    0.106624
  29 C :   -0.457833
  30 N :    0.194547
  31 N :    0.183035
  32 H :    0.090356
  33 H :    0.107646
  34 H :    0.064702
  35 H :    0.040061
  36 H :    0.113926

  Mayer bond orders larger than 0.100000
B(  0-C ,  1-C ) :   0.7117 B(  0-C ,  2-N ) :   1.0211 B(  0-C ,  8-C ) :   0.1505
B(  0-C , 27-H ) :   0.8511 B(  0-C , 28-H ) :   0.7826 B(  0-C , 29-C ) :  -0.1931
B(  0-C , 34-H ) :  -0.2660 B(  1-C ,  3-H ) :   0.9213 B(  1-C ,  4-C ) :   0.9171
B(  1-C ,  5-H ) :   0.9529 B(  1-C ,  8-C ) :   0.1083 B(  2-N , 29-C ) :   1.2088
B(  2-N , 34-H ) :   0.7838 B(  4-C ,  6-H ) :   1.2578 B(  4-C ,  7-H ) :   0.8676
B(  4-C ,  8-C ) :   0.2649 B(  4-C ,  9-H ) :  -0.1190 B(  4-C , 10-C ) :   0.1160
B(  4-C , 11-H ) :  -0.1096 B(  4-C , 12-C ) :   0.1399 B(  6-H ,  8-C ) :  -0.1209
B(  8-C ,  9-H ) :   0.9623 B(  8-C , 10-C ) :   0.8762 B(  8-C , 11-H ) :   0.9699
B(  8-C , 15-C ) :   0.1456 B( 10-C , 12-C ) :   0.8116 B( 10-C , 13-H ) :   0.9583
B( 10-C , 14-H ) :   0.9412 B( 10-C , 15-C ) :   0.1881 B( 12-C , 15-C ) :   0.2489
B( 12-C , 16-H ) :   1.0405 B( 12-C , 17-H ) :   0.9141 B( 12-C , 19-C ) :   0.2208
B( 15-C , 16-H ) :  -0.1054 B( 15-C , 18-H ) :   1.1343 B( 15-C , 19-C ) :   0.9102
B( 15-C , 20-H ) :   0.8627 B( 18-H , 19-C ) :   0.1068 B( 18-H , 26-O ) :   0.1655
B( 19-C , 21-H ) :   0.9892 B( 19-C , 22-H ) :   0.9067 B( 19-C , 23-C ) :   0.8627
B( 19-C , 26-O ) :   0.1744 B( 23-C , 24-H ) :   0.9688 B( 23-C , 25-H ) :   0.9239
B( 23-C , 26-O ) :   0.7806 B( 26-O , 34-H ) :  -0.2102 B( 26-O , 35-H ) :   0.1996
B( 29-C , 30-N ) :   1.2895 B( 29-C , 31-N ) :   1.0858 B( 30-N , 35-H ) :   0.6114
B( 30-N , 36-H ) :   1.0302 B( 31-N , 32-H ) :   0.9458 B( 31-N , 33-H ) :   0.9940

Dispersion correction           -0.079932517
FINAL SINGLE POINT ENERGY      -634.397109615387

DIPOLE MOMENT
-------------
                                X             Y             Z
Electronic contribution:      3.51633      -2.05218      11.31358
Nuclear contribution   :     -0.74583       2.62534      -9.91488
                        -----------------------------------------
Total Dipole Moment    :      2.77050       0.57317       1.39869
                        -----------------------------------------
Magnitude (a.u.)       :      3.15603
Magnitude (Debye)      :      8.02200

Rotational constants in cm-1:     0.027028     0.016098     0.010898
Rotational constants in MHz :   810.278072   482.590922   326.703462

                             ****ORCA TERMINATED NORMALLY****
TOTAL RUN TIME: 0 days 0 hours 1 minutes 54 seconds 664 msec
