                         Program Version 5.0.0 -  RELEASE  -
|  1> !BLYP D3BJ RIJCOSX def2-TZVPD def2/J TightSCF
|  2> *xyz 0 1
|  3> C         -0.72184       -0.99951       -3.43931
|  4> C          0.28725       -1.71177       -2.52740
|  5> H          1.13178       -2.06738       -3.15940
|  6> H         -0.20414       -2.63733       -2.17048
|  7> F          0.71050       -0.92751       -1.48177
|  8> H         -1.01315       -1.65739       -4.23129
|  9> H         -0.27123       -0.12142       -3.85259
| 10> H         -1.58442       -0.72333       -2.86958
| 11> *
| 12> %MaxCore 64000
| 13>
| 14> %pal nprocs 4
| 15> end
| 16>
| 17> %scf
| 18>   MaxIter 150
| 19> end
| 20>
| 21>
| 22>                          ****END OF INPUT****

CARTESIAN COORDINATES (ANGSTROEM)
---------------------------------
  C     -0.721840   -0.999510   -3.439310
  C      0.287250   -1.711770   -2.527400
  H      1.131780   -2.067380   -3.159400
  H     -0.204140   -2.637330   -2.170480
  F      0.710500   -0.927510   -1.481770
  H     -1.013150   -1.657390   -4.231290
  H     -0.271230   -0.121420   -3.852590
  H     -1.584420   -0.723330   -2.869580

 Total Charge           Charge          ....    0
 Multiplicity           Mult            ....    1
 Number of Electrons    NEL             ....   26
 Basis Dimension        Dim             ....  159

ORBITAL ENERGIES
----------------

  NO   OCC          E(Eh)            E(eV)
   0   2.0000     -24.273372      -660.5120
   1   2.0000      -9.981584      -271.6127
   2   2.0000      -9.899716      -269.3850
   3   2.0000      -1.090962       -29.6866
   4   2.0000      -0.687880       -18.7182
   5   2.0000      -0.564217       -15.3531
   6   2.0000      -0.451220       -12.2783
   7   2.0000      -0.436139       -11.8679
   8   2.0000      -0.399178       -10.8622
   9   2.0000      -0.353772        -9.6266
  10   2.0000      -0.351996        -9.5783
  11   2.0000      -0.286714        -7.8019
  12   2.0000      -0.281957        -7.6724
  13   0.0000      -0.006866        -0.1868
  14   0.0000       0.020647         0.5618
  15   0.0000       0.033433         0.9098
  16   0.0000       0.039383         1.0717
  17   0.0000       0.063528         1.7287

MULLIKEN ATOMIC CHARGES
-----------------------
   0 C :   -0.946624
   1 C :   -0.082258
   2 H :    0.223769
   3 H :    0.219252
   4 F :   -0.301969
   5 H :    0.321387
   6 H :    0.282455
   7 H :    0.283987
Sum of atomic charges:    0.0000000

LOEWDIN ATOMIC CHARGES
----------------------
   0 C :   -0.077013
   1 C :   -0.296233
   2 H :    0.109575
   3 H :    0.105956
   4 F :   -0.029317
   5 H :    0.064105
   6 H :    0.061255
   7 H :    0.061672

  Mayer bond orders larger than 0.100000
B(  0-C ,  1-C ) :   0.7305 B(  0-C ,  5-H ) :   0.9270 B(  0-C ,  6-H ) :   0.9562
B(  0-C ,  7-H ) :   0.9567 B(  1-C ,  2-H ) :   0.9613 B(  1-C ,  3-H ) :   0.9702
B(  1-C ,  4-F ) :   0.8206

Dispersion correction           -0.007133166
FINAL SINGLE POINT ENERGY      -179.084198723792

DIPOLE MOMENT
-------------
                                X             Y             Z
Electronic contribution:      2.70951       1.06519       4.24467
Nuclear contribution   :     -2.97459      -1.40206      -4.79987
                        -----------------------------------------
Total Dipole Moment    :     -0.26509      -0.33686      -0.55520
                        -----------------------------------------
Magnitude (a.u.)       :      0.70143
Magnitude (Debye)      :      1.78288

Rotational constants in cm-1:     1.257024     0.302702     0.267953
Rotational constants in MHz : 37684.643733  9074.792567  8033.038070

                             ****ORCA TERMINATED NORMALLY****
TOTAL RUN TIME: 0 days 0 hours 0 minutes 6 seconds 638 msec
