                         Program Version 5.0.0 -  RELEASE  -
|  1> !BLYP D3BJ RIJCOSX def2-TZVPD def2/J TightSCF
|  2> *xyz 0 1
|  3> C          3.48828        1.60092       -1.52204
|  4> C          4.34297        1.31342       -2.75683
|  5> C          2.81029        0.42878       -1.01420
|  6> H          2.71455        2.33145       -1.76030
|  7> H          4.09099        2.06315       -0.73338
|  8> C          3.29098       -0.41802       -0.12908
|  9> N          2.51754       -1.43202        0.23936
| 10> N          4.53549       -0.28441        0.39580
| 11> H          5.04363        0.57189        0.22290
| 12> H          4.72335       -0.73327        1.28180
| 13> H          1.93479        0.10230       -1.40379
| 14> H          1.67464       -1.50562       -0.31610
| 15> H          2.92850       -2.21850        0.72549
| 16> H          3.73575        0.86277       -3.51385
| 17> H          5.13754        0.64699       -2.49333
| 18> H          4.75374        2.22930       -3.12740
| 19> *
| 20> %MaxCore 64000
| 21>
| 22> %pal nprocs 4
| 23> end
| 24>
| 25> %scf
| 26>   MaxIter 150
| 27> end
| 28>
| 29>
| 30>                          ****END OF INPUT****

CARTESIAN COORDINATES (ANGSTROEM)
---------------------------------
  C      3.488280    1.600920   -1.522040
  C      4.342970    1.313420   -2.756830
  C      2.810290    0.428780   -1.014200
  H      2.714550    2.331450   -1.760300
  H      4.090990    2.063150   -0.733380
  C      3.290980   -0.418020   -0.129080
  N      2.517540   -1.432020    0.239360
  N      4.535490   -0.284410    0.395800
  H      5.043630    0.571890    0.222900
  H      4.723350   -0.733270    1.281800
  H      1.934790    0.102300   -1.403790
  H      1.674640   -1.505620   -0.316100
  H      2.928500   -2.218500    0.725490
  H      3.735750    0.862770   -3.513850
  H      5.137540    0.646990   -2.493330
  H      4.753740    2.229300   -3.127400

 Total Charge           Charge          ....    0
 Multiplicity           Mult            ....    1
 Number of Electrons    NEL             ....   48
 Basis Dimension        Dim             ....  312

ORBITAL ENERGIES
----------------

  NO   OCC          E(Eh)            E(eV)
   0   2.0000     -14.007461      -381.1624
   1   2.0000     -14.003237      -381.0474
   2   2.0000      -9.940073      -270.4831
   3   2.0000      -9.881823      -268.8981
   4   2.0000      -9.869441      -268.5611
   5   2.0000      -9.830706      -267.5071
   6   2.0000      -0.870164       -23.6784
   7   2.0000      -0.789197       -21.4752
   8   2.0000      -0.695924       -18.9370
   9   2.0000      -0.622648       -16.9431
  10   2.0000      -0.549239       -14.9456
  11   2.0000      -0.520374       -14.1601
  12   2.0000      -0.481757       -13.1093
  13   2.0000      -0.454987       -12.3808
  14   2.0000      -0.416881       -11.3439
  15   2.0000      -0.388577       -10.5737
  16   2.0000      -0.367624       -10.0036
  17   2.0000      -0.345700        -9.4070
  18   2.0000      -0.333724        -9.0811
  19   2.0000      -0.306734        -8.3467
  20   2.0000      -0.288933        -7.8623
  21   2.0000      -0.278309        -7.5732
  22   2.0000      -0.220215        -5.9923
  23   2.0000      -0.130325        -3.5463
  24   0.0000      -0.020139        -0.5480
  25   0.0000       0.006423         0.1748
  26   0.0000       0.012261         0.3336
  27   0.0000       0.024820         0.6754
  28   0.0000       0.038918         1.0590

MULLIKEN ATOMIC CHARGES
-----------------------
   0 C :   -0.557391
   1 C :   -1.144036
   2 C :   -0.297837
   3 H :    0.207681
   4 H :    0.285759
   5 C :    0.399068
   6 N :   -0.339254
   7 N :   -0.365102
   8 H :    0.154815
   9 H :    0.142363
  10 H :    0.268052
  11 H :    0.144729
  12 H :    0.137098
  13 H :    0.329495
  14 H :    0.334808
  15 H :    0.299750
Sum of atomic charges:   -0.0000000

LOEWDIN ATOMIC CHARGES
----------------------
   0 C :   -0.276966
   1 C :   -0.095677
   2 C :   -0.142833
   3 H :    0.099616
   4 H :    0.094022
   5 C :   -0.545136
   6 N :    0.115696
   7 N :    0.141488
   8 H :    0.084861
   9 H :    0.088107
  10 H :    0.066741
  11 H :    0.101827
  12 H :    0.093987
  13 H :    0.062477
  14 H :    0.058412
  15 H :    0.053380

  Mayer bond orders larger than 0.100000
B(  0-C ,  1-C ) :   0.5295 B(  0-C ,  2-C ) :   0.6899 B(  0-C ,  3-H ) :   1.1130
B(  0-C ,  4-H ) :   0.9133 B(  0-C ,  5-C ) :   0.2643 B(  1-C , 13-H ) :   0.9686
B(  1-C , 14-H ) :   0.9507 B(  1-C , 15-H ) :   0.9578 B(  2-C ,  3-H ) :  -0.1089
B(  2-C ,  5-C ) :   1.2453 B(  2-C , 10-H ) :   1.0228 B(  5-C ,  6-N ) :   1.0546
B(  5-C ,  7-N ) :   0.9470 B(  5-C , 10-H ) :  -0.2054 B(  6-N , 11-H ) :   0.9800
B(  6-N , 12-H ) :   1.0388 B(  7-N ,  8-H ) :   0.9467 B(  7-N ,  9-H ) :   1.0275

Dispersion correction           -0.026086621
FINAL SINGLE POINT ENERGY      -267.914527064413

DIPOLE MOMENT
-------------
                                X             Y             Z
Electronic contribution:     -1.29276      -2.92021       3.64017
Nuclear contribution   :      1.44676       2.38443      -3.07370
                        -----------------------------------------
Total Dipole Moment    :      0.15400      -0.53579       0.56647
                        -----------------------------------------
Magnitude (a.u.)       :      0.79478
Magnitude (Debye)      :      2.02017

Rotational constants in cm-1:     0.235977     0.073199     0.063283
Rotational constants in MHz :  7074.404583  2194.453291  1897.179599

                             ****ORCA TERMINATED NORMALLY****
TOTAL RUN TIME: 0 days 0 hours 0 minutes 19 seconds 694 msec
