                         Program Version 5.0.0 -  RELEASE  -
|  1> !BLYP D3BJ RIJCOSX def2-TZVPD def2/J TightSCF
|  2> *xyz 0 1
|  3> C          3.48828        1.60092       -1.52204
|  4> C          4.34297        1.31342       -2.75683
|  5> N          2.81029        0.42878       -1.01420
|  6> H          2.71455        2.33145       -1.76030
|  7> H          4.09099        2.06315       -0.73338
|  8> C          3.29098       -0.41802       -0.12908
|  9> C          2.51754       -1.43202        0.23936
| 10> N          4.53549       -0.28441        0.39580
| 11> H          5.04363        0.57189        0.22290
| 12> H          4.72335       -0.73327        1.28180
| 13> H          1.93479        0.10230       -1.40379
| 14> H          1.67464       -1.50562       -0.31610
| 15> H          2.92850       -2.21850        0.72549
| 16> H          3.73575        0.86277       -3.51385
| 17> H          5.13754        0.64699       -2.49333
| 18> H          4.75374        2.22930       -3.12740
| 19> *
| 20> %MaxCore 64000
| 21>
| 22> %pal nprocs 4
| 23> end
| 24>
| 25> %scf
| 26>   MaxIter 150
| 27> end
| 28>
| 29>
| 30>                          ****END OF INPUT****

CARTESIAN COORDINATES (ANGSTROEM)
---------------------------------
  C      3.488280    1.600920   -1.522040
  C      4.342970    1.313420   -2.756830
  N      2.810290    0.428780   -1.014200
  H      2.714550    2.331450   -1.760300
  H      4.090990    2.063150   -0.733380
  C      3.290980   -0.418020   -0.129080
  C      2.517540   -1.432020    0.239360
  N      4.535490   -0.284410    0.395800
  H      5.043630    0.571890    0.222900
  H      4.723350   -0.733270    1.281800
  H      1.934790    0.102300   -1.403790
  H      1.674640   -1.505620   -0.316100
  H      2.928500   -2.218500    0.725490
  H      3.735750    0.862770   -3.513850
  H      5.137540    0.646990   -2.493330
  H      4.753740    2.229300   -3.127400

 Total Charge           Charge          ....    0
 Multiplicity           Mult            ....    1
 Number of Electrons    NEL             ....   48
 Basis Dimension        Dim             ....  312

ORBITAL ENERGIES
----------------

  NO   OCC          E(Eh)            E(eV)
   0   2.0000     -14.007826      -381.1723
   1   2.0000     -14.006714      -381.1421
   2   2.0000      -9.946851      -270.6676
   3   2.0000      -9.943173      -270.5675
   4   2.0000      -9.894902      -269.2540
   5   2.0000      -9.815723      -267.0994
   6   2.0000      -0.880170       -23.9507
   7   2.0000      -0.800845       -21.7921
   8   2.0000      -0.698696       -19.0125
   9   2.0000      -0.628656       -17.1066
  10   2.0000      -0.563755       -15.3406
  11   2.0000      -0.537808       -14.6345
  12   2.0000      -0.480011       -13.0618
  13   2.0000      -0.445630       -12.1262
  14   2.0000      -0.428103       -11.6493
  15   2.0000      -0.391325       -10.6485
  16   2.0000      -0.378863       -10.3094
  17   2.0000      -0.355437        -9.6719
  18   2.0000      -0.331435        -9.0188
  19   2.0000      -0.327469        -8.9109
  20   2.0000      -0.317163        -8.6304
  21   2.0000      -0.310926        -8.4607
  22   2.0000      -0.214416        -5.8346
  23   2.0000      -0.127913        -3.4807
  24   0.0000      -0.020166        -0.5488
  25   0.0000       0.004635         0.1261
  26   0.0000       0.009289         0.2528
  27   0.0000       0.016952         0.4613
  28   0.0000       0.040297         1.0965

MULLIKEN ATOMIC CHARGES
-----------------------
   0 C :   -0.453685
   1 C :   -1.100920
   2 N :   -0.095077
   3 H :    0.273751
   4 H :    0.321454
   5 C :    0.606776
   6 C :   -1.155376
   7 N :   -0.367066
   8 H :    0.145539
   9 H :    0.167320
  10 H :    0.102573
  11 H :    0.287957
  12 H :    0.301400
  13 H :    0.285076
  14 H :    0.332635
  15 H :    0.347641
Sum of atomic charges:    0.0000000

LOEWDIN ATOMIC CHARGES
----------------------
   0 C :   -0.240335
   1 C :   -0.076416
   2 N :    0.025652
   3 H :    0.108138
   4 H :    0.102948
   5 C :   -0.564246
   6 C :   -0.002075
   7 N :    0.136602
   8 H :    0.075389
   9 H :    0.101863
  10 H :    0.141327
  11 H :    0.003535
  12 H :    0.005124
  13 H :    0.063232
  14 H :    0.060109
  15 H :    0.059152

  Mayer bond orders larger than 0.100000
B(  0-C ,  1-C ) :   0.5849 B(  0-C ,  2-N ) :   0.8139 B(  0-C ,  3-H ) :   0.9672
B(  0-C ,  4-H ) :   0.8779 B(  1-C , 13-H ) :   0.9921 B(  1-C , 14-H ) :   0.9700
B(  1-C , 15-H ) :   0.9403 B(  2-N ,  5-C ) :   1.0758 B(  2-N , 10-H ) :   0.9814
B(  5-C ,  6-C ) :   1.1083 B(  5-C ,  7-N ) :   1.0033 B(  6-C , 11-H ) :   0.9861
B(  6-C , 12-H ) :   1.0431 B(  7-N ,  8-H ) :   0.9772 B(  7-N ,  9-H ) :   0.9868

Dispersion correction           -0.025780311
FINAL SINGLE POINT ENERGY      -267.902821361190

DIPOLE MOMENT
-------------
                                X             Y             Z
Electronic contribution:     -0.88595      -1.07207       2.42316
Nuclear contribution   :      1.38466       1.98967      -2.80776
                        -----------------------------------------
Total Dipole Moment    :      0.49870       0.91759      -0.38460
                        -----------------------------------------
Magnitude (a.u.)       :      1.11293
Magnitude (Debye)      :      2.82883

Rotational constants in cm-1:     0.235618     0.075969     0.065309
Rotational constants in MHz :  7063.646698  2277.495424  1957.925383

                             ****ORCA TERMINATED NORMALLY****
TOTAL RUN TIME: 0 days 0 hours 0 minutes 18 seconds 670 msec
