                         Program Version 5.0.0 -  RELEASE  -
|  1> !BLYP D3BJ RIJCOSX def2-TZVPD def2/J TightSCF
|  2> *xyz 0 1
|  3> C          3.48828        1.60092       -1.52204
|  4> C          4.34297        1.31342       -2.75683
|  5> N          2.81029        0.42878       -1.01420
|  6> H          2.71455        2.33145       -1.76030
|  7> H          4.09099        2.06315       -0.73338
|  8> C          3.29098       -0.41802       -0.12908
|  9> N          2.51754       -1.43202        0.23936
| 10> C          4.53549       -0.28441        0.39580
| 11> H          5.04363        0.57189        0.22290
| 12> H          4.72335       -0.73327        1.28180
| 13> H          1.93479        0.10230       -1.40379
| 14> H          1.67464       -1.50562       -0.31610
| 15> H          2.92850       -2.21850        0.72549
| 16> H          3.73575        0.86277       -3.51385
| 17> H          5.13754        0.64699       -2.49333
| 18> H          4.75374        2.22930       -3.12740
| 19> *
| 20> %MaxCore 64000
| 21>
| 22> %pal nprocs 4
| 23> end
| 24>
| 25> %scf
| 26>   MaxIter 150
| 27> end
| 28>
| 29>
| 30>                          ****END OF INPUT****

CARTESIAN COORDINATES (ANGSTROEM)
---------------------------------
  C      3.488280    1.600920   -1.522040
  C      4.342970    1.313420   -2.756830
  N      2.810290    0.428780   -1.014200
  H      2.714550    2.331450   -1.760300
  H      4.090990    2.063150   -0.733380
  C      3.290980   -0.418020   -0.129080
  N      2.517540   -1.432020    0.239360
  C      4.535490   -0.284410    0.395800
  H      5.043630    0.571890    0.222900
  H      4.723350   -0.733270    1.281800
  H      1.934790    0.102300   -1.403790
  H      1.674640   -1.505620   -0.316100
  H      2.928500   -2.218500    0.725490
  H      3.735750    0.862770   -3.513850
  H      5.137540    0.646990   -2.493330
  H      4.753740    2.229300   -3.127400

 Total Charge           Charge          ....    0
 Multiplicity           Mult            ....    1
 Number of Electrons    NEL             ....   48
 Basis Dimension        Dim             ....  312

ORBITAL ENERGIES
----------------

  NO   OCC          E(Eh)            E(eV)
   0   2.0000     -14.013516      -381.3272
   1   2.0000     -14.008596      -381.1933
   2   2.0000      -9.945552      -270.6322
   3   2.0000      -9.939583      -270.4698
   4   2.0000      -9.887534      -269.0535
   5   2.0000      -9.817601      -267.1505
   6   2.0000      -0.888679       -24.1822
   7   2.0000      -0.805586       -21.9211
   8   2.0000      -0.680692       -18.5226
   9   2.0000      -0.632184       -17.2026
  10   2.0000      -0.578096       -15.7308
  11   2.0000      -0.504145       -13.7185
  12   2.0000      -0.486537       -13.2393
  13   2.0000      -0.474006       -12.8984
  14   2.0000      -0.417814       -11.3693
  15   2.0000      -0.390210       -10.6181
  16   2.0000      -0.374219       -10.1830
  17   2.0000      -0.346821        -9.4375
  18   2.0000      -0.333397        -9.0722
  19   2.0000      -0.321997        -8.7620
  20   2.0000      -0.312487        -8.5032
  21   2.0000      -0.304335        -8.2814
  22   2.0000      -0.209158        -5.6915
  23   2.0000      -0.131920        -3.5897
  24   0.0000      -0.023532        -0.6403
  25   0.0000       0.003248         0.0884
  26   0.0000       0.013306         0.3621
  27   0.0000       0.019209         0.5227
  28   0.0000       0.043387         1.1806

MULLIKEN ATOMIC CHARGES
-----------------------
   0 C :   -0.375056
   1 C :   -1.134377
   2 N :   -0.125934
   3 H :    0.274565
   4 H :    0.303663
   5 C :    0.672505
   6 N :   -0.314153
   7 C :   -1.251573
   8 H :    0.272345
   9 H :    0.313477
  10 H :    0.114787
  11 H :    0.116577
  12 H :    0.163787
  13 H :    0.302728
  14 H :    0.331547
  15 H :    0.335111
Sum of atomic charges:    0.0000000

LOEWDIN ATOMIC CHARGES
----------------------
   0 C :   -0.234702
   1 C :   -0.073185
   2 N :    0.023226
   3 H :    0.107844
   4 H :    0.108533
   5 C :   -0.571654
   6 N :    0.127050
   7 C :    0.011243
   8 H :   -0.013975
   9 H :   -0.000747
  10 H :    0.133001
  11 H :    0.091148
  12 H :    0.109570
  13 H :    0.060542
  14 H :    0.061470
  15 H :    0.060636

  Mayer bond orders larger than 0.100000
B(  0-C ,  1-C ) :   0.5713 B(  0-C ,  2-N ) :   0.7956 B(  0-C ,  3-H ) :   0.9078
B(  0-C ,  4-H ) :   0.8890 B(  1-C , 13-H ) :   0.9665 B(  1-C , 14-H ) :   0.9850
B(  1-C , 15-H ) :   0.9356 B(  2-N ,  5-C ) :   1.0422 B(  2-N , 10-H ) :   1.0234
B(  5-C ,  6-N ) :   0.9741 B(  5-C ,  7-C ) :   1.1479 B(  5-C ,  9-H ) :  -0.1074
B(  6-N , 11-H ) :   1.0305 B(  6-N , 12-H ) :   0.9938 B(  7-C ,  8-H ) :   1.0057
B(  7-C ,  9-H ) :   1.0558

Dispersion correction           -0.025967825
FINAL SINGLE POINT ENERGY      -267.903428623785

DIPOLE MOMENT
-------------
                                X             Y             Z
Electronic contribution:     -2.78848      -2.28039       2.20422
Nuclear contribution   :      1.81275       2.23313      -2.77458
                        -----------------------------------------
Total Dipole Moment    :     -0.97572      -0.04726      -0.57035
                        -----------------------------------------
Magnitude (a.u.)       :      1.13118
Magnitude (Debye)      :      2.87524

Rotational constants in cm-1:     0.245202     0.073668     0.064348
Rotational constants in MHz :  7350.977980  2208.513334  1929.108541

                             ****ORCA TERMINATED NORMALLY****
TOTAL RUN TIME: 0 days 0 hours 0 minutes 19 seconds 549 msec
