                         Program Version 5.0.0 -  RELEASE  -
|  1> !BLYP D3BJ RIJCOSX def2-TZVPD def2/J TightSCF xyzfile
|  2>
|  3> *xyzfile 0 1 D1.xyz
|  4>
|  5> %MaxCore 64000
|  6>
|  7> %pal nprocs 4
|  8> end
|  9>
| 10> %scf
| 11>   MaxIter 150
| 12> end
| 13>
| 14>
| 15>                          ****END OF INPUT****

CARTESIAN COORDINATES (ANGSTROEM)
---------------------------------
  C      3.488276    1.600919   -1.522040
  C      4.342970    1.313419   -2.756826
  C      2.810285    0.428783   -1.014196
  H      5.132033    0.604994   -2.484466
  C      3.535896    0.749253   -3.924604
  H      4.841247    2.242136   -3.054083
  H      2.991617   -0.132199   -3.574137
  H      4.225505    0.392784   -4.695962
  C      2.564776    1.750890   -4.544523
  H      1.918749    2.171679   -3.769419
  C      1.686235    1.161657   -5.650111
  H      3.132494    2.594775   -4.951604
  C      0.839616   -0.037582   -5.220473
  H      2.323886    0.866395   -6.490796
  H      1.029518    1.951850   -6.029329
  C     -0.151019    0.254955   -4.094256
  H      1.499442   -0.857141   -4.922958
  H      0.290097   -0.410143   -6.091131
  H      0.328265    0.833022   -3.299125
  C     -0.721843   -0.999513   -3.439309
  H     -0.957367    0.884951   -4.485450
  H     -1.083403   -1.697555   -4.205656
  H     -1.581056   -0.723848   -2.820490
  C      0.287250   -1.711771   -2.527405
  H      1.131780   -2.067380   -3.159396
  H     -0.204137   -2.637326   -2.170480
  F      0.710505   -0.927506   -1.481767
  H      2.714548    2.331455   -1.760302
  H      4.090991    2.063151   -0.733382
  C      3.290978   -0.418021   -0.129083
  N      2.517536   -1.432017    0.239360
  N      4.535490   -0.284410    0.395800
  H      5.043627    0.571888    0.222899
  H      4.723346   -0.733273    1.281800
  H      1.934787    0.102305   -1.403788
  H      1.674638   -1.505616   -0.316095
  H      2.928503   -2.218502    0.725494

 Total Charge           Charge          ....    0
 Multiplicity           Mult            ....    1
 Number of Electrons    NEL             ....  112
 Basis Dimension        Dim             ....  728

ORBITAL ENERGIES
----------------

  NO   OCC          E(Eh)            E(eV)
   0   2.0000     -24.301855      -661.2871
   1   2.0000     -13.993188      -380.7740
   2   2.0000     -13.977635      -380.3508
   3   2.0000      -9.992046      -271.8974
   4   2.0000      -9.923105      -270.0214
   5   2.0000      -9.915635      -269.8181
   6   2.0000      -9.900816      -269.4149
   7   2.0000      -9.896666      -269.3020
   8   2.0000      -9.892205      -269.1806
   9   2.0000      -9.884605      -268.9738
  10   2.0000      -9.879304      -268.8295
  11   2.0000      -9.874441      -268.6972
  12   2.0000      -9.868593      -268.5381
  13   2.0000      -9.804506      -266.7942
  14   2.0000      -1.129289       -30.7295
  15   2.0000      -0.852755       -23.2046
  16   2.0000      -0.772614       -21.0239
  17   2.0000      -0.737155       -20.0590
  18   2.0000      -0.713716       -19.4212
  19   2.0000      -0.686538       -18.6817
  20   2.0000      -0.655553       -17.8385
  21   2.0000      -0.619900       -16.8683
  22   2.0000      -0.596388       -16.2285
  23   2.0000      -0.565402       -15.3854
  24   2.0000      -0.538637       -14.6570
  25   2.0000      -0.526440       -14.3252
  26   2.0000      -0.502998       -13.6873
  27   2.0000      -0.487062       -13.2536
  28   2.0000      -0.474945       -12.9239
  29   2.0000      -0.463274       -12.6063
  30   2.0000      -0.457291       -12.4435
  31   2.0000      -0.437579       -11.9071
  32   2.0000      -0.431628       -11.7452
  33   2.0000      -0.409459       -11.1420
  34   2.0000      -0.402804       -10.9609
  35   2.0000      -0.391975       -10.6662
  36   2.0000      -0.385170       -10.4810
  37   2.0000      -0.372013       -10.1230
  38   2.0000      -0.363193        -9.8830
  39   2.0000      -0.352884        -9.6025
  40   2.0000      -0.345964        -9.4142
  41   2.0000      -0.327293        -8.9061
  42   2.0000      -0.325250        -8.8505
  43   2.0000      -0.316044        -8.6000
  44   2.0000      -0.313479        -8.5302
  45   2.0000      -0.312520        -8.5041
  46   2.0000      -0.292618        -7.9626
  47   2.0000      -0.285893        -7.7796
  48   2.0000      -0.277792        -7.5591
  49   2.0000      -0.275523        -7.4974
  50   2.0000      -0.272864        -7.4250
  51   2.0000      -0.259578        -7.0635
  52   2.0000      -0.253266        -6.8917
  53   2.0000      -0.247384        -6.7317
  54   2.0000      -0.203784        -5.5452
  55   2.0000      -0.114343        -3.1114
  56   0.0000      -0.014633        -0.3982
  57   0.0000      -0.006518        -0.1774
  58   0.0000      -0.000702        -0.0191
  59   0.0000       0.004710         0.1282
  60   0.0000       0.015258         0.4152

MULLIKEN ATOMIC CHARGES
-----------------------
   0 C :   -0.704004
   1 C :   -0.499724
   2 C :   -1.066959
   3 H :    0.286330
   4 C :   -0.229403
   5 H :    0.202981
   6 H :    0.075628
   7 H :    0.265335
   8 C :   -0.388361
   9 H :    0.218131
  10 C :   -0.788835
  11 H :    0.246486
  12 C :   -0.443497
  13 H :    0.286455
  14 H :    0.280803
  15 C :   -0.264287
  16 H :    0.229139
  17 H :    0.296881
  18 H :    0.133331
  19 C :   -0.657196
  20 H :    0.293766
  21 H :    0.266269
  22 H :    0.292341
  23 C :   -0.388431
  24 H :    0.322977
  25 H :    0.280747
  26 F :   -0.506392
  27 H :    0.261275
  28 H :    0.310106
  29 C :   -0.381762
  30 N :   -0.383171
  31 N :   -0.366402
  32 H :    0.166139
  33 H :    0.126772
  34 H :    1.781653
  35 H :    0.363406
  36 H :    0.081473
Sum of atomic charges:   -0.0000000

LOEWDIN ATOMIC CHARGES
----------------------
   0 C :   -0.219882
   1 C :   -0.196965
   2 C :   -0.125329
   3 H :    0.105233
   4 C :   -0.205478
   5 H :    0.101777
   6 H :    0.090843
   7 H :    0.112102
   8 C :   -0.208871
   9 H :    0.092621
  10 C :   -0.203595
  11 H :    0.112002
  12 C :   -0.212250
  13 H :    0.106101
  14 H :    0.105905
  15 C :   -0.202334
  16 H :    0.090571
  17 H :    0.110247
  18 H :    0.099425
  19 C :   -0.171925
  20 H :    0.115557
  21 H :    0.117560
  22 H :    0.109411
  23 C :   -0.201395
  24 H :    0.120317
  25 H :    0.119832
  26 F :   -0.056667
  27 H :    0.097533
  28 H :    0.097248
  29 C :   -0.525123
  30 N :    0.126142
  31 N :    0.140462
  32 H :    0.081669
  33 H :    0.084805
  34 H :    0.037585
  35 H :    0.061755
  36 H :    0.093111

  Mayer bond orders larger than 0.100000
B(  0-C ,  1-C ) :   0.7056 B(  0-C ,  2-C ) :   0.4147 B(  0-C ,  8-C ) :   0.1276
B(  0-C , 27-H ) :   0.9554 B(  0-C , 28-H ) :   0.9472 B(  0-C , 29-C ) :   0.2979
B(  1-C ,  3-H ) :   0.9260 B(  1-C ,  4-C ) :   0.9432 B(  1-C ,  5-H ) :   0.9554
B(  1-C ,  8-C ) :   0.1203 B(  2-C ,  4-C ) :   0.1575 B(  2-C , 26-F ) :   0.5816
B(  2-C , 29-C ) :   2.1067 B(  2-C , 30-N ) :  -0.1062 B(  2-C , 32-H ) :  -0.1020
B(  2-C , 34-H ) :  -0.5799 B(  4-C ,  6-H ) :   1.3418 B(  4-C ,  7-H ) :   0.8602
B(  4-C ,  8-C ) :   0.2635 B(  4-C ,  9-H ) :  -0.1243 B(  4-C , 10-C ) :   0.1126
B(  4-C , 12-C ) :   0.1373 B(  6-H ,  8-C ) :  -0.1645 B(  8-C ,  9-H ) :   1.0171
B(  8-C , 10-C ) :   0.8511 B(  8-C , 11-H ) :   0.9587 B(  8-C , 15-C ) :   0.1127
B( 10-C , 12-C ) :   0.8763 B( 10-C , 13-H ) :   0.9467 B( 10-C , 14-H ) :   0.9410
B( 10-C , 15-C ) :   0.1866 B( 12-C , 15-C ) :   0.2407 B( 12-C , 16-H ) :   1.0038
B( 12-C , 17-H ) :   0.9355 B( 12-C , 19-C ) :   0.2025 B( 15-C , 16-H ) :  -0.1173
B( 15-C , 18-H ) :   1.1300 B( 15-C , 19-C ) :   0.8838 B( 15-C , 20-H ) :   0.8847
B( 19-C , 21-H ) :   0.9493 B( 19-C , 22-H ) :   0.9217 B( 19-C , 23-C ) :   0.8780
B( 19-C , 26-F ) :   0.1718 B( 23-C , 24-H ) :   0.9223 B( 23-C , 25-H ) :   0.9045
B( 23-C , 26-F ) :   0.6049 B( 26-F , 29-C ) :   0.1485 B( 26-F , 34-H ) :  -0.9692
B( 26-F , 35-H ) :   0.1206 B( 29-C , 30-N ) :   1.1830 B( 29-C , 31-N ) :   1.0192
B( 29-C , 34-H ) :  -0.5088 B( 29-C , 35-H ) :   0.1154 B( 30-N , 35-H ) :   0.6973
B( 30-N , 36-H ) :   1.0969 B( 31-N , 32-H ) :   0.9562 B( 31-N , 33-H ) :   1.0409
B( 34-H , 35-H ) :  -0.1375

Dispersion correction           -0.079902114
FINAL SINGLE POINT ENERGY      -642.316594078113

DIPOLE MOMENT
-------------
                                X             Y             Z
Electronic contribution:     -1.60382      -4.82734      10.71098
Nuclear contribution   :      1.15699       3.94991     -10.89335
                        -----------------------------------------
Total Dipole Moment    :     -0.44684      -0.87743      -0.18238
                        -----------------------------------------
Magnitude (a.u.)       :      1.00140
Magnitude (Debye)      :      2.54536

Rotational constants in cm-1:     0.026548     0.016177     0.010851
Rotational constants in MHz :   795.884848   484.988695   325.313537

                             ****ORCA TERMINATED NORMALLY****
TOTAL RUN TIME: 0 days 0 hours 1 minutes 52 seconds 47 msec
