                         Program Version 5.0.0 -  RELEASE  -
|  1> !BLYP D3BJ RIJCOSX def2-TZVPD def2/J TightSCF xyzfile
|  2>
|  3> *xyzfile 0 1 D2.xyz
|  4>
|  5> %MaxCore 64000
|  6>
|  7> %pal nprocs 4
|  8> end
|  9>
| 10> %scf
| 11>   MaxIter 150
| 12> end
| 13>
| 14>
| 15>                          ****END OF INPUT****

CARTESIAN COORDINATES (ANGSTROEM)
---------------------------------
  C      3.488276    1.600919   -1.522040
  C      4.342970    1.313419   -2.756826
  N      2.810285    0.428783   -1.014196
  H      5.132033    0.604994   -2.484466
  C      3.535896    0.749253   -3.924604
  H      4.841247    2.242136   -3.054083
  H      2.991617   -0.132199   -3.574137
  H      4.225505    0.392784   -4.695962
  C      2.564776    1.750890   -4.544523
  H      1.918749    2.171679   -3.769419
  C      1.686235    1.161657   -5.650111
  H      3.132494    2.594775   -4.951604
  C      0.839616   -0.037582   -5.220473
  H      2.323886    0.866395   -6.490796
  H      1.029518    1.951850   -6.029329
  C     -0.151019    0.254955   -4.094256
  H      1.499442   -0.857141   -4.922958
  H      0.290097   -0.410143   -6.091131
  H      0.328265    0.833022   -3.299125
  C     -0.721843   -0.999513   -3.439309
  H     -0.957367    0.884951   -4.485450
  H     -1.083403   -1.697555   -4.205656
  H     -1.581056   -0.723848   -2.820490
  C      0.287250   -1.711771   -2.527405
  H      1.131780   -2.067380   -3.159396
  H     -0.204137   -2.637326   -2.170480
  F      0.710505   -0.927506   -1.481767
  H      2.714548    2.331455   -1.760302
  H      4.090991    2.063151   -0.733382
  C      3.290978   -0.418021   -0.129083
  C      2.517536   -1.432017    0.239360
  N      4.535490   -0.284410    0.395800
  H      5.043627    0.571888    0.222899
  H      4.723346   -0.733273    1.281800
  H      1.934787    0.102305   -1.403788
  H      1.674638   -1.505616   -0.316095
  H      2.928503   -2.218502    0.725494

 Total Charge           Charge          ....    0
 Multiplicity           Mult            ....    1
 Number of Electrons    NEL             ....  112
 Basis Dimension        Dim             ....  728

ORBITAL ENERGIES
----------------

  NO   OCC          E(Eh)            E(eV)
   0   2.0000     -24.299430      -661.2211
   1   2.0000     -13.991035      -380.7154
   2   2.0000     -13.981474      -380.4552
   3   2.0000      -9.990958      -271.8678
   4   2.0000      -9.930836      -270.2318
   5   2.0000      -9.924710      -270.0651
   6   2.0000      -9.917364      -269.8652
   7   2.0000      -9.907550      -269.5982
   8   2.0000      -9.903964      -269.5006
   9   2.0000      -9.902024      -269.4478
  10   2.0000      -9.898912      -269.3631
  11   2.0000      -9.897001      -269.3111
  12   2.0000      -9.896227      -269.2900
  13   2.0000      -9.789323      -266.3810
  14   2.0000      -1.126897       -30.6644
  15   2.0000      -0.861918       -23.4540
  16   2.0000      -0.785004       -21.3611
  17   2.0000      -0.744571       -20.2608
  18   2.0000      -0.719428       -19.5766
  19   2.0000      -0.694670       -18.9029
  20   2.0000      -0.652784       -17.7632
  21   2.0000      -0.630858       -17.1665
  22   2.0000      -0.598767       -16.2933
  23   2.0000      -0.574841       -15.6422
  24   2.0000      -0.546233       -14.8637
  25   2.0000      -0.533712       -14.5230
  26   2.0000      -0.514728       -14.0065
  27   2.0000      -0.498285       -13.5590
  28   2.0000      -0.475798       -12.9471
  29   2.0000      -0.463569       -12.6144
  30   2.0000      -0.454132       -12.3576
  31   2.0000      -0.438284       -11.9263
  32   2.0000      -0.429616       -11.6904
  33   2.0000      -0.419461       -11.4141
  34   2.0000      -0.413502       -11.2520
  35   2.0000      -0.401297       -10.9199
  36   2.0000      -0.385402       -10.4873
  37   2.0000      -0.379970       -10.3395
  38   2.0000      -0.376953       -10.2574
  39   2.0000      -0.364225        -9.9111
  40   2.0000      -0.345512        -9.4019
  41   2.0000      -0.335351        -9.1254
  42   2.0000      -0.326848        -8.8940
  43   2.0000      -0.325965        -8.8700
  44   2.0000      -0.317267        -8.6333
  45   2.0000      -0.312846        -8.5130
  46   2.0000      -0.301105        -8.1935
  47   2.0000      -0.298931        -8.1343
  48   2.0000      -0.291953        -7.9444
  49   2.0000      -0.285173        -7.7599
  50   2.0000      -0.275657        -7.5010
  51   2.0000      -0.273573        -7.4443
  52   2.0000      -0.272537        -7.4161
  53   2.0000      -0.268617        -7.3094
  54   2.0000      -0.197631        -5.3778
  55   2.0000      -0.110066        -2.9951
  56   0.0000      -0.013632        -0.3710
  57   0.0000      -0.008935        -0.2431
  58   0.0000      -0.003995        -0.1087
  59   0.0000       0.000444         0.0121
  60   0.0000       0.014276         0.3885

MULLIKEN ATOMIC CHARGES
-----------------------
   0 C :   -1.071133
   1 C :   -0.484574
   2 N :   -0.162838
   3 H :    0.309610
   4 C :   -0.268980
   5 H :    0.304234
   6 H :    0.046303
   7 H :    0.268773
   8 C :   -0.362423
   9 H :    0.248878
  10 C :   -0.819903
  11 H :    0.250806
  12 C :   -0.443445
  13 H :    0.283405
  14 H :    0.284063
  15 C :   -0.298328
  16 H :    0.228859
  17 H :    0.296566
  18 H :    0.145449
  19 C :   -0.621738
  20 H :    0.301156
  21 H :    0.258290
  22 H :    0.291879
  23 C :   -0.414619
  24 H :    0.320973
  25 H :    0.300047
  26 F :   -0.537379
  27 H :    0.329611
  28 H :    0.383182
  29 C :    0.734723
  30 C :   -1.436093
  31 N :   -0.359691
  32 H :    0.144135
  33 H :    0.178427
  34 H :    0.477321
  35 H :    0.596956
  36 H :    0.297500
Sum of atomic charges:    0.0000000

LOEWDIN ATOMIC CHARGES
----------------------
   0 C :   -0.188752
   1 C :   -0.182936
   2 N :    0.047680
   3 H :    0.105998
   4 C :   -0.203235
   5 H :    0.106617
   6 H :    0.092801
   7 H :    0.114983
   8 C :   -0.211082
   9 H :    0.090580
  10 C :   -0.202043
  11 H :    0.112874
  12 C :   -0.211560
  13 H :    0.107400
  14 H :    0.107213
  15 C :   -0.204327
  16 H :    0.090988
  17 H :    0.111844
  18 H :    0.095932
  19 C :   -0.172151
  20 H :    0.115919
  21 H :    0.117880
  22 H :    0.109975
  23 C :   -0.199125
  24 H :    0.120106
  25 H :    0.124286
  26 F :   -0.058579
  27 H :    0.106114
  28 H :    0.106174
  29 C :   -0.544519
  30 C :    0.009267
  31 N :    0.134158
  32 H :    0.072180
  33 H :    0.098768
  34 H :    0.092424
  35 H :   -0.020243
  36 H :    0.006392

  Mayer bond orders larger than 0.100000
B(  0-C ,  1-C ) :   0.6989 B(  0-C ,  2-N ) :   1.0458 B(  0-C ,  8-C ) :   0.1413
B(  0-C , 27-H ) :   0.8474 B(  0-C , 28-H ) :   0.8164 B(  0-C , 29-C ) :  -0.1959
B(  0-C , 34-H ) :  -0.2215 B(  1-C ,  3-H ) :   0.9084 B(  1-C ,  4-C ) :   0.9494
B(  1-C ,  5-H ) :   0.9606 B(  1-C ,  6-H ) :   0.1100 B(  1-C ,  8-C ) :   0.1137
B(  2-N , 29-C ) :   0.8752 B(  2-N , 34-H ) :   0.8701 B(  4-C ,  6-H ) :   1.3247
B(  4-C ,  7-H ) :   0.8717 B(  4-C ,  8-C ) :   0.2475 B(  4-C ,  9-H ) :  -0.1219
B(  4-C , 10-C ) :   0.1184 B(  4-C , 12-C ) :   0.1323 B(  6-H ,  8-C ) :  -0.1601
B(  8-C ,  9-H ) :   0.9869 B(  8-C , 10-C ) :   0.8659 B(  8-C , 11-H ) :   0.9531
B(  8-C , 15-C ) :   0.1182 B( 10-C , 12-C ) :   0.8652 B( 10-C , 13-H ) :   0.9534
B( 10-C , 14-H ) :   0.9375 B( 10-C , 15-C ) :   0.2029 B( 12-C , 15-C ) :   0.2499
B( 12-C , 16-H ) :   1.0034 B( 12-C , 17-H ) :   0.9285 B( 12-C , 19-C ) :   0.1927
B( 15-C , 16-H ) :  -0.1155 B( 15-C , 18-H ) :   1.1204 B( 15-C , 19-C ) :   0.9051
B( 15-C , 20-H ) :   0.8777 B( 18-H , 26-F ) :   0.1085 B( 19-C , 21-H ) :   0.9605
B( 19-C , 22-H ) :   0.9147 B( 19-C , 23-C ) :   0.8582 B( 19-C , 26-F ) :   0.1459
B( 23-C , 24-H ) :   0.9248 B( 23-C , 25-H ) :   0.8889 B( 23-C , 26-F ) :   0.6240
B( 26-F , 30-C ) :   0.2460 B( 26-F , 35-H ) :  -0.1220 B( 29-C , 30-C ) :   1.0987
B( 29-C , 31-N ) :   0.9448 B( 29-C , 34-H ) :  -0.1280 B( 29-C , 36-H ) :  -0.1391
B( 30-C , 31-N ) :   0.1042 B( 30-C , 35-H ) :   0.7247 B( 30-C , 36-H ) :   1.1804
B( 31-N , 32-H ) :   1.0023 B( 31-N , 33-H ) :   0.9819

Dispersion correction           -0.079329546
FINAL SINGLE POINT ENERGY      -642.304728929584

DIPOLE MOMENT
-------------
                                X             Y             Z
Electronic contribution:     -1.28685      -3.13839       9.46053
Nuclear contribution   :      1.09892       3.58083     -10.64472
                        -----------------------------------------
Total Dipole Moment    :     -0.18793       0.44244      -1.18419
                        -----------------------------------------
Magnitude (a.u.)       :      1.27803
Magnitude (Debye)      :      3.24850

Rotational constants in cm-1:     0.026768     0.016312     0.010954
Rotational constants in MHz :   802.489946   489.033275   328.388904

                             ****ORCA TERMINATED NORMALLY****
TOTAL RUN TIME: 0 days 0 hours 1 minutes 44 seconds 933 msec
