                         Program Version 5.0.0 -  RELEASE  -
|  1> !BLYP D3BJ RIJCOSX def2-TZVPD def2/J TightSCF xyzfile
|  2>
|  3> *xyzfile 0 1 D3.xyz
|  4>
|  5> %MaxCore 64000
|  6>
|  7> %pal nprocs 4
|  8> end
|  9>
| 10> %scf
| 11>   MaxIter 150
| 12> end
| 13>
| 14>
| 15>                          ****END OF INPUT****

CARTESIAN COORDINATES (ANGSTROEM)
---------------------------------
  C      3.488276    1.600919   -1.522040
  C      4.342970    1.313419   -2.756826
  N      2.810285    0.428783   -1.014196
  H      5.132033    0.604994   -2.484466
  C      3.535896    0.749253   -3.924604
  H      4.841247    2.242136   -3.054083
  H      2.991617   -0.132199   -3.574137
  H      4.225505    0.392784   -4.695962
  C      2.564776    1.750890   -4.544523
  H      1.918749    2.171679   -3.769419
  C      1.686235    1.161657   -5.650111
  H      3.132494    2.594775   -4.951604
  C      0.839616   -0.037582   -5.220473
  H      2.323886    0.866395   -6.490796
  H      1.029518    1.951850   -6.029329
  C     -0.151019    0.254955   -4.094256
  H      1.499442   -0.857141   -4.922958
  H      0.290097   -0.410143   -6.091131
  H      0.328265    0.833022   -3.299125
  C     -0.721843   -0.999513   -3.439309
  H     -0.957367    0.884951   -4.485450
  H     -1.083403   -1.697555   -4.205656
  H     -1.581056   -0.723848   -2.820490
  C      0.287250   -1.711771   -2.527405
  H      1.131780   -2.067380   -3.159396
  H     -0.204137   -2.637326   -2.170480
  F      0.710505   -0.927506   -1.481767
  H      2.714548    2.331455   -1.760302
  H      4.090991    2.063151   -0.733382
  C      3.290978   -0.418021   -0.129083
  N      2.517536   -1.432017    0.239360
  C      4.535490   -0.284410    0.395800
  H      5.043627    0.571888    0.222899
  H      4.723346   -0.733273    1.281800
  H      1.934787    0.102305   -1.403788
  H      1.674638   -1.505616   -0.316095
  H      2.928503   -2.218502    0.725494

 Total Charge           Charge          ....    0
 Multiplicity           Mult            ....    1
 Number of Electrons    NEL             ....  112
 Basis Dimension        Dim             ....  728

ORBITAL ENERGIES
----------------

  NO   OCC          E(Eh)            E(eV)
   0   2.0000     -24.328042      -661.9997
   1   2.0000     -13.984792      -380.5455
   2   2.0000     -13.979137      -380.3917
   3   2.0000     -10.008549      -272.3465
   4   2.0000      -9.929151      -270.1859
   5   2.0000      -9.926171      -270.1048
   6   2.0000      -9.922939      -270.0169
   7   2.0000      -9.914835      -269.7964
   8   2.0000      -9.908819      -269.6327
   9   2.0000      -9.903945      -269.5000
  10   2.0000      -9.898402      -269.3492
  11   2.0000      -9.894661      -269.2474
  12   2.0000      -9.889301      -269.1016
  13   2.0000      -9.799729      -266.6642
  14   2.0000      -1.154226       -31.4081
  15   2.0000      -0.866912       -23.5899
  16   2.0000      -0.784870       -21.3574
  17   2.0000      -0.750855       -20.4318
  18   2.0000      -0.722705       -19.6658
  19   2.0000      -0.691540       -18.8178
  20   2.0000      -0.653161       -17.7734
  21   2.0000      -0.623376       -16.9629
  22   2.0000      -0.614200       -16.7132
  23   2.0000      -0.585376       -15.9289
  24   2.0000      -0.555716       -15.1218
  25   2.0000      -0.531130       -14.4528
  26   2.0000      -0.512838       -13.9550
  27   2.0000      -0.499301       -13.5867
  28   2.0000      -0.493287       -13.4230
  29   2.0000      -0.469942       -12.7878
  30   2.0000      -0.461748       -12.5648
  31   2.0000      -0.451719       -12.2919
  32   2.0000      -0.438554       -11.9337
  33   2.0000      -0.422027       -11.4839
  34   2.0000      -0.409491       -11.1428
  35   2.0000      -0.402546       -10.9538
  36   2.0000      -0.389723       -10.6049
  37   2.0000      -0.385584       -10.4923
  38   2.0000      -0.377244       -10.2653
  39   2.0000      -0.362083        -9.8528
  40   2.0000      -0.350815        -9.5461
  41   2.0000      -0.337369        -9.1803
  42   2.0000      -0.333044        -9.0626
  43   2.0000      -0.325982        -8.8704
  44   2.0000      -0.321900        -8.7593
  45   2.0000      -0.314278        -8.5519
  46   2.0000      -0.307072        -8.3558
  47   2.0000      -0.302605        -8.2343
  48   2.0000      -0.295175        -8.0321
  49   2.0000      -0.292679        -7.9642
  50   2.0000      -0.287254        -7.8166
  51   2.0000      -0.275625        -7.5001
  52   2.0000      -0.273980        -7.4554
  53   2.0000      -0.267391        -7.2761
  54   2.0000      -0.188053        -5.1172
  55   2.0000      -0.114025        -3.1028
  56   0.0000      -0.021568        -0.5869
  57   0.0000      -0.011346        -0.3088
  58   0.0000      -0.003594        -0.0978
  59   0.0000       0.000121         0.0033
  60   0.0000       0.010424         0.2837

MULLIKEN ATOMIC CHARGES
-----------------------
   0 C :   -1.007683
   1 C :   -0.517780
   2 N :   -0.257593
   3 H :    0.321286
   4 C :   -0.261056
   5 H :    0.289110
   6 H :    0.016378
   7 H :    0.278859
   8 C :   -0.342160
   9 H :    0.224069
  10 C :   -0.837458
  11 H :    0.252818
  12 C :   -0.436493
  13 H :    0.284770
  14 H :    0.284097
  15 C :   -0.299452
  16 H :    0.228638
  17 H :    0.299059
  18 H :    0.156900
  19 C :   -0.653192
  20 H :    0.298810
  21 H :    0.258371
  22 H :    0.293266
  23 C :   -0.365693
  24 H :    0.316301
  25 H :    0.293791
  26 F :   -0.542452
  27 H :    0.334863
  28 H :    0.373861
  29 C :    0.703727
  30 N :   -0.403076
  31 C :   -1.402250
  32 H :    0.304718
  33 H :    0.326385
  34 H :    0.630304
  35 H :    0.444687
  36 H :    0.111269
Sum of atomic charges:    0.0000000

LOEWDIN ATOMIC CHARGES
----------------------
   0 C :   -0.183365
   1 C :   -0.176575
   2 N :    0.045361
   3 H :    0.107946
   4 C :   -0.204859
   5 H :    0.108895
   6 H :    0.090081
   7 H :    0.114866
   8 C :   -0.211175
   9 H :    0.090223
  10 C :   -0.201795
  11 H :    0.113601
  12 C :   -0.211464
  13 H :    0.107875
  14 H :    0.107277
  15 C :   -0.203059
  16 H :    0.090696
  17 H :    0.112032
  18 H :    0.096549
  19 C :   -0.170115
  20 H :    0.117229
  21 H :    0.119924
  22 H :    0.110812
  23 C :   -0.196346
  24 H :    0.121920
  25 H :    0.123805
  26 F :   -0.048748
  27 H :    0.105843
  28 H :    0.111177
  29 C :   -0.556579
  30 N :    0.133762
  31 C :    0.006782
  32 H :   -0.018592
  33 H :   -0.005355
  34 H :    0.087900
  35 H :    0.054992
  36 H :    0.108480

  Mayer bond orders larger than 0.100000
B(  0-C ,  1-C ) :   0.7374 B(  0-C ,  2-N ) :   1.0256 B(  0-C ,  8-C ) :   0.1460
B(  0-C , 27-H ) :   0.7924 B(  0-C , 28-H ) :   0.8053 B(  0-C , 29-C ) :  -0.1413
B(  0-C , 31-C ) :   0.1051 B(  0-C , 34-H ) :  -0.2913 B(  1-C ,  3-H ) :   0.9231
B(  1-C ,  4-C ) :   0.9415 B(  1-C ,  5-H ) :   0.9244 B(  1-C ,  8-C ) :   0.1129
B(  2-N , 29-C ) :   0.8986 B(  2-N , 34-H ) :   0.7562 B(  4-C ,  6-H ) :   1.3426
B(  4-C ,  7-H ) :   0.8699 B(  4-C ,  8-C ) :   0.2475 B(  4-C ,  9-H ) :  -0.1268
B(  4-C , 10-C ) :   0.1253 B(  4-C , 12-C ) :   0.1318 B(  6-H ,  8-C ) :  -0.1602
B(  8-C ,  9-H ) :   1.0008 B(  8-C , 10-C ) :   0.8638 B(  8-C , 11-H ) :   0.9502
B(  8-C , 15-C ) :   0.1154 B( 10-C , 12-C ) :   0.8782 B( 10-C , 13-H ) :   0.9510
B( 10-C , 14-H ) :   0.9403 B( 10-C , 15-C ) :   0.2049 B( 12-C , 15-C ) :   0.2402
B( 12-C , 16-H ) :   1.0029 B( 12-C , 17-H ) :   0.9294 B( 12-C , 19-C ) :   0.1907
B( 15-C , 16-H ) :  -0.1207 B( 15-C , 18-H ) :   1.1126 B( 15-C , 19-C ) :   0.8922
B( 15-C , 20-H ) :   0.8812 B( 19-C , 21-H ) :   0.9484 B( 19-C , 22-H ) :   0.9284
B( 19-C , 23-C ) :   0.8822 B( 19-C , 26-F ) :   0.1739 B( 23-C , 24-H ) :   0.9332
B( 23-C , 25-H ) :   0.8909 B( 23-C , 26-F ) :   0.5917 B( 26-F , 34-H ) :  -0.1465
B( 29-C , 30-N ) :   1.1154 B( 29-C , 31-C ) :   0.9452 B( 29-C , 33-H ) :  -0.1225
B( 30-N , 35-H ) :   0.6685 B( 30-N , 36-H ) :   1.0468 B( 31-C , 32-H ) :   1.0494
B( 31-C , 33-H ) :   1.1119

Dispersion correction           -0.079330557
FINAL SINGLE POINT ENERGY      -642.316660487179

DIPOLE MOMENT
-------------
                                X             Y             Z
Electronic contribution:     -3.22140      -4.27986       9.10663
Nuclear contribution   :      1.49917       3.80845     -10.61369
                        -----------------------------------------
Total Dipole Moment    :     -1.72223      -0.47141      -1.50705
                        -----------------------------------------
Magnitude (a.u.)       :      2.33656
Magnitude (Debye)      :      5.93906

Rotational constants in cm-1:     0.026547     0.016542     0.011018
Rotational constants in MHz :   795.873737   495.912559   330.323979

                             ****ORCA TERMINATED NORMALLY****
TOTAL RUN TIME: 0 days 0 hours 2 minutes 3 seconds 118 msec
