                         Program Version 5.0.0 -  RELEASE  -
|  1> !BLYP D3BJ RIJCOSX def2-SVP def2/J TightSCF
|  2> *xyz -1 1
|  3> C         -0.10608        1.76991       -4.08984
|  4> C         -0.25875        1.00432       -5.40983
|  5> C          0.39596       -0.37070       -5.33994
|  6> H          0.23915        1.56939       -6.20125
|  7> H         -1.30936        0.88869       -5.68245
|  8> O         -0.32633       -1.39040       -5.49128
|  9> O          1.61941       -0.40073       -5.03683
| 10> H         -0.57627        2.72718       -4.17630
| 11> H          0.93321        1.90140       -3.87192
| 12> H         -0.56868        1.21534       -3.30031
| 13> *
| 14> %MaxCore 64000
| 15>
| 16> %pal nprocs 4
| 17> end
| 18>
| 19> %scf
| 20>   MaxIter 150
| 21> end
| 22>
| 23>
| 24>                          ****END OF INPUT****

CARTESIAN COORDINATES (ANGSTROEM)
---------------------------------
  C     -0.106080    1.769910   -4.089840
  C     -0.258750    1.004320   -5.409830
  C      0.395960   -0.370700   -5.339940
  H      0.239150    1.569390   -6.201250
  H     -1.309360    0.888690   -5.682450
  O     -0.326330   -1.390400   -5.491280
  O      1.619410   -0.400730   -5.036830
  H     -0.576270    2.727180   -4.176300
  H      0.933210    1.901400   -3.871920
  H     -0.568680    1.215340   -3.300310

 Total Charge           Charge          ....   -1
 Multiplicity           Mult            ....    1
 Number of Electrons    NEL             ....   40
 Basis Dimension        Dim             ....   95

ORBITAL ENERGIES
----------------

  NO   OCC          E(Eh)            E(eV)
   0   2.0000     -18.479657      -502.8570
   1   2.0000     -18.479409      -502.8503
   2   2.0000      -9.761536      -265.6249
   3   2.0000      -9.748043      -265.2577
   4   2.0000      -9.726395      -264.6687
   5   2.0000      -0.671078       -18.2610
   6   2.0000      -0.581638       -15.8272
   7   2.0000      -0.501757       -13.6535
   8   2.0000      -0.379772       -10.3341
   9   2.0000      -0.237229        -6.4553
  10   2.0000      -0.221408        -6.0248
  11   2.0000      -0.176793        -4.8108
  12   2.0000      -0.155281        -4.2254
  13   2.0000      -0.140035        -3.8106
  14   2.0000      -0.119218        -3.2441
  15   2.0000      -0.087783        -2.3887
  16   2.0000      -0.080139        -2.1807
  17   2.0000       0.037524         1.0211
  18   2.0000       0.045992         1.2515
  19   2.0000       0.067561         1.8384
  20   0.0000       0.197037         5.3617
  21   0.0000       0.244558         6.6548
  22   0.0000       0.253244         6.8911
  23   0.0000       0.260155         7.0792
  24   0.0000       0.264928         7.2091

MULLIKEN ATOMIC CHARGES
-----------------------
   0 C :    0.104213
   1 C :    0.131455
   2 C :   -0.100975
   3 H :   -0.089231
   4 H :   -0.108576
   5 O :   -0.369049
   6 O :   -0.382790
   7 H :   -0.087707
   8 H :   -0.048665
   9 H :   -0.048675
Sum of atomic charges:   -1.0000000

LOEWDIN ATOMIC CHARGES
----------------------
   0 C :   -0.048632
   1 C :   -0.078023
   2 C :   -0.090852
   3 H :   -0.007681
   4 H :   -0.017919
   5 O :   -0.366644
   6 O :   -0.374702
   7 H :   -0.016477
   8 H :   -0.001262
   9 H :    0.002191

  Mayer bond orders larger than 0.100000
B(  0-C ,  1-C ) :   1.1194 B(  0-C ,  7-H ) :   0.9448 B(  0-C ,  8-H ) :   0.9462
B(  0-C ,  9-H ) :   0.9622 B(  1-C ,  2-C ) :   0.9170 B(  1-C ,  3-H ) :   0.9038
B(  1-C ,  4-H ) :   0.9009 B(  2-C ,  5-O ) :   1.9053 B(  2-C ,  6-O ) :   1.8478
B(  5-O ,  6-O ) :   0.1375

Dispersion correction           -0.013584565
FINAL SINGLE POINT ENERGY      -267.536788155253

DIPOLE MOMENT
-------------
                                X             Y             Z
Electronic contribution:      1.88753      -5.68404      -1.71808
Nuclear contribution   :     -2.46071       7.20791       1.95694
                        -----------------------------------------
Total Dipole Moment    :     -0.57319       1.52388       0.23886
                        -----------------------------------------
Magnitude (a.u.)       :      1.64554
Magnitude (Debye)      :      4.18262

Rotational constants in cm-1:     0.309435     0.135317     0.107436
Rotational constants in MHz :  9276.637721  4056.700783  3220.846587

                             ****ORCA TERMINATED NORMALLY****
TOTAL RUN TIME: 0 days 0 hours 0 minutes 8 seconds 280 msec
