                         Program Version 5.0.0 -  RELEASE  -
|  1> !BLYP D3BJ RIJCOSX def2-SVP def2/J TightSCF
|  2> *xyz 1 1
|  3> C          0.81607       -2.10149       -2.18655
|  4> H          1.69623       -2.36869       -1.60046
|  5> N          1.10055       -2.46749       -3.59927
|  6> C          0.51624       -0.61363       -2.03937
|  7> H         -0.02007       -2.71285       -1.84084
|  8> H          1.70061       -1.75723       -4.07838
|  9> H          0.29386       -2.35977       -4.25632
| 10> H          1.50132       -3.42848       -3.69491
| 11> H         -0.34841       -0.36504       -2.61858
| 12> H          1.35358       -0.04503       -2.38643
| 13> H          0.33317       -0.38682       -1.00984
| 14> *
| 15> %MaxCore 64000
| 16>
| 17> %pal nprocs 4
| 18> end
| 19>
| 20> %scf
| 21>   MaxIter 150
| 22> end
| 23>
| 24>
| 25>                          ****END OF INPUT****

CARTESIAN COORDINATES (ANGSTROEM)
---------------------------------
  C      0.816070   -2.101490   -2.186550
  H      1.696230   -2.368690   -1.600460
  N      1.100550   -2.467490   -3.599270
  C      0.516240   -0.613630   -2.039370
  H     -0.020070   -2.712850   -1.840840
  H      1.700610   -1.757230   -4.078380
  H      0.293860   -2.359770   -4.256320
  H      1.501320   -3.428480   -3.694910
  H     -0.348410   -0.365040   -2.618580
  H      1.353580   -0.045030   -2.386430
  H      0.333170   -0.386820   -1.009840

 Total Charge           Charge          ....    1
 Multiplicity           Mult            ....    1
 Number of Electrons    NEL             ....   26
 Basis Dimension        Dim             ....   82

ORBITAL ENERGIES
----------------

  NO   OCC          E(Eh)            E(eV)
   0   2.0000     -14.362026      -390.8106
   1   2.0000     -10.176304      -276.9113
   2   2.0000     -10.100624      -274.8520
   3   2.0000      -1.116553       -30.3829
   4   2.0000      -0.884035       -24.0558
   5   2.0000      -0.782243       -21.2859
   6   2.0000      -0.732849       -19.9418
   7   2.0000      -0.717802       -19.5324
   8   2.0000      -0.649262       -17.6673
   9   2.0000      -0.586136       -15.9496
  10   2.0000      -0.535091       -14.5606
  11   2.0000      -0.521515       -14.1911
  12   2.0000      -0.504287       -13.7223
  13   0.0000      -0.215597        -5.8667
  14   0.0000      -0.161591        -4.3971
  15   0.0000      -0.155637        -4.2351
  16   0.0000      -0.118825        -3.2334
  17   0.0000      -0.080151        -2.1810

MULLIKEN ATOMIC CHARGES
-----------------------
   0 C :    0.022184
   1 H :    0.073856
   2 N :    0.051868
   3 C :    0.037286
   4 H :    0.077687
   5 H :    0.188401
   6 H :    0.192251
   7 H :    0.213993
   8 H :    0.035579
   9 H :    0.036138
  10 H :    0.070758
Sum of atomic charges:    1.0000000

LOEWDIN ATOMIC CHARGES
----------------------
   0 C :    0.056291
   1 H :    0.052283
   2 N :    0.287397
   3 C :   -0.026814
   4 H :    0.053031
   5 H :    0.144954
   6 H :    0.147064
   7 H :    0.152667
   8 H :    0.035801
   9 H :    0.035696
  10 H :    0.061632

  Mayer bond orders larger than 0.100000
B(  0-C ,  1-H ) :   0.9436 B(  0-C ,  2-N ) :   0.9524 B(  0-C ,  3-C ) :   1.1305
B(  0-C ,  4-H ) :   0.9439 B(  2-N ,  5-H ) :   0.9319 B(  2-N ,  6-H ) :   0.9321
B(  2-N ,  7-H ) :   0.9277 B(  3-C ,  8-H ) :   0.9673 B(  3-C ,  9-H ) :   0.9621
B(  3-C , 10-H ) :   0.9490

Dispersion correction           -0.012413137
FINAL SINGLE POINT ENERGY      -135.356029333783

DIPOLE MOMENT
-------------
                                X             Y             Z
Electronic contribution:      0.42934      -1.45373      -1.10673
Nuclear contribution   :     -0.07506       0.54337      -0.16191
                        -----------------------------------------
Total Dipole Moment    :      0.35428      -0.91037      -1.26865
                        -----------------------------------------
Magnitude (a.u.)       :      1.60117
Magnitude (Debye)      :      4.06985

Rotational constants in cm-1:     0.999557     0.280801     0.246932
Rotational constants in MHz : 29965.963633  8418.199581  7402.841054

                             ****ORCA TERMINATED NORMALLY****
TOTAL RUN TIME: 0 days 0 hours 0 minutes 7 seconds 225 msec
