                         Program Version 5.0.0 -  RELEASE  -
|  1> !BLYP D3BJ RIJCOSX def2-TZVP def2/J TightSCF xyzfile
|  2>
|  3> *xyzfile 0 1 B.xyz
|  4>
|  5> %MaxCore 64000
|  6>
|  7> %pal nprocs 18
|  8> end
|  9>
| 10> %scf
| 11>   MaxIter 150
| 12> end
| 13>
| 14>
| 15>                          ****END OF INPUT****

CARTESIAN COORDINATES (ANGSTROEM)
---------------------------------
  C      0.816067   -2.101491   -2.186546
  H      1.696232   -2.368691   -1.600457
  N      1.100552   -2.467492   -3.599269
  C      0.516243   -0.613634   -2.039373
  H     -0.020066   -2.712849   -1.840844
  C     -0.868621   -0.193925   -2.546303
  C     -0.984801    1.284739   -2.928686
  H     -0.764939    1.904116   -2.051568
  H     -2.032613    1.478953   -3.178952
  C     -0.106085    1.769914   -4.089836
  H     -0.347744    2.822196   -4.262942
  H      0.949683    1.745875   -3.808781
  C     -0.258747    1.004323   -5.409829
  C      0.395958   -0.370696   -5.339939
  H      0.239150    1.569393   -6.201253
  H     -1.309360    0.888694   -5.682455
  H      1.700606   -1.757225   -4.078378
  H      0.293855   -2.359766   -4.256324
  H      1.501324   -3.428479   -3.694915
  O     -0.326329   -1.390398   -5.491279
  O      1.619412   -0.400726   -5.036827
  H     -1.607271   -0.412651   -1.768955
  H     -1.157234   -0.796164   -3.409254
  H      1.299044   -0.056805   -2.558982
  H      0.612393   -0.365579   -0.979171

 Total Charge           Charge          ....    0
 Multiplicity           Mult            ....    1
 Number of Electrons    NEL             ....   80
 Basis Dimension        Dim             ....  400

ORBITAL ENERGIES
----------------

  NO   OCC          E(Eh)            E(eV)
   0   2.0000     -18.706539      -509.0308
   1   2.0000     -18.704922      -508.9868
   2   2.0000     -14.087280      -383.3344
   3   2.0000      -9.974610      -271.4229
   4   2.0000      -9.970204      -271.3030
   5   2.0000      -9.917350      -269.8648
   6   2.0000      -9.899235      -269.3719
   7   2.0000      -9.895022      -269.2572
   8   2.0000      -9.887859      -269.0623
   9   2.0000      -9.878916      -268.8190
  10   2.0000      -0.932475       -25.3739
  11   2.0000      -0.888974       -24.1902
  12   2.0000      -0.837891       -22.8002
  13   2.0000      -0.733237       -19.9524
  14   2.0000      -0.693186       -18.8626
  15   2.0000      -0.649425       -17.6717
  16   2.0000      -0.591057       -16.0835
  17   2.0000      -0.559961       -15.2373
  18   2.0000      -0.518026       -14.0962
  19   2.0000      -0.503443       -13.6994
  20   2.0000      -0.482044       -13.1171
  21   2.0000      -0.459241       -12.4966
  22   2.0000      -0.423613       -11.5271
  23   2.0000      -0.413491       -11.2517
  24   2.0000      -0.401410       -10.9229
  25   2.0000      -0.391094       -10.6422
  26   2.0000      -0.371974       -10.1219
  27   2.0000      -0.363452        -9.8900
  28   2.0000      -0.347641        -9.4598
  29   2.0000      -0.339803        -9.2465
  30   2.0000      -0.333165        -9.0659
  31   2.0000      -0.324999        -8.8437
  32   2.0000      -0.305969        -8.3259
  33   2.0000      -0.302214        -8.2237
  34   2.0000      -0.280606        -7.6357
  35   2.0000      -0.268592        -7.3088
  36   2.0000      -0.263884        -7.1807
  37   2.0000      -0.206608        -5.6221
  38   2.0000      -0.189645        -5.1605
  39   2.0000      -0.177594        -4.8326
  40   0.0000      -0.025301        -0.6885
  41   0.0000       0.010529         0.2865
  42   0.0000       0.018342         0.4991
  43   0.0000       0.032133         0.8744
  44   0.0000       0.038243         1.0406

MULLIKEN ATOMIC CHARGES
-----------------------
   0 C :   -0.110000
   1 H :    0.115651
   2 N :   -0.238309
   3 C :   -0.204574
   4 H :    0.112000
   5 C :   -0.160934
   6 C :   -0.153846
   7 H :    0.065690
   8 H :    0.074562
   9 C :   -0.157734
  10 H :    0.073805
  11 H :    0.091166
  12 C :   -0.091292
  13 C :    0.193989
  14 H :    0.074224
  15 H :    0.057075
  16 H :    0.262235
  17 H :    0.261404
  18 H :    0.233483
  19 O :   -0.443172
  20 O :   -0.461327
  21 H :    0.065952
  22 H :    0.120116
  23 H :    0.134860
  24 H :    0.084973
Sum of atomic charges:   -0.0000000

LOEWDIN ATOMIC CHARGES
----------------------
   0 C :   -0.275388
   1 H :    0.131242
   2 N :    0.120359
   3 C :   -0.261141
   4 H :    0.132561
   5 C :   -0.264000
   6 C :   -0.259666
   7 H :    0.131276
   8 H :    0.135016
   9 C :   -0.261094
  10 H :    0.132214
  11 H :    0.133461
  12 C :   -0.232589
  13 C :   -0.651054
  14 H :    0.142178
  15 H :    0.133957
  16 H :    0.172691
  17 H :    0.173658
  18 H :    0.186229
  19 O :   -0.040598
  20 O :   -0.034633
  21 H :    0.130534
  22 H :    0.141224
  23 H :    0.145195
  24 H :    0.138370

  Mayer bond orders larger than 0.100000
B(  0-C ,  1-H ) :   0.9678 B(  0-C ,  2-N ) :   0.9064 B(  0-C ,  3-C ) :   0.9676
B(  0-C ,  4-H ) :   0.9675 B(  2-N , 16-H ) :   0.7604 B(  2-N , 17-H ) :   0.7715
B(  2-N , 18-H ) :   0.9077 B(  3-C ,  5-C ) :   0.9272 B(  3-C , 23-H ) :   0.9669
B(  3-C , 24-H ) :   0.9496 B(  5-C ,  6-C ) :   0.9637 B(  5-C , 21-H ) :   0.9510
B(  5-C , 22-H ) :   0.9687 B(  6-C ,  7-H ) :   0.9575 B(  6-C ,  8-H ) :   0.9559
B(  6-C ,  9-C ) :   0.9916 B(  9-C , 10-H ) :   0.9557 B(  9-C , 11-H ) :   0.9679
B(  9-C , 12-C ) :   0.9567 B( 12-C , 13-C ) :   0.9451 B( 12-C , 14-H ) :   0.9288
B( 12-C , 15-H ) :   0.9543 B( 13-C , 19-O ) :   1.7501 B( 13-C , 20-O ) :   1.7017
B( 16-H , 20-O ) :   0.2239 B( 17-H , 19-O ) :   0.2130

Dispersion correction           -0.053750184
FINAL SINGLE POINT ENERGY      -481.024386084126

DIPOLE MOMENT
-------------
                                X             Y             Z
Electronic contribution:      2.31460      -3.10239      -6.33706
Nuclear contribution   :     -2.02598       1.95876       8.24116
                        -----------------------------------------
Total Dipole Moment    :      0.28862      -1.14362       1.90410
                        -----------------------------------------
Magnitude (a.u.)       :      2.23982
Magnitude (Debye)      :      5.69316

Rotational constants in cm-1:     0.052900     0.041948     0.028766
Rotational constants in MHz :  1585.892512  1257.572595   862.390225

                             ****ORCA TERMINATED NORMALLY****
TOTAL RUN TIME: 0 days 0 hours 0 minutes 17 seconds 666 msec
