                         Program Version 5.0.0 -  RELEASE  -
|  1> !BLYP D3BJ RIJCOSX def2-SVP def2/J TightSCF
|  2> *xyz 0 1
|  3> C         -0.10608        1.76991       -4.08984
|  4> C         -0.25875        1.00432       -5.40983
|  5> C          0.39596       -0.37070       -5.33994
|  6> H          0.23915        1.56939       -6.20125
|  7> H         -1.30936        0.88869       -5.68245
|  8> F         -0.32633       -1.39040       -5.49128
|  9> O          1.61941       -0.40073       -5.03683
| 10> H         -0.57627        2.72718       -4.17630
| 11> H          0.93321        1.90140       -3.87192
| 12> H         -0.56868        1.21534       -3.30031
| 13> *
| 14> %MaxCore 64000
| 15>
| 16> %pal nprocs 4
| 17> end
| 18>
| 19> %scf
| 20>   MaxIter 150
| 21> end
| 22>
| 23>
| 24>                          ****END OF INPUT****

CARTESIAN COORDINATES (ANGSTROEM)
---------------------------------
  C     -0.106080    1.769910   -4.089840
  C     -0.258750    1.004320   -5.409830
  C      0.395960   -0.370700   -5.339940
  H      0.239150    1.569390   -6.201250
  H     -1.309360    0.888690   -5.682450
  F     -0.326330   -1.390400   -5.491280
  O      1.619410   -0.400730   -5.036830
  H     -0.576270    2.727180   -4.176300
  H      0.933210    1.901400   -3.871920
  H     -0.568680    1.215340   -3.300310

 Total Charge           Charge          ....    0
 Multiplicity           Mult            ....    1
 Number of Electrons    NEL             ....   40
 Basis Dimension        Dim             ....   95

ORBITAL ENERGIES
----------------

  NO   OCC          E(Eh)            E(eV)
   0   2.0000     -24.352075      -662.6536
   1   2.0000     -18.777002      -510.9482
   2   2.0000     -10.079357      -274.2732
   3   2.0000      -9.947436      -270.6835
   4   2.0000      -9.926070      -270.1021
   5   2.0000      -1.177135       -32.0315
   6   2.0000      -0.912086       -24.8191
   7   2.0000      -0.708173       -19.2704
   8   2.0000      -0.602487       -16.3945
   9   2.0000      -0.556129       -15.1331
  10   2.0000      -0.472421       -12.8552
  11   2.0000      -0.457330       -12.4446
  12   2.0000      -0.431154       -11.7323
  13   2.0000      -0.403672       -10.9845
  14   2.0000      -0.369895       -10.0654
  15   2.0000      -0.343812        -9.3556
  16   2.0000      -0.323416        -8.8006
  17   2.0000      -0.316759        -8.6194
  18   2.0000      -0.289276        -7.8716
  19   2.0000      -0.226162        -6.1542
  20   0.0000      -0.052710        -1.4343
  21   0.0000       0.039174         1.0660
  22   0.0000       0.081365         2.2141
  23   0.0000       0.084280         2.2934
  24   0.0000       0.102900         2.8001

MULLIKEN ATOMIC CHARGES
-----------------------
   0 C :    0.079349
   1 C :    0.033546
   2 C :    0.121460
   3 H :    0.022359
   4 H :   -0.015316
   5 F :   -0.029561
   6 O :   -0.215165
   7 H :   -0.005603
   8 H :    0.014401
   9 H :   -0.005470
Sum of atomic charges:    0.0000000

LOEWDIN ATOMIC CHARGES
----------------------
   0 C :   -0.023541
   1 C :   -0.058224
   2 C :    0.065669
   3 H :    0.044130
   4 H :    0.019493
   5 F :    0.062332
   6 O :   -0.177708
   7 H :    0.022119
   8 H :    0.025451
   9 H :    0.020279

  Mayer bond orders larger than 0.100000
B(  0-C ,  1-C ) :   1.1179 B(  0-C ,  7-H ) :   0.9585 B(  0-C ,  8-H ) :   0.9643
B(  0-C ,  9-H ) :   0.9711 B(  1-C ,  2-C ) :   1.0064 B(  1-C ,  3-H ) :   0.9170
B(  1-C ,  4-H ) :   0.9202 B(  2-C ,  5-F ) :   1.2458 B(  2-C ,  6-O ) :   2.0845

Dispersion correction           -0.012887732
FINAL SINGLE POINT ENERGY      -292.100361999954

DIPOLE MOMENT
-------------
                                X             Y             Z
Electronic contribution:      0.95419      -8.30869      -2.56088
Nuclear contribution   :     -1.80992       8.85192       2.42184
                        -----------------------------------------
Total Dipole Moment    :     -0.85574       0.54323      -0.13904
                        -----------------------------------------
Magnitude (a.u.)       :      1.02309
Magnitude (Debye)      :      2.60049

Rotational constants in cm-1:     0.298360     0.128849     0.102271
Rotational constants in MHz :  8944.606599  3862.796179  3066.020510

                             ****ORCA TERMINATED NORMALLY****
TOTAL RUN TIME: 0 days 0 hours 0 minutes 8 seconds 157 msec
