                         Program Version 5.0.0 -  RELEASE  -
|  1> !BLYP D3BJ RIJCOSX def2-SVP def2/J TightSCF
|  2> *xyz 0 1
|  3> C          0.81607       -2.10149       -2.18655
|  4> H          1.69623       -2.36869       -1.60046
|  5> C          1.10055       -2.46749       -3.59927
|  6> C          0.51624       -0.61363       -2.03937
|  7> H         -0.02007       -2.71285       -1.84084
|  8> H          1.70061       -1.75723       -4.07838
|  9> H          0.29386       -2.35977       -4.25632
| 10> H          1.50132       -3.42848       -3.69491
| 11> H         -0.34841       -0.36504       -2.61858
| 12> H          1.35358       -0.04503       -2.38643
| 13> H          0.33317       -0.38682       -1.00984
| 14> *
| 15> %MaxCore 64000
| 16>
| 17> %pal nprocs 4
| 18> end
| 19>
| 20> %scf
| 21>   MaxIter 150
| 22> end
| 23>
| 24>
| 25>                          ****END OF INPUT****

CARTESIAN COORDINATES (ANGSTROEM)
---------------------------------
  C      0.816070   -2.101490   -2.186550
  H      1.696230   -2.368690   -1.600460
  C      1.100550   -2.467490   -3.599270
  C      0.516240   -0.613630   -2.039370
  H     -0.020070   -2.712850   -1.840840
  H      1.700610   -1.757230   -4.078380
  H      0.293860   -2.359770   -4.256320
  H      1.501320   -3.428480   -3.694910
  H     -0.348410   -0.365040   -2.618580
  H      1.353580   -0.045030   -2.386430
  H      0.333170   -0.386820   -1.009840

 Total Charge           Charge          ....    0
 Multiplicity           Mult            ....    1
 Number of Electrons    NEL             ....   26
 Basis Dimension        Dim             ....   82

ORBITAL ENERGIES
----------------

  NO   OCC          E(Eh)            E(eV)
   0   2.0000      -9.909687      -269.6563
   1   2.0000      -9.902292      -269.4551
   2   2.0000      -9.890563      -269.1359
   3   2.0000      -0.699799       -19.0425
   4   2.0000      -0.606138       -16.4939
   5   2.0000      -0.516325       -14.0499
   6   2.0000      -0.402577       -10.9547
   7   2.0000      -0.389406       -10.5963
   8   2.0000      -0.359288        -9.7767
   9   2.0000      -0.324459        -8.8290
  10   2.0000      -0.293613        -7.9896
  11   2.0000      -0.289377        -7.8743
  12   2.0000      -0.273579        -7.4445
  13   0.0000       0.042671         1.1611
  14   0.0000       0.088312         2.4031
  15   0.0000       0.090160         2.4534
  16   0.0000       0.090605         2.4655
  17   0.0000       0.122009         3.3200

MULLIKEN ATOMIC CHARGES
-----------------------
   0 C :    0.025111
   1 H :   -0.024825
   2 C :    0.117146
   3 C :    0.077044
   4 H :   -0.022363
   5 H :   -0.048423
   6 H :   -0.045080
   7 H :   -0.024902
   8 H :   -0.017701
   9 H :   -0.016328
  10 H :   -0.019680
Sum of atomic charges:    0.0000000

LOEWDIN ATOMIC CHARGES
----------------------
   0 C :   -0.027482
   1 H :    0.014933
   2 C :   -0.044954
   3 C :   -0.038664
   4 H :    0.014898
   5 H :    0.011581
   6 H :    0.011919
   7 H :    0.012849
   8 H :    0.014529
   9 H :    0.014827
  10 H :    0.015563

  Mayer bond orders larger than 0.100000
B(  0-C ,  1-H ) :   0.9392 B(  0-C ,  2-C ) :   1.1436 B(  0-C ,  3-C ) :   1.1313
B(  0-C ,  4-H ) :   0.9402 B(  2-C ,  5-H ) :   0.9497 B(  2-C ,  6-H ) :   0.9490
B(  2-C ,  7-H ) :   0.9564 B(  3-C ,  8-H ) :   0.9698 B(  3-C ,  9-H ) :   0.9660
B(  3-C , 10-H ) :   0.9584

Dispersion correction           -0.012496733
FINAL SINGLE POINT ENERGY      -118.953882451190

DIPOLE MOMENT
-------------
                                X             Y             Z
Electronic contribution:     -0.01944      -0.29842       0.46634
Nuclear contribution   :      0.01737       0.30387      -0.47422
                        -----------------------------------------
Total Dipole Moment    :     -0.00207       0.00545      -0.00787
                        -----------------------------------------
Magnitude (a.u.)       :      0.00979
Magnitude (Debye)      :      0.02490

Rotational constants in cm-1:     1.006891     0.295208     0.258491
Rotational constants in MHz : 30185.831813  8850.104914  7749.351732

                             ****ORCA TERMINATED NORMALLY****
TOTAL RUN TIME: 0 days 0 hours 0 minutes 7 seconds 505 msec
