                         Program Version 5.0.0 -  RELEASE  -
|  1> !BLYP D3BJ RIJCOSX def2-SVP def2/J TightSCF
|  2> *xyz 0 1
|  3> C         -0.10608        1.76991       -4.08984
|  4> C         -0.25875        1.00432       -5.40983
|  5> C          0.39596       -0.37070       -5.33994
|  6> H          0.23915        1.56939       -6.20125
|  7> H         -1.30936        0.88869       -5.68245
|  8> O         -0.32633       -1.39040       -5.49128
|  9> F          1.61941       -0.40073       -5.03683
| 10> H         -0.57627        2.72718       -4.17630
| 11> H          0.93321        1.90140       -3.87192
| 12> H         -0.56868        1.21534       -3.30031
| 13> *
| 14> %MaxCore 64000
| 15>
| 16> %pal nprocs 4
| 17> end
| 18>
| 19> %scf
| 20>   MaxIter 150
| 21> end
| 22>
| 23>
| 24>                          ****END OF INPUT****

CARTESIAN COORDINATES (ANGSTROEM)
---------------------------------
  C     -0.106080    1.769910   -4.089840
  C     -0.258750    1.004320   -5.409830
  C      0.395960   -0.370700   -5.339940
  H      0.239150    1.569390   -6.201250
  H     -1.309360    0.888690   -5.682450
  O     -0.326330   -1.390400   -5.491280
  F      1.619410   -0.400730   -5.036830
  H     -0.576270    2.727180   -4.176300
  H      0.933210    1.901400   -3.871920
  H     -0.568680    1.215340   -3.300310

 Total Charge           Charge          ....    0
 Multiplicity           Mult            ....    1
 Number of Electrons    NEL             ....   40
 Basis Dimension        Dim             ....   95

ORBITAL ENERGIES
----------------

  NO   OCC          E(Eh)            E(eV)
   0   2.0000     -24.351330      -662.6334
   1   2.0000     -18.776945      -510.9466
   2   2.0000     -10.078317      -274.2450
   3   2.0000      -9.946848      -270.6675
   4   2.0000      -9.930940      -270.2346
   5   2.0000      -1.176090       -32.0030
   6   2.0000      -0.911307       -24.7979
   7   2.0000      -0.712576       -19.3902
   8   2.0000      -0.600232       -16.3331
   9   2.0000      -0.559093       -15.2137
  10   2.0000      -0.473949       -12.8968
  11   2.0000      -0.460226       -12.5234
  12   2.0000      -0.426866       -11.6156
  13   2.0000      -0.401776       -10.9329
  14   2.0000      -0.373091       -10.1523
  15   2.0000      -0.345629        -9.4050
  16   2.0000      -0.326946        -8.8966
  17   2.0000      -0.320984        -8.7344
  18   2.0000      -0.293566        -7.9883
  19   2.0000      -0.222721        -6.0605
  20   0.0000      -0.048969        -1.3325
  21   0.0000       0.034653         0.9430
  22   0.0000       0.078737         2.1425
  23   0.0000       0.085689         2.3317
  24   0.0000       0.106199         2.8898

MULLIKEN ATOMIC CHARGES
-----------------------
   0 C :    0.057923
   1 C :    0.042521
   2 C :    0.117431
   3 H :    0.005345
   4 H :    0.011086
   5 O :   -0.201656
   6 F :   -0.039719
   7 H :    0.000710
   8 H :    0.000420
   9 H :    0.005939
Sum of atomic charges:   -0.0000000

LOEWDIN ATOMIC CHARGES
----------------------
   0 C :   -0.031686
   1 C :   -0.054999
   2 C :    0.064721
   3 H :    0.033329
   4 H :    0.036367
   5 O :   -0.171162
   6 F :    0.056807
   7 H :    0.024800
   8 H :    0.019080
   9 H :    0.022742

  Mayer bond orders larger than 0.100000
B(  0-C ,  1-C ) :   1.1012 B(  0-C ,  7-H ) :   0.9589 B(  0-C ,  8-H ) :   0.9671
B(  0-C ,  9-H ) :   0.9719 B(  1-C ,  2-C ) :   1.0161 B(  1-C ,  3-H ) :   0.9110
B(  1-C ,  4-H ) :   0.9354 B(  2-C ,  5-O ) :   2.1167 B(  2-C ,  6-F ) :   1.2237

Dispersion correction           -0.012797336
FINAL SINGLE POINT ENERGY      -292.101399400877

DIPOLE MOMENT
-------------
                                X             Y             Z
Electronic contribution:      4.10457      -6.68109      -1.81378
Nuclear contribution   :     -3.93139       7.77287       1.92635
                        -----------------------------------------
Total Dipole Moment    :      0.17318       1.09178       0.11257
                        -----------------------------------------
Magnitude (a.u.)       :      1.11115
Magnitude (Debye)      :      2.82431

Rotational constants in cm-1:     0.286068     0.133630     0.103472
Rotational constants in MHz :  8576.109806  4006.118234  3102.010802

                             ****ORCA TERMINATED NORMALLY****
TOTAL RUN TIME: 0 days 0 hours 0 minutes 7 seconds 424 msec
