                         Program Version 5.0.0 -  RELEASE  -
|  1> !CAM-B3LYP RIJCOSX def2-TZVP def2/J TightSCF
|  2> *xyz -1 1
|  3> C          0.13297        2.38587       -4.02462
|  4> C         -1.36646        2.47911       -4.31393
|  5> C         -2.35773        2.30686       -3.13675
|  6> H         -1.63680        1.72709       -5.06399
|  7> H         -1.58235        3.44561       -4.76869
|  8> O         -3.44376        2.84652       -3.25274
|  9> O         -1.97092        1.58304       -2.15123
| 10> H          0.68084        2.52514       -4.93310
| 11> H          0.35823        1.42282       -3.61633
| 12> H          0.40851        3.14443       -3.32208
| 13> *
| 14> %MaxCore 64000
| 15>
| 16> %pal nprocs 4
| 17> end
| 18>
| 19> %scf
| 20>   MaxIter 150
| 21> end
| 22>
| 23>
| 24>                          ****END OF INPUT****

CARTESIAN COORDINATES (ANGSTROEM)
---------------------------------
  C      0.132970    2.385870   -4.024620
  C     -1.366460    2.479110   -4.313930
  C     -2.357730    2.306860   -3.136750
  H     -1.636800    1.727090   -5.063990
  H     -1.582350    3.445610   -4.768690
  O     -3.443760    2.846520   -3.252740
  O     -1.970920    1.583040   -2.151230
  H      0.680840    2.525140   -4.933100
  H      0.358230    1.422820   -3.616330
  H      0.408510    3.144430   -3.322080

 Total Charge           Charge          ....   -1
 Multiplicity           Mult            ....    1
 Number of Electrons    NEL             ....   40
 Basis Dimension        Dim             ....  185

ORBITAL ENERGIES
----------------

  NO   OCC          E(Eh)            E(eV)
   0   2.0000     -18.927895      -515.0542
   1   2.0000     -18.917255      -514.7647
   2   2.0000     -10.121665      -275.4245
   3   2.0000     -10.074036      -274.1284
   4   2.0000     -10.064744      -273.8756
   5   2.0000      -0.901311       -24.5259
   6   2.0000      -0.799135       -21.7456
   7   2.0000      -0.682223       -18.5642
   8   2.0000      -0.548120       -14.9151
   9   2.0000      -0.383429       -10.4336
  10   2.0000      -0.361505        -9.8370
  11   2.0000      -0.326889        -8.8951
  12   2.0000      -0.293059        -7.9745
  13   2.0000      -0.279496        -7.6055
  14   2.0000      -0.272143        -7.4054
  15   2.0000      -0.240785        -6.5521
  16   2.0000      -0.222964        -6.0672
  17   2.0000      -0.104539        -2.8447
  18   2.0000      -0.099751        -2.7144
  19   2.0000      -0.087846        -2.3904
  20   0.0000       0.218164         5.9366
  21   0.0000       0.262284         7.1371
  22   0.0000       0.278989         7.5917
  23   0.0000       0.284227         7.7342
  24   0.0000       0.304301         8.2805

MULLIKEN ATOMIC CHARGES
-----------------------
   0 C :   -0.294607
   1 C :   -0.178897
   2 C :    0.177760
   3 H :    0.044339
   4 H :    0.048240
   5 O :   -0.461953
   6 O :   -0.559035
   7 H :    0.053038
   8 H :    0.091669
   9 H :    0.079447
Sum of atomic charges:   -1.0000000

LOEWDIN ATOMIC CHARGES
----------------------
   0 C :   -0.331023
   1 C :   -0.294473
   2 C :   -0.705160
   3 H :    0.122974
   4 H :    0.119574
   5 O :   -0.058744
   6 O :   -0.161885
   7 H :    0.092353
   8 H :    0.109632
   9 H :    0.106751

  Mayer bond orders larger than 0.100000
B(  0-C ,  1-C ) :   0.9202 B(  0-C ,  7-H ) :   0.9733 B(  0-C ,  8-H ) :   0.9790
B(  0-C ,  9-H ) :   0.9822 B(  1-C ,  2-C ) :   0.9304 B(  1-C ,  3-H ) :   0.9680
B(  1-C ,  4-H ) :   0.9697 B(  2-C ,  5-O ) :   1.9490 B(  2-C ,  6-O ) :   1.8437

FINAL SINGLE POINT ENERGY      -267.829461874994

DIPOLE MOMENT
-------------
                                X             Y             Z
Electronic contribution:     -5.29313      -0.38155       3.22576
Nuclear contribution   :      6.75610       0.63068      -4.53972
                        -----------------------------------------
Total Dipole Moment    :      1.46296       0.24912      -1.31396
                        -----------------------------------------
Magnitude (a.u.)       :      1.98213
Magnitude (Debye)      :      5.03816

Rotational constants in cm-1:     0.335096     0.130241     0.099025
Rotational constants in MHz : 10045.924902  3904.536250  2968.708333

                             ****ORCA TERMINATED NORMALLY****
TOTAL RUN TIME: 0 days 0 hours 0 minutes 26 seconds 121 msec
