                         Program Version 5.0.0 -  RELEASE  -
|  1> !CAM-B3LYP RIJCOSX def2-TZVP def2/J TightSCF
|  2> *xyz 1 1
|  3> C          0.64866        1.00359       -3.64560
|  4> N          0.28128        0.67645       -2.24018
|  5> C          0.13297        2.38587       -4.02462
|  6> H          0.39079       -0.31925       -2.02649
|  7> H         -0.69269        0.99010       -2.13812
|  8> H          0.85421        1.21221       -1.57528
|  9> H          0.19099        0.23965       -4.27575
| 10> H          1.73157        0.93173       -3.75075
| 11> H          0.40589        2.60338       -5.03610
| 12> H          0.56342        3.11797       -3.37374
| 13> H         -0.93265        2.40724       -3.93025
| 14> *
| 15> %MaxCore 64000
| 16>
| 17> %pal nprocs 4
| 18> end
| 19>
| 20> %scf
| 21>   MaxIter 150
| 22> end
| 23>
| 24>
| 25>                          ****END OF INPUT****

CARTESIAN COORDINATES (ANGSTROEM)
---------------------------------
  C      0.648660    1.003590   -3.645600
  N      0.281280    0.676450   -2.240180
  C      0.132970    2.385870   -4.024620
  H      0.390790   -0.319250   -2.026490
  H     -0.692690    0.990100   -2.138120
  H      0.854210    1.212210   -1.575280
  H      0.190990    0.239650   -4.275750
  H      1.731570    0.931730   -3.750750
  H      0.405890    2.603380   -5.036100
  H      0.563420    3.117970   -3.373740
  H     -0.932650    2.407240   -3.930250

 Total Charge           Charge          ....    1
 Multiplicity           Mult            ....    1
 Number of Electrons    NEL             ....   26
 Basis Dimension        Dim             ....  141

ORBITAL ENERGIES
----------------

  NO   OCC          E(Eh)            E(eV)
   0   2.0000     -14.724611      -400.6770
   1   2.0000     -10.498341      -285.6744
   2   2.0000     -10.419868      -283.5390
   3   2.0000      -1.300928       -35.4001
   4   2.0000      -1.048363       -28.5274
   5   2.0000      -0.923516       -25.1302
   6   2.0000      -0.873521       -23.7697
   7   2.0000      -0.866177       -23.5699
   8   2.0000      -0.764576       -20.8052
   9   2.0000      -0.712841       -19.3974
  10   2.0000      -0.652197       -17.7472
  11   2.0000      -0.638064       -17.3626
  12   2.0000      -0.620083       -16.8733
  13   0.0000      -0.156927        -4.2702
  14   0.0000      -0.094043        -2.5591
  15   0.0000      -0.090878        -2.4729
  16   0.0000      -0.072676        -1.9776
  17   0.0000      -0.034490        -0.9385

MULLIKEN ATOMIC CHARGES
-----------------------
   0 C :   -0.205217
   1 N :   -0.280699
   2 C :   -0.365483
   3 H :    0.332687
   4 H :    0.321962
   5 H :    0.325850
   6 H :    0.190476
   7 H :    0.195404
   8 H :    0.183490
   9 H :    0.151122
  10 H :    0.150407
Sum of atomic charges:    1.0000000

LOEWDIN ATOMIC CHARGES
----------------------
   0 C :   -0.277317
   1 N :    0.170318
   2 C :   -0.278075
   3 H :    0.221728
   4 H :    0.225974
   5 H :    0.223321
   6 H :    0.153308
   7 H :    0.152319
   8 H :    0.148265
   9 H :    0.130650
  10 H :    0.129507

  Mayer bond orders larger than 0.100000
B(  0-C ,  1-N ) :   0.8471 B(  0-C ,  2-C ) :   0.9664 B(  0-C ,  6-H ) :   0.9541
B(  0-C ,  7-H ) :   0.9572 B(  1-N ,  3-H ) :   0.8777 B(  1-N ,  4-H ) :   0.8791
B(  1-N ,  5-H ) :   0.8806 B(  2-C ,  8-H ) :   0.9621 B(  2-C ,  9-H ) :   0.9606
B(  2-C , 10-H ) :   0.9585

FINAL SINGLE POINT ENERGY      -135.506612508866

DIPOLE MOMENT
-------------
                                X             Y             Z
Electronic contribution:      0.17251      -1.31300       1.32979
Nuclear contribution   :     -0.22655       0.48066      -0.09136
                        -----------------------------------------
Total Dipole Moment    :     -0.05404      -0.83235       1.23844
                        -----------------------------------------
Magnitude (a.u.)       :      1.49313
Magnitude (Debye)      :      3.79525

Rotational constants in cm-1:     0.998155     0.284845     0.251232
Rotational constants in MHz : 29923.943568  8539.431565  7531.732866

                             ****ORCA TERMINATED NORMALLY****
TOTAL RUN TIME: 0 days 0 hours 0 minutes 17 seconds 192 msec
