                         Program Version 5.0.0 -  RELEASE  -
|  1> !CAM-B3LYP RIJCOSX def2-TZVP def2/J TightSCF xyzfile
|  2>
|  3> *xyzfile 0 1 B.xyz
|  4>
|  5> %MaxCore 64000
|  6>
|  7> %pal nprocs 18
|  8> end
|  9>
| 10> %scf
| 11>   MaxIter 150
| 12> end
| 13>
| 14>
| 15>                          ****END OF INPUT****

CARTESIAN COORDINATES (ANGSTROEM)
---------------------------------
  C      0.648656    1.003595   -3.645601
  N      0.281280    0.676454   -2.240179
  C      0.132968    2.385869   -4.024618
  C     -1.366462    2.479106   -4.313932
  C     -2.357732    2.306858   -3.136753
  H     -1.636802    1.727095   -5.063993
  H     -1.582347    3.445605   -4.768687
  H      0.390790   -0.319253   -2.026495
  H     -0.692686    0.990104   -2.138123
  H      0.854206    1.212214   -1.575279
  O     -3.443763    2.846518   -3.252744
  O     -1.970922    1.583042   -2.151229
  H      0.190993    0.239655   -4.275752
  H      1.731572    0.931729   -3.750751
  H      0.414839    3.102847   -3.245165
  H      0.683167    2.687560   -4.919721

 Total Charge           Charge          ....    0
 Multiplicity           Mult            ....    1
 Number of Electrons    NEL             ....   56
 Basis Dimension        Dim             ....  271

ORBITAL ENERGIES
----------------

  NO   OCC          E(Eh)            E(eV)
   0   2.0000     -19.120354      -520.2913
   1   2.0000     -19.099842      -519.7331
   2   2.0000     -14.500062      -394.5667
   3   2.0000     -10.333036      -281.1762
   4   2.0000     -10.304633      -280.4033
   5   2.0000     -10.272039      -279.5164
   6   2.0000     -10.233423      -278.4656
   7   2.0000      -1.105314       -30.0771
   8   2.0000      -1.080453       -29.4006
   9   2.0000      -0.996706       -27.1218
  10   2.0000      -0.895398       -24.3650
  11   2.0000      -0.797353       -21.6971
  12   2.0000      -0.715434       -19.4679
  13   2.0000      -0.678800       -18.4711
  14   2.0000      -0.667331       -18.1590
  15   2.0000      -0.594808       -16.1856
  16   2.0000      -0.553619       -15.0647
  17   2.0000      -0.550205       -14.9719
  18   2.0000      -0.505860       -13.7652
  19   2.0000      -0.492062       -13.3897
  20   2.0000      -0.456362       -12.4183
  21   2.0000      -0.453515       -12.3408
  22   2.0000      -0.444766       -12.1027
  23   2.0000      -0.424481       -11.5507
  24   2.0000      -0.401006       -10.9119
  25   2.0000      -0.296838        -8.0774
  26   2.0000      -0.294899        -8.0246
  27   2.0000      -0.266664        -7.2563
  28   0.0000       0.009910         0.2697
  29   0.0000       0.056271         1.5312
  30   0.0000       0.063804         1.7362
  31   0.0000       0.094476         2.5708
  32   0.0000       0.103613         2.8195

MULLIKEN ATOMIC CHARGES
-----------------------
   0 C :   -0.175633
   1 N :   -0.295507
   2 C :   -0.221372
   3 C :   -0.261576
   4 C :    0.252108
   5 H :    0.101242
   6 H :    0.124552
   7 H :    0.270341
   8 H :    0.306428
   9 H :    0.268274
  10 O :   -0.372826
  11 O :   -0.539080
  12 H :    0.152232
  13 H :    0.146340
  14 H :    0.119581
  15 H :    0.124896
Sum of atomic charges:   -0.0000000

LOEWDIN ATOMIC CHARGES
----------------------
   0 C :   -0.271184
   1 N :    0.140753
   2 C :   -0.272857
   3 C :   -0.250925
   4 C :   -0.642038
   5 H :    0.143052
   6 H :    0.148469
   7 H :    0.190206
   8 H :    0.112571
   9 H :    0.195660
  10 O :    0.022193
  11 O :   -0.080218
  12 H :    0.143318
  13 H :    0.132288
  14 H :    0.142156
  15 H :    0.146556

  Mayer bond orders larger than 0.100000
B(  0-C ,  1-N ) :   0.8861 B(  0-C ,  2-C ) :   0.9469 B(  0-C , 12-H ) :   0.9680
B(  0-C , 13-H ) :   0.9802 B(  1-N ,  7-H ) :   0.9062 B(  1-N ,  8-H ) :   0.6709
B(  1-N ,  9-H ) :   0.9061 B(  2-C ,  3-C ) :   0.9123 B(  2-C , 14-H ) :   0.9680
B(  2-C , 15-H ) :   0.9716 B(  3-C ,  4-C ) :   0.9492 B(  3-C ,  5-H ) :   0.9634
B(  3-C ,  6-H ) :   0.9666 B(  4-C , 10-O ) :   2.0467 B(  4-C , 11-O ) :   1.4728
B(  8-H , 11-O ) :   0.3410

FINAL SINGLE POINT ENERGY      -363.019730543318

DIPOLE MOMENT
-------------
                                X             Y             Z
Electronic contribution:     -5.79046       0.92730       2.53085
Nuclear contribution   :      9.92875      -2.62114      -2.63866
                        -----------------------------------------
Total Dipole Moment    :      4.13829      -1.69384      -0.10781
                        -----------------------------------------
Magnitude (a.u.)       :      4.47282
Magnitude (Debye)      :     11.36902

Rotational constants in cm-1:     0.159108     0.062474     0.047603
Rotational constants in MHz :  4769.938632  1872.932224  1427.103830

                             ****ORCA TERMINATED NORMALLY****
TOTAL RUN TIME: 0 days 0 hours 0 minutes 25 seconds 337 msec
