                         Program Version 5.0.0 -  RELEASE  -
|  1> !CAM-B3LYP RIJCOSX def2-TZVP def2/J TightSCF
|  2> *xyz 0 1
|  3> C          0.13297        2.38587       -4.02462
|  4> C         -1.36646        2.47911       -4.31393
|  5> C         -2.35773        2.30686       -3.13675
|  6> H         -1.63680        1.72709       -5.06399
|  7> H         -1.58235        3.44561       -4.76869
|  8> F         -3.44376        2.84652       -3.25274
|  9> O         -1.97092        1.58304       -2.15123
| 10> H          0.68084        2.52514       -4.93310
| 11> H          0.35823        1.42282       -3.61633
| 12> H          0.40851        3.14443       -3.32208
| 13> *
| 14> %MaxCore 64000
| 15>
| 16> %pal nprocs 4
| 17> end
| 18>
| 19> %scf
| 20>   MaxIter 150
| 21> end
| 22>
| 23>
| 24>                          ****END OF INPUT****

CARTESIAN COORDINATES (ANGSTROEM)
---------------------------------
  C      0.132970    2.385870   -4.024620
  C     -1.366460    2.479110   -4.313930
  C     -2.357730    2.306860   -3.136750
  H     -1.636800    1.727090   -5.063990
  H     -1.582350    3.445610   -4.768690
  F     -3.443760    2.846520   -3.252740
  O     -1.970920    1.583040   -2.151230
  H      0.680840    2.525140   -4.933100
  H      0.358230    1.422820   -3.616330
  H      0.408510    3.144430   -3.322080

 Total Charge           Charge          ....    0
 Multiplicity           Mult            ....    1
 Number of Electrons    NEL             ....   40
 Basis Dimension        Dim             ....  185

ORBITAL ENERGIES
----------------

  NO   OCC          E(Eh)            E(eV)
   0   2.0000     -24.841660      -675.9759
   1   2.0000     -19.200534      -522.4731
   2   2.0000     -10.430538      -283.8294
   3   2.0000     -10.277824      -279.6738
   4   2.0000     -10.243560      -278.7414
   5   2.0000      -1.431893       -38.9638
   6   2.0000      -1.098614       -29.8948
   7   2.0000      -0.880683       -23.9646
   8   2.0000      -0.779313       -21.2062
   9   2.0000      -0.724528       -19.7154
  10   2.0000      -0.642085       -17.4720
  11   2.0000      -0.624131       -16.9835
  12   2.0000      -0.580769       -15.8035
  13   2.0000      -0.538664       -14.6578
  14   2.0000      -0.500990       -13.6326
  15   2.0000      -0.460124       -12.5206
  16   2.0000      -0.441657       -12.0181
  17   2.0000      -0.439180       -11.9507
  18   2.0000      -0.408045       -11.1035
  19   2.0000      -0.355362        -9.6699
  20   0.0000       0.022288         0.6065
  21   0.0000       0.067688         1.8419
  22   0.0000       0.108781         2.9601
  23   0.0000       0.127844         3.4788
  24   0.0000       0.136535         3.7153

MULLIKEN ATOMIC CHARGES
-----------------------
   0 C :   -0.326248
   1 C :   -0.239650
   2 C :    0.361823
   3 H :    0.129239
   4 H :    0.118716
   5 F :   -0.063962
   6 O :   -0.353664
   7 H :    0.121000
   8 H :    0.134009
   9 H :    0.118737
Sum of atomic charges:    0.0000000

LOEWDIN ATOMIC CHARGES
----------------------
   0 C :   -0.290113
   1 C :   -0.263448
   2 C :   -0.511161
   3 H :    0.153609
   4 H :    0.141399
   5 F :    0.384253
   6 O :    0.021013
   7 H :    0.119029
   8 H :    0.124488
   9 H :    0.120932

  Mayer bond orders larger than 0.100000
B(  0-C ,  1-C ) :   0.9590 B(  0-C ,  7-H ) :   0.9716 B(  0-C ,  8-H ) :   0.9711
B(  0-C ,  9-H ) :   0.9782 B(  1-C ,  2-C ) :   0.9851 B(  1-C ,  3-H ) :   0.9372
B(  1-C ,  4-H ) :   0.9637 B(  2-C ,  5-F ) :   1.2052 B(  2-C ,  6-O ) :   2.0395

FINAL SINGLE POINT ENERGY      -292.390308336590

DIPOLE MOMENT
-------------
                                X             Y             Z
Electronic contribution:     -8.38146       0.47772       3.56588
Nuclear contribution   :      8.54799       0.05434      -4.66633
                        -----------------------------------------
Total Dipole Moment    :      0.16652       0.53206      -1.10044
                        -----------------------------------------
Magnitude (a.u.)       :      1.23361
Magnitude (Debye)      :      3.13558

Rotational constants in cm-1:     0.325803     0.123345     0.094275
Rotational constants in MHz :  9767.324172  3697.779805  2826.305733

                             ****ORCA TERMINATED NORMALLY****
TOTAL RUN TIME: 0 days 0 hours 0 minutes 28 seconds 288 msec
