                         Program Version 5.0.0 -  RELEASE  -
|  1> !CAM-B3LYP RIJCOSX def2-TZVP def2/J TightSCF
|  2> *xyz 0 1
|  3> C          0.64866        1.00359       -3.64560
|  4> C          0.28128        0.67645       -2.24018
|  5> C          0.13297        2.38587       -4.02462
|  6> H          0.39079       -0.31925       -2.02649
|  7> H         -0.69269        0.99010       -2.13812
|  8> H          0.85421        1.21221       -1.57528
|  9> H          0.19099        0.23965       -4.27575
| 10> H          1.73157        0.93173       -3.75075
| 11> H          0.40589        2.60338       -5.03610
| 12> H          0.56342        3.11797       -3.37374
| 13> H         -0.93265        2.40724       -3.93025
| 14> *
| 15> %MaxCore 64000
| 16>
| 17> %pal nprocs 4
| 18> end
| 19>
| 20> %scf
| 21>   MaxIter 150
| 22> end
| 23>
| 24>
| 25>                          ****END OF INPUT****

CARTESIAN COORDINATES (ANGSTROEM)
---------------------------------
  C      0.648660    1.003590   -3.645600
  C      0.281280    0.676450   -2.240180
  C      0.132970    2.385870   -4.024620
  H      0.390790   -0.319250   -2.026490
  H     -0.692690    0.990100   -2.138120
  H      0.854210    1.212210   -1.575280
  H      0.190990    0.239650   -4.275750
  H      1.731570    0.931730   -3.750750
  H      0.405890    2.603380   -5.036100
  H      0.563420    3.117970   -3.373740
  H     -0.932650    2.407240   -3.930250

 Total Charge           Charge          ....    0
 Multiplicity           Mult            ....    1
 Number of Electrons    NEL             ....   26
 Basis Dimension        Dim             ....  141

ORBITAL ENERGIES
----------------

  NO   OCC          E(Eh)            E(eV)
   0   2.0000     -10.228319      -278.3267
   1   2.0000     -10.220167      -278.1049
   2   2.0000     -10.201166      -277.5878
   3   2.0000      -0.876531       -23.8516
   4   2.0000      -0.769232       -20.9319
   5   2.0000      -0.662618       -18.0308
   6   2.0000      -0.540296       -14.7022
   7   2.0000      -0.520594       -14.1661
   8   2.0000      -0.470538       -12.8040
   9   2.0000      -0.454336       -12.3631
  10   2.0000      -0.402900       -10.9635
  11   2.0000      -0.399332       -10.8664
  12   2.0000      -0.392032       -10.6677
  13   0.0000       0.078085         2.1248
  14   0.0000       0.120861         3.2888
  15   0.0000       0.126428         3.4403
  16   0.0000       0.133116         3.6223
  17   0.0000       0.151928         4.1342

MULLIKEN ATOMIC CHARGES
-----------------------
   0 C :   -0.151311
   1 C :   -0.323899
   2 C :   -0.338949
   3 H :    0.110806
   4 H :    0.096775
   5 H :    0.108703
   6 H :    0.086392
   7 H :    0.086719
   8 H :    0.111437
   9 H :    0.105466
  10 H :    0.107860
Sum of atomic charges:    0.0000000

LOEWDIN ATOMIC CHARGES
----------------------
   0 C :   -0.320460
   1 C :   -0.303454
   2 C :   -0.306073
   3 H :    0.105807
   4 H :    0.112802
   5 H :    0.108142
   6 H :    0.130725
   7 H :    0.128165
   8 H :    0.114280
   9 H :    0.115458
  10 H :    0.114609

  Mayer bond orders larger than 0.100000
B(  0-C ,  1-C ) :   0.9431 B(  0-C ,  2-C ) :   0.9592 B(  0-C ,  6-H ) :   0.9787
B(  0-C ,  7-H ) :   0.9782 B(  1-C ,  3-H ) :   0.9862 B(  1-C ,  4-H ) :   0.9814
B(  1-C ,  5-H ) :   0.9841 B(  2-C ,  8-H ) :   0.9840 B(  2-C ,  9-H ) :   0.9781
B(  2-C , 10-H ) :   0.9790

FINAL SINGLE POINT ENERGY      -119.094252591688

DIPOLE MOMENT
-------------
                                X             Y             Z
Electronic contribution:      0.26175      -0.28295      -0.24579
Nuclear contribution   :     -0.24754       0.26111       0.24628
                        -----------------------------------------
Total Dipole Moment    :      0.01422      -0.02184       0.00049
                        -----------------------------------------
Magnitude (a.u.)       :      0.02607
Magnitude (Debye)      :      0.06626

Rotational constants in cm-1:     1.006509     0.299509     0.263145
Rotational constants in MHz : 30174.379724  8979.049324  7888.875355

                             ****ORCA TERMINATED NORMALLY****
TOTAL RUN TIME: 0 days 0 hours 0 minutes 18 seconds 467 msec
