                         Program Version 5.0.0 -  RELEASE  -
|  1> !CAM-B3LYP RIJCOSX def2-TZVP def2/J TightSCF
|  2> *xyz 0 1
|  3> C          0.13297        2.38587       -4.02462
|  4> C         -1.36646        2.47911       -4.31393
|  5> C         -2.35773        2.30686       -3.13675
|  6> H         -1.63680        1.72709       -5.06399
|  7> H         -1.58235        3.44561       -4.76869
|  8> O         -3.44376        2.84652       -3.25274
|  9> F         -1.97092        1.58304       -2.15123
| 10> H          0.68084        2.52514       -4.93310
| 11> H          0.35823        1.42282       -3.61633
| 12> H          0.40851        3.14443       -3.32208
| 13> *
| 14> %MaxCore 64000
| 15>
| 16> %pal nprocs 4
| 17> end
| 18>
| 19> %scf
| 20>   MaxIter 150
| 21> end
| 22>
| 23>
| 24>                          ****END OF INPUT****

CARTESIAN COORDINATES (ANGSTROEM)
---------------------------------
  C      0.132970    2.385870   -4.024620
  C     -1.366460    2.479110   -4.313930
  C     -2.357730    2.306860   -3.136750
  H     -1.636800    1.727090   -5.063990
  H     -1.582350    3.445610   -4.768690
  O     -3.443760    2.846520   -3.252740
  F     -1.970920    1.583040   -2.151230
  H      0.680840    2.525140   -4.933100
  H      0.358230    1.422820   -3.616330
  H      0.408510    3.144430   -3.322080

 Total Charge           Charge          ....    0
 Multiplicity           Mult            ....    1
 Number of Electrons    NEL             ....   40
 Basis Dimension        Dim             ....  185

ORBITAL ENERGIES
----------------

  NO   OCC          E(Eh)            E(eV)
   0   2.0000     -24.817729      -675.3247
   1   2.0000     -19.209829      -522.7260
   2   2.0000     -10.424848      -283.6745
   3   2.0000     -10.276295      -279.6322
   4   2.0000     -10.248666      -278.8804
   5   2.0000      -1.383587       -37.6493
   6   2.0000      -1.139217       -30.9997
   7   2.0000      -0.883201       -24.0331
   8   2.0000      -0.761153       -20.7120
   9   2.0000      -0.715236       -19.4626
  10   2.0000      -0.616501       -16.7758
  11   2.0000      -0.611219       -16.6321
  12   2.0000      -0.570593       -15.5266
  13   2.0000      -0.538592       -14.6558
  14   2.0000      -0.504164       -13.7190
  15   2.0000      -0.475661       -12.9434
  16   2.0000      -0.459234       -12.4964
  17   2.0000      -0.442748       -12.0478
  18   2.0000      -0.421059       -11.4576
  19   2.0000      -0.365528        -9.9465
  20   0.0000       0.027190         0.7399
  21   0.0000       0.063105         1.7172
  22   0.0000       0.110438         3.0052
  23   0.0000       0.130641         3.5549
  24   0.0000       0.135052         3.6750

MULLIKEN ATOMIC CHARGES
-----------------------
   0 C :   -0.333951
   1 C :   -0.243341
   2 C :    0.339629
   3 H :    0.129651
   4 H :    0.138725
   5 O :   -0.274129
   6 F :   -0.124005
   7 H :    0.125898
   8 H :    0.119913
   9 H :    0.121611
Sum of atomic charges:   -0.0000000

LOEWDIN ATOMIC CHARGES
----------------------
   0 C :   -0.301243
   1 C :   -0.259246
   2 C :   -0.497128
   3 H :    0.153588
   4 H :    0.152837
   5 O :    0.110691
   6 F :    0.281308
   7 H :    0.120943
   8 H :    0.118797
   9 H :    0.119454

  Mayer bond orders larger than 0.100000
B(  0-C ,  1-C ) :   0.9381 B(  0-C ,  7-H ) :   0.9737 B(  0-C ,  8-H ) :   0.9717
B(  0-C ,  9-H ) :   0.9762 B(  1-C ,  2-C ) :   0.9895 B(  1-C ,  3-H ) :   0.9466
B(  1-C ,  4-H ) :   0.9678 B(  2-C ,  5-O ) :   2.1255 B(  2-C ,  6-F ) :   1.1327

FINAL SINGLE POINT ENERGY      -292.408123369501

DIPOLE MOMENT
-------------
                                X             Y             Z
Electronic contribution:     -5.89327      -1.62819       5.38506
Nuclear contribution   :      6.94213       1.43193      -5.86732
                        -----------------------------------------
Total Dipole Moment    :      1.04886      -0.19626      -0.48226
                        -----------------------------------------
Magnitude (a.u.)       :      1.17099
Magnitude (Debye)      :      2.97641

Rotational constants in cm-1:     0.306336     0.129048     0.095707
Rotational constants in MHz :  9183.725605  3868.769583  2869.236577

                             ****ORCA TERMINATED NORMALLY****
TOTAL RUN TIME: 0 days 0 hours 0 minutes 24 seconds 480 msec
