                         Program Version 5.0.0 -  RELEASE  -
|  1> !CAM-B3LYP RIJCOSX def2-TZVP def2/J TightSCF xyzfile
|  2>
|  3> *xyzfile 0 1 D2.xyz
|  4>
|  5> %MaxCore 64000
|  6>
|  7> %pal nprocs 18
|  8> end
|  9>
| 10> %scf
| 11>   MaxIter 150
| 12> end
| 13>
| 14>
| 15>                          ****END OF INPUT****

CARTESIAN COORDINATES (ANGSTROEM)
---------------------------------
  C      0.648656    1.003595   -3.645601
  C      0.281280    0.676454   -2.240179
  C      0.132968    2.385869   -4.024618
  C     -1.366462    2.479106   -4.313932
  C     -2.357732    2.306858   -3.136753
  H     -1.636802    1.727095   -5.063993
  H     -1.582347    3.445605   -4.768687
  H      0.390790   -0.319253   -2.026495
  H     -0.692686    0.990104   -2.138123
  H      0.854206    1.212214   -1.575279
  O     -3.443763    2.846518   -3.252744
  F     -1.970922    1.583042   -2.151229
  H      0.190993    0.239655   -4.275752
  H      1.731572    0.931729   -3.750751
  H      0.414839    3.102847   -3.245165
  H      0.683167    2.687560   -4.919721

 Total Charge           Charge          ....    0
 Multiplicity           Mult            ....    1
 Number of Electrons    NEL             ....   56
 Basis Dimension        Dim             ....  271

ORBITAL ENERGIES
----------------

  NO   OCC          E(Eh)            E(eV)
   0   2.0000     -24.829317      -675.6401
   1   2.0000     -19.217536      -522.9357
   2   2.0000     -10.432380      -283.8795
   3   2.0000     -10.278837      -279.7014
   4   2.0000     -10.255047      -279.0540
   5   2.0000     -10.236000      -278.5357
   6   2.0000     -10.182581      -277.0821
   7   2.0000      -1.406033       -38.2601
   8   2.0000      -1.147193       -31.2167
   9   2.0000      -0.908815       -24.7301
  10   2.0000      -0.846811       -23.0429
  11   2.0000      -0.757788       -20.6205
  12   2.0000      -0.756928       -20.5971
  13   2.0000      -0.662467       -18.0267
  14   2.0000      -0.639081       -17.3903
  15   2.0000      -0.627247       -17.0683
  16   2.0000      -0.581781       -15.8311
  17   2.0000      -0.544426       -14.8146
  18   2.0000      -0.524752       -14.2792
  19   2.0000      -0.518804       -14.1174
  20   2.0000      -0.491813       -13.3829
  21   2.0000      -0.459495       -12.5035
  22   2.0000      -0.452628       -12.3166
  23   2.0000      -0.431803       -11.7500
  24   2.0000      -0.403249       -10.9730
  25   2.0000      -0.398041       -10.8312
  26   2.0000      -0.390496       -10.6259
  27   2.0000      -0.358841        -9.7646
  28   0.0000       0.019641         0.5345
  29   0.0000       0.064017         1.7420
  30   0.0000       0.096606         2.6288
  31   0.0000       0.102634         2.7928
  32   0.0000       0.112869         3.0713

MULLIKEN ATOMIC CHARGES
-----------------------
   0 C :   -0.165644
   1 C :   -0.406248
   2 C :   -0.202162
   3 C :   -0.276373
   4 C :    0.333498
   5 H :    0.138544
   6 H :    0.150979
   7 H :    0.108206
   8 H :    0.141249
   9 H :    0.108951
  10 O :   -0.261387
  11 F :   -0.085191
  12 H :    0.087564
  13 H :    0.098083
  14 H :    0.115524
  15 H :    0.114407
Sum of atomic charges:    0.0000000

LOEWDIN ATOMIC CHARGES
----------------------
   0 C :   -0.299309
   1 C :   -0.315893
   2 C :   -0.267067
   3 C :   -0.229265
   4 C :   -0.483235
   5 H :    0.157719
   6 H :    0.157882
   7 H :    0.103306
   8 H :    0.080789
   9 H :    0.105934
  10 O :    0.118277
  11 F :    0.322234
  12 H :    0.133988
  13 H :    0.132396
  14 H :    0.140909
  15 H :    0.141336

  Mayer bond orders larger than 0.100000
B(  0-C ,  1-C ) :   0.9244 B(  0-C ,  2-C ) :   0.9328 B(  0-C , 12-H ) :   0.9795
B(  0-C , 13-H ) :   0.9778 B(  1-C ,  7-H ) :   0.9886 B(  1-C ,  8-H ) :   0.9778
B(  1-C ,  9-H ) :   0.9863 B(  2-C ,  3-C ) :   0.9257 B(  2-C , 14-H ) :   0.9770
B(  2-C , 15-H ) :   0.9717 B(  3-C ,  4-C ) :   0.9942 B(  3-C ,  5-H ) :   0.9489
B(  3-C ,  6-H ) :   0.9680 B(  4-C , 10-O ) :   2.1482 B(  4-C , 11-F ) :   1.0874

FINAL SINGLE POINT ENERGY      -370.958881301761

DIPOLE MOMENT
-------------
                                X             Y             Z
Electronic contribution:    -10.26937       2.34120       3.28904
Nuclear contribution   :     11.08738      -2.45618      -3.73478
                        -----------------------------------------
Total Dipole Moment    :      0.81802      -0.11498      -0.44574
                        -----------------------------------------
Magnitude (a.u.)       :      0.93865
Magnitude (Debye)      :      2.38585

Rotational constants in cm-1:     0.156244     0.063730     0.048063
Rotational constants in MHz :  4684.071402  1910.571278  1440.877811

                             ****ORCA TERMINATED NORMALLY****
TOTAL RUN TIME: 0 days 0 hours 0 minutes 25 seconds 851 msec
