                         Program Version 5.0.0 -  RELEASE  -
|  1> !wB97X-D3 RIJCOSX def2-TZVPD def2/J TightSCF
|  2> *xyz -1 1
|  3> C         -0.72184       -0.99951       -3.43931
|  4> C          0.28725       -1.71177       -2.52740
|  5> H          1.13178       -2.06738       -3.15940
|  6> H         -0.20414       -2.63733       -2.17048
|  7> O          0.71050       -0.92751       -1.48177
|  8> H         -1.01315       -1.65739       -4.23129
|  9> H         -0.27123       -0.12142       -3.85259
| 10> H         -1.58442       -0.72333       -2.86958
| 11> *
| 12> %MaxCore 64000
| 13>
| 14> %pal nprocs 4
| 15> end
| 16>
| 17> %scf
| 18>   MaxIter 150
| 19> end
| 20>
| 21>
| 22>                          ****END OF INPUT****

CARTESIAN COORDINATES (ANGSTROEM)
---------------------------------
  C     -0.721840   -0.999510   -3.439310
  C      0.287250   -1.711770   -2.527400
  H      1.131780   -2.067380   -3.159400
  H     -0.204140   -2.637330   -2.170480
  O      0.710500   -0.927510   -1.481770
  H     -1.013150   -1.657390   -4.231290
  H     -0.271230   -0.121420   -3.852590
  H     -1.584420   -0.723330   -2.869580

 Total Charge           Charge          ....   -1
 Multiplicity           Mult            ....    1
 Number of Electrons    NEL             ....   26
 Basis Dimension        Dim             ....  159

ORBITAL ENERGIES
----------------

  NO   OCC          E(Eh)            E(eV)
   0   2.0000     -18.893523      -514.1189
   1   2.0000     -10.087448      -274.4934
   2   2.0000     -10.064011      -273.8557
   3   2.0000      -0.791226       -21.5303
   4   2.0000      -0.640874       -17.4391
   5   2.0000      -0.481640       -13.1061
   6   2.0000      -0.351345        -9.5606
   7   2.0000      -0.327638        -8.9155
   8   2.0000      -0.269438        -7.3318
   9   2.0000      -0.251457        -6.8425
  10   2.0000      -0.205108        -5.5813
  11   2.0000      -0.059685        -1.6241
  12   2.0000      -0.057707        -1.5703
  13   0.0000       0.212643         5.7863
  14   0.0000       0.233030         6.3411
  15   0.0000       0.262465         7.1420
  16   0.0000       0.263985         7.1834
  17   0.0000       0.287516         7.8237

MULLIKEN ATOMIC CHARGES
-----------------------
   0 C :   -0.882250
   1 C :   -0.247444
   2 H :    0.136911
   3 H :    0.131837
   4 O :   -0.921978
   5 H :    0.313488
   6 H :    0.234665
   7 H :    0.234771
Sum of atomic charges:   -1.0000000

LOEWDIN ATOMIC CHARGES
----------------------
   0 C :   -0.170566
   1 C :   -0.617567
   2 H :    0.058288
   3 H :    0.055271
   4 O :   -0.435165
   5 H :    0.029222
   6 H :    0.039991
   7 H :    0.040526

  Mayer bond orders larger than 0.100000
B(  0-C ,  1-C ) :   0.7759 B(  0-C ,  4-O ) :   0.2274 B(  0-C ,  5-H ) :   0.9406
B(  0-C ,  6-H ) :   0.9937 B(  0-C ,  7-H ) :   0.9936 B(  1-C ,  2-H ) :   1.0632
B(  1-C ,  3-H ) :   1.0734 B(  1-C ,  4-O ) :   1.0514

Dispersion correction           -0.000859691
FINAL SINGLE POINT ENERGY      -154.439772770351

DIPOLE MOMENT
-------------
                                X             Y             Z
Electronic contribution:      1.41724       0.66380       2.27886
Nuclear contribution   :     -2.24828      -1.06600      -3.62481
                        -----------------------------------------
Total Dipole Moment    :     -0.83104      -0.40219      -1.34595
                        -----------------------------------------
Magnitude (a.u.)       :      1.63217
Magnitude (Debye)      :      4.14864

Rotational constants in cm-1:     1.278116     0.325414     0.286672
Rotational constants in MHz : 38316.964654  9755.653004  8594.216906

                             ****ORCA TERMINATED NORMALLY****
TOTAL RUN TIME: 0 days 0 hours 0 minutes 23 seconds 279 msec
