                         Program Version 5.0.0 -  RELEASE  -
|  1> !wB97X-D3 RIJCOSX def2-TZVPD def2/J TightSCF
|  2> *xyz 1 1
|  3> C          3.48828        1.60092       -1.52204
|  4> C          4.34297        1.31342       -2.75683
|  5> N          2.81029        0.42878       -1.01420
|  6> H          2.71455        2.33145       -1.76030
|  7> H          4.09099        2.06315       -0.73338
|  8> C          3.29098       -0.41802       -0.12908
|  9> N          2.51754       -1.43202        0.23936
| 10> N          4.53549       -0.28441        0.39580
| 11> H          5.04363        0.57189        0.22290
| 12> H          4.72335       -0.73327        1.28180
| 13> H          1.93479        0.10230       -1.40379
| 14> H          1.67464       -1.50562       -0.31610
| 15> H          2.92850       -2.21850        0.72549
| 16> H          3.73575        0.86277       -3.51385
| 17> H          5.13754        0.64699       -2.49333
| 18> H          4.75374        2.22930       -3.12740
| 19> *
| 20> %MaxCore 64000
| 21>
| 22> %pal nprocs 4
| 23> end
| 24>
| 25> %scf
| 26>   MaxIter 150
| 27> end
| 28>
| 29>
| 30>                          ****END OF INPUT****

CARTESIAN COORDINATES (ANGSTROEM)
---------------------------------
  C      3.488280    1.600920   -1.522040
  C      4.342970    1.313420   -2.756830
  N      2.810290    0.428780   -1.014200
  H      2.714550    2.331450   -1.760300
  H      4.090990    2.063150   -0.733380
  C      3.290980   -0.418020   -0.129080
  N      2.517540   -1.432020    0.239360
  N      4.535490   -0.284410    0.395800
  H      5.043630    0.571890    0.222900
  H      4.723350   -0.733270    1.281800
  H      1.934790    0.102300   -1.403790
  H      1.674640   -1.505620   -0.316100
  H      2.928500   -2.218500    0.725490
  H      3.735750    0.862770   -3.513850
  H      5.137540    0.646990   -2.493330
  H      4.753740    2.229300   -3.127400

 Total Charge           Charge          ....    1
 Multiplicity           Mult            ....    1
 Number of Electrons    NEL             ....   48
 Basis Dimension        Dim             ....  312

ORBITAL ENERGIES
----------------

  NO   OCC          E(Eh)            E(eV)
   0   2.0000     -14.651202      -398.6795
   1   2.0000     -14.645274      -398.5182
   2   2.0000     -14.643259      -398.4633
   3   2.0000     -10.612805      -288.7891
   4   2.0000     -10.485684      -285.3300
   5   2.0000     -10.409088      -283.2457
   6   2.0000      -1.339009       -36.4363
   7   2.0000      -1.224233       -33.3131
   8   2.0000      -1.209986       -32.9254
   9   2.0000      -1.049408       -28.5558
  10   2.0000      -0.948792       -25.8179
  11   2.0000      -0.916787       -24.9470
  12   2.0000      -0.884756       -24.0754
  13   2.0000      -0.851893       -23.1812
  14   2.0000      -0.791417       -21.5356
  15   2.0000      -0.781994       -21.2791
  16   2.0000      -0.753816       -20.5124
  17   2.0000      -0.742966       -20.2171
  18   2.0000      -0.702930       -19.1277
  19   2.0000      -0.659764       -17.9531
  20   2.0000      -0.629663       -17.1340
  21   2.0000      -0.608894       -16.5688
  22   2.0000      -0.573898       -15.6166
  23   2.0000      -0.544231       -14.8093
  24   0.0000      -0.093592        -2.5468
  25   0.0000      -0.087685        -2.3860
  26   0.0000      -0.059647        -1.6231
  27   0.0000      -0.048807        -1.3281
  28   0.0000      -0.023762        -0.6466

MULLIKEN ATOMIC CHARGES
-----------------------
   0 C :   -0.646112
   1 C :   -1.022812
   2 N :   -0.116107
   3 H :    0.303343
   4 H :    0.378820
   5 C :    0.763713
   6 N :   -0.403517
   7 N :   -0.397635
   8 H :    0.228468
   9 H :    0.238417
  10 H :    0.196847
  11 H :    0.221774
  12 H :    0.240189
  13 H :    0.330979
  14 H :    0.320971
  15 H :    0.362662
Sum of atomic charges:    1.0000000

LOEWDIN ATOMIC CHARGES
----------------------
   0 C :   -0.204451
   1 C :   -0.058414
   2 N :    0.080432
   3 H :    0.131933
   4 H :    0.121770
   5 C :   -0.422773
   6 N :    0.199343
   7 N :    0.208802
   8 H :    0.118391
   9 H :    0.137338
  10 H :    0.169879
  11 H :    0.138294
  12 H :    0.145838
  13 H :    0.078747
  14 H :    0.071635
  15 H :    0.083235

  Mayer bond orders larger than 0.100000
B(  0-C ,  1-C ) :   0.7559 B(  0-C ,  2-N ) :   0.9114 B(  0-C ,  3-H ) :   0.9518
B(  0-C ,  4-H ) :   0.8352 B(  0-C ,  5-C ) :  -0.1070 B(  1-C , 13-H ) :   0.9609
B(  1-C , 14-H ) :   0.9439 B(  1-C , 15-H ) :   0.9336 B(  2-N ,  5-C ) :   1.2228
B(  2-N ,  6-N ) :   0.1051 B(  2-N , 10-H ) :   1.0155 B(  5-C ,  6-N ) :   1.1015
B(  5-C ,  7-N ) :   1.1372 B(  6-N , 11-H ) :   0.9627 B(  6-N , 12-H ) :   0.9713
B(  7-N ,  8-H ) :   0.9231 B(  7-N ,  9-H ) :   0.9817

Dispersion correction           -0.003785614
FINAL SINGLE POINT ENERGY      -284.428183923485

DIPOLE MOMENT
-------------
                                X             Y             Z
Electronic contribution:     -1.92819      -3.00947       3.73907
Nuclear contribution   :      1.59382       2.33278      -3.02574
                        -----------------------------------------
Total Dipole Moment    :     -0.33437      -0.67669       0.71334
                        -----------------------------------------
Magnitude (a.u.)       :      1.03854
Magnitude (Debye)      :      2.63976

Rotational constants in cm-1:     0.232230     0.073139     0.063030
Rotational constants in MHz :  6962.079716  2192.649203  1889.578947

                             ****ORCA TERMINATED NORMALLY****
TOTAL RUN TIME: 0 days 0 hours 1 minutes 25 seconds 0 msec
