                         Program Version 5.0.0 -  RELEASE  -
|  1> !wB97X-D3 RIJCOSX def2-TZVPD def2/J TightSCF
|  2> *xyz 0 1
|  3> C         -0.72184       -0.99951       -3.43931
|  4> C          0.28725       -1.71177       -2.52740
|  5> H          1.13178       -2.06738       -3.15940
|  6> H         -0.20414       -2.63733       -2.17048
|  7> F          0.71050       -0.92751       -1.48177
|  8> H         -1.01315       -1.65739       -4.23129
|  9> H         -0.27123       -0.12142       -3.85259
| 10> H         -1.58442       -0.72333       -2.86958
| 11> *
| 12> %MaxCore 64000
| 13>
| 14> %pal nprocs 4
| 15> end
| 16>
| 17> %scf
| 18>   MaxIter 150
| 19> end
| 20>
| 21>
| 22>                          ****END OF INPUT****

CARTESIAN COORDINATES (ANGSTROEM)
---------------------------------
  C     -0.721840   -0.999510   -3.439310
  C      0.287250   -1.711770   -2.527400
  H      1.131780   -2.067380   -3.159400
  H     -0.204140   -2.637330   -2.170480
  F      0.710500   -0.927510   -1.481770
  H     -1.013150   -1.657390   -4.231290
  H     -0.271230   -0.121420   -3.852590
  H     -1.584420   -0.723330   -2.869580

 Total Charge           Charge          ....    0
 Multiplicity           Mult            ....    1
 Number of Electrons    NEL             ....   26
 Basis Dimension        Dim             ....  159

ORBITAL ENERGIES
----------------

  NO   OCC          E(Eh)            E(eV)
   0   2.0000     -24.770979      -674.0526
   1   2.0000     -10.354216      -281.7525
   2   2.0000     -10.268681      -279.4250
   3   2.0000      -1.312171       -35.7060
   4   2.0000      -0.881706       -23.9924
   5   2.0000      -0.742917       -20.2158
   6   2.0000      -0.609339       -16.5810
   7   2.0000      -0.598592       -16.2885
   8   2.0000      -0.558891       -15.2082
   9   2.0000      -0.504552       -13.7295
  10   2.0000      -0.498478       -13.5643
  11   2.0000      -0.432766       -11.7762
  12   2.0000      -0.426323       -11.6008
  13   0.0000       0.072957         1.9853
  14   0.0000       0.095740         2.6052
  15   0.0000       0.118201         3.2164
  16   0.0000       0.121334         3.3017
  17   0.0000       0.149188         4.0596

MULLIKEN ATOMIC CHARGES
-----------------------
   0 C :   -0.968304
   1 C :   -0.071337
   2 H :    0.222511
   3 H :    0.213856
   4 F :   -0.302373
   5 H :    0.332708
   6 H :    0.285446
   7 H :    0.287493
Sum of atomic charges:   -0.0000000

LOEWDIN ATOMIC CHARGES
----------------------
   0 C :   -0.087620
   1 C :   -0.282683
   2 H :    0.113884
   3 H :    0.110154
   4 F :   -0.052842
   5 H :    0.067842
   6 H :    0.065423
   7 H :    0.065842

  Mayer bond orders larger than 0.100000
B(  0-C ,  1-C ) :   0.8057 B(  0-C ,  5-H ) :   0.9217 B(  0-C ,  6-H ) :   0.9551
B(  0-C ,  7-H ) :   0.9547 B(  1-C ,  2-H ) :   0.9757 B(  1-C ,  3-H ) :   0.9875
B(  1-C ,  4-F ) :   0.7686

Dispersion correction           -0.000872236
FINAL SINGLE POINT ENERGY      -179.087417044461

DIPOLE MOMENT
-------------
                                X             Y             Z
Electronic contribution:      2.69961       1.04370       4.21843
Nuclear contribution   :     -2.97459      -1.40206      -4.79987
                        -----------------------------------------
Total Dipole Moment    :     -0.27498      -0.35835      -0.58144
                        -----------------------------------------
Magnitude (a.u.)       :      0.73628
Magnitude (Debye)      :      1.87148

Rotational constants in cm-1:     1.257024     0.302702     0.267953
Rotational constants in MHz : 37684.643733  9074.792567  8033.038070

                             ****ORCA TERMINATED NORMALLY****
TOTAL RUN TIME: 0 days 0 hours 0 minutes 17 seconds 392 msec
