                         Program Version 5.0.0 -  RELEASE  -
|  1> !wB97X-D3 RIJCOSX def2-TZVPD def2/J TightSCF
|  2> *xyz 0 1
|  3> C          3.48828        1.60092       -1.52204
|  4> C          4.34297        1.31342       -2.75683
|  5> C          2.81029        0.42878       -1.01420
|  6> H          2.71455        2.33145       -1.76030
|  7> H          4.09099        2.06315       -0.73338
|  8> C          3.29098       -0.41802       -0.12908
|  9> N          2.51754       -1.43202        0.23936
| 10> N          4.53549       -0.28441        0.39580
| 11> H          5.04363        0.57189        0.22290
| 12> H          4.72335       -0.73327        1.28180
| 13> H          1.93479        0.10230       -1.40379
| 14> H          1.67464       -1.50562       -0.31610
| 15> H          2.92850       -2.21850        0.72549
| 16> H          3.73575        0.86277       -3.51385
| 17> H          5.13754        0.64699       -2.49333
| 18> H          4.75374        2.22930       -3.12740
| 19> *
| 20> %MaxCore 64000
| 21>
| 22> %pal nprocs 4
| 23> end
| 24>
| 25> %scf
| 26>   MaxIter 150
| 27> end
| 28>
| 29>
| 30>                          ****END OF INPUT****

CARTESIAN COORDINATES (ANGSTROEM)
---------------------------------
  C      3.488280    1.600920   -1.522040
  C      4.342970    1.313420   -2.756830
  C      2.810290    0.428780   -1.014200
  H      2.714550    2.331450   -1.760300
  H      4.090990    2.063150   -0.733380
  C      3.290980   -0.418020   -0.129080
  N      2.517540   -1.432020    0.239360
  N      4.535490   -0.284410    0.395800
  H      5.043630    0.571890    0.222900
  H      4.723350   -0.733270    1.281800
  H      1.934790    0.102300   -1.403790
  H      1.674640   -1.505620   -0.316100
  H      2.928500   -2.218500    0.725490
  H      3.735750    0.862770   -3.513850
  H      5.137540    0.646990   -2.493330
  H      4.753740    2.229300   -3.127400

 Total Charge           Charge          ....    0
 Multiplicity           Mult            ....    1
 Number of Electrons    NEL             ....   48
 Basis Dimension        Dim             ....  312

ORBITAL ENERGIES
----------------

  NO   OCC          E(Eh)            E(eV)
   0   2.0000     -14.422012      -392.4429
   1   2.0000     -14.417236      -392.3129
   2   2.0000     -10.316146      -280.7166
   3   2.0000     -10.251619      -278.9607
   4   2.0000     -10.238254      -278.5970
   5   2.0000     -10.196567      -277.4627
   6   2.0000      -1.076975       -29.3060
   7   2.0000      -0.986200       -26.8359
   8   2.0000      -0.892540       -24.2872
   9   2.0000      -0.809753       -22.0345
  10   2.0000      -0.725172       -19.7329
  11   2.0000      -0.685474       -18.6527
  12   2.0000      -0.639876       -17.4119
  13   2.0000      -0.613734       -16.7006
  14   2.0000      -0.563750       -15.3404
  15   2.0000      -0.539141       -14.6708
  16   2.0000      -0.518261       -14.1026
  17   2.0000      -0.498596       -13.5675
  18   2.0000      -0.479318       -13.0429
  19   2.0000      -0.449161       -12.2223
  20   2.0000      -0.427019       -11.6198
  21   2.0000      -0.414599       -11.2818
  22   2.0000      -0.360950        -9.8220
  23   2.0000      -0.249240        -6.7822
  24   0.0000       0.065206         1.7743
  25   0.0000       0.089598         2.4381
  26   0.0000       0.092795         2.5251
  27   0.0000       0.102238         2.7821
  28   0.0000       0.118525         3.2252

MULLIKEN ATOMIC CHARGES
-----------------------
   0 C :   -0.546560
   1 C :   -1.082277
   2 C :   -0.636872
   3 H :    0.238542
   4 H :    0.316244
   5 C :    0.516635
   6 N :   -0.466703
   7 N :   -0.433823
   8 H :    0.205473
   9 H :    0.189068
  10 H :    0.359132
  11 H :    0.205001
  12 H :    0.190025
  13 H :    0.332206
  14 H :    0.310194
  15 H :    0.303714
Sum of atomic charges:   -0.0000000

LOEWDIN ATOMIC CHARGES
----------------------
   0 C :   -0.283026
   1 C :   -0.104397
   2 C :   -0.153792
   3 H :    0.103975
   4 H :    0.098494
   5 C :   -0.539757
   6 N :    0.095798
   7 N :    0.122284
   8 H :    0.091604
   9 H :    0.097606
  10 H :    0.070270
  11 H :    0.108854
  12 H :    0.104081
  13 H :    0.066932
  14 H :    0.062963
  15 H :    0.058110

  Mayer bond orders larger than 0.100000
B(  0-C ,  1-C ) :   0.6054 B(  0-C ,  2-C ) :   0.8743 B(  0-C ,  3-H ) :   1.0955
B(  0-C ,  4-H ) :   0.9031 B(  0-C ,  5-C ) :   0.2554 B(  1-C ,  2-C ) :   0.1664
B(  1-C , 13-H ) :   0.9638 B(  1-C , 14-H ) :   0.9670 B(  1-C , 15-H ) :   0.9453
B(  2-C ,  5-C ) :   1.2495 B(  2-C , 10-H ) :   0.9001 B(  5-C ,  6-N ) :   1.0821
B(  5-C ,  7-N ) :   0.9908 B(  5-C , 10-H ) :  -0.1852 B(  6-N , 11-H ) :   0.9574
B(  6-N , 12-H ) :   1.0155 B(  7-N ,  8-H ) :   0.9199 B(  7-N ,  9-H ) :   1.0094

Dispersion correction           -0.003779931
FINAL SINGLE POINT ENERGY      -267.946660310436

DIPOLE MOMENT
-------------
                                X             Y             Z
Electronic contribution:     -1.26702      -2.91405       3.63909
Nuclear contribution   :      1.44676       2.38443      -3.07370
                        -----------------------------------------
Total Dipole Moment    :      0.17974      -0.52962       0.56539
                        -----------------------------------------
Magnitude (a.u.)       :      0.79528
Magnitude (Debye)      :      2.02145

Rotational constants in cm-1:     0.235977     0.073199     0.063283
Rotational constants in MHz :  7074.404583  2194.453291  1897.179599

                             ****ORCA TERMINATED NORMALLY****
TOTAL RUN TIME: 0 days 0 hours 1 minutes 32 seconds 245 msec
