                         Program Version 5.0.0 -  RELEASE  -
|  1> !wB97X-D3 RIJCOSX def2-TZVPD def2/J TightSCF
|  2> *xyz 0 1
|  3> C          3.48828        1.60092       -1.52204
|  4> C          4.34297        1.31342       -2.75683
|  5> N          2.81029        0.42878       -1.01420
|  6> H          2.71455        2.33145       -1.76030
|  7> H          4.09099        2.06315       -0.73338
|  8> C          3.29098       -0.41802       -0.12908
|  9> C          2.51754       -1.43202        0.23936
| 10> N          4.53549       -0.28441        0.39580
| 11> H          5.04363        0.57189        0.22290
| 12> H          4.72335       -0.73327        1.28180
| 13> H          1.93479        0.10230       -1.40379
| 14> H          1.67464       -1.50562       -0.31610
| 15> H          2.92850       -2.21850        0.72549
| 16> H          3.73575        0.86277       -3.51385
| 17> H          5.13754        0.64699       -2.49333
| 18> H          4.75374        2.22930       -3.12740
| 19> *
| 20> %MaxCore 64000
| 21>
| 22> %pal nprocs 4
| 23> end
| 24>
| 25> %scf
| 26>   MaxIter 150
| 27> end
| 28>
| 29>
| 30>                          ****END OF INPUT****

CARTESIAN COORDINATES (ANGSTROEM)
---------------------------------
  C      3.488280    1.600920   -1.522040
  C      4.342970    1.313420   -2.756830
  N      2.810290    0.428780   -1.014200
  H      2.714550    2.331450   -1.760300
  H      4.090990    2.063150   -0.733380
  C      3.290980   -0.418020   -0.129080
  C      2.517540   -1.432020    0.239360
  N      4.535490   -0.284410    0.395800
  H      5.043630    0.571890    0.222900
  H      4.723350   -0.733270    1.281800
  H      1.934790    0.102300   -1.403790
  H      1.674640   -1.505620   -0.316100
  H      2.928500   -2.218500    0.725490
  H      3.735750    0.862770   -3.513850
  H      5.137540    0.646990   -2.493330
  H      4.753740    2.229300   -3.127400

 Total Charge           Charge          ....    0
 Multiplicity           Mult            ....    1
 Number of Electrons    NEL             ....   48
 Basis Dimension        Dim             ....  312

ORBITAL ENERGIES
----------------

  NO   OCC          E(Eh)            E(eV)
   0   2.0000     -14.423203      -392.4753
   1   2.0000     -14.422035      -392.4435
   2   2.0000     -10.321322      -280.8575
   3   2.0000     -10.318729      -280.7869
   4   2.0000     -10.264242      -279.3042
   5   2.0000     -10.180778      -277.0331
   6   2.0000      -1.088456       -29.6184
   7   2.0000      -1.000182       -27.2163
   8   2.0000      -0.892558       -24.2878
   9   2.0000      -0.816879       -22.2284
  10   2.0000      -0.741422       -20.1751
  11   2.0000      -0.704519       -19.1709
  12   2.0000      -0.639470       -17.4009
  13   2.0000      -0.602635       -16.3985
  14   2.0000      -0.577925       -15.7261
  15   2.0000      -0.540148       -14.6982
  16   2.0000      -0.531921       -14.4743
  17   2.0000      -0.503467       -13.7000
  18   2.0000      -0.475432       -12.9372
  19   2.0000      -0.468087       -12.7373
  20   2.0000      -0.461300       -12.5526
  21   2.0000      -0.452487       -12.3128
  22   2.0000      -0.352351        -9.5880
  23   2.0000      -0.249150        -6.7797
  24   0.0000       0.063123         1.7177
  25   0.0000       0.087389         2.3780
  26   0.0000       0.092085         2.5058
  27   0.0000       0.093279         2.5383
  28   0.0000       0.121693         3.3114

MULLIKEN ATOMIC CHARGES
-----------------------
   0 C :   -0.629124
   1 C :   -1.019804
   2 N :   -0.109542
   3 H :    0.285064
   4 H :    0.353355
   5 C :    0.930633
   6 C :   -1.581663
   7 N :   -0.433298
   8 H :    0.174276
   9 H :    0.225422
  10 H :    0.157734
  11 H :    0.333052
  12 H :    0.364666
  13 H :    0.292482
  14 H :    0.308710
  15 H :    0.348036
Sum of atomic charges:    0.0000000

LOEWDIN ATOMIC CHARGES
----------------------
   0 C :   -0.241644
   1 C :   -0.085717
   2 N :    0.007831
   3 H :    0.112396
   4 H :    0.107186
   5 C :   -0.558102
   6 C :   -0.015379
   7 N :    0.118427
   8 H :    0.082976
   9 H :    0.109248
  10 H :    0.146649
  11 H :    0.008664
  12 H :    0.011435
  13 H :    0.067578
  14 H :    0.064657
  15 H :    0.063794

  Mayer bond orders larger than 0.100000
B(  0-C ,  1-C ) :   0.7120 B(  0-C ,  2-N ) :   0.9144 B(  0-C ,  3-H ) :   0.9822
B(  0-C ,  4-H ) :   0.8699 B(  1-C , 13-H ) :   0.9839 B(  1-C , 14-H ) :   0.9753
B(  1-C , 15-H ) :   0.9390 B(  2-N ,  5-C ) :   1.1289 B(  2-N , 10-H ) :   0.9667
B(  5-C ,  6-C ) :   0.8681 B(  5-C ,  7-N ) :   1.0289 B(  6-C , 11-H ) :   0.9459
B(  6-C , 12-H ) :   0.9722 B(  7-N ,  8-H ) :   0.9733 B(  7-N ,  9-H ) :   0.9604

Dispersion correction           -0.003812158
FINAL SINGLE POINT ENERGY      -267.934100388837

DIPOLE MOMENT
-------------
                                X             Y             Z
Electronic contribution:     -0.85954      -1.03643       2.40158
Nuclear contribution   :      1.38466       1.98967      -2.80776
                        -----------------------------------------
Total Dipole Moment    :      0.52511       0.95323      -0.40618
                        -----------------------------------------
Magnitude (a.u.)       :      1.16163
Magnitude (Debye)      :      2.95263

Rotational constants in cm-1:     0.235618     0.075969     0.065309
Rotational constants in MHz :  7063.646698  2277.495424  1957.925383

                             ****ORCA TERMINATED NORMALLY****
TOTAL RUN TIME: 0 days 0 hours 1 minutes 27 seconds 133 msec
