                         Program Version 5.0.0 -  RELEASE  -
|  1> !wB97X-D3 RIJCOSX def2-TZVPD def2/J TightSCF
|  2> *xyz 0 1
|  3> C          3.48828        1.60092       -1.52204
|  4> C          4.34297        1.31342       -2.75683
|  5> N          2.81029        0.42878       -1.01420
|  6> H          2.71455        2.33145       -1.76030
|  7> H          4.09099        2.06315       -0.73338
|  8> C          3.29098       -0.41802       -0.12908
|  9> N          2.51754       -1.43202        0.23936
| 10> C          4.53549       -0.28441        0.39580
| 11> H          5.04363        0.57189        0.22290
| 12> H          4.72335       -0.73327        1.28180
| 13> H          1.93479        0.10230       -1.40379
| 14> H          1.67464       -1.50562       -0.31610
| 15> H          2.92850       -2.21850        0.72549
| 16> H          3.73575        0.86277       -3.51385
| 17> H          5.13754        0.64699       -2.49333
| 18> H          4.75374        2.22930       -3.12740
| 19> *
| 20> %MaxCore 64000
| 21>
| 22> %pal nprocs 4
| 23> end
| 24>
| 25> %scf
| 26>   MaxIter 150
| 27> end
| 28>
| 29>
| 30>                          ****END OF INPUT****

CARTESIAN COORDINATES (ANGSTROEM)
---------------------------------
  C      3.488280    1.600920   -1.522040
  C      4.342970    1.313420   -2.756830
  N      2.810290    0.428780   -1.014200
  H      2.714550    2.331450   -1.760300
  H      4.090990    2.063150   -0.733380
  C      3.290980   -0.418020   -0.129080
  N      2.517540   -1.432020    0.239360
  C      4.535490   -0.284410    0.395800
  H      5.043630    0.571890    0.222900
  H      4.723350   -0.733270    1.281800
  H      1.934790    0.102300   -1.403790
  H      1.674640   -1.505620   -0.316100
  H      2.928500   -2.218500    0.725490
  H      3.735750    0.862770   -3.513850
  H      5.137540    0.646990   -2.493330
  H      4.753740    2.229300   -3.127400

 Total Charge           Charge          ....    0
 Multiplicity           Mult            ....    1
 Number of Electrons    NEL             ....   48
 Basis Dimension        Dim             ....  312

ORBITAL ENERGIES
----------------

  NO   OCC          E(Eh)            E(eV)
   0   2.0000     -14.429729      -392.6529
   1   2.0000     -14.424246      -392.5037
   2   2.0000     -10.324462      -280.9429
   3   2.0000     -10.311119      -280.5798
   4   2.0000     -10.256335      -279.0891
   5   2.0000     -10.182741      -277.0865
   6   2.0000      -1.097756       -29.8715
   7   2.0000      -1.005938       -27.3730
   8   2.0000      -0.872511       -23.7422
   9   2.0000      -0.820951       -22.3392
  10   2.0000      -0.755921       -20.5697
  11   2.0000      -0.669787       -18.2258
  12   2.0000      -0.646391       -17.5892
  13   2.0000      -0.632892       -17.2219
  14   2.0000      -0.567623       -15.4458
  15   2.0000      -0.541086       -14.7237
  16   2.0000      -0.528633       -14.3848
  17   2.0000      -0.492448       -13.4002
  18   2.0000      -0.476327       -12.9615
  19   2.0000      -0.466026       -12.6812
  20   2.0000      -0.457461       -12.4482
  21   2.0000      -0.442369       -12.0375
  22   2.0000      -0.346088        -9.4175
  23   2.0000      -0.252749        -6.8777
  24   0.0000       0.062617         1.7039
  25   0.0000       0.084701         2.3048
  26   0.0000       0.093164         2.5351
  27   0.0000       0.095882         2.6091
  28   0.0000       0.122663         3.3378

MULLIKEN ATOMIC CHARGES
-----------------------
   0 C :   -0.556613
   1 C :   -1.051523
   2 N :   -0.169625
   3 H :    0.287804
   4 H :    0.347360
   5 C :    0.913290
   6 N :   -0.444760
   7 C :   -1.531936
   8 H :    0.308080
   9 H :    0.381511
  10 H :    0.171844
  11 H :    0.163877
  12 H :    0.223838
  13 H :    0.299612
  14 H :    0.314221
  15 H :    0.343019
Sum of atomic charges:    0.0000000

LOEWDIN ATOMIC CHARGES
----------------------
   0 C :   -0.236920
   1 C :   -0.082896
   2 N :    0.006727
   3 H :    0.111602
   4 H :    0.112357
   5 C :   -0.564851
   6 N :    0.109211
   7 C :   -0.003446
   8 H :   -0.009681
   9 H :    0.004209
  10 H :    0.140032
  11 H :    0.100559
  12 H :    0.117698
  13 H :    0.064749
  14 H :    0.065900
  15 H :    0.064752

  Mayer bond orders larger than 0.100000
B(  0-C ,  1-C ) :   0.7079 B(  0-C ,  2-N ) :   0.8966 B(  0-C ,  3-H ) :   0.9218
B(  0-C ,  4-H ) :   0.8708 B(  0-C ,  7-C ) :   0.1382 B(  1-C , 13-H ) :   0.9699
B(  1-C , 14-H ) :   0.9917 B(  1-C , 15-H ) :   0.9247 B(  2-N ,  5-C ) :   1.0743
B(  2-N , 10-H ) :   1.0151 B(  5-C ,  6-N ) :   0.9964 B(  5-C ,  7-C ) :   1.0429
B(  5-C ,  9-H ) :  -0.1081 B(  6-N , 11-H ) :   1.0164 B(  6-N , 12-H ) :   0.9677
B(  7-C ,  8-H ) :   0.9835 B(  7-C ,  9-H ) :   0.9602

Dispersion correction           -0.003779941
FINAL SINGLE POINT ENERGY      -267.934389422384

DIPOLE MOMENT
-------------
                                X             Y             Z
Electronic contribution:     -2.82462      -2.28156       2.18178
Nuclear contribution   :      1.81275       2.23313      -2.77458
                        -----------------------------------------
Total Dipole Moment    :     -1.01186      -0.04843      -0.59280
                        -----------------------------------------
Magnitude (a.u.)       :      1.17372
Magnitude (Debye)      :      2.98336

Rotational constants in cm-1:     0.245202     0.073668     0.064348
Rotational constants in MHz :  7350.977980  2208.513334  1929.108541

                             ****ORCA TERMINATED NORMALLY****
TOTAL RUN TIME: 0 days 0 hours 1 minutes 25 seconds 407 msec
