                         Program Version 5.0.0 -  RELEASE  -
|  1> !TPSS D3BJ RIJCOSX def2-SVPD def2/J TightSCF
|  2> *xyz -1 1
|  3> C          1.69499        1.54179       -5.57045
|  4> S          1.78029       -0.03313       -6.42874
|  5> O          2.56929        0.21366       -7.60736
|  6> O          0.41688       -0.46297       -6.61859
|  7> O          2.50513       -0.93326       -5.48257
|  8> H          1.18489        2.25500       -6.18367
|  9> H          2.68564        1.89081       -5.36624
| 10> H          1.16361        1.41804       -4.65000
| 11> *
| 12> %MaxCore 64000
| 13>
| 14> %pal nprocs 8
| 15> end
| 16>
| 17> %scf
| 18>   MaxIter 150
| 19> end
| 20>
| 21>
| 22>                          ****END OF INPUT****

CARTESIAN COORDINATES (ANGSTROEM)
---------------------------------
  C      1.694990    1.541790   -5.570450
  S      1.780290   -0.033130   -6.428740
  O      2.569290    0.213660   -7.607360
  O      0.416880   -0.462970   -6.618590
  O      2.505130   -0.933260   -5.482570
  H      1.184890    2.255000   -6.183670
  H      2.685640    1.890810   -5.366240
  H      1.163610    1.418040   -4.650000

 Total Charge           Charge          ....   -1
 Multiplicity           Mult            ....    1
 Number of Electrons    NEL             ....   50
 Basis Dimension        Dim             ....  140

ORBITAL ENERGIES
----------------

  NO   OCC          E(Eh)            E(eV)
   0   2.0000     -88.365682     -2404.5524
   1   2.0000     -18.679469      -508.2942
   2   2.0000     -18.678342      -508.2635
   3   2.0000     -18.662095      -507.8214
   4   2.0000      -9.852190      -268.0917
   5   2.0000      -7.725596      -210.2242
   6   2.0000      -5.711624      -155.4212
   7   2.0000      -5.711382      -155.4146
   8   2.0000      -5.710780      -155.3982
   9   2.0000      -0.852373       -23.1942
  10   2.0000      -0.723828       -19.6964
  11   2.0000      -0.691351       -18.8126
  12   2.0000      -0.522712       -14.2237
  13   2.0000      -0.334887        -9.1127
  14   2.0000      -0.252269        -6.8646
  15   2.0000      -0.246274        -6.7014
  16   2.0000      -0.245230        -6.6730
  17   2.0000      -0.201899        -5.4939
  18   2.0000      -0.199050        -5.4164
  19   2.0000      -0.104619        -2.8468
  20   2.0000      -0.103880        -2.8267
  21   2.0000      -0.072627        -1.9763
  22   2.0000      -0.070592        -1.9209
  23   2.0000      -0.052840        -1.4379
  24   2.0000      -0.018277        -0.4973
  25   0.0000       0.142461         3.8766
  26   0.0000       0.175930         4.7873
  27   0.0000       0.176484         4.8024
  28   0.0000       0.179604         4.8873
  29   0.0000       0.204510         5.5650

MULLIKEN ATOMIC CHARGES
-----------------------
   0 C :    0.426956
   1 S :    1.009854
   2 O :   -0.736365
   3 O :   -0.738232
   4 O :   -0.791612
   5 H :   -0.061540
   6 H :   -0.052203
   7 H :   -0.056859
Sum of atomic charges:   -1.0000000

LOEWDIN ATOMIC CHARGES
----------------------
   0 C :    0.058042
   1 S :    0.815104
   2 O :   -0.571264
   3 O :   -0.570437
   4 O :   -0.598534
   5 H :   -0.046228
   6 H :   -0.043053
   7 H :   -0.043631

  Mayer bond orders larger than 0.100000
B(  0-C ,  1-S ) :   0.9203 B(  0-C ,  5-H ) :   0.9314 B(  0-C ,  6-H ) :   0.9329
B(  0-C ,  7-H ) :   0.9348 B(  1-S ,  2-O ) :   1.3663 B(  1-S ,  3-O ) :   1.3621
B(  1-S ,  4-O ) :   1.3245 B(  1-S ,  5-H ) :   0.1060 B(  1-S ,  6-H ) :   0.1154
B(  1-S ,  7-H ) :   0.1152

Dispersion correction           -0.007888285
FINAL SINGLE POINT ENERGY      -663.550633693398

DIPOLE MOMENT
-------------
                                X             Y             Z
Electronic contribution:      0.12705      -3.74994      -2.20424
Nuclear contribution   :     -0.31747       5.08000       2.69095
                        -----------------------------------------
Total Dipole Moment    :     -0.19043       1.33006       0.48671
                        -----------------------------------------
Magnitude (a.u.)       :      1.42906
Magnitude (Debye)      :      3.63237

Rotational constants in cm-1:     0.172246     0.157831     0.154490
Rotational constants in MHz :  5163.797750  4731.657963  4631.481993

                             ****ORCA TERMINATED NORMALLY****
TOTAL RUN TIME: 0 days 0 hours 0 minutes 4 seconds 383 msec
