                         Program Version 5.0.0 -  RELEASE  -
|  1> !TPSS D3BJ RIJCOSX def2-SVPD def2/J TightSCF
|  2> *xyz 1 1
|  3> C          1.96337       -1.74915       -1.89689
|  4> N          2.73849       -2.01517       -3.09711
|  5> C          4.04974       -2.15472       -3.15204
|  6> N          4.65821       -1.98629       -4.31866
|  7> N          4.76423       -2.45444       -2.05049
|  8> H          4.28736       -2.77626       -1.21750
|  9> H          5.75082       -2.65835       -2.12599
| 10> H          2.34518       -1.69027       -3.97145
| 11> H          4.10900       -1.59268       -5.07176
| 12> H          5.64910       -2.15646       -4.42724
| 13> H          0.92556       -1.68522       -2.14942
| 14> H          2.28268       -0.82430       -1.46378
| 15> H          2.11118       -2.54207       -1.19381
| 16> *
| 17> %MaxCore 64000
| 18>
| 19> %pal nprocs 8
| 20> end
| 21>
| 22> %scf
| 23>   MaxIter 150
| 24> end
| 25>
| 26>
| 27>                          ****END OF INPUT****

CARTESIAN COORDINATES (ANGSTROEM)
---------------------------------
  C      1.963370   -1.749150   -1.896890
  N      2.738490   -2.015170   -3.097110
  C      4.049740   -2.154720   -3.152040
  N      4.658210   -1.986290   -4.318660
  N      4.764230   -2.454440   -2.050490
  H      4.287360   -2.776260   -1.217500
  H      5.750820   -2.658350   -2.125990
  H      2.345180   -1.690270   -3.971450
  H      4.109000   -1.592680   -5.071760
  H      5.649100   -2.156460   -4.427240
  H      0.925560   -1.685220   -2.149420
  H      2.282680   -0.824300   -1.463780
  H      2.111180   -2.542070   -1.193810

 Total Charge           Charge          ....    1
 Multiplicity           Mult            ....    1
 Number of Electrons    NEL             ....   40
 Basis Dimension        Dim             ....  164

ORBITAL ENERGIES
----------------

  NO   OCC          E(Eh)            E(eV)
   0   2.0000     -14.346286      -390.3823
   1   2.0000     -14.346095      -390.3771
   2   2.0000     -14.345140      -390.3511
   3   2.0000     -10.328556      -281.0543
   4   2.0000     -10.209255      -277.8080
   5   2.0000      -1.145711       -31.1764
   6   2.0000      -1.040124       -28.3032
   7   2.0000      -1.028596       -27.9895
   8   2.0000      -0.852152       -23.1882
   9   2.0000      -0.779547       -21.2126
  10   2.0000      -0.740368       -20.1464
  11   2.0000      -0.714027       -19.4297
  12   2.0000      -0.654964       -17.8225
  13   2.0000      -0.649719       -17.6797
  14   2.0000      -0.611702       -16.6453
  15   2.0000      -0.607712       -16.5367
  16   2.0000      -0.553591       -15.0640
  17   2.0000      -0.542774       -14.7696
  18   2.0000      -0.443459       -12.0671
  19   2.0000      -0.423816       -11.5326
  20   0.0000      -0.200828        -5.4648
  21   0.0000      -0.174001        -4.7348
  22   0.0000      -0.136229        -3.7070
  23   0.0000      -0.130186        -3.5425
  24   0.0000      -0.105542        -2.8719

MULLIKEN ATOMIC CHARGES
-----------------------
   0 C :    1.038493
   1 N :   -0.546762
   2 C :    1.400343
   3 N :   -0.129854
   4 N :   -0.059110
   5 H :   -0.041781
   6 H :   -0.097138
   7 H :   -0.170481
   8 H :    0.015377
   9 H :   -0.072067
  10 H :   -0.238440
  11 H :   -0.030184
  12 H :   -0.068395
Sum of atomic charges:    1.0000000

LOEWDIN ATOMIC CHARGES
----------------------
   0 C :    0.268313
   1 N :    0.015985
   2 C :   -0.041162
   3 N :    0.266566
   4 N :    0.283806
   5 H :    0.023701
   6 H :    0.036344
   7 H :    0.051481
   8 H :    0.038092
   9 H :    0.043357
  10 H :    0.011589
  11 H :    0.007033
  12 H :   -0.005105

  Mayer bond orders larger than 0.100000
B(  0-C ,  1-N ) :   0.9460 B(  0-C , 10-H ) :   0.8302 B(  0-C , 11-H ) :   0.8430
B(  0-C , 12-H ) :   0.8409 B(  1-N ,  2-C ) :   1.0085 B(  1-N ,  3-N ) :   0.2861
B(  1-N ,  4-N ) :   0.2278 B(  1-N ,  7-H ) :   1.2420 B(  1-N , 10-H ) :   0.1754
B(  1-N , 11-H ) :   0.1189 B(  1-N , 12-H ) :   0.1539 B(  2-C ,  3-N ) :   0.7828
B(  2-C ,  4-N ) :   0.9260 B(  2-C ,  5-H ) :  -0.1451 B(  2-C ,  6-H ) :  -0.1378
B(  2-C ,  7-H ) :  -0.1919 B(  2-C ,  8-H ) :  -0.1295 B(  2-C ,  9-H ) :  -0.1624
B(  3-N ,  4-N ) :   0.1810 B(  3-N ,  8-H ) :   1.1339 B(  3-N ,  9-H ) :   1.2708
B(  4-N ,  5-H ) :   1.1179 B(  4-N ,  6-H ) :   1.2320 B(  5-H ,  6-H ) :  -0.1839
B(  8-H ,  9-H ) :  -0.1696

Dispersion correction           -0.011148771
FINAL SINGLE POINT ENERGY      -244.964421371305

DIPOLE MOMENT
-------------
                                X             Y             Z
Electronic contribution:      2.04747      -0.55885      -1.80060
Nuclear contribution   :     -1.59972       0.59064       1.48941
                        -----------------------------------------
Total Dipole Moment    :      0.44774       0.03179      -0.31118
                        -----------------------------------------
Magnitude (a.u.)       :      0.54619
Magnitude (Debye)      :      1.38830

Rotational constants in cm-1:     0.309236     0.134358     0.096189
Rotational constants in MHz :  9270.657746  4027.948155  2883.671905

                             ****ORCA TERMINATED NORMALLY****
TOTAL RUN TIME: 0 days 0 hours 0 minutes 6 seconds 184 msec
