                         Program Version 5.0.0 -  RELEASE  -
|  1> !TPSS D3BJ RIJCOSX def2-SVPD def2/J TightSCF
|  2> *xyz 0 1
|  3> C          1.69499        1.54179       -5.57045
|  4> S          1.78029       -0.03313       -6.42874
|  5> F          2.56929        0.21366       -7.60736
|  6> O          0.41688       -0.46297       -6.61859
|  7> O          2.50513       -0.93326       -5.48257
|  8> H          1.18489        2.25500       -6.18367
|  9> H          2.68564        1.89081       -5.36624
| 10> H          1.16361        1.41804       -4.65000
| 11> *
| 12> %MaxCore 64000
| 13>
| 14> %pal nprocs 8
| 15> end
| 16>
| 17> %scf
| 18>   MaxIter 150
| 19> end
| 20>
| 21>
| 22>                          ****END OF INPUT****

CARTESIAN COORDINATES (ANGSTROEM)
---------------------------------
  C      1.694990    1.541790   -5.570450
  S      1.780290   -0.033130   -6.428740
  F      2.569290    0.213660   -7.607360
  O      0.416880   -0.462970   -6.618590
  O      2.505130   -0.933260   -5.482570
  H      1.184890    2.255000   -6.183670
  H      2.685640    1.890810   -5.366240
  H      1.163610    1.418040   -4.650000

 Total Charge           Charge          ....    0
 Multiplicity           Mult            ....    1
 Number of Electrons    NEL             ....   50
 Basis Dimension        Dim             ....  140

ORBITAL ENERGIES
----------------

  NO   OCC          E(Eh)            E(eV)
   0   2.0000     -88.628817     -2411.7127
   1   2.0000     -24.546512      -667.9446
   2   2.0000     -18.917945      -514.7834
   3   2.0000     -18.900062      -514.2968
   4   2.0000     -10.062187      -273.8060
   5   2.0000      -7.989660      -217.4097
   6   2.0000      -5.980029      -162.7249
   7   2.0000      -5.973232      -162.5399
   8   2.0000      -5.971778      -162.5003
   9   2.0000      -1.299302       -35.3558
  10   2.0000      -1.036199       -28.1964
  11   2.0000      -0.932412       -25.3722
  12   2.0000      -0.744956       -20.2713
  13   2.0000      -0.663546       -18.0560
  14   2.0000      -0.553678       -15.0663
  15   2.0000      -0.534189       -14.5360
  16   2.0000      -0.508167       -13.8279
  17   2.0000      -0.439110       -11.9488
  18   2.0000      -0.435033       -11.8378
  19   2.0000      -0.425684       -11.5835
  20   2.0000      -0.395755       -10.7690
  21   2.0000      -0.345140        -9.3917
  22   2.0000      -0.301921        -8.2157
  23   2.0000      -0.283638        -7.7182
  24   2.0000      -0.264011        -7.1841
  25   0.0000      -0.026949        -0.7333
  26   0.0000       0.011265         0.3065
  27   0.0000       0.015919         0.4332
  28   0.0000       0.034018         0.9257
  29   0.0000       0.035609         0.9690

MULLIKEN ATOMIC CHARGES
-----------------------
   0 C :    0.416528
   1 S :    1.189036
   2 F :   -0.354481
   3 O :   -0.602782
   4 O :   -0.651298
   5 H :    0.000613
   6 H :    0.006189
   7 H :   -0.003805
Sum of atomic charges:   -0.0000000

LOEWDIN ATOMIC CHARGES
----------------------
   0 C :    0.128054
   1 S :    1.086738
   2 F :   -0.251209
   3 O :   -0.449869
   4 O :   -0.476025
   5 H :   -0.018662
   6 H :   -0.016340
   7 H :   -0.002688

  Mayer bond orders larger than 0.100000
B(  0-C ,  1-S ) :   0.9788 B(  0-C ,  5-H ) :   0.9183 B(  0-C ,  6-H ) :   0.9207
B(  0-C ,  7-H ) :   0.9236 B(  1-S ,  2-F ) :   0.7201 B(  1-S ,  3-O ) :   1.5584
B(  1-S ,  4-O ) :   1.5208 B(  1-S ,  7-H ) :   0.1110

Dispersion correction           -0.007395651
FINAL SINGLE POINT ENERGY      -688.038980149653

DIPOLE MOMENT
-------------
                                X             Y             Z
Electronic contribution:      1.38702      -3.28686      -4.13639
Nuclear contribution   :     -1.09446       4.91008       3.93848
                        -----------------------------------------
Total Dipole Moment    :      0.29256       1.62322      -0.19791
                        -----------------------------------------
Magnitude (a.u.)       :      1.66120
Magnitude (Debye)      :      4.22244

Rotational constants in cm-1:     0.163326     0.155515     0.146672
Rotational constants in MHz :  4896.387829  4662.220576  4397.127261

                             ****ORCA TERMINATED NORMALLY****
TOTAL RUN TIME: 0 days 0 hours 0 minutes 4 seconds 832 msec
