                         Program Version 5.0.0 -  RELEASE  -
|  1> !TPSS D3BJ RIJCOSX def2-SVPD def2/J TightSCF
|  2> *xyz 0 1
|  3> C          1.96337       -1.74915       -1.89689
|  4> C          2.73849       -2.01517       -3.09711
|  5> C          4.04974       -2.15472       -3.15204
|  6> N          4.65821       -1.98629       -4.31866
|  7> N          4.76423       -2.45444       -2.05049
|  8> H          4.28736       -2.77626       -1.21750
|  9> H          5.75082       -2.65835       -2.12599
| 10> H          2.34518       -1.69027       -3.97145
| 11> H          4.10900       -1.59268       -5.07176
| 12> H          5.64910       -2.15646       -4.42724
| 13> H          0.92556       -1.68522       -2.14942
| 14> H          2.28268       -0.82430       -1.46378
| 15> H          2.11118       -2.54207       -1.19381
| 16> *
| 17> %MaxCore 64000
| 18>
| 19> %pal nprocs 8
| 20> end
| 21>
| 22> %scf
| 23>   MaxIter 150
| 24> end
| 25>
| 26>
| 27>                          ****END OF INPUT****

CARTESIAN COORDINATES (ANGSTROEM)
---------------------------------
  C      1.963370   -1.749150   -1.896890
  C      2.738490   -2.015170   -3.097110
  C      4.049740   -2.154720   -3.152040
  N      4.658210   -1.986290   -4.318660
  N      4.764230   -2.454440   -2.050490
  H      4.287360   -2.776260   -1.217500
  H      5.750820   -2.658350   -2.125990
  H      2.345180   -1.690270   -3.971450
  H      4.109000   -1.592680   -5.071760
  H      5.649100   -2.156460   -4.427240
  H      0.925560   -1.685220   -2.149420
  H      2.282680   -0.824300   -1.463780
  H      2.111180   -2.542070   -1.193810

 Total Charge           Charge          ....    0
 Multiplicity           Mult            ....    1
 Number of Electrons    NEL             ....   40
 Basis Dimension        Dim             ....  164

ORBITAL ENERGIES
----------------

  NO   OCC          E(Eh)            E(eV)
   0   2.0000     -14.120303      -384.2330
   1   2.0000     -14.116497      -384.1294
   2   2.0000     -10.033190      -273.0170
   3   2.0000      -9.965899      -271.1859
   4   2.0000      -9.918372      -269.8926
   5   2.0000      -0.884583       -24.0707
   6   2.0000      -0.801700       -21.8154
   7   2.0000      -0.688365       -18.7314
   8   2.0000      -0.599064       -16.3014
   9   2.0000      -0.534998       -14.5580
  10   2.0000      -0.495315       -13.4782
  11   2.0000      -0.463559       -12.6141
  12   2.0000      -0.430256       -11.7079
  13   2.0000      -0.382203       -10.4003
  14   2.0000      -0.367405        -9.9976
  15   2.0000      -0.336359        -9.1528
  16   2.0000      -0.316294        -8.6068
  17   2.0000      -0.299208        -8.1419
  18   2.0000      -0.224405        -6.1064
  19   2.0000      -0.127238        -3.4623
  20   0.0000       0.001938         0.0527
  21   0.0000       0.030577         0.8320
  22   0.0000       0.043345         1.1795
  23   0.0000       0.052310         1.4234
  24   0.0000       0.069583         1.8934

MULLIKEN ATOMIC CHARGES
-----------------------
   0 C :    0.825216
   1 C :   -0.676889
   2 C :    0.912064
   3 N :   -0.034597
   4 N :   -0.076345
   5 H :   -0.048998
   6 H :   -0.251549
   7 H :   -0.256714
   8 H :    0.000370
   9 H :   -0.185731
  10 H :   -0.064119
  11 H :   -0.095150
  12 H :   -0.047557
Sum of atomic charges:   -0.0000000

LOEWDIN ATOMIC CHARGES
----------------------
   0 C :    0.095831
   1 C :   -0.072052
   2 C :   -0.227553
   3 N :    0.177063
   4 N :    0.201873
   5 H :   -0.008288
   6 H :   -0.015310
   7 H :   -0.060144
   8 H :    0.004053
   9 H :   -0.009999
  10 H :   -0.023211
  11 H :   -0.024635
  12 H :   -0.037627

  Mayer bond orders larger than 0.100000
B(  0-C ,  1-C ) :   1.1622 B(  0-C ,  7-H ) :   0.1834 B(  0-C , 10-H ) :   0.7622
B(  0-C , 11-H ) :   0.7779 B(  0-C , 12-H ) :   0.7239 B(  1-C ,  2-C ) :   1.6028
B(  1-C ,  3-N ) :   0.3245 B(  1-C ,  4-N ) :   0.2706 B(  1-C ,  7-H ) :   1.0012
B(  1-C , 10-H ) :   0.2615 B(  1-C , 11-H ) :   0.1486 B(  1-C , 12-H ) :   0.2797
B(  2-C ,  3-N ) :   0.8746 B(  2-C ,  4-N ) :   0.8686 B(  2-C ,  6-H ) :  -0.1913
B(  2-C ,  7-H ) :   0.1931 B(  2-C ,  9-H ) :  -0.1143 B(  3-N ,  4-N ) :   0.1161
B(  3-N ,  8-H ) :   1.1324 B(  3-N ,  9-H ) :   1.2799 B(  4-N ,  5-H ) :   1.0842
B(  4-N ,  6-H ) :   1.3541 B(  5-H ,  6-H ) :  -0.1789 B(  8-H ,  9-H ) :  -0.1617
B( 10-H , 12-H ) :   0.1040

Dispersion correction           -0.011665728
FINAL SINGLE POINT ENERGY      -228.490178910944

DIPOLE MOMENT
-------------
                                X             Y             Z
Electronic contribution:      2.73787      -0.66621      -1.59681
Nuclear contribution   :     -1.78367       0.60166       1.44982
                        -----------------------------------------
Total Dipole Moment    :      0.95420      -0.06455      -0.14700
                        -----------------------------------------
Magnitude (a.u.)       :      0.96761
Magnitude (Debye)      :      2.45947

Rotational constants in cm-1:     0.313991     0.135452     0.097139
Rotational constants in MHz :  9413.212964  4060.745953  2912.144668

                             ****ORCA TERMINATED NORMALLY****
TOTAL RUN TIME: 0 days 0 hours 0 minutes 6 seconds 300 msec
