                         Program Version 5.0.0 -  RELEASE  -
|  1> !TPSS D3BJ RIJCOSX def2-SVPD def2/J TightSCF
|  2> *xyz 0 1
|  3> C          1.69499        1.54179       -5.57045
|  4> S          1.78029       -0.03313       -6.42874
|  5> O          2.56929        0.21366       -7.60736
|  6> F          0.41688       -0.46297       -6.61859
|  7> O          2.50513       -0.93326       -5.48257
|  8> H          1.18489        2.25500       -6.18367
|  9> H          2.68564        1.89081       -5.36624
| 10> H          1.16361        1.41804       -4.65000
| 11> *
| 12> %MaxCore 64000
| 13>
| 14> %pal nprocs 8
| 15> end
| 16>
| 17> %scf
| 18>   MaxIter 150
| 19> end
| 20>
| 21>
| 22>                          ****END OF INPUT****

CARTESIAN COORDINATES (ANGSTROEM)
---------------------------------
  C      1.694990    1.541790   -5.570450
  S      1.780290   -0.033130   -6.428740
  O      2.569290    0.213660   -7.607360
  F      0.416880   -0.462970   -6.618590
  O      2.505130   -0.933260   -5.482570
  H      1.184890    2.255000   -6.183670
  H      2.685640    1.890810   -5.366240
  H      1.163610    1.418040   -4.650000

 Total Charge           Charge          ....    0
 Multiplicity           Mult            ....    1
 Number of Electrons    NEL             ....   50
 Basis Dimension        Dim             ....  140

ORBITAL ENERGIES
----------------

  NO   OCC          E(Eh)            E(eV)
   0   2.0000     -88.628544     -2411.7053
   1   2.0000     -24.546814      -667.9528
   2   2.0000     -18.916856      -514.7538
   3   2.0000     -18.900090      -514.2976
   4   2.0000     -10.062247      -273.8077
   5   2.0000      -7.989434      -217.4036
   6   2.0000      -5.979779      -162.7181
   7   2.0000      -5.973007      -162.5338
   8   2.0000      -5.971563      -162.4945
   9   2.0000      -1.298169       -35.3250
  10   2.0000      -1.037151       -28.2223
  11   2.0000      -0.932104       -25.3638
  12   2.0000      -0.744579       -20.2610
  13   2.0000      -0.663652       -18.0589
  14   2.0000      -0.553301       -15.0561
  15   2.0000      -0.533633       -14.5209
  16   2.0000      -0.507764       -13.8169
  17   2.0000      -0.439119       -11.9490
  18   2.0000      -0.434932       -11.8351
  19   2.0000      -0.426195       -11.5974
  20   2.0000      -0.395613       -10.7652
  21   2.0000      -0.345417        -9.3993
  22   2.0000      -0.301233        -8.1970
  23   2.0000      -0.283604        -7.7172
  24   2.0000      -0.263480        -7.1696
  25   0.0000      -0.028104        -0.7648
  26   0.0000       0.010195         0.2774
  27   0.0000       0.015811         0.4302
  28   0.0000       0.033595         0.9142
  29   0.0000       0.035481         0.9655

MULLIKEN ATOMIC CHARGES
-----------------------
   0 C :    0.417361
   1 S :    1.187927
   2 O :   -0.601156
   3 F :   -0.357096
   4 O :   -0.650307
   5 H :    0.000628
   6 H :    0.000432
   7 H :    0.002210
Sum of atomic charges:    0.0000000

LOEWDIN ATOMIC CHARGES
----------------------
   0 C :    0.128225
   1 S :    1.086962
   2 O :   -0.450912
   3 F :   -0.250794
   4 O :   -0.475754
   5 H :   -0.018660
   6 H :   -0.002307
   7 H :   -0.016760

  Mayer bond orders larger than 0.100000
B(  0-C ,  1-S ) :   0.9789 B(  0-C ,  5-H ) :   0.9180 B(  0-C ,  6-H ) :   0.9219
B(  0-C ,  7-H ) :   0.9225 B(  1-S ,  2-O ) :   1.5618 B(  1-S ,  3-F ) :   0.7163
B(  1-S ,  4-O ) :   1.5202 B(  1-S ,  6-H ) :   0.1108

Dispersion correction           -0.007396797
FINAL SINGLE POINT ENERGY      -688.038293149038

DIPOLE MOMENT
-------------
                                X             Y             Z
Electronic contribution:     -2.12248      -4.38977      -2.52070
Nuclear contribution   :      1.05593       5.58608       2.95063
                        -----------------------------------------
Total Dipole Moment    :     -1.06655       1.19631       0.42993
                        -----------------------------------------
Magnitude (a.u.)       :      1.65938
Magnitude (Debye)      :      4.21780

Rotational constants in cm-1:     0.163930     0.155251     0.146268
Rotational constants in MHz :  4914.487830  4654.318941  4385.000376

                             ****ORCA TERMINATED NORMALLY****
TOTAL RUN TIME: 0 days 0 hours 0 minutes 4 seconds 979 msec
