                         Program Version 5.0.0 -  RELEASE  -
|  1> !TPSS D3BJ RIJCOSX def2-SVPD def2/J TightSCF
|  2> *xyz 0 1
|  3> C          1.96337       -1.74915       -1.89689
|  4> N          2.73849       -2.01517       -3.09711
|  5> C          4.04974       -2.15472       -3.15204
|  6> C          4.65821       -1.98629       -4.31866
|  7> N          4.76423       -2.45444       -2.05049
|  8> H          4.28736       -2.77626       -1.21750
|  9> H          5.75082       -2.65835       -2.12599
| 10> H          2.34518       -1.69027       -3.97145
| 11> H          4.10900       -1.59268       -5.07176
| 12> H          5.64910       -2.15646       -4.42724
| 13> H          0.92556       -1.68522       -2.14942
| 14> H          2.28268       -0.82430       -1.46378
| 15> H          2.11118       -2.54207       -1.19381
| 16> *
| 17> %MaxCore 64000
| 18>
| 19> %pal nprocs 8
| 20> end
| 21>
| 22> %scf
| 23>   MaxIter 150
| 24> end
| 25>
| 26>
| 27>                          ****END OF INPUT****

CARTESIAN COORDINATES (ANGSTROEM)
---------------------------------
  C      1.963370   -1.749150   -1.896890
  N      2.738490   -2.015170   -3.097110
  C      4.049740   -2.154720   -3.152040
  C      4.658210   -1.986290   -4.318660
  N      4.764230   -2.454440   -2.050490
  H      4.287360   -2.776260   -1.217500
  H      5.750820   -2.658350   -2.125990
  H      2.345180   -1.690270   -3.971450
  H      4.109000   -1.592680   -5.071760
  H      5.649100   -2.156460   -4.427240
  H      0.925560   -1.685220   -2.149420
  H      2.282680   -0.824300   -1.463780
  H      2.111180   -2.542070   -1.193810

 Total Charge           Charge          ....    0
 Multiplicity           Mult            ....    1
 Number of Electrons    NEL             ....   40
 Basis Dimension        Dim             ....  164

ORBITAL ENERGIES
----------------

  NO   OCC          E(Eh)            E(eV)
   0   2.0000     -14.118562      -384.1856
   1   2.0000     -14.116568      -384.1313
   2   2.0000     -10.036115      -273.0966
   3   2.0000     -10.033981      -273.0385
   4   2.0000      -9.912704      -269.7384
   5   2.0000      -0.892871       -24.2963
   6   2.0000      -0.812627       -22.1127
   7   2.0000      -0.683077       -18.5875
   8   2.0000      -0.608633       -16.5617
   9   2.0000      -0.549290       -14.9469
  10   2.0000      -0.487755       -13.2725
  11   2.0000      -0.448831       -12.2133
  12   2.0000      -0.434098       -11.8124
  13   2.0000      -0.412408       -11.2222
  14   2.0000      -0.366887        -9.9835
  15   2.0000      -0.348134        -9.4732
  16   2.0000      -0.346170        -9.4198
  17   2.0000      -0.320242        -8.7142
  18   2.0000      -0.216316        -5.8863
  19   2.0000      -0.131356        -3.5744
  20   0.0000       0.001271         0.0346
  21   0.0000       0.035579         0.9681
  22   0.0000       0.036427         0.9912
  23   0.0000       0.050237         1.3670
  24   0.0000       0.071750         1.9524

MULLIKEN ATOMIC CHARGES
-----------------------
   0 C :    1.026561
   1 N :   -0.505581
   2 C :    0.722709
   3 C :    0.210628
   4 N :    0.043270
   5 H :   -0.147311
   6 H :   -0.121658
   7 H :   -0.192876
   8 H :   -0.207719
   9 H :   -0.359344
  10 H :   -0.284458
  11 H :   -0.061855
  12 H :   -0.122366
Sum of atomic charges:    0.0000000

LOEWDIN ATOMIC CHARGES
----------------------
   0 C :    0.211261
   1 N :   -0.047492
   2 C :   -0.242311
   3 C :    0.145028
   4 N :    0.198913
   5 H :   -0.023744
   6 H :    0.003147
   7 H :    0.025153
   8 H :   -0.103121
   9 H :   -0.101743
  10 H :   -0.015380
  11 H :   -0.021014
  12 H :   -0.028696

  Mayer bond orders larger than 0.100000
B(  0-C ,  1-N ) :   0.9403 B(  0-C , 10-H ) :   0.8262 B(  0-C , 11-H ) :   0.8435
B(  0-C , 12-H ) :   0.8382 B(  1-N ,  2-C ) :   1.0563 B(  1-N ,  3-C ) :   0.2467
B(  1-N ,  4-N ) :   0.1612 B(  1-N ,  7-H ) :   1.2008 B(  1-N , 10-H ) :   0.1700
B(  1-N , 11-H ) :   0.1341 B(  1-N , 12-H ) :   0.1717 B(  2-C ,  3-C ) :   1.3352
B(  2-C ,  4-N ) :   0.9405 B(  2-C ,  7-H ) :  -0.1350 B(  2-C ,  9-H ) :   0.1187
B(  3-C ,  4-N ) :   0.2161 B(  3-C ,  8-H ) :   0.8964 B(  3-C ,  9-H ) :   0.8867
B(  4-N ,  5-H ) :   1.1204 B(  4-N ,  6-H ) :   1.2055 B(  5-H ,  6-H ) :  -0.1808

Dispersion correction           -0.011593344
FINAL SINGLE POINT ENERGY      -228.485162849995

DIPOLE MOMENT
-------------
                                X             Y             Z
Electronic contribution:      0.87868      -0.65012      -0.34719
Nuclear contribution   :     -1.39484       0.60751       1.20240
                        -----------------------------------------
Total Dipole Moment    :     -0.51616      -0.04261       0.85521
                        -----------------------------------------
Magnitude (a.u.)       :      0.99981
Magnitude (Debye)      :      2.54131

Rotational constants in cm-1:     0.316419     0.139940     0.099730
Rotational constants in MHz :  9485.991536  4195.289338  2989.818216

                             ****ORCA TERMINATED NORMALLY****
TOTAL RUN TIME: 0 days 0 hours 0 minutes 6 seconds 114 msec
