                         Program Version 5.0.0 -  RELEASE  -
|  1> !TPSS D3BJ RIJCOSX def2-SVPD def2/J TightSCF
|  2> *xyz 0 1
|  3> C          1.69499        1.54179       -5.57045
|  4> S          1.78029       -0.03313       -6.42874
|  5> O          2.56929        0.21366       -7.60736
|  6> O          0.41688       -0.46297       -6.61859
|  7> F          2.50513       -0.93326       -5.48257
|  8> H          1.18489        2.25500       -6.18367
|  9> H          2.68564        1.89081       -5.36624
| 10> H          1.16361        1.41804       -4.65000
| 11> *
| 12> %MaxCore 64000
| 13>
| 14> %pal nprocs 8
| 15> end
| 16>
| 17> %scf
| 18>   MaxIter 150
| 19> end
| 20>
| 21>
| 22>                          ****END OF INPUT****

CARTESIAN COORDINATES (ANGSTROEM)
---------------------------------
  C      1.694990    1.541790   -5.570450
  S      1.780290   -0.033130   -6.428740
  O      2.569290    0.213660   -7.607360
  O      0.416880   -0.462970   -6.618590
  F      2.505130   -0.933260   -5.482570
  H      1.184890    2.255000   -6.183670
  H      2.685640    1.890810   -5.366240
  H      1.163610    1.418040   -4.650000

 Total Charge           Charge          ....    0
 Multiplicity           Mult            ....    1
 Number of Electrons    NEL             ....   50
 Basis Dimension        Dim             ....  140

ORBITAL ENERGIES
----------------

  NO   OCC          E(Eh)            E(eV)
   0   2.0000     -88.625879     -2411.6328
   1   2.0000     -24.520932      -667.2485
   2   2.0000     -18.917381      -514.7681
   3   2.0000     -18.916260      -514.7376
   4   2.0000     -10.060879      -273.7704
   5   2.0000      -7.986740      -217.3302
   6   2.0000      -5.976693      -162.6341
   7   2.0000      -5.970657      -162.4698
   8   2.0000      -5.969152      -162.4289
   9   2.0000      -1.255457       -34.1627
  10   2.0000      -1.047762       -28.5110
  11   2.0000      -0.959017       -26.0962
  12   2.0000      -0.742107       -20.1938
  13   2.0000      -0.642428       -17.4813
  14   2.0000      -0.537265       -14.6197
  15   2.0000      -0.504686       -13.7332
  16   2.0000      -0.500773       -13.6267
  17   2.0000      -0.437485       -11.9046
  18   2.0000      -0.435807       -11.8589
  19   2.0000      -0.422881       -11.5072
  20   2.0000      -0.402278       -10.9465
  21   2.0000      -0.351932        -9.5766
  22   2.0000      -0.304590        -8.2883
  23   2.0000      -0.302782        -8.2391
  24   2.0000      -0.283480        -7.7139
  25   0.0000      -0.023797        -0.6476
  26   0.0000       0.008669         0.2359
  27   0.0000       0.018357         0.4995
  28   0.0000       0.036068         0.9815
  29   0.0000       0.037223         1.0129

MULLIKEN ATOMIC CHARGES
-----------------------
   0 C :    0.414239
   1 S :    1.203801
   2 O :   -0.617936
   3 O :   -0.618695
   4 F :   -0.381708
   5 H :   -0.006013
   6 H :    0.005470
   7 H :    0.000842
Sum of atomic charges:   -0.0000000

LOEWDIN ATOMIC CHARGES
----------------------
   0 C :    0.128670
   1 S :    1.084274
   2 O :   -0.451852
   3 O :   -0.450624
   4 F :   -0.272714
   5 H :   -0.004395
   6 H :   -0.016387
   7 H :   -0.016972

  Mayer bond orders larger than 0.100000
B(  0-C ,  1-S ) :   0.9776 B(  0-C ,  5-H ) :   0.9188 B(  0-C ,  6-H ) :   0.9220
B(  0-C ,  7-H ) :   0.9239 B(  1-S ,  2-O ) :   1.5578 B(  1-S ,  3-O ) :   1.5541
B(  1-S ,  4-F ) :   0.6594 B(  1-S ,  5-H ) :   0.1040 B(  2-O ,  3-O ) :   0.1048

Dispersion correction           -0.007396576
FINAL SINGLE POINT ENERGY      -688.061090030432

DIPOLE MOMENT
-------------
                                X             Y             Z
Electronic contribution:      1.29837      -5.17478      -0.64150
Nuclear contribution   :     -1.03036       6.05593       1.81567
                        -----------------------------------------
Total Dipole Moment    :      0.26801       0.88115       1.17417
                        -----------------------------------------
Magnitude (a.u.)       :      1.49229
Magnitude (Debye)      :      3.79310

Rotational constants in cm-1:     0.164224     0.152173     0.148737
Rotational constants in MHz :  4923.310232  4562.031098  4459.033187

                             ****ORCA TERMINATED NORMALLY****
TOTAL RUN TIME: 0 days 0 hours 0 minutes 4 seconds 664 msec
