                         Program Version 5.0.0 -  RELEASE  -
|  1> !TPSS D3BJ RIJCOSX def2-SVPD def2/J TightSCF
|  2> *xyz 0 1
|  3> C          1.96337       -1.74915       -1.89689
|  4> N          2.73849       -2.01517       -3.09711
|  5> C          4.04974       -2.15472       -3.15204
|  6> N          4.65821       -1.98629       -4.31866
|  7> C          4.76423       -2.45444       -2.05049
|  8> H          4.28736       -2.77626       -1.21750
|  9> H          5.75082       -2.65835       -2.12599
| 10> H          2.34518       -1.69027       -3.97145
| 11> H          4.10900       -1.59268       -5.07176
| 12> H          5.64910       -2.15646       -4.42724
| 13> H          0.92556       -1.68522       -2.14942
| 14> H          2.28268       -0.82430       -1.46378
| 15> H          2.11118       -2.54207       -1.19381
| 16> *
| 17> %MaxCore 64000
| 18>
| 19> %pal nprocs 8
| 20> end
| 21>
| 22> %scf
| 23>   MaxIter 150
| 24> end
| 25>
| 26>
| 27>                          ****END OF INPUT****

CARTESIAN COORDINATES (ANGSTROEM)
---------------------------------
  C      1.963370   -1.749150   -1.896890
  N      2.738490   -2.015170   -3.097110
  C      4.049740   -2.154720   -3.152040
  N      4.658210   -1.986290   -4.318660
  C      4.764230   -2.454440   -2.050490
  H      4.287360   -2.776260   -1.217500
  H      5.750820   -2.658350   -2.125990
  H      2.345180   -1.690270   -3.971450
  H      4.109000   -1.592680   -5.071760
  H      5.649100   -2.156460   -4.427240
  H      0.925560   -1.685220   -2.149420
  H      2.282680   -0.824300   -1.463780
  H      2.111180   -2.542070   -1.193810

 Total Charge           Charge          ....    0
 Multiplicity           Mult            ....    1
 Number of Electrons    NEL             ....   40
 Basis Dimension        Dim             ....  164

ORBITAL ENERGIES
----------------

  NO   OCC          E(Eh)            E(eV)
   0   2.0000     -14.121285      -384.2597
   1   2.0000     -14.119974      -384.2240
   2   2.0000     -10.037540      -273.1353
   3   2.0000     -10.027928      -272.8738
   4   2.0000      -9.914396      -269.7844
   5   2.0000      -0.898691       -24.4546
   6   2.0000      -0.815845       -22.2003
   7   2.0000      -0.659856       -17.9556
   8   2.0000      -0.636544       -17.3212
   9   2.0000      -0.519624       -14.1397
  10   2.0000      -0.499360       -13.5883
  11   2.0000      -0.480458       -13.0739
  12   2.0000      -0.410402       -11.1676
  13   2.0000      -0.406476       -11.0608
  14   2.0000      -0.376044       -10.2327
  15   2.0000      -0.342918        -9.3313
  16   2.0000      -0.333629        -9.0785
  17   2.0000      -0.324816        -8.8387
  18   2.0000      -0.212981        -5.7955
  19   2.0000      -0.134872        -3.6700
  20   0.0000       0.000386         0.0105
  21   0.0000       0.027170         0.7393
  22   0.0000       0.040349         1.0979
  23   0.0000       0.052922         1.4401
  24   0.0000       0.073944         2.0121

MULLIKEN ATOMIC CHARGES
-----------------------
   0 C :    1.038022
   1 N :   -0.484311
   2 C :    0.688523
   3 N :    0.016968
   4 C :    0.243321
   5 H :   -0.074161
   6 H :   -0.522275
   7 H :   -0.315219
   8 H :   -0.117649
   9 H :   -0.104118
  10 H :   -0.305646
  11 H :   -0.077138
  12 H :    0.013681
Sum of atomic charges:   -0.0000000

LOEWDIN ATOMIC CHARGES
----------------------
   0 C :    0.220005
   1 N :   -0.050725
   2 C :   -0.248297
   3 N :    0.183501
   4 C :    0.163884
   5 H :   -0.115267
   6 H :   -0.109082
   7 H :    0.010018
   8 H :   -0.012383
   9 H :    0.010086
  10 H :   -0.016565
  11 H :   -0.015342
  12 H :   -0.019832

  Mayer bond orders larger than 0.100000
B(  0-C ,  1-N ) :   0.9303 B(  0-C ,  7-H ) :  -0.1083 B(  0-C , 10-H ) :   0.8505
B(  0-C , 11-H ) :   0.8367 B(  0-C , 12-H ) :   0.8330 B(  1-N ,  2-C ) :   0.9688
B(  1-N ,  3-N ) :   0.1792 B(  1-N ,  4-C ) :   0.3400 B(  1-N ,  7-H ) :   1.2983
B(  1-N , 10-H ) :   0.1593 B(  1-N , 11-H ) :   0.1637 B(  2-C ,  3-N ) :   0.8833
B(  2-C ,  4-C ) :   1.5986 B(  2-C ,  5-H ) :   0.2081 B(  2-C ,  6-H ) :   0.1213
B(  2-C ,  7-H ) :  -0.1659 B(  2-C ,  9-H ) :  -0.1010 B(  3-N ,  4-C ) :   0.2380
B(  3-N ,  8-H ) :   1.1643 B(  3-N ,  9-H ) :   1.2521 B(  4-C ,  5-H ) :   0.7274
B(  4-C ,  6-H ) :   0.9888 B(  8-H ,  9-H ) :  -0.1569

Dispersion correction           -0.011646479
FINAL SINGLE POINT ENERGY      -228.485777397719

DIPOLE MOMENT
-------------
                                X             Y             Z
Electronic contribution:      0.80109      -0.14496      -2.53603
Nuclear contribution   :     -1.37336       0.51269       1.66180
                        -----------------------------------------
Total Dipole Moment    :     -0.57227       0.36773      -0.87422
                        -----------------------------------------
Magnitude (a.u.)       :      1.10769
Magnitude (Debye)      :      2.81553

Rotational constants in cm-1:     0.331915     0.135033     0.098638
Rotational constants in MHz :  9950.555862  4048.179255  2957.099162

                             ****ORCA TERMINATED NORMALLY****
TOTAL RUN TIME: 0 days 0 hours 0 minutes 5 seconds 925 msec
