                         Program Version 5.0.0 -  RELEASE  -
|  1> !TPSS D3BJ RIJCOSX def2-SVPD def2/J TightSCF xyzfile
|  2>
|  3> *xyzfile 0 1 D2.xyz
|  4>
|  5> %MaxCore 64000
|  6>
|  7> %pal nprocs 4
|  8> end
|  9>
| 10> %scf
| 11>   MaxIter 150
| 12> end
| 13>
| 14>
| 15>                          ****END OF INPUT****

CARTESIAN COORDINATES (ANGSTROEM)
---------------------------------
  C      1.963365   -1.749150   -1.896887
  N      2.738490   -2.015170   -3.097113
  C      0.611877    1.657634   -4.500288
  C      1.694991    1.541794   -5.570447
  H      2.697326    1.734659   -5.183996
  H      1.506656    2.272239   -6.358076
  S      1.780287   -0.033128   -6.428739
  C      4.049736   -2.154717   -3.152044
  C      4.658206   -1.986293   -4.318655
  N      4.764231   -2.454435   -2.050491
  H      4.287363   -2.776259   -1.217496
  H      5.750825   -2.658351   -2.125988
  H      2.345176   -1.690274   -3.971447
  H      4.109004   -1.592677   -5.071760
  H      5.649095   -2.156462   -4.427237
  F      2.569287    0.213657   -7.607360
  O      0.416880   -0.462969   -6.618595
  C      2.088520   -0.300912   -1.415204
  H      2.231272   -2.451616   -1.102643
  H      0.930249   -1.977801   -2.155438
  C      0.680356    0.655418   -3.348038
  H     -0.356865    1.549231   -4.991128
  H      0.650228    2.675438   -4.096000
  C      1.968993    0.733582   -2.535654
  H      3.051356   -0.168602   -0.911868
  H      1.316501   -0.136231   -0.657252
  O      2.505129   -0.933263   -5.482570
  H      2.824195    0.624726   -3.208464
  H      2.058919    1.730331   -2.093112
  H      0.542252   -0.344731   -3.766662
  H     -0.174219    0.829692   -2.685182

 Total Charge           Charge          ....    0
 Multiplicity           Mult            ....    1
 Number of Electrons    NEL             ....  120
 Basis Dimension        Dim             ....  432

ORBITAL ENERGIES
----------------

  NO   OCC          E(Eh)            E(eV)
   0   2.0000     -88.634206     -2411.8594
   1   2.0000     -24.552036      -668.0949
   2   2.0000     -18.924088      -514.9506
   3   2.0000     -18.909870      -514.5637
   4   2.0000     -14.100585      -383.6964
   5   2.0000     -14.084473      -383.2580
   6   2.0000     -10.067230      -273.9432
   7   2.0000     -10.034188      -273.0441
   8   2.0000     -10.024292      -272.7748
   9   2.0000     -10.013589      -272.4836
  10   2.0000     -10.009098      -272.3614
  11   2.0000      -9.999386      -272.0971
  12   2.0000      -9.993796      -271.9450
  13   2.0000      -9.884283      -268.9650
  14   2.0000      -7.994147      -217.5318
  15   2.0000      -5.984367      -162.8429
  16   2.0000      -5.978206      -162.6752
  17   2.0000      -5.976001      -162.6152
  18   2.0000      -1.303462       -35.4690
  19   2.0000      -1.044261       -28.4158
  20   2.0000      -0.945337       -25.7239
  21   2.0000      -0.871625       -23.7181
  22   2.0000      -0.795579       -21.6488
  23   2.0000      -0.778900       -21.1950
  24   2.0000      -0.730906       -19.8890
  25   2.0000      -0.698994       -19.0206
  26   2.0000      -0.663605       -18.0576
  27   2.0000      -0.638691       -17.3797
  28   2.0000      -0.603382       -16.4189
  29   2.0000      -0.573614       -15.6088
  30   2.0000      -0.549709       -14.9583
  31   2.0000      -0.540824       -14.7166
  32   2.0000      -0.532035       -14.4774
  33   2.0000      -0.514602       -14.0030
  34   2.0000      -0.508855       -13.8466
  35   2.0000      -0.470651       -12.8071
  36   2.0000      -0.457759       -12.4562
  37   2.0000      -0.457003       -12.4357
  38   2.0000      -0.434124       -11.8131
  39   2.0000      -0.429959       -11.6998
  40   2.0000      -0.422957       -11.5092
  41   2.0000      -0.415786       -11.3141
  42   2.0000      -0.399066       -10.8591
  43   2.0000      -0.392055       -10.6684
  44   2.0000      -0.377160       -10.2630
  45   2.0000      -0.359494        -9.7823
  46   2.0000      -0.348812        -9.4916
  47   2.0000      -0.345478        -9.4009
  48   2.0000      -0.335123        -9.1192
  49   2.0000      -0.322355        -8.7717
  50   2.0000      -0.318485        -8.6664
  51   2.0000      -0.314117        -8.5476
  52   2.0000      -0.306438        -8.3386
  53   2.0000      -0.296864        -8.0781
  54   2.0000      -0.292429        -7.9574
  55   2.0000      -0.286980        -7.8091
  56   2.0000      -0.284792        -7.7496
  57   2.0000      -0.262128        -7.1329
  58   2.0000      -0.194147        -5.2830
  59   2.0000      -0.110497        -3.0068
  60   0.0000      -0.026705        -0.7267
  61   0.0000      -0.008088        -0.2201
  62   0.0000       0.011046         0.3006
  63   0.0000       0.014398         0.3918
  64   0.0000       0.022874         0.6224

MULLIKEN ATOMIC CHARGES
-----------------------
   0 C :    0.898816
   1 N :   -0.035653
   2 C :    0.367840
   3 C :    0.032755
   4 H :    0.169910
   5 H :   -0.040038
   6 S :    1.571091
   7 C :    0.772444
   8 C :    0.464812
   9 N :    0.122356
  10 H :   -0.067061
  11 H :   -0.211140
  12 H :   -0.549207
  13 H :   -0.142227
  14 H :   -0.612279
  15 F :   -0.449722
  16 O :   -0.690196
  17 C :    0.334376
  18 H :   -0.394396
  19 H :   -0.137350
  20 C :   -0.045342
  21 H :    0.037809
  22 H :   -0.012205
  23 C :   -0.025977
  24 H :   -0.002194
  25 H :   -0.071928
  26 O :   -0.893239
  27 H :    0.110890
  28 H :   -0.302781
  29 H :   -0.045545
  30 H :   -0.154620
Sum of atomic charges:   -0.0000000

LOEWDIN ATOMIC CHARGES
----------------------
   0 C :    0.066804
   1 N :    0.012807
   2 C :   -0.011173
   3 C :   -0.040784
   4 H :    0.019066
   5 H :    0.013593
   6 S :    1.171335
   7 C :   -0.221359
   8 C :    0.168285
   9 N :    0.197078
  10 H :   -0.029251
  11 H :   -0.001282
  12 H :   -0.071850
  13 H :   -0.165973
  14 H :   -0.102921
  15 F :   -0.233143
  16 O :   -0.432198
  17 C :   -0.007872
  18 H :    0.001966
  19 H :    0.012356
  20 C :   -0.013652
  21 H :    0.025658
  22 H :    0.034824
  23 C :   -0.017959
  24 H :    0.013250
  25 H :    0.012341
  26 O :   -0.461432
  27 H :    0.007082
  28 H :    0.019771
  29 H :    0.004753
  30 H :    0.029878

  Mayer bond orders larger than 0.100000
B(  0-C ,  1-N ) :   0.9077 B(  0-C , 12-H ) :  -0.2978 B(  0-C , 17-C ) :   1.0491
B(  0-C , 18-H ) :   0.9162 B(  0-C , 19-H ) :   0.6671 B(  0-C , 23-C ) :   0.1084
B(  0-C , 25-H ) :   0.1224 B(  1-N ,  7-C ) :   1.0303 B(  1-N ,  8-C ) :   0.2356
B(  1-N ,  9-N ) :   0.2384 B(  1-N , 12-H ) :   1.0814 B(  1-N , 18-H ) :   0.1059
B(  1-N , 19-H ) :   0.1358 B(  2-C ,  3-C ) :   1.3098 B(  2-C ,  4-H ) :   0.1001
B(  2-C ,  5-H ) :   0.1897 B(  2-C , 20-C ) :   1.2605 B(  2-C , 21-H ) :   0.6789
B(  2-C , 22-H ) :   0.7889 B(  3-C ,  4-H ) :   0.8599 B(  3-C ,  5-H ) :   0.8186
B(  3-C ,  6-S ) :   1.0017 B(  3-C , 21-H ) :   0.1162 B(  3-C , 22-H ) :   0.1312
B(  6-S , 15-F ) :   0.5932 B(  6-S , 16-O ) :   1.4522 B(  6-S , 26-O ) :   1.3397
B(  7-C ,  8-C ) :   1.2946 B(  7-C ,  9-N ) :   0.9120 B(  7-C , 11-H ) :  -0.1354
B(  7-C , 12-H ) :  -0.3389 B(  7-C , 13-H ) :   0.1057 B(  7-C , 14-H ) :   0.2149
B(  8-C ,  9-N ) :   0.2899 B(  8-C , 13-H ) :   0.6097 B(  8-C , 14-H ) :   0.8001
B(  9-N , 10-H ) :   0.9742 B(  9-N , 11-H ) :   1.2943 B(  9-N , 18-H ) :   0.1032
B( 10-H , 11-H ) :  -0.2024 B( 12-H , 19-H ) :   0.1873 B( 12-H , 24-H ) :   0.1354
B( 12-H , 27-H ) :   0.1163 B( 12-H , 28-H ) :  -0.1114 B( 13-H , 14-H ) :  -0.2029
B( 13-H , 26-O ) :   0.2324 B( 16-O , 26-O ) :   0.1650 B( 17-C , 18-H ) :   0.1254
B( 17-C , 19-H ) :   0.1013 B( 17-C , 23-C ) :   1.2588 B( 17-C , 24-H ) :   0.7704
B( 17-C , 25-H ) :   0.8923 B( 18-H , 19-H ) :  -0.1277 B( 20-C , 21-H ) :   0.2545
B( 20-C , 23-C ) :   1.1722 B( 20-C , 28-H ) :   0.1363 B( 20-C , 29-H ) :   0.9512
B( 20-C , 30-H ) :   0.8675 B( 23-C , 24-H ) :   0.1921 B( 23-C , 25-H ) :   0.1251
B( 23-C , 27-H ) :   0.8643 B( 23-C , 28-H ) :   0.9477 B( 23-C , 30-H ) :   0.1307

Dispersion correction           -0.047177450
FINAL SINGLE POINT ENERGY     -1072.518098000553

DIPOLE MOMENT
-------------
                                X             Y             Z
Electronic contribution:     -0.87876      -0.86463     -22.47696
Nuclear contribution   :      0.43347       2.59110      22.83150
                        -----------------------------------------
Total Dipole Moment    :     -0.44529       1.72647       0.35454
                        -----------------------------------------
Magnitude (a.u.)       :      1.81788
Magnitude (Debye)      :      4.62068

Rotational constants in cm-1:     0.029257     0.014415     0.010996
Rotational constants in MHz :   877.098782   432.159206   329.643335

                             ****ORCA TERMINATED NORMALLY****
TOTAL RUN TIME: 0 days 0 hours 1 minutes 18 seconds 695 msec
