                         Program Version 5.0.0 -  RELEASE  -
|  1> !TPSS D3BJ RIJCOSX def2-SVPD def2/J TightSCF xyzfile
|  2>
|  3> *xyzfile 0 1 D3.xyz
|  4>
|  5> %MaxCore 64000
|  6>
|  7> %pal nprocs 4
|  8> end
|  9>
| 10> %scf
| 11>   MaxIter 150
| 12> end
| 13>
| 14>
| 15>                          ****END OF INPUT****

CARTESIAN COORDINATES (ANGSTROEM)
---------------------------------
  C      1.963365   -1.749150   -1.896887
  N      2.738490   -2.015170   -3.097113
  C      0.611877    1.657634   -4.500288
  C      1.694991    1.541794   -5.570447
  H      2.697326    1.734659   -5.183996
  H      1.506656    2.272239   -6.358076
  S      1.780287   -0.033128   -6.428739
  C      4.049736   -2.154717   -3.152044
  N      4.658206   -1.986293   -4.318655
  C      4.764231   -2.454435   -2.050491
  H      4.287363   -2.776259   -1.217496
  H      5.750825   -2.658351   -2.125988
  H      2.345176   -1.690274   -3.971447
  H      4.109004   -1.592677   -5.071760
  H      5.649095   -2.156462   -4.427237
  F      2.569287    0.213657   -7.607360
  O      0.416880   -0.462969   -6.618595
  C      2.088520   -0.300912   -1.415204
  H      2.231272   -2.451616   -1.102643
  H      0.930249   -1.977801   -2.155438
  C      0.680356    0.655418   -3.348038
  H     -0.356865    1.549231   -4.991128
  H      0.650228    2.675438   -4.096000
  C      1.968993    0.733582   -2.535654
  H      3.051356   -0.168602   -0.911868
  H      1.316501   -0.136231   -0.657252
  O      2.505129   -0.933263   -5.482570
  H      2.824195    0.624726   -3.208464
  H      2.058919    1.730331   -2.093112
  H      0.542252   -0.344731   -3.766662
  H     -0.174219    0.829692   -2.685182

 Total Charge           Charge          ....    0
 Multiplicity           Mult            ....    1
 Number of Electrons    NEL             ....  120
 Basis Dimension        Dim             ....  432

ORBITAL ENERGIES
----------------

  NO   OCC          E(Eh)            E(eV)
   0   2.0000     -88.650149     -2412.2932
   1   2.0000     -24.566335      -668.4840
   2   2.0000     -18.938417      -515.3405
   3   2.0000     -18.931069      -515.1406
   4   2.0000     -14.087183      -383.3317
   5   2.0000     -14.085668      -383.2905
   6   2.0000     -10.077961      -274.2353
   7   2.0000     -10.040338      -273.2115
   8   2.0000     -10.017886      -272.6005
   9   2.0000     -10.014357      -272.5045
  10   2.0000     -10.012133      -272.4440
  11   2.0000     -10.000149      -272.1179
  12   2.0000      -9.988569      -271.8028
  13   2.0000      -9.892161      -269.1794
  14   2.0000      -8.010113      -217.9663
  15   2.0000      -6.000418      -163.2797
  16   2.0000      -5.994282      -163.1127
  17   2.0000      -5.991803      -163.0452
  18   2.0000      -1.317975       -35.8639
  19   2.0000      -1.060262       -28.8512
  20   2.0000      -0.963807       -26.2265
  21   2.0000      -0.872402       -23.7393
  22   2.0000      -0.794065       -21.6076
  23   2.0000      -0.786140       -21.3920
  24   2.0000      -0.734579       -19.9889
  25   2.0000      -0.700085       -19.0503
  26   2.0000      -0.666236       -18.1292
  27   2.0000      -0.630215       -17.1490
  28   2.0000      -0.621030       -16.8991
  29   2.0000      -0.585706       -15.9379
  30   2.0000      -0.557371       -15.1668
  31   2.0000      -0.549496       -14.9525
  32   2.0000      -0.538090       -14.6422
  33   2.0000      -0.521928       -14.2024
  34   2.0000      -0.491198       -13.3662
  35   2.0000      -0.477270       -12.9872
  36   2.0000      -0.471774       -12.8376
  37   2.0000      -0.464916       -12.6510
  38   2.0000      -0.451745       -12.2926
  39   2.0000      -0.437224       -11.8975
  40   2.0000      -0.419114       -11.4047
  41   2.0000      -0.414283       -11.2732
  42   2.0000      -0.400141       -10.8884
  43   2.0000      -0.386438       -10.5155
  44   2.0000      -0.383140       -10.4258
  45   2.0000      -0.372003       -10.1227
  46   2.0000      -0.351771        -9.5722
  47   2.0000      -0.348589        -9.4856
  48   2.0000      -0.331447        -9.0191
  49   2.0000      -0.327547        -8.9130
  50   2.0000      -0.323366        -8.7992
  51   2.0000      -0.313078        -8.5193
  52   2.0000      -0.310941        -8.4611
  53   2.0000      -0.304102        -8.2750
  54   2.0000      -0.294410        -8.0113
  55   2.0000      -0.292648        -7.9633
  56   2.0000      -0.291096        -7.9211
  57   2.0000      -0.281604        -7.6628
  58   2.0000      -0.187054        -5.0900
  59   2.0000      -0.111964        -3.0467
  60   0.0000      -0.039594        -1.0774
  61   0.0000      -0.015866        -0.4317
  62   0.0000       0.004393         0.1195
  63   0.0000       0.009696         0.2638
  64   0.0000       0.014995         0.4080

MULLIKEN ATOMIC CHARGES
-----------------------
   0 C :    0.864517
   1 N :    0.110491
   2 C :    0.365983
   3 C :    0.035334
   4 H :    0.174829
   5 H :   -0.045545
   6 S :    1.578188
   7 C :    0.787061
   8 N :    0.340115
   9 C :    0.290828
  10 H :    0.038654
  11 H :   -0.623798
  12 H :   -0.779699
  13 H :   -0.267617
  14 H :   -0.244745
  15 F :   -0.445390
  16 O :   -0.679261
  17 C :    0.384517
  18 H :   -0.288404
  19 H :   -0.156338
  20 C :   -0.053965
  21 H :    0.037393
  22 H :   -0.010986
  23 C :   -0.029278
  24 H :   -0.072020
  25 H :   -0.014721
  26 O :   -0.880992
  27 H :    0.070151
  28 H :   -0.280807
  29 H :   -0.044883
  30 H :   -0.159613
Sum of atomic charges:    0.0000000

LOEWDIN ATOMIC CHARGES
----------------------
   0 C :    0.075745
   1 N :    0.011509
   2 C :   -0.010450
   3 C :   -0.039233
   4 H :    0.019033
   5 H :    0.015360
   6 S :    1.174168
   7 C :   -0.225093
   8 N :    0.207612
   9 C :    0.154577
  10 H :   -0.120265
  11 H :   -0.114194
  12 H :   -0.082902
  13 H :   -0.092784
  14 H :    0.006323
  15 F :   -0.233424
  16 O :   -0.422820
  17 C :   -0.001338
  18 H :    0.010592
  19 H :    0.012156
  20 C :   -0.013812
  21 H :    0.026160
  22 H :    0.036347
  23 C :   -0.020155
  24 H :    0.014349
  25 H :    0.015155
  26 O :   -0.462986
  27 H :    0.004972
  28 H :    0.019918
  29 H :    0.004182
  30 H :    0.031299

  Mayer bond orders larger than 0.100000
B(  0-C ,  1-N ) :   0.9244 B(  0-C , 12-H ) :  -0.3405 B(  0-C , 17-C ) :   1.0213
B(  0-C , 18-H ) :   0.9312 B(  0-C , 19-H ) :   0.7383 B(  0-C , 23-C ) :   0.1030
B(  0-C , 25-H ) :   0.1083 B(  1-N ,  7-C ) :   0.8927 B(  1-N ,  9-C ) :   0.4947
B(  1-N , 12-H ) :   0.9531 B(  1-N , 13-H ) :   0.1105 B(  1-N , 19-H ) :   0.1454
B(  2-C ,  3-C ) :   1.3110 B(  2-C ,  4-H ) :   0.1030 B(  2-C ,  5-H ) :   0.1918
B(  2-C , 20-C ) :   1.2558 B(  2-C , 21-H ) :   0.6765 B(  2-C , 22-H ) :   0.7943
B(  3-C ,  4-H ) :   0.8582 B(  3-C ,  5-H ) :   0.8167 B(  3-C ,  6-S ) :   1.0021
B(  3-C , 21-H ) :   0.1150 B(  3-C , 22-H ) :   0.1243 B(  6-S , 15-F ) :   0.5945
B(  6-S , 16-O ) :   1.4651 B(  6-S , 26-O ) :   1.3038 B(  7-C ,  8-N ) :   0.8047
B(  7-C ,  9-C ) :   1.4008 B(  7-C , 10-H ) :   0.2989 B(  7-C , 11-H ) :   0.2523
B(  7-C , 12-H ) :  -0.3480 B(  7-C , 14-H ) :  -0.2081 B(  8-N ,  9-C ) :   0.2567
B(  8-N , 11-H ) :   0.1005 B(  8-N , 13-H ) :   1.0245 B(  8-N , 14-H ) :   1.3627
B(  9-C , 10-H ) :   0.5789 B(  9-C , 11-H ) :   0.8303 B(  9-C , 12-H ) :  -0.1232
B( 10-H , 18-H ) :   0.1448 B( 12-H , 19-H ) :   0.1109 B( 12-H , 26-O ) :   0.1090
B( 12-H , 27-H ) :   0.1263 B( 12-H , 28-H ) :  -0.1140 B( 13-H , 14-H ) :  -0.2026
B( 13-H , 26-O ) :   0.2350 B( 16-O , 26-O ) :   0.1661 B( 17-C , 23-C ) :   1.2540
B( 17-C , 24-H ) :   0.8097 B( 17-C , 25-H ) :   0.8346 B( 17-C , 27-H ) :   0.1052
B( 18-H , 19-H ) :  -0.1703 B( 20-C , 21-H ) :   0.2540 B( 20-C , 23-C ) :   1.1813
B( 20-C , 27-H ) :   0.1025 B( 20-C , 28-H ) :   0.1553 B( 20-C , 29-H ) :   0.9543
B( 20-C , 30-H ) :   0.8639 B( 23-C , 24-H ) :   0.2034 B( 23-C , 25-H ) :   0.1259
B( 23-C , 27-H ) :   0.8555 B( 23-C , 28-H ) :   0.9207 B( 23-C , 30-H ) :   0.1332

Dispersion correction           -0.047102718
FINAL SINGLE POINT ENERGY     -1072.529532915926

DIPOLE MOMENT
-------------
                                X             Y             Z
Electronic contribution:     -1.12371      -0.28070     -24.47553
Nuclear contribution   :      0.44707       2.53104      23.12246
                        -----------------------------------------
Total Dipole Moment    :     -0.67664       2.25035      -1.35307
                        -----------------------------------------
Magnitude (a.u.)       :      2.71159
Magnitude (Debye)      :      6.89231

Rotational constants in cm-1:     0.028906     0.014696     0.011110
Rotational constants in MHz :   866.591909   440.585554   333.081943

                             ****ORCA TERMINATED NORMALLY****
TOTAL RUN TIME: 0 days 0 hours 1 minutes 17 seconds 10 msec
