                         Program Version 5.0.0 -  RELEASE  -
|  1> !TPSS D3BJ RIJCOSX def2-SVPD def2/J TightSCF xyzfile
|  2>
|  3> *xyzfile 0 1 D6.xyz
|  4>
|  5> %MaxCore 64000
|  6>
|  7> %pal nprocs 4
|  8> end
|  9>
| 10> %scf
| 11>   MaxIter 150
| 12> end
| 13>
| 14>
| 15>                          ****END OF INPUT****

CARTESIAN COORDINATES (ANGSTROEM)
---------------------------------
  C      1.963365   -1.749150   -1.896887
  N      2.738490   -2.015170   -3.097113
  C      0.611877    1.657634   -4.500288
  C      1.694991    1.541794   -5.570447
  H      2.697326    1.734659   -5.183996
  H      1.506656    2.272239   -6.358076
  S      1.780287   -0.033128   -6.428739
  C      4.049736   -2.154717   -3.152044
  N      4.658206   -1.986293   -4.318655
  C      4.764231   -2.454435   -2.050491
  H      4.287363   -2.776259   -1.217496
  H      5.750825   -2.658351   -2.125988
  H      2.345176   -1.690274   -3.971447
  H      4.109004   -1.592677   -5.071760
  H      5.649095   -2.156462   -4.427237
  O      2.569287    0.213657   -7.607360
  F      0.416880   -0.462969   -6.618595
  C      2.088520   -0.300912   -1.415204
  H      2.231272   -2.451616   -1.102643
  H      0.930249   -1.977801   -2.155438
  C      0.680356    0.655418   -3.348038
  H     -0.356865    1.549231   -4.991128
  H      0.650228    2.675438   -4.096000
  C      1.968993    0.733582   -2.535654
  H      3.051356   -0.168602   -0.911868
  H      1.316501   -0.136231   -0.657252
  O      2.505129   -0.933263   -5.482570
  H      2.824195    0.624726   -3.208464
  H      2.058919    1.730331   -2.093112
  H      0.542252   -0.344731   -3.766662
  H     -0.174219    0.829692   -2.685182

 Total Charge           Charge          ....    0
 Multiplicity           Mult            ....    1
 Number of Electrons    NEL             ....  120
 Basis Dimension        Dim             ....  432

ORBITAL ENERGIES
----------------

  NO   OCC          E(Eh)            E(eV)
   0   2.0000     -88.650059     -2412.2908
   1   2.0000     -24.565704      -668.4668
   2   2.0000     -18.937872      -515.3257
   3   2.0000     -18.930687      -515.1302
   4   2.0000     -14.086875      -383.3234
   5   2.0000     -14.085834      -383.2950
   6   2.0000     -10.077803      -274.2310
   7   2.0000     -10.044187      -273.3162
   8   2.0000     -10.020542      -272.6728
   9   2.0000     -10.019910      -272.6556
  10   2.0000     -10.014592      -272.5109
  11   2.0000     -10.004306      -272.2310
  12   2.0000      -9.991547      -271.8838
  13   2.0000      -9.892546      -269.1899
  14   2.0000      -8.009969      -217.9623
  15   2.0000      -6.000413      -163.2795
  16   2.0000      -5.994101      -163.1078
  17   2.0000      -5.991578      -163.0391
  18   2.0000      -1.316176       -35.8150
  19   2.0000      -1.061036       -28.8722
  20   2.0000      -0.963593       -26.2207
  21   2.0000      -0.872744       -23.7486
  22   2.0000      -0.795987       -21.6599
  23   2.0000      -0.789035       -21.4707
  24   2.0000      -0.735772       -20.0214
  25   2.0000      -0.698386       -19.0040
  26   2.0000      -0.670658       -18.2495
  27   2.0000      -0.632484       -17.2108
  28   2.0000      -0.621653       -16.9160
  29   2.0000      -0.588355       -16.0100
  30   2.0000      -0.561184       -15.2706
  31   2.0000      -0.555205       -15.1079
  32   2.0000      -0.535491       -14.5714
  33   2.0000      -0.524167       -14.2633
  34   2.0000      -0.488521       -13.2933
  35   2.0000      -0.477522       -12.9940
  36   2.0000      -0.467224       -12.7138
  37   2.0000      -0.464050       -12.6274
  38   2.0000      -0.455333       -12.3902
  39   2.0000      -0.441412       -12.0114
  40   2.0000      -0.422848       -11.5063
  41   2.0000      -0.415945       -11.3184
  42   2.0000      -0.402276       -10.9465
  43   2.0000      -0.392418       -10.6782
  44   2.0000      -0.387687       -10.5495
  45   2.0000      -0.367993       -10.0136
  46   2.0000      -0.356671        -9.7055
  47   2.0000      -0.354537        -9.6474
  48   2.0000      -0.337362        -9.1801
  49   2.0000      -0.329738        -8.9726
  50   2.0000      -0.321198        -8.7402
  51   2.0000      -0.318517        -8.6673
  52   2.0000      -0.310589        -8.4515
  53   2.0000      -0.305761        -8.3202
  54   2.0000      -0.297243        -8.0884
  55   2.0000      -0.295136        -8.0311
  56   2.0000      -0.291287        -7.9263
  57   2.0000      -0.282038        -7.6746
  58   2.0000      -0.187317        -5.0971
  59   2.0000      -0.112386        -3.0582
  60   0.0000      -0.043302        -1.1783
  61   0.0000      -0.007033        -0.1914
  62   0.0000       0.001720         0.0468
  63   0.0000       0.006075         0.1653
  64   0.0000       0.013684         0.3724

MULLIKEN ATOMIC CHARGES
-----------------------
   0 C :    0.869064
   1 N :    0.116095
   2 C :    0.399439
   3 C :    0.057862
   4 H :    0.148563
   5 H :   -0.049637
   6 S :    1.484952
   7 C :    0.786340
   8 N :    0.342357
   9 C :    0.289704
  10 H :    0.036280
  11 H :   -0.621309
  12 H :   -0.778806
  13 H :   -0.262933
  14 H :   -0.243389
  15 O :   -0.650380
  16 F :   -0.437774
  17 C :    0.382592
  18 H :   -0.283273
  19 H :   -0.173051
  20 C :   -0.021471
  21 H :    0.017850
  22 H :   -0.018097
  23 C :   -0.046881
  24 H :   -0.072554
  25 H :   -0.011799
  26 O :   -0.857754
  27 H :    0.080449
  28 H :   -0.278516
  29 H :   -0.041508
  30 H :   -0.162415
Sum of atomic charges:   -0.0000000

LOEWDIN ATOMIC CHARGES
----------------------
   0 C :    0.074082
   1 N :    0.008634
   2 C :   -0.026550
   3 C :   -0.026603
   4 H :    0.031558
   5 H :    0.019470
   6 S :    1.170096
   7 C :   -0.225474
   8 N :    0.211902
   9 C :    0.154803
  10 H :   -0.120633
  11 H :   -0.113560
  12 H :   -0.089150
  13 H :   -0.085269
  14 H :    0.008546
  15 O :   -0.423161
  16 F :   -0.231050
  17 C :   -0.000947
  18 H :    0.010511
  19 H :    0.010003
  20 C :   -0.020149
  21 H :    0.020323
  22 H :    0.033944
  23 C :   -0.017584
  24 H :    0.015246
  25 H :    0.015041
  26 O :   -0.461300
  27 H :    0.006831
  28 H :    0.021401
  29 H :   -0.001615
  30 H :    0.030656

  Mayer bond orders larger than 0.100000
B(  0-C ,  1-N ) :   0.9213 B(  0-C , 12-H ) :  -0.3441 B(  0-C , 17-C ) :   1.0223
B(  0-C , 18-H ) :   0.9274 B(  0-C , 19-H ) :   0.7410 B(  0-C , 23-C ) :   0.1037
B(  0-C , 25-H ) :   0.1086 B(  1-N ,  7-C ) :   0.8917 B(  1-N ,  9-C ) :   0.5004
B(  1-N , 12-H ) :   0.9449 B(  1-N , 13-H ) :   0.1140 B(  1-N , 19-H ) :   0.1465
B(  1-N , 26-O ) :  -0.1036 B(  2-C ,  3-C ) :   1.2661 B(  2-C ,  5-H ) :   0.1716
B(  2-C , 20-C ) :   1.2546 B(  2-C , 21-H ) :   0.6720 B(  2-C , 22-H ) :   0.7963
B(  3-C ,  4-H ) :   0.8804 B(  3-C ,  5-H ) :   0.8751 B(  3-C ,  6-S ) :   1.0201
B(  3-C , 21-H ) :   0.1107 B(  3-C , 22-H ) :   0.1219 B(  6-S , 15-O ) :   1.5605
B(  6-S , 16-F ) :   0.5598 B(  6-S , 26-O ) :   1.3356 B(  7-C ,  8-N ) :   0.8027
B(  7-C ,  9-C ) :   1.4018 B(  7-C , 10-H ) :   0.3005 B(  7-C , 11-H ) :   0.2558
B(  7-C , 12-H ) :  -0.3480 B(  7-C , 14-H ) :  -0.2082 B(  8-N ,  9-C ) :   0.2589
B(  8-N , 11-H ) :   0.1008 B(  8-N , 13-H ) :   1.0261 B(  8-N , 14-H ) :   1.3623
B(  9-C , 10-H ) :   0.5777 B(  9-C , 11-H ) :   0.8273 B(  9-C , 12-H ) :  -0.1266
B( 10-H , 18-H ) :   0.1467 B( 12-H , 19-H ) :   0.1055 B( 12-H , 26-O ) :   0.1217
B( 12-H , 27-H ) :   0.1213 B( 12-H , 28-H ) :  -0.1100 B( 13-H , 14-H ) :  -0.2045
B( 13-H , 26-O ) :   0.2121 B( 16-F , 26-O ) :   0.1592 B( 17-C , 23-C ) :   1.2548
B( 17-C , 24-H ) :   0.8112 B( 17-C , 25-H ) :   0.8328 B( 17-C , 27-H ) :   0.1051
B( 18-H , 19-H ) :  -0.1689 B( 20-C , 21-H ) :   0.2506 B( 20-C , 23-C ) :   1.1937
B( 20-C , 27-H ) :   0.1047 B( 20-C , 28-H ) :   0.1506 B( 20-C , 29-H ) :   0.9362
B( 20-C , 30-H ) :   0.8649 B( 23-C , 24-H ) :   0.2010 B( 23-C , 25-H ) :   0.1258
B( 23-C , 27-H ) :   0.8513 B( 23-C , 28-H ) :   0.9247 B( 23-C , 30-H ) :   0.1316

Dispersion correction           -0.046959302
FINAL SINGLE POINT ENERGY     -1072.529383402380

DIPOLE MOMENT
-------------
                                X             Y             Z
Electronic contribution:     -4.79283      -1.43459     -22.72178
Nuclear contribution   :      2.90585       3.30398      21.99296
                        -----------------------------------------
Total Dipole Moment    :     -1.88698       1.86940      -0.72882
                        -----------------------------------------
Magnitude (a.u.)       :      2.75436
Magnitude (Debye)      :      7.00103

Rotational constants in cm-1:     0.029065     0.014689     0.011200
Rotational constants in MHz :   871.338526   440.374927   335.770911

                             ****ORCA TERMINATED NORMALLY****
TOTAL RUN TIME: 0 days 0 hours 1 minutes 12 seconds 712 msec
