                         Program Version 5.0.0 -  RELEASE  -
|  1> !TPSS D3BJ RIJCOSX def2-SVPD def2/J TightSCF xyzfile
|  2>
|  3> *xyzfile 0 1 D8.xyz
|  4>
|  5> %MaxCore 64000
|  6>
|  7> %pal nprocs 4
|  8> end
|  9>
| 10> %scf
| 11>   MaxIter 150
| 12> end
| 13>
| 14>
| 15>                          ****END OF INPUT****

CARTESIAN COORDINATES (ANGSTROEM)
---------------------------------
  C      1.963365   -1.749150   -1.896887
  N      2.738490   -2.015170   -3.097113
  C      0.611877    1.657634   -4.500288
  C      1.694991    1.541794   -5.570447
  H      2.697326    1.734659   -5.183996
  H      1.506656    2.272239   -6.358076
  S      1.780287   -0.033128   -6.428739
  C      4.049736   -2.154717   -3.152044
  C      4.658206   -1.986293   -4.318655
  N      4.764231   -2.454435   -2.050491
  H      4.287363   -2.776259   -1.217496
  H      5.750825   -2.658351   -2.125988
  H      2.345176   -1.690274   -3.971447
  H      4.109004   -1.592677   -5.071760
  H      5.649095   -2.156462   -4.427237
  O      2.569287    0.213657   -7.607360
  O      0.416880   -0.462969   -6.618595
  C      2.088520   -0.300912   -1.415204
  H      2.231272   -2.451616   -1.102643
  H      0.930249   -1.977801   -2.155438
  C      0.680356    0.655418   -3.348038
  H     -0.356865    1.549231   -4.991128
  H      0.650228    2.675438   -4.096000
  C      1.968993    0.733582   -2.535654
  H      3.051356   -0.168602   -0.911868
  H      1.316501   -0.136231   -0.657252
  F      2.505129   -0.933263   -5.482570
  H      2.824195    0.624726   -3.208464
  H      2.058919    1.730331   -2.093112
  H      0.542252   -0.344731   -3.766662
  H     -0.174219    0.829692   -2.685182

 Total Charge           Charge          ....    0
 Multiplicity           Mult            ....    1
 Number of Electrons    NEL             ....  120
 Basis Dimension        Dim             ....  432

ORBITAL ENERGIES
----------------

  NO   OCC          E(Eh)            E(eV)
   0   2.0000     -88.623607     -2411.5710
   1   2.0000     -24.527927      -667.4388
   2   2.0000     -18.917925      -514.7829
   3   2.0000     -18.916284      -514.7383
   4   2.0000     -14.119532      -384.2120
   5   2.0000     -14.112710      -384.0264
   6   2.0000     -10.061426      -273.7853
   7   2.0000     -10.041763      -273.2503
   8   2.0000     -10.037172      -273.1253
   9   2.0000     -10.031668      -272.9756
  10   2.0000     -10.018891      -272.6279
  11   2.0000     -10.012014      -272.4408
  12   2.0000     -10.007305      -272.3126
  13   2.0000      -9.911250      -269.6988
  14   2.0000      -7.983691      -217.2473
  15   2.0000      -5.973969      -162.5600
  16   2.0000      -5.967655      -162.3881
  17   2.0000      -5.965726      -162.3357
  18   2.0000      -1.264816       -34.4174
  19   2.0000      -1.048481       -28.5306
  20   2.0000      -0.958510       -26.0824
  21   2.0000      -0.895446       -24.3663
  22   2.0000      -0.816762       -22.2252
  23   2.0000      -0.780282       -21.2325
  24   2.0000      -0.738186       -20.0871
  25   2.0000      -0.704864       -19.1803
  26   2.0000      -0.661603       -18.0031
  27   2.0000      -0.653302       -17.7773
  28   2.0000      -0.616477       -16.7752
  29   2.0000      -0.582999       -15.8642
  30   2.0000      -0.546421       -14.8689
  31   2.0000      -0.544524       -14.8172
  32   2.0000      -0.518714       -14.1149
  33   2.0000      -0.515909       -14.0386
  34   2.0000      -0.502617       -13.6769
  35   2.0000      -0.486521       -13.2389
  36   2.0000      -0.459898       -12.5145
  37   2.0000      -0.455802       -12.4030
  38   2.0000      -0.445027       -12.1098
  39   2.0000      -0.441447       -12.0124
  40   2.0000      -0.428632       -11.6637
  41   2.0000      -0.418321       -11.3831
  42   2.0000      -0.405686       -11.0393
  43   2.0000      -0.397098       -10.8056
  44   2.0000      -0.386682       -10.5222
  45   2.0000      -0.365959        -9.9582
  46   2.0000      -0.360437        -9.8080
  47   2.0000      -0.356604        -9.7037
  48   2.0000      -0.347864        -9.4659
  49   2.0000      -0.337552        -9.1853
  50   2.0000      -0.333130        -9.0649
  51   2.0000      -0.325669        -8.8619
  52   2.0000      -0.312175        -8.4947
  53   2.0000      -0.308768        -8.4020
  54   2.0000      -0.301004        -8.1907
  55   2.0000      -0.298757        -8.1296
  56   2.0000      -0.293292        -7.9809
  57   2.0000      -0.283293        -7.7088
  58   2.0000      -0.215942        -5.8761
  59   2.0000      -0.133861        -3.6425
  60   0.0000      -0.017387        -0.4731
  61   0.0000      -0.002271        -0.0618
  62   0.0000       0.004654         0.1266
  63   0.0000       0.012364         0.3364
  64   0.0000       0.015958         0.4342

MULLIKEN ATOMIC CHARGES
-----------------------
   0 C :    0.901736
   1 N :   -0.044155
   2 C :    0.428096
   3 C :    0.038243
   4 H :    0.182917
   5 H :   -0.109381
   6 S :    1.467989
   7 C :    0.849584
   8 C :    0.490426
   9 N :    0.115296
  10 H :   -0.049355
  11 H :   -0.207600
  12 H :   -0.544181
  13 H :   -0.245264
  14 H :   -0.568607
  15 O :   -0.682240
  16 O :   -0.708573
  17 C :    0.333963
  18 H :   -0.389065
  19 H :   -0.133710
  20 C :   -0.043442
  21 H :    0.030039
  22 H :   -0.012279
  23 C :   -0.040783
  24 H :    0.000128
  25 H :   -0.077201
  26 F :   -0.579504
  27 H :    0.106495
  28 H :   -0.288089
  29 H :   -0.097434
  30 H :   -0.124049
Sum of atomic charges:   -0.0000000

LOEWDIN ATOMIC CHARGES
----------------------
   0 C :    0.068700
   1 N :    0.007039
   2 C :   -0.022095
   3 C :   -0.033918
   4 H :    0.017125
   5 H :    0.027699
   6 S :    1.122466
   7 C :   -0.219565
   8 C :    0.172598
   9 N :    0.204113
  10 H :   -0.024471
  11 H :    0.003645
  12 H :   -0.046426
  13 H :   -0.141855
  14 H :   -0.094568
  15 O :   -0.431421
  16 O :   -0.435897
  17 C :   -0.006301
  18 H :    0.005428
  19 H :    0.014420
  20 C :   -0.017851
  21 H :    0.025711
  22 H :    0.031895
  23 C :   -0.020106
  24 H :    0.014543
  25 H :    0.015511
  26 F :   -0.295343
  27 H :    0.004134
  28 H :    0.023228
  29 H :    0.000226
  30 H :    0.031336

  Mayer bond orders larger than 0.100000
B(  0-C ,  1-N ) :   0.9049 B(  0-C , 12-H ) :  -0.2822 B(  0-C , 17-C ) :   1.0477
B(  0-C , 18-H ) :   0.9133 B(  0-C , 19-H ) :   0.6709 B(  0-C , 23-C ) :   0.1053
B(  0-C , 25-H ) :   0.1129 B(  1-N ,  7-C ) :   1.0346 B(  1-N ,  8-C ) :   0.2372
B(  1-N ,  9-N ) :   0.2334 B(  1-N , 12-H ) :   1.0860 B(  1-N , 18-H ) :   0.1057
B(  1-N , 19-H ) :   0.1459 B(  2-C ,  3-C ) :   1.2629 B(  2-C ,  4-H ) :   0.1110
B(  2-C ,  5-H ) :   0.1644 B(  2-C , 20-C ) :   1.2622 B(  2-C , 21-H ) :   0.6800
B(  2-C , 22-H ) :   0.7710 B(  3-C ,  4-H ) :   0.8623 B(  3-C ,  5-H ) :   0.8444
B(  3-C ,  6-S ) :   1.0322 B(  3-C , 21-H ) :   0.1297 B(  3-C , 22-H ) :   0.1231
B(  6-S , 15-O ) :   1.5111 B(  6-S , 16-O ) :   1.4376 B(  6-S , 26-F ) :   0.6058
B(  7-C ,  8-C ) :   1.2706 B(  7-C ,  9-N ) :   0.8890 B(  7-C , 11-H ) :  -0.1520
B(  7-C , 12-H ) :  -0.3234 B(  7-C , 14-H ) :   0.2616 B(  8-C ,  9-N ) :   0.3100
B(  8-C , 13-H ) :   0.5746 B(  8-C , 14-H ) :   0.7777 B(  9-N , 10-H ) :   0.9664
B(  9-N , 11-H ) :   1.2937 B(  9-N , 18-H ) :   0.1010 B( 10-H , 11-H ) :  -0.2049
B( 12-H , 13-H ) :  -0.1096 B( 12-H , 19-H ) :   0.1766 B( 12-H , 24-H ) :   0.1134
B( 13-H , 14-H ) :  -0.2442 B( 13-H , 26-F ) :   0.3346 B( 16-O , 26-F ) :   0.1011
B( 17-C , 18-H ) :   0.1261 B( 17-C , 23-C ) :   1.2484 B( 17-C , 24-H ) :   0.7765
B( 17-C , 25-H ) :   0.9030 B( 18-H , 19-H ) :  -0.1319 B( 20-C , 21-H ) :   0.2571
B( 20-C , 22-H ) :   0.1000 B( 20-C , 23-C ) :   1.1833 B( 20-C , 28-H ) :   0.1407
B( 20-C , 29-H ) :   0.9599 B( 20-C , 30-H ) :   0.8533 B( 23-C , 24-H ) :   0.1927
B( 23-C , 25-H ) :   0.1259 B( 23-C , 27-H ) :   0.8588 B( 23-C , 28-H ) :   0.9585
B( 23-C , 30-H ) :   0.1395

Dispersion correction           -0.046604622
FINAL SINGLE POINT ENERGY     -1072.535064181597

DIPOLE MOMENT
-------------
                                X             Y             Z
Electronic contribution:     -0.85510      -2.95774     -18.38686
Nuclear contribution   :      0.50676       3.90127      20.40426
                        -----------------------------------------
Total Dipole Moment    :     -0.34835       0.94353       2.01740
                        -----------------------------------------
Magnitude (a.u.)       :      2.25422
Magnitude (Debye)      :      5.72976

Rotational constants in cm-1:     0.029548     0.014706     0.011197
Rotational constants in MHz :   885.834387   440.871746   335.667619

                             ****ORCA TERMINATED NORMALLY****
TOTAL RUN TIME: 0 days 0 hours 1 minutes 13 seconds 575 msec
