                         Program Version 5.0.0 -  RELEASE  -
|  1> !TPSS D3BJ RIJCOSX def2-SVPD def2/J TightSCF xyzfile
|  2>
|  3> *xyzfile 0 1 D9.xyz
|  4>
|  5> %MaxCore 64000
|  6>
|  7> %pal nprocs 4
|  8> end
|  9>
| 10> %scf
| 11>   MaxIter 150
| 12> end
| 13>
| 14>
| 15>                          ****END OF INPUT****

CARTESIAN COORDINATES (ANGSTROEM)
---------------------------------
  C      1.963365   -1.749150   -1.896887
  N      2.738490   -2.015170   -3.097113
  C      0.611877    1.657634   -4.500288
  C      1.694991    1.541794   -5.570447
  H      2.697326    1.734659   -5.183996
  H      1.506656    2.272239   -6.358076
  S      1.780287   -0.033128   -6.428739
  C      4.049736   -2.154717   -3.152044
  N      4.658206   -1.986293   -4.318655
  C      4.764231   -2.454435   -2.050491
  H      4.287363   -2.776259   -1.217496
  H      5.750825   -2.658351   -2.125988
  H      2.345176   -1.690274   -3.971447
  H      4.109004   -1.592677   -5.071760
  H      5.649095   -2.156462   -4.427237
  O      2.569287    0.213657   -7.607360
  O      0.416880   -0.462969   -6.618595
  C      2.088520   -0.300912   -1.415204
  H      2.231272   -2.451616   -1.102643
  H      0.930249   -1.977801   -2.155438
  C      0.680356    0.655418   -3.348038
  H     -0.356865    1.549231   -4.991128
  H      0.650228    2.675438   -4.096000
  C      1.968993    0.733582   -2.535654
  H      3.051356   -0.168602   -0.911868
  H      1.316501   -0.136231   -0.657252
  F      2.505129   -0.933263   -5.482570
  H      2.824195    0.624726   -3.208464
  H      2.058919    1.730331   -2.093112
  H      0.542252   -0.344731   -3.766662
  H     -0.174219    0.829692   -2.685182

 Total Charge           Charge          ....    0
 Multiplicity           Mult            ....    1
 Number of Electrons    NEL             ....  120
 Basis Dimension        Dim             ....  432

ORBITAL ENERGIES
----------------

  NO   OCC          E(Eh)            E(eV)
   0   2.0000     -88.636752     -2411.9286
   1   2.0000     -24.549270      -668.0196
   2   2.0000     -18.930444      -515.1236
   3   2.0000     -18.930151      -515.1156
   4   2.0000     -14.116114      -384.1190
   5   2.0000     -14.114098      -384.0641
   6   2.0000     -10.071337      -274.0550
   7   2.0000     -10.037086      -273.1230
   8   2.0000     -10.036578      -273.1092
   9   2.0000     -10.035372      -273.0764
  10   2.0000     -10.021342      -272.6946
  11   2.0000     -10.012517      -272.4544
  12   2.0000     -10.001990      -272.1680
  13   2.0000      -9.912596      -269.7354
  14   2.0000      -7.997146      -217.6134
  15   2.0000      -5.987626      -162.9316
  16   2.0000      -5.981013      -162.7516
  17   2.0000      -5.978964      -162.6959
  18   2.0000      -1.285453       -34.9790
  19   2.0000      -1.062318       -28.9071
  20   2.0000      -0.971613       -26.4389
  21   2.0000      -0.899183       -24.4680
  22   2.0000      -0.818161       -22.2633
  23   2.0000      -0.786413       -21.3994
  24   2.0000      -0.739242       -20.1158
  25   2.0000      -0.703613       -19.1463
  26   2.0000      -0.676151       -18.3990
  27   2.0000      -0.639876       -17.4119
  28   2.0000      -0.636829       -17.3290
  29   2.0000      -0.587826       -15.9956
  30   2.0000      -0.554692       -15.0939
  31   2.0000      -0.545732       -14.8501
  32   2.0000      -0.530640       -14.4395
  33   2.0000      -0.518252       -14.1024
  34   2.0000      -0.501304       -13.6412
  35   2.0000      -0.493589       -13.4312
  36   2.0000      -0.475676       -12.9438
  37   2.0000      -0.463525       -12.6132
  38   2.0000      -0.459295       -12.4981
  39   2.0000      -0.441350       -12.0098
  40   2.0000      -0.429214       -11.6795
  41   2.0000      -0.422039       -11.4843
  42   2.0000      -0.407552       -11.0900
  43   2.0000      -0.399614       -10.8740
  44   2.0000      -0.390122       -10.6158
  45   2.0000      -0.369690       -10.0598
  46   2.0000      -0.362977        -9.8771
  47   2.0000      -0.360849        -9.8192
  48   2.0000      -0.345431        -9.3996
  49   2.0000      -0.335703        -9.1350
  50   2.0000      -0.334092        -9.0911
  51   2.0000      -0.328384        -8.9358
  52   2.0000      -0.317335        -8.6351
  53   2.0000      -0.311399        -8.4736
  54   2.0000      -0.308081        -8.3833
  55   2.0000      -0.303045        -8.2463
  56   2.0000      -0.296551        -8.0696
  57   2.0000      -0.294896        -8.0245
  58   2.0000      -0.211890        -5.7658
  59   2.0000      -0.133315        -3.6277
  60   0.0000      -0.031651        -0.8613
  61   0.0000      -0.005223        -0.1421
  62   0.0000       0.002003         0.0545
  63   0.0000       0.006310         0.1717
  64   0.0000       0.017055         0.4641

MULLIKEN ATOMIC CHARGES
-----------------------
   0 C :    0.873730
   1 N :    0.088946
   2 C :    0.427637
   3 C :    0.046673
   4 H :    0.184659
   5 H :   -0.112407
   6 S :    1.457014
   7 C :    0.786424
   8 N :    0.363955
   9 C :    0.289224
  10 H :    0.054990
  11 H :   -0.611965
  12 H :   -0.784973
  13 H :   -0.312176
  14 H :   -0.214649
  15 O :   -0.674729
  16 O :   -0.698618
  17 C :    0.377845
  18 H :   -0.276987
  19 H :   -0.154453
  20 C :   -0.049160
  21 H :    0.029313
  22 H :   -0.010899
  23 C :   -0.047261
  24 H :   -0.070279
  25 H :   -0.019221
  26 F :   -0.528883
  27 H :    0.062848
  28 H :   -0.264005
  29 H :   -0.091239
  30 H :   -0.121351
Sum of atomic charges:   -0.0000000

LOEWDIN ATOMIC CHARGES
----------------------
   0 C :    0.077615
   1 N :    0.005083
   2 C :   -0.021416
   3 C :   -0.032974
   4 H :    0.016687
   5 H :    0.029036
   6 S :    1.122825
   7 C :   -0.226023
   8 N :    0.208614
   9 C :    0.164684
  10 H :   -0.113785
  11 H :   -0.107250
  12 H :   -0.057663
  13 H :   -0.063723
  14 H :    0.014702
  15 O :   -0.431758
  16 O :   -0.428362
  17 C :    0.000123
  18 H :    0.013841
  19 H :    0.014265
  20 C :   -0.018105
  21 H :    0.026145
  22 H :    0.033246
  23 C :   -0.022517
  24 H :    0.015780
  25 H :    0.018085
  26 F :   -0.294274
  27 H :    0.001608
  28 H :    0.023292
  29 H :   -0.000393
  30 H :    0.032615

  Mayer bond orders larger than 0.100000
B(  0-C ,  1-N ) :   0.9101 B(  0-C ,  9-C ) :   0.1005 B(  0-C , 12-H ) :  -0.3269
B(  0-C , 17-C ) :   1.0214 B(  0-C , 18-H ) :   0.9251 B(  0-C , 19-H ) :   0.7399
B(  1-N ,  7-C ) :   0.8935 B(  1-N ,  8-N ) :   0.1039 B(  1-N ,  9-C ) :   0.4905
B(  1-N , 12-H ) :   0.9822 B(  1-N , 13-H ) :   0.1023 B(  1-N , 19-H ) :   0.1565
B(  2-C ,  3-C ) :   1.2618 B(  2-C ,  4-H ) :   0.1155 B(  2-C ,  5-H ) :   0.1700
B(  2-C , 20-C ) :   1.2615 B(  2-C , 21-H ) :   0.6787 B(  2-C , 22-H ) :   0.7772
B(  3-C ,  4-H ) :   0.8611 B(  3-C ,  5-H ) :   0.8380 B(  3-C ,  6-S ) :   1.0401
B(  3-C , 21-H ) :   0.1280 B(  3-C , 22-H ) :   0.1165 B(  6-S , 15-O ) :   1.5148
B(  6-S , 16-O ) :   1.4657 B(  6-S , 26-F ) :   0.5825 B(  7-C ,  8-N ) :   0.7934
B(  7-C ,  9-C ) :   1.4208 B(  7-C , 10-H ) :   0.3012 B(  7-C , 11-H ) :   0.2265
B(  7-C , 12-H ) :  -0.3674 B(  7-C , 14-H ) :  -0.2006 B(  8-N ,  9-C ) :   0.2675
B(  8-N , 13-H ) :   1.0313 B(  8-N , 14-H ) :   1.3355 B(  9-C , 10-H ) :   0.5736
B(  9-C , 11-H ) :   0.8589 B(  9-C , 12-H ) :  -0.1219 B( 10-H , 18-H ) :   0.1486
B( 12-H , 19-H ) :   0.1014 B( 12-H , 27-H ) :   0.1061 B( 13-H , 14-H ) :  -0.1802
B( 13-H , 26-F ) :   0.2792 B( 16-O , 26-F ) :   0.1009 B( 17-C , 23-C ) :   1.2467
B( 17-C , 24-H ) :   0.8145 B( 17-C , 25-H ) :   0.8444 B( 17-C , 27-H ) :   0.1101
B( 18-H , 19-H ) :  -0.1747 B( 20-C , 21-H ) :   0.2560 B( 20-C , 23-C ) :   1.1918
B( 20-C , 28-H ) :   0.1549 B( 20-C , 29-H ) :   0.9587 B( 20-C , 30-H ) :   0.8437
B( 23-C , 24-H ) :   0.2044 B( 23-C , 25-H ) :   0.1279 B( 23-C , 27-H ) :   0.8546
B( 23-C , 28-H ) :   0.9333 B( 23-C , 30-H ) :   0.1448

Dispersion correction           -0.046536309
FINAL SINGLE POINT ENERGY     -1072.538200622629

DIPOLE MOMENT
-------------
                                X             Y             Z
Electronic contribution:     -1.04970      -2.40249     -20.35442
Nuclear contribution   :      0.52036       3.84122      20.69523
                        -----------------------------------------
Total Dipole Moment    :     -0.52935       1.43873       0.34081
                        -----------------------------------------
Magnitude (a.u.)       :      1.57044
Magnitude (Debye)      :      3.99175

Rotational constants in cm-1:     0.029184     0.014996     0.011314
Rotational constants in MHz :   874.907122   449.569665   339.178205

                             ****ORCA TERMINATED NORMALLY****
TOTAL RUN TIME: 0 days 0 hours 1 minutes 13 seconds 374 msec
