                         Program Version 5.0.0 -  RELEASE  -
|  1> !BLYP D3BJ RIJCOSX def2-SVPD def2/J TightSCF
|  2> *xyz -1 1
|  3> C          1.22302        2.46987       -3.75691
|  4> O          2.35381        1.71203       -3.93448
|  5> H          1.26998        3.33359       -4.38673
|  6> H          1.15671        2.77738       -2.73420
|  7> H          0.36099        1.88932       -4.01140
|  8> *
|  9>
| 10> %MaxCore 64000
| 11>
| 12> %pal nprocs 4
| 13> end
| 14>
| 15> %scf
| 16>   MaxIter 150
| 17> end
| 18>
| 19>
| 20>                          ****END OF INPUT****

CARTESIAN COORDINATES (ANGSTROEM)
---------------------------------
  C      1.223020    2.469870   -3.756910
  O      2.353810    1.712030   -3.934480
  H      1.269980    3.333590   -4.386730
  H      1.156710    2.777380   -2.734200
  H      0.360990    1.889320   -4.011400

 Total Charge           Charge          ....   -1
 Multiplicity           Mult            ....    1
 Number of Electrons    NEL             ....   18
 Basis Dimension        Dim             ....   67

ORBITAL ENERGIES
----------------

  NO   OCC          E(Eh)            E(eV)
   0   2.0000     -18.444462      -501.8993
   1   2.0000      -9.711459      -264.2622
   2   2.0000      -0.562220       -15.2988
   3   2.0000      -0.323813        -8.8114
   4   2.0000      -0.146245        -3.9795
   5   2.0000      -0.146244        -3.9795
   6   2.0000      -0.051820        -1.4101
   7   2.0000       0.093574         2.5463
   8   2.0000       0.093576         2.5463
   9   0.0000       0.181179         4.9301
  10   0.0000       0.249988         6.8025
  11   0.0000       0.249989         6.8025
  12   0.0000       0.257590         7.0094
  13   0.0000       0.295419         8.0388

MULLIKEN ATOMIC CHARGES
-----------------------
   0 C :    1.159642
   1 O :   -0.990113
   2 H :   -0.389894
   3 H :   -0.389804
   4 H :   -0.389831
Sum of atomic charges:   -1.0000000

LOEWDIN ATOMIC CHARGES
----------------------
   0 C :   -0.112550
   1 O :   -0.619122
   2 H :   -0.089444
   3 H :   -0.089442
   4 H :   -0.089442

  Mayer bond orders larger than 0.100000
B(  0-C ,  1-O ) :   1.1653 B(  0-C ,  2-H ) :   0.8327 B(  0-C ,  3-H ) :   0.8328
B(  0-C ,  4-H ) :   0.8327

Dispersion correction           -0.003031392
FINAL SINGLE POINT ENERGY      -114.985642084245

DIPOLE MOMENT
-------------
                                X             Y             Z
Electronic contribution:      1.56955      -1.05188      -0.24646
Nuclear contribution   :     -2.37854       1.59406       0.37350
                        -----------------------------------------
Total Dipole Moment    :     -0.80899       0.54218       0.12704
                        -----------------------------------------
Magnitude (a.u.)       :      0.98212
Magnitude (Debye)      :      2.49636

Rotational constants in cm-1:     5.477743     0.935515     0.935515
Rotational constants in MHz : 164218.600605 28046.042741 28046.034116

                             ****ORCA TERMINATED NORMALLY****
TOTAL RUN TIME: 0 days 0 hours 0 minutes 2 seconds 273 msec
