                         Program Version 5.0.0 -  RELEASE  -
|  1> !BLYP D3BJ RIJCOSX def2-SVPD def2/J TightSCF
|  2> *xyz 1 1
|  3> C          1.63556       -1.67040       -5.29211
|  4> N          2.48451       -0.50741       -5.14039
|  5> C          3.45115       -0.14953       -5.95259
|  6> N          3.92267        1.08956       -5.85071
|  7> N          3.96616       -1.00618       -6.86788
|  8> H          3.52139       -1.90647       -6.99527
|  9> H          4.44482       -0.62347       -7.67035
| 10> H          2.25200        0.24080       -4.49879
| 11> H          3.46428        1.64078       -5.13639
| 12> H          4.83447        1.31375       -6.22465
| 13> H          2.06372       -2.33262       -6.01532
| 14> H          0.66479       -1.36293       -5.62068
| 15> H          1.55078       -2.17513       -4.35245
| 16> *
| 17>
| 18> %MaxCore 64000
| 19>
| 20> %pal nprocs 4
| 21> end
| 22>
| 23> %scf
| 24>   MaxIter 150
| 25> end
| 26>
| 27>
| 28>                          ****END OF INPUT****

CARTESIAN COORDINATES (ANGSTROEM)
---------------------------------
  C      1.635560   -1.670400   -5.292110
  N      2.484510   -0.507410   -5.140390
  C      3.451150   -0.149530   -5.952590
  N      3.922670    1.089560   -5.850710
  N      3.966160   -1.006180   -6.867880
  H      3.521390   -1.906470   -6.995270
  H      4.444820   -0.623470   -7.670350
  H      2.252000    0.240800   -4.498790
  H      3.464280    1.640780   -5.136390
  H      4.834470    1.313750   -6.224650
  H      2.063720   -2.332620   -6.015320
  H      0.664790   -1.362930   -5.620680
  H      1.550780   -2.175130   -4.352450

 Total Charge           Charge          ....    1
 Multiplicity           Mult            ....    1
 Number of Electrons    NEL             ....   40
 Basis Dimension        Dim             ....  164

ORBITAL ENERGIES
----------------

  NO   OCC          E(Eh)            E(eV)
   0   2.0000     -14.257943      -387.9784
   1   2.0000     -14.250745      -387.7825
   2   2.0000     -14.247963      -387.7068
   3   2.0000     -10.251434      -278.9557
   4   2.0000     -10.134640      -275.7776
   5   2.0000      -1.124196       -30.5909
   6   2.0000      -1.018721       -27.7208
   7   2.0000      -1.006006       -27.3748
   8   2.0000      -0.839211       -22.8361
   9   2.0000      -0.765108       -20.8197
  10   2.0000      -0.728101       -19.8126
  11   2.0000      -0.703484       -19.1428
  12   2.0000      -0.644312       -17.5326
  13   2.0000      -0.639929       -17.4133
  14   2.0000      -0.610296       -16.6070
  15   2.0000      -0.597575       -16.2609
  16   2.0000      -0.546214       -14.8632
  17   2.0000      -0.540619       -14.7110
  18   2.0000      -0.437262       -11.8985
  19   2.0000      -0.420200       -11.4342
  20   0.0000      -0.205459        -5.5908
  21   0.0000      -0.185596        -5.0503
  22   0.0000      -0.154272        -4.1980
  23   0.0000      -0.136966        -3.7270
  24   0.0000      -0.112802        -3.0695

MULLIKEN ATOMIC CHARGES
-----------------------
   0 C :    1.698229
   1 N :   -0.422789
   2 C :    0.854921
   3 N :    0.270141
   4 N :    0.295370
   5 H :   -0.138127
   6 H :   -0.154495
   7 H :   -0.299638
   8 H :   -0.042487
   9 H :   -0.164362
  10 H :   -0.446371
  11 H :   -0.224815
  12 H :   -0.225576
Sum of atomic charges:    1.0000000

LOEWDIN ATOMIC CHARGES
----------------------
   0 C :    0.286202
   1 N :    0.036992
   2 C :   -0.062607
   3 N :    0.285330
   4 N :    0.299191
   5 H :   -0.000966
   6 H :    0.031845
   7 H :    0.052930
   8 H :    0.028279
   9 H :    0.039704
  10 H :   -0.020762
  11 H :    0.011576
  12 H :    0.012286

  Mayer bond orders larger than 0.100000
B(  0-C ,  1-N ) :   1.0326 B(  0-C ,  7-H ) :  -0.2027 B(  0-C , 10-H ) :   0.6663
B(  0-C , 11-H ) :   0.6314 B(  0-C , 12-H ) :   0.6054 B(  1-N ,  2-C ) :   1.0843
B(  1-N ,  3-N ) :   0.2794 B(  1-N ,  4-N ) :   0.1743 B(  1-N ,  7-H ) :   1.3078
B(  1-N , 10-H ) :   0.2691 B(  1-N , 11-H ) :   0.2237 B(  1-N , 12-H ) :   0.2541
B(  2-C ,  3-N ) :   1.0466 B(  2-C ,  4-N ) :   1.1077 B(  2-C ,  5-H ) :  -0.1141
B(  2-C ,  6-H ) :  -0.1358 B(  2-C ,  7-H ) :  -0.2652 B(  2-C ,  9-H ) :  -0.1136
B(  3-N ,  4-N ) :   0.1646 B(  3-N ,  8-H ) :   1.0747 B(  3-N ,  9-H ) :   1.2085
B(  4-N ,  5-H ) :   1.0458 B(  4-N ,  6-H ) :   1.1982 B(  5-H ,  6-H ) :  -0.1724
B(  5-H , 10-H ) :   0.1212 B(  8-H ,  9-H ) :  -0.1568

Dispersion correction           -0.018540898
FINAL SINGLE POINT ENERGY      -244.831517385995

DIPOLE MOMENT
-------------
                                X             Y             Z
Electronic contribution:      1.95440       1.90072      -0.25494
Nuclear contribution   :     -1.83770      -1.53167       0.12165
                        -----------------------------------------
Total Dipole Moment    :      0.11670       0.36905      -0.13329
                        -----------------------------------------
Magnitude (a.u.)       :      0.40937
Magnitude (Debye)      :      1.04054

Rotational constants in cm-1:     0.307545     0.135665     0.096412
Rotational constants in MHz :  9219.967860  4067.145400  2890.348280

                             ****ORCA TERMINATED NORMALLY****
TOTAL RUN TIME: 0 days 0 hours 0 minutes 6 seconds 57 msec
