                         Program Version 5.0.0 -  RELEASE  -
|  1> !BLYP D3BJ RIJCOSX def2-SVPD def2/J TightSCF
|  2> *xyz 0 1
|  3> C          1.22302        2.46987       -3.75691
|  4> F          2.35381        1.71203       -3.93448
|  5> H          1.26998        3.33359       -4.38673
|  6> H          1.15671        2.77738       -2.73420
|  7> H          0.36099        1.88932       -4.01140
|  8> *
|  9>
| 10> %MaxCore 64000
| 11>
| 12> %pal nprocs 4
| 13> end
| 14>
| 15> %scf
| 16>   MaxIter 150
| 17> end
| 18>
| 19>
| 20>                          ****END OF INPUT****

CARTESIAN COORDINATES (ANGSTROEM)
---------------------------------
  C      1.223020    2.469870   -3.756910
  F      2.353810    1.712030   -3.934480
  H      1.269980    3.333590   -4.386730
  H      1.156710    2.777380   -2.734200
  H      0.360990    1.889320   -4.011400

 Total Charge           Charge          ....    0
 Multiplicity           Mult            ....    1
 Number of Electrons    NEL             ....   18
 Basis Dimension        Dim             ....   67

ORBITAL ENERGIES
----------------

  NO   OCC          E(Eh)            E(eV)
   0   2.0000     -24.290465      -660.9772
   1   2.0000      -9.994203      -271.9561
   2   2.0000      -1.075466       -29.2649
   3   2.0000      -0.628999       -17.1159
   4   2.0000      -0.442984       -12.0542
   5   2.0000      -0.431149       -11.7322
   6   2.0000      -0.431149       -11.7322
   7   2.0000      -0.296709        -8.0739
   8   2.0000      -0.296708        -8.0738
   9   0.0000       0.006482         0.1764
  10   0.0000       0.032313         0.8793
  11   0.0000       0.078570         2.1380
  12   0.0000       0.078571         2.1380
  13   0.0000       0.125265         3.4086

MULLIKEN ATOMIC CHARGES
-----------------------
   0 C :    1.213171
   1 F :   -0.443172
   2 H :   -0.256712
   3 H :   -0.256627
   4 H :   -0.256660
Sum of atomic charges:   -0.0000000

LOEWDIN ATOMIC CHARGES
----------------------
   0 C :    0.265680
   1 F :   -0.229358
   2 H :   -0.012109
   3 H :   -0.012106
   4 H :   -0.012106

  Mayer bond orders larger than 0.100000
B(  0-C ,  1-F ) :   0.9045 B(  0-C ,  2-H ) :   0.8705 B(  0-C ,  3-H ) :   0.8705
B(  0-C ,  4-H ) :   0.8705

Dispersion correction           -0.002647005
FINAL SINGLE POINT ENERGY      -139.611106698875

DIPOLE MOMENT
-------------
                                X             Y             Z
Electronic contribution:      2.43758      -1.63363      -0.38277
Nuclear contribution   :     -3.01708       2.02200       0.47377
                        -----------------------------------------
Total Dipole Moment    :     -0.57951       0.38837       0.09100
                        -----------------------------------------
Magnitude (a.u.)       :      0.70352
Magnitude (Debye)      :      1.78821

Rotational constants in cm-1:     5.477743     0.870792     0.870792
Rotational constants in MHz : 164218.600605 26105.683059 26105.675587

                             ****ORCA TERMINATED NORMALLY****
TOTAL RUN TIME: 0 days 0 hours 0 minutes 2 seconds 131 msec
