                         Program Version 5.0.0 -  RELEASE  -
|  1> !BLYP D3BJ RIJCOSX def2-SVPD def2/J TightSCF
|  2> *xyz 0 1
|  3> C          1.63556       -1.67040       -5.29211
|  4> C          2.48451       -0.50741       -5.14039
|  5> C          3.45115       -0.14953       -5.95259
|  6> N          3.92267        1.08956       -5.85071
|  7> N          3.96616       -1.00618       -6.86788
|  8> H          3.52139       -1.90647       -6.99527
|  9> H          4.44482       -0.62347       -7.67035
| 10> H          2.25200        0.24080       -4.49879
| 11> H          3.46428        1.64078       -5.13639
| 12> H          4.83447        1.31375       -6.22465
| 13> H          2.06372       -2.33262       -6.01532
| 14> H          0.66479       -1.36293       -5.62068
| 15> H          1.55078       -2.17513       -4.35245
| 16> *
| 17>
| 18> %MaxCore 64000
| 19>
| 20> %pal nprocs 4
| 21> end
| 22>
| 23> %scf
| 24>   MaxIter 150
| 25> end
| 26>
| 27>
| 28>                          ****END OF INPUT****

CARTESIAN COORDINATES (ANGSTROEM)
---------------------------------
  C      1.635560   -1.670400   -5.292110
  C      2.484510   -0.507410   -5.140390
  C      3.451150   -0.149530   -5.952590
  N      3.922670    1.089560   -5.850710
  N      3.966160   -1.006180   -6.867880
  H      3.521390   -1.906470   -6.995270
  H      4.444820   -0.623470   -7.670350
  H      2.252000    0.240800   -4.498790
  H      3.464280    1.640780   -5.136390
  H      4.834470    1.313750   -6.224650
  H      2.063720   -2.332620   -6.015320
  H      0.664790   -1.362930   -5.620680
  H      1.550780   -2.175130   -4.352450

 Total Charge           Charge          ....    0
 Multiplicity           Mult            ....    1
 Number of Electrons    NEL             ....   40
 Basis Dimension        Dim             ....  164

ORBITAL ENERGIES
----------------

  NO   OCC          E(Eh)            E(eV)
   0   2.0000     -14.021700      -381.5499
   1   2.0000     -14.019317      -381.4850
   2   2.0000      -9.954643      -270.8796
   3   2.0000      -9.892419      -269.1864
   4   2.0000      -9.848288      -267.9855
   5   2.0000      -0.858460       -23.3599
   6   2.0000      -0.777726       -21.1630
   7   2.0000      -0.671506       -18.2726
   8   2.0000      -0.583492       -15.8776
   9   2.0000      -0.521399       -14.1880
  10   2.0000      -0.481401       -13.0996
  11   2.0000      -0.452353       -12.3091
  12   2.0000      -0.416660       -11.3379
  13   2.0000      -0.374344       -10.1864
  14   2.0000      -0.357599        -9.7308
  15   2.0000      -0.331344        -9.0163
  16   2.0000      -0.311715        -8.4822
  17   2.0000      -0.301363        -8.2005
  18   2.0000      -0.216356        -5.8873
  19   2.0000      -0.127005        -3.4560
  20   0.0000      -0.004196        -0.1142
  21   0.0000       0.021468         0.5842
  22   0.0000       0.033830         0.9206
  23   0.0000       0.049722         1.3530
  24   0.0000       0.063847         1.7374

MULLIKEN ATOMIC CHARGES
-----------------------
   0 C :    1.392373
   1 C :   -0.565690
   2 C :    0.445458
   3 N :    0.304529
   4 N :    0.297850
   5 H :   -0.133739
   6 H :   -0.253338
   7 H :   -0.437589
   8 H :   -0.017445
   9 H :   -0.276310
  10 H :   -0.535604
  11 H :   -0.152253
  12 H :   -0.068240
Sum of atomic charges:    0.0000000

LOEWDIN ATOMIC CHARGES
----------------------
   0 C :    0.122908
   1 C :   -0.057537
   2 C :   -0.243437
   3 N :    0.195406
   4 N :    0.217407
   5 H :   -0.034490
   6 H :   -0.022494
   7 H :   -0.056446
   8 H :   -0.006985
   9 H :   -0.017438
  10 H :   -0.050813
  11 H :   -0.022662
  12 H :   -0.023419

  Mayer bond orders larger than 0.100000
B(  0-C ,  1-C ) :   1.1506 B(  0-C ,  7-H ) :   0.2078 B(  0-C , 10-H ) :   0.5700
B(  0-C , 11-H ) :   0.6681 B(  0-C , 12-H ) :   0.4405 B(  1-C ,  2-C ) :   1.5061
B(  1-C ,  3-N ) :   0.3754 B(  1-C ,  4-N ) :   0.1927 B(  1-C ,  7-H ) :   0.8083
B(  1-C , 10-H ) :   0.5083 B(  1-C , 11-H ) :   0.1649 B(  1-C , 12-H ) :   0.3717
B(  2-C ,  3-N ) :   1.0561 B(  2-C ,  4-N ) :   1.1885 B(  2-C ,  7-H ) :   0.3569
B(  2-C , 10-H ) :  -0.1109 B(  3-N ,  4-N ) :   0.1192 B(  3-N ,  8-H ) :   1.0590
B(  3-N ,  9-H ) :   1.1831 B(  4-N ,  5-H ) :   1.0340 B(  4-N ,  6-H ) :   1.1539
B(  5-H ,  6-H ) :  -0.1428 B(  8-H ,  9-H ) :  -0.1556 B( 10-H , 11-H ) :   0.1189
B( 10-H , 12-H ) :   0.2527

Dispersion correction           -0.019489762
FINAL SINGLE POINT ENERGY      -228.357395471218

DIPOLE MOMENT
-------------
                                X             Y             Z
Electronic contribution:      2.39586       1.85982      -0.75711
Nuclear contribution   :     -1.96139      -1.54412       0.26148
                        -----------------------------------------
Total Dipole Moment    :      0.43448       0.31570      -0.49563
                        -----------------------------------------
Magnitude (a.u.)       :      0.73081
Magnitude (Debye)      :      1.85758

Rotational constants in cm-1:     0.312277     0.136708     0.097371
Rotational constants in MHz :  9361.815989  4098.393303  2919.105491

                             ****ORCA TERMINATED NORMALLY****
TOTAL RUN TIME: 0 days 0 hours 0 minutes 6 seconds 465 msec
