                         Program Version 5.0.0 -  RELEASE  -
|  1> !BLYP D3BJ RIJCOSX def2-SVPD def2/J TightSCF
|  2> *xyz 0 1
|  3> C          1.63556       -1.67040       -5.29211
|  4> N          2.48451       -0.50741       -5.14039
|  5> C          3.45115       -0.14953       -5.95259
|  6> C          3.92267        1.08956       -5.85071
|  7> N          3.96616       -1.00618       -6.86788
|  8> H          3.52139       -1.90647       -6.99527
|  9> H          4.44482       -0.62347       -7.67035
| 10> H          2.25200        0.24080       -4.49879
| 11> H          3.46428        1.64078       -5.13639
| 12> H          4.83447        1.31375       -6.22465
| 13> H          2.06372       -2.33262       -6.01532
| 14> H          0.66479       -1.36293       -5.62068
| 15> H          1.55078       -2.17513       -4.35245
| 16> *
| 17>
| 18> %MaxCore 64000
| 19>
| 20> %pal nprocs 4
| 21> end
| 22>
| 23> %scf
| 24>   MaxIter 150
| 25> end
| 26>
| 27>
| 28>                          ****END OF INPUT****

CARTESIAN COORDINATES (ANGSTROEM)
---------------------------------
  C      1.635560   -1.670400   -5.292110
  N      2.484510   -0.507410   -5.140390
  C      3.451150   -0.149530   -5.952590
  C      3.922670    1.089560   -5.850710
  N      3.966160   -1.006180   -6.867880
  H      3.521390   -1.906470   -6.995270
  H      4.444820   -0.623470   -7.670350
  H      2.252000    0.240800   -4.498790
  H      3.464280    1.640780   -5.136390
  H      4.834470    1.313750   -6.224650
  H      2.063720   -2.332620   -6.015320
  H      0.664790   -1.362930   -5.620680
  H      1.550780   -2.175130   -4.352450

 Total Charge           Charge          ....    0
 Multiplicity           Mult            ....    1
 Number of Electrons    NEL             ....   40
 Basis Dimension        Dim             ....  164

ORBITAL ENERGIES
----------------

  NO   OCC          E(Eh)            E(eV)
   0   2.0000     -14.025879      -381.6636
   1   2.0000     -14.023914      -381.6101
   2   2.0000      -9.960332      -271.0344
   3   2.0000      -9.958145      -270.9749
   4   2.0000      -9.834073      -267.5987
   5   2.0000      -0.872440       -23.7403
   6   2.0000      -0.790442       -21.5090
   7   2.0000      -0.669968       -18.2307
   8   2.0000      -0.589653       -16.0453
   9   2.0000      -0.536850       -14.6084
  10   2.0000      -0.480798       -13.0832
  11   2.0000      -0.438899       -11.9430
  12   2.0000      -0.425646       -11.5824
  13   2.0000      -0.402874       -10.9628
  14   2.0000      -0.363313        -9.8862
  15   2.0000      -0.341631        -9.2963
  16   2.0000      -0.332353        -9.0438
  17   2.0000      -0.312486        -8.5032
  18   2.0000      -0.211664        -5.7597
  19   2.0000      -0.127131        -3.4594
  20   0.0000      -0.008720        -0.2373
  21   0.0000       0.021736         0.5915
  22   0.0000       0.026576         0.7232
  23   0.0000       0.048290         1.3140
  24   0.0000       0.066127         1.7994

MULLIKEN ATOMIC CHARGES
-----------------------
   0 C :    1.721496
   1 N :   -0.337592
   2 C :    0.333893
   3 C :    0.750133
   4 N :    0.360728
   5 H :   -0.278386
   6 H :   -0.158476
   7 H :   -0.325850
   8 H :   -0.369966
   9 H :   -0.621961
  10 H :   -0.495532
  11 H :   -0.281790
  12 H :   -0.296697
Sum of atomic charges:    0.0000000

LOEWDIN ATOMIC CHARGES
----------------------
   0 C :    0.231482
   1 N :   -0.024559
   2 C :   -0.249861
   3 C :    0.151132
   4 N :    0.219879
   5 H :   -0.048245
   6 H :   -0.002353
   7 H :    0.025230
   8 H :   -0.112975
   9 H :   -0.107363
  10 H :   -0.040865
  11 H :   -0.021919
  12 H :   -0.019583

  Mayer bond orders larger than 0.100000
B(  0-C ,  1-N ) :   0.9875 B(  0-C ,  7-H ) :  -0.2036 B(  0-C , 10-H ) :   0.6504
B(  0-C , 11-H ) :   0.6337 B(  0-C , 12-H ) :   0.5853 B(  1-N ,  2-C ) :   1.1267
B(  1-N ,  3-C ) :   0.2775 B(  1-N ,  7-H ) :   1.2547 B(  1-N , 10-H ) :   0.3001
B(  1-N , 11-H ) :   0.2042 B(  1-N , 12-H ) :   0.2813 B(  2-C ,  3-C ) :   1.5004
B(  2-C ,  4-N ) :   1.0834 B(  2-C ,  6-H ) :  -0.1111 B(  2-C ,  7-H ) :  -0.2003
B(  2-C ,  8-H ) :   0.2978 B(  2-C ,  9-H ) :   0.2935 B(  3-C ,  4-N ) :   0.2645
B(  3-C ,  8-H ) :   0.7029 B(  3-C ,  9-H ) :   0.5044 B(  4-N ,  5-H ) :   1.0253
B(  4-N ,  6-H ) :   1.1690 B(  5-H ,  6-H ) :  -0.1645 B(  5-H , 10-H ) :   0.1249

Dispersion correction           -0.019328347
FINAL SINGLE POINT ENERGY      -228.344109802103

DIPOLE MOMENT
-------------
                                X             Y             Z
Electronic contribution:      1.02115       0.30287      -0.21211
Nuclear contribution   :     -1.67010      -1.22066       0.11760
                        -----------------------------------------
Total Dipole Moment    :     -0.64894      -0.91780      -0.09451
                        -----------------------------------------
Magnitude (a.u.)       :      1.12801
Magnitude (Debye)      :      2.86718

Rotational constants in cm-1:     0.314526     0.141398     0.099973
Rotational constants in MHz :  9429.255015  4239.015262  2997.111162

                             ****ORCA TERMINATED NORMALLY****
TOTAL RUN TIME: 0 days 0 hours 0 minutes 6 seconds 341 msec
