                         Program Version 5.0.0 -  RELEASE  -
|  1> !BLYP D3BJ RIJCOSX def2-SVPD def2/J TightSCF
|  2> *xyz 0 1
|  3> C          1.63556       -1.67040       -5.29211
|  4> N          2.48451       -0.50741       -5.14039
|  5> C          3.45115       -0.14953       -5.95259
|  6> N          3.92267        1.08956       -5.85071
|  7> C          3.96616       -1.00618       -6.86788
|  8> H          3.52139       -1.90647       -6.99527
|  9> H          4.44482       -0.62347       -7.67035
| 10> H          2.25200        0.24080       -4.49879
| 11> H          3.46428        1.64078       -5.13639
| 12> H          4.83447        1.31375       -6.22465
| 13> H          2.06372       -2.33262       -6.01532
| 14> H          0.66479       -1.36293       -5.62068
| 15> H          1.55078       -2.17513       -4.35245
| 16> *
| 17>
| 18> %MaxCore 64000
| 19>
| 20> %pal nprocs 4
| 21> end
| 22>
| 23> %scf
| 24>   MaxIter 150
| 25> end
| 26>
| 27>
| 28>                          ****END OF INPUT****

CARTESIAN COORDINATES (ANGSTROEM)
---------------------------------
  C      1.635560   -1.670400   -5.292110
  N      2.484510   -0.507410   -5.140390
  C      3.451150   -0.149530   -5.952590
  N      3.922670    1.089560   -5.850710
  C      3.966160   -1.006180   -6.867880
  H      3.521390   -1.906470   -6.995270
  H      4.444820   -0.623470   -7.670350
  H      2.252000    0.240800   -4.498790
  H      3.464280    1.640780   -5.136390
  H      4.834470    1.313750   -6.224650
  H      2.063720   -2.332620   -6.015320
  H      0.664790   -1.362930   -5.620680
  H      1.550780   -2.175130   -4.352450

 Total Charge           Charge          ....    0
 Multiplicity           Mult            ....    1
 Number of Electrons    NEL             ....   40
 Basis Dimension        Dim             ....  164

ORBITAL ENERGIES
----------------

  NO   OCC          E(Eh)            E(eV)
   0   2.0000     -14.030660      -381.7937
   1   2.0000     -14.026653      -381.6846
   2   2.0000      -9.962331      -271.0888
   3   2.0000      -9.949718      -270.7456
   4   2.0000      -9.834704      -267.6159
   5   2.0000      -0.880173       -23.9507
   6   2.0000      -0.794772       -21.6268
   7   2.0000      -0.641287       -17.4503
   8   2.0000      -0.622417       -16.9368
   9   2.0000      -0.504637       -13.7319
  10   2.0000      -0.487801       -13.2738
  11   2.0000      -0.472574       -12.8594
  12   2.0000      -0.409819       -11.1517
  13   2.0000      -0.398434       -10.8419
  14   2.0000      -0.367372        -9.9967
  15   2.0000      -0.335886        -9.1399
  16   2.0000      -0.321914        -8.7597
  17   2.0000      -0.312742        -8.5101
  18   2.0000      -0.209739        -5.7073
  19   2.0000      -0.128752        -3.5035
  20   0.0000      -0.011071        -0.3013
  21   0.0000       0.018859         0.5132
  22   0.0000       0.031312         0.8521
  23   0.0000       0.045178         1.2294
  24   0.0000       0.067927         1.8484

MULLIKEN ATOMIC CHARGES
-----------------------
   0 C :    1.739156
   1 N :   -0.288145
   2 C :    0.314859
   3 N :    0.359981
   4 C :    0.671395
   5 H :   -0.496625
   6 H :   -0.454384
   7 H :   -0.446056
   8 H :   -0.212088
   9 H :   -0.161872
  10 H :   -0.484635
  11 H :   -0.278340
  12 H :   -0.263246
Sum of atomic charges:    0.0000000

LOEWDIN ATOMIC CHARGES
----------------------
   0 C :    0.240610
   1 N :   -0.028319
   2 C :   -0.256351
   3 N :    0.208026
   4 C :    0.169815
   5 H :   -0.140140
   6 H :   -0.114059
   7 H :    0.010376
   8 H :   -0.022386
   9 H :    0.005105
  10 H :   -0.036152
  11 H :   -0.018428
  12 H :   -0.018098

  Mayer bond orders larger than 0.100000
B(  0-C ,  1-N ) :   0.9913 B(  0-C ,  7-H ) :  -0.1823 B(  0-C , 10-H ) :   0.6390
B(  0-C , 11-H ) :   0.5977 B(  0-C , 12-H ) :   0.5669 B(  1-N ,  2-C ) :   1.1367
B(  1-N ,  3-N ) :   0.1739 B(  1-N ,  4-C ) :   0.3141 B(  1-N ,  7-H ) :   1.2561
B(  1-N , 10-H ) :   0.2599 B(  1-N , 11-H ) :   0.2455 B(  1-N , 12-H ) :   0.2760
B(  2-C ,  3-N ) :   1.0207 B(  2-C ,  4-C ) :   1.7129 B(  2-C ,  5-H ) :   0.2827
B(  2-C ,  6-H ) :   0.2889 B(  2-C ,  7-H ) :  -0.2183 B(  3-N ,  4-C ) :   0.3081
B(  3-N ,  8-H ) :   1.0675 B(  3-N ,  9-H ) :   1.1900 B(  4-C ,  5-H ) :   0.5485
B(  4-C ,  6-H ) :   0.5993 B(  5-H ,  6-H ) :   0.3004 B(  5-H , 10-H ) :   0.1885
B(  8-H ,  9-H ) :  -0.1431

Dispersion correction           -0.019431362
FINAL SINGLE POINT ENERGY      -228.343538476631

DIPOLE MOMENT
-------------
                                X             Y             Z
Electronic contribution:      1.06069       2.32269       0.84796
Nuclear contribution   :     -1.66129      -1.64514      -0.08842
                        -----------------------------------------
Total Dipole Moment    :     -0.60060       0.67755       0.75954
                        -----------------------------------------
Magnitude (a.u.)       :      1.18182
Magnitude (Debye)      :      3.00394

Rotational constants in cm-1:     0.330436     0.136339     0.098902
Rotational constants in MHz :  9906.231858  4087.333233  2964.994979

                             ****ORCA TERMINATED NORMALLY****
TOTAL RUN TIME: 0 days 0 hours 0 minutes 6 seconds 310 msec
