                         Program Version 5.0.0 -  RELEASE  -
|  1> !BLYP D3BJ RIJCOSX def2-SVPD def2/J TightSCF xyzfile
|  2>
|  3> *xyzfile 0 1 D3.xyz
|  4>
|  5> %MaxCore 64000
|  6>
|  7> %pal nprocs 4
|  8> end
|  9>
| 10> %scf
| 11>   MaxIter 150
| 12> end
| 13>
| 14>
| 15>                          ****END OF INPUT****

CARTESIAN COORDINATES (ANGSTROEM)
---------------------------------
  C      1.635557   -1.670396   -5.292109
  C      0.338484   -1.500907   -4.505398
  N      2.484511   -0.507410   -5.140392
  C     -0.684873   -0.528026   -5.099889
  C     -0.290406    0.951335   -5.153423
  H      0.607991    1.070692   -5.764412
  C     -0.055168    1.619420   -3.788577
  H     -1.080912    1.483775   -5.689436
  H      0.045006    0.862302   -3.003015
  H     -0.922936    2.230329   -3.517028
  C      1.223022    2.469865   -3.756911
  H      1.114701    3.258074   -4.532999
  H      1.237732    3.011242   -2.792157
  F      2.353815    1.712032   -3.934477
  H      1.398337   -1.829239   -6.352591
  H      2.155864   -2.565398   -4.932091
  C      3.451149   -0.149530   -5.952589
  N      3.922667    1.089559   -5.850711
  C      3.966162   -1.006183   -6.867880
  H      3.521391   -1.906467   -6.995270
  H      4.444824   -0.623472   -7.670348
  H      2.251995    0.240804   -4.498792
  H      3.464277    1.640782   -5.136392
  H      4.834470    1.313745   -6.224653
  H     -0.937999   -0.869056   -6.110838
  H     -1.604638   -0.622496   -4.513132
  H      0.594887   -1.211578   -3.482312
  H     -0.126530   -2.487656   -4.434176

 Total Charge           Charge          ....    0
 Multiplicity           Mult            ....    1
 Number of Electrons    NEL             ....   88
 Basis Dimension        Dim             ....  359

ORBITAL ENERGIES
----------------

  NO   OCC          E(Eh)            E(eV)
   0   2.0000     -24.349118      -662.5732
   1   2.0000     -13.999198      -380.9375
   2   2.0000     -13.997369      -380.8878
   3   2.0000     -10.028302      -272.8840
   4   2.0000      -9.946467      -270.6571
   5   2.0000      -9.942131      -270.5391
   6   2.0000      -9.941411      -270.5195
   7   2.0000      -9.929276      -270.1893
   8   2.0000      -9.926093      -270.1027
   9   2.0000      -9.922943      -270.0170
  10   2.0000      -9.818539      -267.1760
  11   2.0000      -1.139893       -31.0181
  12   2.0000      -0.859188       -23.3797
  13   2.0000      -0.777250       -21.1500
  14   2.0000      -0.737058       -20.0564
  15   2.0000      -0.696731       -18.9590
  16   2.0000      -0.650649       -17.7051
  17   2.0000      -0.615134       -16.7387
  18   2.0000      -0.586022       -15.9465
  19   2.0000      -0.564702       -15.3663
  20   2.0000      -0.514711       -14.0060
  21   2.0000      -0.509915       -13.8755
  22   2.0000      -0.495625       -13.4866
  23   2.0000      -0.472145       -12.8477
  24   2.0000      -0.468532       -12.7494
  25   2.0000      -0.441404       -12.0112
  26   2.0000      -0.434867       -11.8333
  27   2.0000      -0.420279       -11.4364
  28   2.0000      -0.409740       -11.1496
  29   2.0000      -0.386964       -10.5298
  30   2.0000      -0.377006       -10.2589
  31   2.0000      -0.366824        -9.9818
  32   2.0000      -0.352155        -9.5826
  33   2.0000      -0.331550        -9.0219
  34   2.0000      -0.329163        -8.9570
  35   2.0000      -0.318359        -8.6630
  36   2.0000      -0.312060        -8.4916
  37   2.0000      -0.307251        -8.3607
  38   2.0000      -0.296770        -8.0755
  39   2.0000      -0.291325        -7.9273
  40   2.0000      -0.282714        -7.6930
  41   2.0000      -0.277581        -7.5534
  42   2.0000      -0.186846        -5.0844
  43   2.0000      -0.113900        -3.0994
  44   0.0000      -0.010568        -0.2876
  45   0.0000       0.005870         0.1597
  46   0.0000       0.011532         0.3138
  47   0.0000       0.014862         0.4044
  48   0.0000       0.025216         0.6862

MULLIKEN ATOMIC CHARGES
-----------------------
   0 C :    0.920106
   1 C :    0.483215
   2 N :    0.479787
   3 C :    0.507059
   4 C :    0.507146
   5 H :   -0.211156
   6 C :    0.302577
   7 H :   -0.450380
   8 H :   -0.180658
   9 H :   -0.338617
  10 C :    1.302893
  11 H :   -0.230178
  12 H :   -0.259071
  13 F :   -0.788664
  14 H :   -0.090765
  15 H :   -0.388863
  16 C :    0.140219
  17 N :    0.755749
  18 C :    0.682711
  19 H :   -0.214043
  20 H :   -0.572286
  21 H :   -0.807629
  22 H :   -0.364536
  23 H :   -0.304130
  24 H :   -0.032300
  25 H :   -0.284070
  26 H :   -0.179091
  27 H :   -0.385023
Sum of atomic charges:   -0.0000000

LOEWDIN ATOMIC CHARGES
----------------------
   0 C :    0.058087
   1 C :   -0.015704
   2 N :    0.022125
   3 C :   -0.015275
   4 C :   -0.012400
   5 H :    0.005760
   6 C :    0.009423
   7 H :    0.015180
   8 H :    0.011630
   9 H :    0.027196
  10 C :    0.153486
  11 H :    0.043672
  12 H :    0.033626
  13 F :   -0.183188
  14 H :    0.020732
  15 H :    0.019696
  16 C :   -0.239881
  17 N :    0.226071
  18 C :    0.169874
  19 H :   -0.134847
  20 H :   -0.120085
  21 H :   -0.071241
  22 H :   -0.087238
  23 H :    0.002206
  24 H :    0.021492
  25 H :    0.016416
  26 H :    0.005876
  27 H :    0.017312

  Mayer bond orders larger than 0.100000
B(  0-C ,  1-C ) :   1.1690 B(  0-C ,  2-N ) :   1.1059 B(  0-C ,  3-C ) :   0.1163
B(  0-C , 14-H ) :   0.6467 B(  0-C , 15-H ) :   0.7131 B(  0-C , 18-C ) :   0.1036
B(  0-C , 21-H ) :  -0.2259 B(  0-C , 26-H ) :   0.1656 B(  0-C , 27-H ) :   0.2625
B(  1-C ,  2-N ) :   0.1442 B(  1-C ,  3-C ) :   1.1879 B(  1-C ,  4-C ) :   0.1518
B(  1-C , 24-H ) :   0.2064 B(  1-C , 25-H ) :   0.2688 B(  1-C , 26-H ) :   0.6401
B(  1-C , 27-H ) :   0.6014 B(  2-N , 13-F ) :  -0.1422 B(  2-N , 14-H ) :   0.3437
B(  2-N , 15-H ) :   0.1630 B(  2-N , 16-C ) :   1.3837 B(  2-N , 18-C ) :   0.1923
B(  2-N , 21-H ) :   0.5209 B(  3-C ,  4-C ) :   1.2632 B(  3-C ,  5-H ) :   0.2075
B(  3-C ,  6-C ) :   0.1146 B(  3-C ,  7-H ) :   0.1811 B(  3-C , 24-H ) :   0.5581
B(  3-C , 25-H ) :   0.6795 B(  3-C , 26-H ) :   0.1922 B(  3-C , 27-H ) :   0.1669
B(  4-C ,  5-H ) :   0.6980 B(  4-C ,  6-C ) :   1.1772 B(  4-C ,  7-H ) :   0.5519
B(  4-C ,  8-H ) :   0.1591 B(  4-C ,  9-H ) :   0.2127 B(  4-C , 10-C ) :   0.1328
B(  4-C , 24-H ) :   0.2843 B(  4-C , 25-H ) :   0.1367 B(  5-H ,  6-C ) :   0.1455
B(  5-H ,  7-H ) :  -0.1025 B(  5-H , 21-H ) :   0.1059 B(  6-C ,  7-H ) :   0.1060
B(  6-C ,  8-H ) :   0.7828 B(  6-C ,  9-H ) :   0.7697 B(  6-C , 10-C ) :   1.1424
B(  6-C , 11-H ) :   0.1451 B(  6-C , 12-H ) :   0.2364 B(  6-C , 13-F ) :   0.1378
B(  8-H ,  9-H ) :  -0.1220 B( 10-C , 11-H ) :   0.6981 B( 10-C , 12-H ) :   0.6678
B( 10-C , 13-F ) :   0.6646 B( 11-H , 13-F ) :   0.3022 B( 13-F , 21-H ) :   0.1964
B( 13-F , 22-H ) :   0.2355 B( 14-H , 15-H ) :  -0.1272 B( 14-H , 25-H ) :  -0.1290
B( 15-H , 24-H ) :  -0.1104 B( 16-C , 17-N ) :   0.9260 B( 16-C , 18-C ) :   1.6788
B( 16-C , 19-H ) :   0.3937 B( 16-C , 20-H ) :   0.3122 B( 16-C , 21-H ) :  -0.4493
B( 16-C , 23-H ) :  -0.1541 B( 17-N , 18-C ) :   0.2440 B( 17-N , 22-H ) :   0.9058
B( 17-N , 23-H ) :   1.2578 B( 18-C , 19-H ) :   0.5233 B( 18-C , 20-H ) :   0.5318
B( 19-H , 20-H ) :   0.2286 B( 22-H , 23-H ) :  -0.1718 B( 24-H , 25-H ) :  -0.1587
B( 26-H , 27-H ) :  -0.1234

Dispersion correction           -0.057369429
FINAL SINGLE POINT ENERGY      -523.829576531654

DIPOLE MOMENT
-------------
                                X             Y             Z
Electronic contribution:      6.29682       4.43057       2.80099
Nuclear contribution   :     -7.84660      -3.08098      -1.66782
                        -----------------------------------------
Total Dipole Moment    :     -1.54978       1.34959       1.13316
                        -----------------------------------------
Magnitude (a.u.)       :      2.34676
Magnitude (Debye)      :      5.96498

Rotational constants in cm-1:     0.043547     0.029898     0.020008
Rotational constants in MHz :  1305.520367   896.323854   599.829375

                             ****ORCA TERMINATED NORMALLY****
TOTAL RUN TIME: 0 days 0 hours 0 minutes 29 seconds 363 msec
