                         Program Version 5.0.0 -  RELEASE  -
|  1> !wB97X-D3 RIJCOSX def2-SVPD def2/J TightSCF
|  2> *xyz -1 1
|  3> C         -2.45380        0.05510        6.94145
|  4> C         -2.07842        1.48042        6.56410
|  5> O         -0.90125        1.85816        6.82810
|  6> O         -2.93658        2.17731        5.96415
|  7> H         -3.47026       -0.13135        6.66407
|  8> H         -2.34265       -0.07527        7.99765
|  9> H         -1.81248       -0.63046        6.42801
| 10> *
| 11> %MaxCore 64000
| 12>
| 13> %pal nprocs 18
| 14> end
| 15>
| 16> %scf
| 17>   MaxIter 150
| 18> end
| 19>
| 20>
| 21>                          ****END OF INPUT****

CARTESIAN COORDINATES (ANGSTROEM)
---------------------------------
  C     -2.453800    0.055100    6.941450
  C     -2.078420    1.480420    6.564100
  O     -0.901250    1.858160    6.828100
  O     -2.936580    2.177310    5.964150
  H     -3.470260   -0.131350    6.664070
  H     -2.342650   -0.075270    7.997650
  H     -1.812480   -0.630460    6.428010

 Total Charge           Charge          ....   -1
 Multiplicity           Mult            ....    1
 Number of Electrons    NEL             ....   32
 Basis Dimension        Dim             ....  110

ORBITAL ENERGIES
----------------

  NO   OCC          E(Eh)            E(eV)
   0   2.0000     -18.979505      -516.4586
   1   2.0000     -18.976836      -516.3860
   2   2.0000     -10.176434      -276.9149
   3   2.0000     -10.103080      -274.9188
   4   2.0000      -0.922201       -25.0944
   5   2.0000      -0.825650       -22.4671
   6   2.0000      -0.655108       -17.8264
   7   2.0000      -0.407331       -11.0840
   8   2.0000      -0.362515        -9.8645
   9   2.0000      -0.347298        -9.4505
  10   2.0000      -0.326105        -8.8738
  11   2.0000      -0.281772        -7.6674
  12   2.0000      -0.262726        -7.1491
  13   2.0000      -0.139406        -3.7934
  14   2.0000      -0.136842        -3.7237
  15   2.0000      -0.120484        -3.2785
  16   0.0000       0.239169         6.5081
  17   0.0000       0.273973         7.4552
  18   0.0000       0.296529         8.0690
  19   0.0000       0.309627         8.4254
  20   0.0000       0.334616         9.1054

MULLIKEN ATOMIC CHARGES
-----------------------
   0 C :    0.429114
   1 C :    0.054963
   2 O :   -0.687728
   3 O :   -0.653921
   4 H :   -0.061271
   5 H :   -0.039766
   6 H :   -0.041392
Sum of atomic charges:   -1.0000000

LOEWDIN ATOMIC CHARGES
----------------------
   0 C :    0.135666
   1 C :   -0.331030
   2 O :   -0.354237
   3 O :   -0.345653
   4 H :   -0.040097
   5 H :   -0.033214
   6 H :   -0.031435

  Mayer bond orders larger than 0.100000
B(  0-C ,  1-C ) :   1.2058 B(  0-C ,  4-H ) :   0.8742 B(  0-C ,  5-H ) :   0.8215
B(  0-C ,  6-H ) :   0.8299 B(  1-C ,  2-O ) :   1.5168 B(  1-C ,  3-O ) :   1.5280
B(  1-C ,  4-H ) :   0.2339 B(  1-C ,  5-H ) :   0.1592 B(  1-C ,  6-H ) :   0.1529

Dispersion correction           -0.000905266
FINAL SINGLE POINT ENERGY      -228.305206595872

DIPOLE MOMENT
-------------
                                X             Y             Z
Electronic contribution:      0.85353       3.29753      -0.89308
Nuclear contribution   :     -1.26064      -4.68337       1.27880
                        -----------------------------------------
Total Dipole Moment    :     -0.40711      -1.38585       0.38572
                        -----------------------------------------
Magnitude (a.u.)       :      1.49502
Magnitude (Debye)      :      3.80004

Rotational constants in cm-1:     0.391994     0.333933     0.186475
Rotational constants in MHz : 11751.676689 10011.065304  5590.392476

                             ****ORCA TERMINATED NORMALLY****
TOTAL RUN TIME: 0 days 0 hours 0 minutes 4 seconds 794 msec
