                         Program Version 5.0.0 -  RELEASE  -
|  1> !wB97X-D3 RIJCOSX def2-SVPD def2/J TightSCF
|  2> *xyz 1 1
|  3> C         -0.69912        3.48945        3.75516
|  4> N         -1.08067        3.79296        5.15686
|  5> H         -0.87449        4.76274        5.42734
|  6> H         -0.68079        3.13476        5.83900
|  7> H         -2.05755        3.53169        5.34620
|  8> H         -1.14600        4.20803        3.10030
|  9> H         -1.04188        2.50941        3.49644
| 10> H          0.36562        3.53208        3.65813
| 11> *
| 12> %MaxCore 64000
| 13>
| 14> %pal nprocs 18
| 15> end
| 16>
| 17> %scf
| 18>   MaxIter 150
| 19> end
| 20>
| 21>
| 22>                          ****END OF INPUT****

CARTESIAN COORDINATES (ANGSTROEM)
---------------------------------
  C     -0.699120    3.489450    3.755160
  N     -1.080670    3.792960    5.156860
  H     -0.874490    4.762740    5.427340
  H     -0.680790    3.134760    5.839000
  H     -2.057550    3.531690    5.346200
  H     -1.146000    4.208030    3.100300
  H     -1.041880    2.509410    3.496440
  H      0.365620    3.532080    3.658130

 Total Charge           Charge          ....    1
 Multiplicity           Mult            ....    1
 Number of Electrons    NEL             ....   18
 Basis Dimension        Dim             ....   88

ORBITAL ENERGIES
----------------

  NO   OCC          E(Eh)            E(eV)
   0   2.0000     -14.788783      -402.4232
   1   2.0000     -10.548093      -287.0282
   2   2.0000      -1.337013       -36.3820
   3   2.0000      -1.050893       -28.5963
   4   2.0000      -0.929170       -25.2840
   5   2.0000      -0.890940       -24.2437
   6   2.0000      -0.818744       -22.2791
   7   2.0000      -0.727089       -19.7851
   8   2.0000      -0.720746       -19.6125
   9   0.0000      -0.122462        -3.3324
  10   0.0000      -0.055082        -1.4988
  11   0.0000      -0.052750        -1.4354
  12   0.0000      -0.049880        -1.3573
  13   0.0000      -0.001015        -0.0276

MULLIKEN ATOMIC CHARGES
-----------------------
   0 C :    0.777660
   1 N :   -0.893344
   2 H :    0.396156
   3 H :    0.369316
   4 H :    0.383422
   5 H :   -0.013074
   6 H :   -0.014531
   7 H :   -0.005604
Sum of atomic charges:    1.0000000

LOEWDIN ATOMIC CHARGES
----------------------
   0 C :    0.283198
   1 N :    0.301076
   2 H :    0.115957
   3 H :    0.110047
   4 H :    0.109660
   5 H :    0.026876
   6 H :    0.026917
   7 H :    0.026269

  Mayer bond orders larger than 0.100000
B(  0-C ,  1-N ) :   0.7478 B(  0-C ,  5-H ) :   0.9177 B(  0-C ,  6-H ) :   0.9147
B(  0-C ,  7-H ) :   0.9207 B(  1-N ,  2-H ) :   0.7473 B(  1-N ,  3-H ) :   0.8023
B(  1-N ,  4-H ) :   0.7778

Dispersion correction           -0.000518568
FINAL SINGLE POINT ENERGY       -96.120593899691

DIPOLE MOMENT
-------------
                                X             Y             Z
Electronic contribution:     -0.25088       0.28463       0.99893
Nuclear contribution   :     -0.00699      -0.18064      -0.14199
                        -----------------------------------------
Total Dipole Moment    :     -0.25787       0.10399       0.85694
                        -----------------------------------------
Magnitude (a.u.)       :      0.90092
Magnitude (Debye)      :      2.28996

Rotational constants in cm-1:     2.906310     0.688008     0.676648
Rotational constants in MHz : 87128.982229 20625.947414 20285.402367

                             ****ORCA TERMINATED NORMALLY****
TOTAL RUN TIME: 0 days 0 hours 0 minutes 3 seconds 538 msec
