                         Program Version 5.0.0 -  RELEASE  -
|  1> !wB97X-D3 RIJCOSX def2-SVPD def2/J TightSCF xyzfile
|  2>
|  3> *xyzfile 0 1 B.xyz
|  4>
|  5> %MaxCore 64000
|  6>
|  7> %pal nprocs 18
|  8> end
|  9>
| 10> %scf
| 11>   MaxIter 150
| 12> end
| 13>
| 14>
| 15>                          ****END OF INPUT****

CARTESIAN COORDINATES (ANGSTROEM)
---------------------------------
  C     -0.699123    3.489451    3.755163
  H     -0.966716    4.349013    3.140491
  N     -1.080669    3.792957    5.156857
  C      0.776956    3.138391    3.617408
  H     -1.331455    2.656510    3.446323
  H      1.371398    3.888342    4.149744
  H      1.046926    3.232057    2.561331
  C      1.118917    1.731170    4.115155
  H      2.200573    1.654226    4.254882
  C      0.659466    0.635182    3.153306
  H      0.677024    1.576674    5.103150
  H      1.312288    0.638870    2.274207
  H     -0.339563    0.868049    2.772876
  C      0.639957   -0.771175    3.755619
  C     -0.341821   -0.965537    4.915046
  H      1.648266   -1.028665    4.097015
  H      0.398568   -1.482386    2.958453
  H     -0.279892   -2.005646    5.252547
  C     -1.789164   -0.639231    4.557496
  H     -0.032380   -0.352918    5.765118
  H     -2.107151   -1.270102    3.719619
  H     -1.856352    0.391636    4.197604
  C     -2.790700   -0.785275    5.702812
  H     -2.867308   -1.835651    6.001675
  H     -3.774554   -0.486577    5.334807
  C     -2.453797    0.055101    6.941445
  C     -2.078419    1.480421    6.564098
  H     -1.625584   -0.382163    7.498914
  H     -3.325274    0.087746    7.599175
  H     -0.874488    4.762737    5.427344
  H     -0.680793    3.134762    5.839000
  H     -2.057550    3.531691    5.346197
  O     -0.901252    1.858156    6.828104
  O     -2.936582    2.177309    5.964151

 Total Charge           Charge          ....    0
 Multiplicity           Mult            ....    1
 Number of Electrons    NEL             ....  104
 Basis Dimension        Dim             ....  434

ORBITAL ENERGIES
----------------

  NO   OCC          E(Eh)            E(eV)
   0   2.0000     -19.182455      -521.9811
   1   2.0000     -19.181149      -521.9456
   2   2.0000     -14.520275      -395.1168
   3   2.0000     -10.368745      -282.1479
   4   2.0000     -10.361051      -281.9385
   5   2.0000     -10.313590      -280.6471
   6   2.0000     -10.288792      -279.9723
   7   2.0000     -10.285776      -279.8902
   8   2.0000     -10.279068      -279.7077
   9   2.0000     -10.270206      -279.4665
  10   2.0000     -10.269943      -279.4594
  11   2.0000     -10.268563      -279.4218
  12   2.0000     -10.261725      -279.2357
  13   2.0000      -1.137789       -30.9608
  14   2.0000      -1.092141       -29.7187
  15   2.0000      -1.034228       -28.1428
  16   2.0000      -0.935052       -25.4440
  17   2.0000      -0.906210       -24.6592
  18   2.0000      -0.877381       -23.8747
  19   2.0000      -0.829435       -22.5701
  20   2.0000      -0.796850       -21.6834
  21   2.0000      -0.757093       -20.6016
  22   2.0000      -0.717942       -19.5362
  23   2.0000      -0.701704       -19.0943
  24   2.0000      -0.682321       -18.5669
  25   2.0000      -0.657035       -17.8788
  26   2.0000      -0.648854       -17.6562
  27   2.0000      -0.604432       -16.4474
  28   2.0000      -0.585230       -15.9249
  29   2.0000      -0.577277       -15.7085
  30   2.0000      -0.576084       -15.6760
  31   2.0000      -0.549190       -14.9442
  32   2.0000      -0.544760       -14.8237
  33   2.0000      -0.533753       -14.5242
  34   2.0000      -0.522674       -14.2227
  35   2.0000      -0.508040       -13.8245
  36   2.0000      -0.499931       -13.6038
  37   2.0000      -0.499663       -13.5965
  38   2.0000      -0.484753       -13.1908
  39   2.0000      -0.477943       -13.0055
  40   2.0000      -0.459071       -12.4920
  41   2.0000      -0.453605       -12.3432
  42   2.0000      -0.446865       -12.1598
  43   2.0000      -0.430738       -11.7210
  44   2.0000      -0.419715       -11.4210
  45   2.0000      -0.415391       -11.3034
  46   2.0000      -0.400650       -10.9023
  47   2.0000      -0.394718       -10.7408
  48   2.0000      -0.388809       -10.5800
  49   2.0000      -0.344561        -9.3760
  50   2.0000      -0.330919        -9.0048
  51   2.0000      -0.330655        -8.9976
  52   0.0000       0.068313         1.8589
  53   0.0000       0.094971         2.5843
  54   0.0000       0.100018         2.7216
  55   0.0000       0.105134         2.8608
  56   0.0000       0.116975         3.1830

MULLIKEN ATOMIC CHARGES
-----------------------
   0 C :    1.028652
   1 H :   -0.174760
   2 N :   -0.756333
   3 C :    0.269341
   4 H :   -0.264297
   5 H :   -0.053890
   6 H :   -0.038561
   7 C :    0.680426
   8 H :    0.009259
   9 C :    0.001355
  10 H :   -0.708483
  11 H :   -0.234193
  12 H :   -0.135021
  13 C :    0.685946
  14 C :   -0.019875
  15 H :   -0.113524
  16 H :    0.043749
  17 H :   -0.267567
  18 C :    0.267120
  19 H :   -0.001319
  20 H :   -0.083345
  21 H :   -0.524019
  22 C :    0.410507
  23 H :   -0.171969
  24 H :    0.079445
  25 C :    0.290397
  26 C :    0.339668
  27 H :    0.130417
  28 H :   -0.128123
  29 H :    0.366986
  30 H :    0.240839
  31 H :    0.269954
  32 O :   -0.736902
  33 O :   -0.701881
Sum of atomic charges:    0.0000000

LOEWDIN ATOMIC CHARGES
----------------------
   0 C :    0.101260
   1 H :    0.033760
   2 N :    0.325081
   3 C :   -0.011936
   4 H :    0.025906
   5 H :    0.025314
   6 H :    0.029085
   7 C :   -0.008113
   8 H :    0.031044
   9 C :   -0.032712
  10 H :   -0.013589
  11 H :    0.023920
  12 H :   -0.001022
  13 C :   -0.028240
  14 C :   -0.022902
  15 H :    0.023828
  16 H :    0.022469
  17 H :    0.027173
  18 C :   -0.028031
  19 H :   -0.000378
  20 H :    0.028018
  21 H :   -0.005757
  22 C :   -0.018095
  23 H :    0.020736
  24 H :    0.024911
  25 C :    0.035270
  26 C :   -0.184933
  27 H :    0.019961
  28 H :    0.031016
  29 H :    0.096610
  30 H :   -0.054036
  31 H :   -0.018129
  32 O :   -0.253116
  33 O :   -0.244374

  Mayer bond orders larger than 0.100000
B(  0-C ,  1-H ) :   0.7786 B(  0-C ,  2-N ) :   0.5981 B(  0-C ,  3-C ) :   1.1415
B(  0-C ,  4-H ) :   0.6815 B(  0-C ,  6-H ) :   0.1026 B(  0-C ,  7-C ) :   0.1835
B(  0-C , 10-H ) :  -0.1744 B(  1-H ,  3-C ) :   0.1323 B(  2-N ,  4-H ) :   0.2786
B(  2-N , 26-C ) :   0.1232 B(  2-N , 29-H ) :   0.8288 B(  2-N , 30-H ) :   0.7613
B(  2-N , 31-H ) :   0.7369 B(  3-C ,  4-H ) :   0.1507 B(  3-C ,  5-H ) :   0.7572
B(  3-C ,  6-H ) :   0.8229 B(  3-C ,  7-C ) :   1.1363 B(  3-C , 10-H ) :   0.1754
B(  4-H , 12-H ) :   0.1093 B(  4-H , 21-H ) :   0.1688 B(  5-H ,  7-C ) :   0.1243
B(  7-C ,  8-H ) :   0.7164 B(  7-C ,  9-C ) :   1.0991 B(  7-C , 10-H ) :   0.4255
B(  7-C , 11-H ) :   0.1940 B(  8-H ,  9-C ) :   0.1807 B(  9-C , 10-H ) :   0.2603
B(  9-C , 11-H ) :   0.9079 B(  9-C , 12-H ) :   0.8966 B(  9-C , 13-C ) :   1.1686
B(  9-C , 15-H ) :   0.1345 B(  9-C , 16-H ) :   0.2253 B( 10-H , 13-C ) :  -0.1099
B( 10-H , 19-H ) :   0.1265 B( 13-C , 14-C ) :   1.1237 B( 13-C , 15-H ) :   0.6987
B( 13-C , 16-H ) :   0.6987 B( 14-C , 15-H ) :   0.2670 B( 14-C , 17-H ) :   0.9356
B( 14-C , 18-C ) :   1.1400 B( 14-C , 19-H ) :   0.8898 B( 14-C , 20-H ) :   0.1748
B( 14-C , 21-H ) :   0.2211 B( 15-H , 16-H ) :  -0.1151 B( 17-H , 18-C ) :   0.1538
B( 18-C , 20-H ) :   0.6906 B( 18-C , 21-H ) :   0.7576 B( 18-C , 22-C ) :   1.2353
B( 18-C , 23-H ) :   0.1722 B( 18-C , 24-H ) :   0.2333 B( 20-H , 21-H ) :   0.1696
B( 21-H , 22-C ) :   0.1245 B( 22-C , 23-H ) :   0.8262 B( 22-C , 24-H ) :   0.6847
B( 22-C , 25-C ) :   1.1476 B( 22-C , 28-H ) :   0.1589 B( 23-H , 24-H ) :  -0.1263
B( 23-H , 25-C ) :   0.1279 B( 24-H , 25-C ) :   0.1003 B( 25-C , 26-C ) :   1.1698
B( 25-C , 27-H ) :   0.7993 B( 25-C , 28-H ) :   0.6894 B( 26-C , 27-H ) :   0.1838
B( 26-C , 28-H ) :   0.2648 B( 26-C , 32-O ) :   1.3155 B( 26-C , 33-O ) :   1.3067
B( 30-H , 32-O ) :   0.2432 B( 31-H , 33-O ) :   0.2035

Dispersion correction           -0.017663531
FINAL SINGLE POINT ENERGY      -598.406496149948

DIPOLE MOMENT
-------------
                                X             Y             Z
Electronic contribution:     -4.65166       4.84977       6.68182
Nuclear contribution   :      5.60885      -3.40606      -8.06960
                        -----------------------------------------
Total Dipole Moment    :      0.95719       1.44371      -1.38778
                        -----------------------------------------
Magnitude (a.u.)       :      2.21956
Magnitude (Debye)      :      5.64166

Rotational constants in cm-1:     0.028465     0.023505     0.015110
Rotational constants in MHz :   853.363165   704.655786   452.976312

                             ****ORCA TERMINATED NORMALLY****
TOTAL RUN TIME: 0 days 0 hours 1 minutes 39 seconds 698 msec
