                         Program Version 5.0.0 -  RELEASE  -
|  1> !wB97X-D3 RIJCOSX def2-SVPD def2/J TightSCF
|  2> *xyz 0 1
|  3> C         -2.45380        0.05510        6.94145
|  4> C         -2.07842        1.48042        6.56410
|  5> F         -0.90125        1.85816        6.82810
|  6> O         -2.93658        2.17731        5.96415
|  7> H         -3.47026       -0.13135        6.66407
|  8> H         -2.34265       -0.07527        7.99765
|  9> H         -1.81248       -0.63046        6.42801
| 10> *
| 11> %MaxCore 64000
| 12>
| 13> %pal nprocs 18
| 14> end
| 15>
| 16> %scf
| 17>   MaxIter 150
| 18> end
| 19>
| 20>
| 21>                          ****END OF INPUT****

CARTESIAN COORDINATES (ANGSTROEM)
---------------------------------
  C     -2.453800    0.055100    6.941450
  C     -2.078420    1.480420    6.564100
  F     -0.901250    1.858160    6.828100
  O     -2.936580    2.177310    5.964150
  H     -3.470260   -0.131350    6.664070
  H     -2.342650   -0.075270    7.997650
  H     -1.812480   -0.630460    6.428010

 Total Charge           Charge          ....    0
 Multiplicity           Mult            ....    1
 Number of Electrons    NEL             ....   32
 Basis Dimension        Dim             ....  110

ORBITAL ENERGIES
----------------

  NO   OCC          E(Eh)            E(eV)
   0   2.0000     -24.875403      -676.8941
   1   2.0000     -19.258599      -524.0531
   2   2.0000     -10.481588      -285.2185
   3   2.0000     -10.319497      -280.8078
   4   2.0000      -1.422159       -38.6989
   5   2.0000      -1.143985       -31.1294
   6   2.0000      -0.887505       -24.1502
   7   2.0000      -0.767158       -20.8754
   8   2.0000      -0.657894       -17.9022
   9   2.0000      -0.652989       -17.7687
  10   2.0000      -0.610142       -16.6028
  11   2.0000      -0.548108       -14.9148
  12   2.0000      -0.535906       -14.5827
  13   2.0000      -0.507043       -13.7973
  14   2.0000      -0.457274       -12.4431
  15   2.0000      -0.396696       -10.7947
  16   0.0000       0.051413         1.3990
  17   0.0000       0.082310         2.2398
  18   0.0000       0.123419         3.3584
  19   0.0000       0.156632         4.2622
  20   0.0000       0.164059         4.4643

MULLIKEN ATOMIC CHARGES
-----------------------
   0 C :    0.291734
   1 C :    0.446456
   2 F :   -0.379755
   3 O :   -0.466681
   4 H :   -0.010687
   5 H :    0.058551
   6 H :    0.060381
Sum of atomic charges:   -0.0000000

LOEWDIN ATOMIC CHARGES
----------------------
   0 C :    0.207245
   1 C :   -0.020596
   2 F :   -0.047535
   3 O :   -0.145958
   4 H :    0.002410
   5 H :    0.001203
   6 H :    0.003232

  Mayer bond orders larger than 0.100000
B(  0-C ,  1-C ) :   1.2363 B(  0-C ,  4-H ) :   0.9088 B(  0-C ,  5-H ) :   0.8200
B(  0-C ,  6-H ) :   0.8247 B(  1-C ,  2-F ) :   0.7611 B(  1-C ,  3-O ) :   1.8553
B(  1-C ,  4-H ) :   0.1924 B(  1-C ,  5-H ) :   0.1150 B(  1-C ,  6-H ) :   0.1114

Dispersion correction           -0.000899388
FINAL SINGLE POINT ENERGY      -252.840047762590

DIPOLE MOMENT
-------------
                                X             Y             Z
Electronic contribution:      2.83221       4.10848      -0.48071
Nuclear contribution   :     -2.49112      -5.16552       1.01592
                        -----------------------------------------
Total Dipole Moment    :      0.34110      -1.05704       0.53521
                        -----------------------------------------
Magnitude (a.u.)       :      1.23293
Magnitude (Debye)      :      3.13387

Rotational constants in cm-1:     0.367635     0.321184     0.176974
Rotational constants in MHz : 11021.414238  9628.842971  5305.560130

                             ****ORCA TERMINATED NORMALLY****
TOTAL RUN TIME: 0 days 0 hours 0 minutes 5 seconds 96 msec
