                         Program Version 5.0.0 -  RELEASE  -
|  1> !wB97X-D3 RIJCOSX def2-SVPD def2/J TightSCF
|  2> *xyz 0 1
|  3> C         -0.69912        3.48945        3.75516
|  4> C         -1.08067        3.79296        5.15686
|  5> H         -0.87449        4.76274        5.42734
|  6> H         -0.68079        3.13476        5.83900
|  7> H         -2.05755        3.53169        5.34620
|  8> H         -1.14600        4.20803        3.10030
|  9> H         -1.04188        2.50941        3.49644
| 10> H          0.36562        3.53208        3.65813
| 11> *
| 12> %MaxCore 64000
| 13>
| 14> %pal nprocs 18
| 15> end
| 16>
| 17> %scf
| 18>   MaxIter 150
| 19> end
| 20>
| 21>
| 22>                          ****END OF INPUT****

CARTESIAN COORDINATES (ANGSTROEM)
---------------------------------
  C     -0.699120    3.489450    3.755160
  C     -1.080670    3.792960    5.156860
  H     -0.874490    4.762740    5.427340
  H     -0.680790    3.134760    5.839000
  H     -2.057550    3.531690    5.346200
  H     -1.146000    4.208030    3.100300
  H     -1.041880    2.509410    3.496440
  H      0.365620    3.532080    3.658130

 Total Charge           Charge          ....    0
 Multiplicity           Mult            ....    1
 Number of Electrons    NEL             ....   18
 Basis Dimension        Dim             ....   88

ORBITAL ENERGIES
----------------

  NO   OCC          E(Eh)            E(eV)
   0   2.0000     -10.266672      -279.3703
   1   2.0000     -10.252299      -278.9792
   2   2.0000      -0.879252       -23.9257
   3   2.0000      -0.730693       -19.8832
   4   2.0000      -0.558513       -15.1979
   5   2.0000      -0.537162       -14.6169
   6   2.0000      -0.469989       -12.7890
   7   2.0000      -0.448641       -12.2082
   8   2.0000      -0.425852       -11.5880
   9   0.0000       0.098947         2.6925
  10   0.0000       0.128143         3.4870
  11   0.0000       0.178674         4.8620
  12   0.0000       0.184188         5.0120
  13   0.0000       0.201913         5.4943

MULLIKEN ATOMIC CHARGES
-----------------------
   0 C :    0.198533
   1 C :    0.448740
   2 H :   -0.171515
   3 H :   -0.186222
   4 H :   -0.177224
   5 H :   -0.043548
   6 H :   -0.028703
   7 H :   -0.040061
Sum of atomic charges:    0.0000000

LOEWDIN ATOMIC CHARGES
----------------------
   0 C :    0.075659
   1 C :    0.070766
   2 H :   -0.028500
   3 H :   -0.036182
   4 H :   -0.036141
   5 H :   -0.015341
   6 H :   -0.014116
   7 H :   -0.016144

  Mayer bond orders larger than 0.100000
B(  0-C ,  1-C ) :   1.4007 B(  0-C ,  2-H ) :   0.1442 B(  0-C ,  3-H ) :   0.1280
B(  0-C ,  4-H ) :   0.1316 B(  0-C ,  5-H ) :   0.8770 B(  0-C ,  6-H ) :   0.8818
B(  0-C ,  7-H ) :   0.8792 B(  1-C ,  2-H ) :   0.8449 B(  1-C ,  3-H ) :   0.7741
B(  1-C ,  4-H ) :   0.7747 B(  1-C ,  5-H ) :   0.1355 B(  1-C ,  6-H ) :   0.1396
B(  1-C ,  7-H ) :   0.1321 B(  3-H ,  4-H ) :   0.2657

Dispersion correction           -0.000507793
FINAL SINGLE POINT ENERGY       -79.732673726962

DIPOLE MOMENT
-------------
                                X             Y             Z
Electronic contribution:      0.05239       0.10229      -0.06016
Nuclear contribution   :     -0.07174      -0.12630       0.09844
                        -----------------------------------------
Total Dipole Moment    :     -0.01935      -0.02401       0.03829
                        -----------------------------------------
Magnitude (a.u.)       :      0.04916
Magnitude (Debye)      :      0.12496

Rotational constants in cm-1:     2.906543     0.717882     0.705537
Rotational constants in MHz : 87135.978289 21521.550473 21151.459355

                             ****ORCA TERMINATED NORMALLY****
TOTAL RUN TIME: 0 days 0 hours 0 minutes 3 seconds 531 msec
