                         Program Version 5.0.0 -  RELEASE  -
|  1> !wB97X-D3 RIJCOSX def2-SVPD def2/J TightSCF
|  2> *xyz 0 1
|  3> C         -2.45380        0.05510        6.94145
|  4> C         -2.07842        1.48042        6.56410
|  5> O         -0.90125        1.85816        6.82810
|  6> F         -2.93658        2.17731        5.96415
|  7> H         -3.47026       -0.13135        6.66407
|  8> H         -2.34265       -0.07527        7.99765
|  9> H         -1.81248       -0.63046        6.42801
| 10> *
| 11> %MaxCore 64000
| 12>
| 13> %pal nprocs 18
| 14> end
| 15>
| 16> %scf
| 17>   MaxIter 150
| 18> end
| 19>
| 20>
| 21>                          ****END OF INPUT****

CARTESIAN COORDINATES (ANGSTROEM)
---------------------------------
  C     -2.453800    0.055100    6.941450
  C     -2.078420    1.480420    6.564100
  O     -0.901250    1.858160    6.828100
  F     -2.936580    2.177310    5.964150
  H     -3.470260   -0.131350    6.664070
  H     -2.342650   -0.075270    7.997650
  H     -1.812480   -0.630460    6.428010

 Total Charge           Charge          ....    0
 Multiplicity           Mult            ....    1
 Number of Electrons    NEL             ....   32
 Basis Dimension        Dim             ....  110

ORBITAL ENERGIES
----------------

  NO   OCC          E(Eh)            E(eV)
   0   2.0000     -24.878163      -676.9692
   1   2.0000     -19.256857      -524.0057
   2   2.0000     -10.482222      -285.2358
   3   2.0000     -10.319748      -280.8146
   4   2.0000      -1.427273       -38.8381
   5   2.0000      -1.139737       -31.0138
   6   2.0000      -0.887365       -24.1464
   7   2.0000      -0.770265       -20.9600
   8   2.0000      -0.660098       -17.9622
   9   2.0000      -0.655711       -17.8428
  10   2.0000      -0.610516       -16.6130
  11   2.0000      -0.549282       -14.9467
  12   2.0000      -0.535295       -14.5661
  13   2.0000      -0.506172       -13.7736
  14   2.0000      -0.451950       -12.2982
  15   2.0000      -0.396057       -10.7773
  16   0.0000       0.047621         1.2958
  17   0.0000       0.082101         2.2341
  18   0.0000       0.123465         3.3597
  19   0.0000       0.159432         4.3384
  20   0.0000       0.161381         4.3914

MULLIKEN ATOMIC CHARGES
-----------------------
   0 C :    0.279030
   1 C :    0.437933
   2 O :   -0.494684
   3 F :   -0.353089
   4 H :    0.011079
   5 H :    0.058423
   6 H :    0.061308
Sum of atomic charges:    0.0000000

LOEWDIN ATOMIC CHARGES
----------------------
   0 C :    0.207453
   1 C :   -0.018937
   2 O :   -0.151687
   3 F :   -0.043186
   4 H :   -0.009881
   5 H :    0.007622
   6 H :    0.008616

  Mayer bond orders larger than 0.100000
B(  0-C ,  1-C ) :   1.2538 B(  0-C ,  4-H ) :   0.8951 B(  0-C ,  5-H ) :   0.8215
B(  0-C ,  6-H ) :   0.8285 B(  1-C ,  2-O ) :   1.8201 B(  1-C ,  3-F ) :   0.8043
B(  1-C ,  4-H ) :   0.1370 B(  1-C ,  5-H ) :   0.1344 B(  1-C ,  6-H ) :   0.1257

Dispersion correction           -0.000909221
FINAL SINGLE POINT ENERGY      -252.837221665133

DIPOLE MOMENT
-------------
                                X             Y             Z
Electronic contribution:     -0.49922       4.63180      -1.89477
Nuclear contribution   :     -0.38801      -5.49530       1.90863
                        -----------------------------------------
Total Dipole Moment    :     -0.88723      -0.86349       0.01386
                        -----------------------------------------
Magnitude (a.u.)       :      1.23814
Magnitude (Debye)      :      3.14710

Rotational constants in cm-1:     0.368583     0.320435     0.176966
Rotational constants in MHz : 11049.843408  9606.394840  5305.299921

                             ****ORCA TERMINATED NORMALLY****
TOTAL RUN TIME: 0 days 0 hours 0 minutes 4 seconds 970 msec
