                         Program Version 5.0.0 -  RELEASE  -
|  1> !B3LYP D3BJ RIJCOSX def2-SVP def2/J TightSCF
|  2> *xyz -1 1
|  3> C         -0.05517        1.61942       -3.78858
|  4> C          1.22302        2.46987       -3.75691
|  5> H          1.11470        3.25807       -4.53300
|  6> H          1.23773        3.01124       -2.79216
|  7> O          2.35381        1.71203       -3.93448
|  8> H         -0.10198        1.08015       -4.71156
|  9> H         -0.91014        2.25726       -3.70441
| 10> H         -0.04403        0.92826       -2.97183
| 11> *
| 12>
| 13> %MaxCore 64000
| 14>
| 15> %pal nprocs 4
| 16> end
| 17>
| 18> %scf
| 19>   MaxIter 150
| 20> end
| 21>
| 22>
| 23>                          ****END OF INPUT****

CARTESIAN COORDINATES (ANGSTROEM)
---------------------------------
  C     -0.055170    1.619420   -3.788580
  C      1.223020    2.469870   -3.756910
  H      1.114700    3.258070   -4.533000
  H      1.237730    3.011240   -2.792160
  O      2.353810    1.712030   -3.934480
  H     -0.101980    1.080150   -4.711560
  H     -0.910140    2.257260   -3.704410
  H     -0.044030    0.928260   -2.971830

 Total Charge           Charge          ....   -1
 Multiplicity           Mult            ....    1
 Number of Electrons    NEL             ....   26
 Basis Dimension        Dim             ....   67

ORBITAL ENERGIES
----------------

  NO   OCC          E(Eh)            E(eV)
   0   2.0000     -18.744683      -510.0688
   1   2.0000      -9.970328      -271.3064
   2   2.0000      -9.958531      -270.9854
   3   2.0000      -0.623700       -16.9717
   4   2.0000      -0.495827       -13.4922
   5   2.0000      -0.342822        -9.3287
   6   2.0000      -0.230538        -6.2733
   7   2.0000      -0.207625        -5.6498
   8   2.0000      -0.151421        -4.1204
   9   2.0000      -0.135340        -3.6828
  10   2.0000      -0.066310        -1.8044
  11   2.0000       0.079031         2.1505
  12   2.0000       0.081518         2.2182
  13   0.0000       0.253590         6.9005
  14   0.0000       0.296768         8.0755
  15   0.0000       0.309436         8.4202
  16   0.0000       0.318583         8.6691
  17   0.0000       0.360581         9.8119

MULLIKEN ATOMIC CHARGES
-----------------------
   0 C :    0.105248
   1 C :    0.272891
   2 H :   -0.187036
   3 H :   -0.184915
   4 O :   -0.699503
   5 H :   -0.082169
   6 H :   -0.143248
   7 H :   -0.081269
Sum of atomic charges:   -1.0000000

LOEWDIN ATOMIC CHARGES
----------------------
   0 C :   -0.100718
   1 C :    0.016085
   2 H :   -0.087623
   3 H :   -0.084979
   4 O :   -0.658419
   5 H :   -0.020266
   6 H :   -0.044247
   7 H :   -0.019834

  Mayer bond orders larger than 0.100000
B(  0-C ,  1-C ) :   1.0089 B(  0-C ,  5-H ) :   0.9487 B(  0-C ,  6-H ) :   0.8997
B(  0-C ,  7-H ) :   0.9515 B(  1-C ,  2-H ) :   0.8550 B(  1-C ,  3-H ) :   0.8573
B(  1-C ,  4-O ) :   1.5111

Dispersion correction           -0.006240015
FINAL SINGLE POINT ENERGY      -154.188703606817

DIPOLE MOMENT
-------------
                                X             Y             Z
Electronic contribution:      3.14596      -0.74656      -0.29479
Nuclear contribution   :     -4.28298       0.81046       0.39340
                        -----------------------------------------
Total Dipole Moment    :     -1.13701       0.06390       0.09861
                        -----------------------------------------
Magnitude (a.u.)       :      1.14307
Magnitude (Debye)      :      2.90545

Rotational constants in cm-1:     1.266793     0.328147     0.288309
Rotational constants in MHz : 37977.512300  9837.594308  8643.275638

                             ****ORCA TERMINATED NORMALLY****
TOTAL RUN TIME: 0 days 0 hours 0 minutes 8 seconds 89 msec
