                         Program Version 5.0.0 -  RELEASE  -
|  1> !B3LYP D3BJ RIJCOSX def2-SVP def2/J TightSCF
|  2> *xyz 1 1
|  3> C          1.63556       -1.67040       -5.29211
|  4> C          0.33848       -1.50091       -4.50540
|  5> N          2.48451       -0.50741       -5.14039
|  6> H          1.39834       -1.82924       -6.35259
|  7> H          2.15586       -2.56540       -4.93209
|  8> C          3.45115       -0.14953       -5.95259
|  9> N          3.92267        1.08956       -5.85071
| 10> N          3.96616       -1.00618       -6.86788
| 11> H          3.52139       -1.90647       -6.99527
| 12> H          4.44482       -0.62347       -7.67035
| 13> H          2.25200        0.24080       -4.49879
| 14> H          3.46428        1.64078       -5.13639
| 15> H          4.83447        1.31375       -6.22465
| 16> H         -0.17658       -0.62881       -4.85045
| 17> H          0.56384       -1.39374       -3.46490
| 18> H         -0.28102       -2.36136       -4.64938
| 19> *
| 20>
| 21> %MaxCore 64000
| 22>
| 23> %pal nprocs 4
| 24> end
| 25>
| 26> %scf
| 27>   MaxIter 150
| 28> end
| 29>
| 30>
| 31>                          ****END OF INPUT****

CARTESIAN COORDINATES (ANGSTROEM)
---------------------------------
  C      1.635560   -1.670400   -5.292110
  C      0.338480   -1.500910   -4.505400
  N      2.484510   -0.507410   -5.140390
  H      1.398340   -1.829240   -6.352590
  H      2.155860   -2.565400   -4.932090
  C      3.451150   -0.149530   -5.952590
  N      3.922670    1.089560   -5.850710
  N      3.966160   -1.006180   -6.867880
  H      3.521390   -1.906470   -6.995270
  H      4.444820   -0.623470   -7.670350
  H      2.252000    0.240800   -4.498790
  H      3.464280    1.640780   -5.136390
  H      4.834470    1.313750   -6.224650
  H     -0.176580   -0.628810   -4.850450
  H      0.563840   -1.393740   -3.464900
  H     -0.281020   -2.361360   -4.649380

 Total Charge           Charge          ....    1
 Multiplicity           Mult            ....    1
 Number of Electrons    NEL             ....   48
 Basis Dimension        Dim             ....  134

ORBITAL ENERGIES
----------------

  NO   OCC          E(Eh)            E(eV)
   0   2.0000     -14.552297      -395.9881
   1   2.0000     -14.549974      -395.9249
   2   2.0000     -14.547267      -395.8513
   3   2.0000     -10.512244      -286.0527
   4   2.0000     -10.391045      -282.7547
   5   2.0000     -10.322404      -280.8869
   6   2.0000      -1.207721       -32.8638
   7   2.0000      -1.095292       -29.8044
   8   2.0000      -1.081174       -29.4203
   9   2.0000      -0.927308       -25.2333
  10   2.0000      -0.824828       -22.4447
  11   2.0000      -0.808168       -21.9914
  12   2.0000      -0.773414       -21.0457
  13   2.0000      -0.742038       -20.1919
  14   2.0000      -0.689238       -18.7551
  15   2.0000      -0.682828       -18.5807
  16   2.0000      -0.658674       -17.9234
  17   2.0000      -0.640375       -17.4255
  18   2.0000      -0.599072       -16.3016
  19   2.0000      -0.545083       -14.8325
  20   2.0000      -0.529177       -14.3997
  21   2.0000      -0.518988       -14.1224
  22   2.0000      -0.473400       -12.8819
  23   2.0000      -0.451338       -12.2815
  24   0.0000      -0.160418        -4.3652
  25   0.0000      -0.140465        -3.8223
  26   0.0000      -0.105361        -2.8670
  27   0.0000      -0.087272        -2.3748
  28   0.0000      -0.066108        -1.7989

MULLIKEN ATOMIC CHARGES
-----------------------
   0 C :    0.054995
   1 C :    0.000868
   2 N :   -0.086169
   3 H :    0.049890
   4 H :    0.063465
   5 C :   -0.003883
   6 N :    0.000866
   7 N :   -0.037485
   8 H :    0.162772
   9 H :    0.168211
  10 H :    0.149530
  11 H :    0.159004
  12 H :    0.175537
  13 H :    0.038339
  14 H :    0.043813
  15 H :    0.060248
Sum of atomic charges:    1.0000000

LOEWDIN ATOMIC CHARGES
----------------------
   0 C :    0.040224
   1 C :   -0.030898
   2 N :    0.039778
   3 H :    0.031648
   4 H :    0.037389
   5 C :    0.141075
   6 N :    0.051520
   7 N :    0.040166
   8 H :    0.105498
   9 H :    0.108998
  10 H :    0.100230
  11 H :    0.105683
  12 H :    0.113108
  13 H :    0.031370
  14 H :    0.034237
  15 H :    0.049974

  Mayer bond orders larger than 0.100000
B(  0-C ,  1-C ) :   1.1125 B(  0-C ,  2-N ) :   0.9242 B(  0-C ,  3-H ) :   0.9460
B(  0-C ,  4-H ) :   0.9453 B(  1-C , 13-H ) :   0.9723 B(  1-C , 14-H ) :   0.9687
B(  1-C , 15-H ) :   0.9583 B(  2-N ,  5-C ) :   1.4008 B(  2-N , 10-H ) :   0.9061
B(  5-C ,  6-N ) :   1.3909 B(  5-C ,  7-N ) :   1.3815 B(  6-N , 11-H ) :   0.9221
B(  6-N , 12-H ) :   0.9247 B(  7-N ,  8-H ) :   0.9265 B(  7-N ,  9-H ) :   0.9283

Dispersion correction           -0.019755220
FINAL SINGLE POINT ENERGY      -284.030415351786

DIPOLE MOMENT
-------------
                                X             Y             Z
Electronic contribution:      4.76987       2.53120      -1.73372
Nuclear contribution   :     -3.96322      -1.85512       1.24891
                        -----------------------------------------
Total Dipole Moment    :      0.80665       0.67608      -0.48482
                        -----------------------------------------
Magnitude (a.u.)       :      1.15880
Magnitude (Debye)      :      2.94544

Rotational constants in cm-1:     0.261404     0.067000     0.054949
Rotational constants in MHz :  7836.702504  2008.609425  1647.329138

                             ****ORCA TERMINATED NORMALLY****
TOTAL RUN TIME: 0 days 0 hours 0 minutes 16 seconds 215 msec
