                         Program Version 5.0.0 -  RELEASE  -
|  1> !B3LYP D3BJ RIJCOSX def2-SVP def2/J TightSCF
|  2> *xyz 0 1
|  3> C         -0.05517        1.61942       -3.78858
|  4> C          1.22302        2.46987       -3.75691
|  5> H          1.11470        3.25807       -4.53300
|  6> H          1.23773        3.01124       -2.79216
|  7> F          2.35381        1.71203       -3.93448
|  8> H         -0.10198        1.08015       -4.71156
|  9> H         -0.91014        2.25726       -3.70441
| 10> H         -0.04403        0.92826       -2.97183
| 11> *
| 12>
| 13> %MaxCore 64000
| 14>
| 15> %pal nprocs 4
| 16> end
| 17>
| 18> %scf
| 19>   MaxIter 150
| 20> end
| 21>
| 22>
| 23>                          ****END OF INPUT****

CARTESIAN COORDINATES (ANGSTROEM)
---------------------------------
  C     -0.055170    1.619420   -3.788580
  C      1.223020    2.469870   -3.756910
  H      1.114700    3.258070   -4.533000
  H      1.237730    3.011240   -2.792160
  F      2.353810    1.712030   -3.934480
  H     -0.101980    1.080150   -4.711560
  H     -0.910140    2.257260   -3.704410
  H     -0.044030    0.928260   -2.971830

 Total Charge           Charge          ....    0
 Multiplicity           Mult            ....    1
 Number of Electrons    NEL             ....   26
 Basis Dimension        Dim             ....   67

ORBITAL ENERGIES
----------------

  NO   OCC          E(Eh)            E(eV)
   0   2.0000     -24.660118      -671.0359
   1   2.0000     -10.256681      -279.0985
   2   2.0000     -10.177411      -276.9414
   3   2.0000      -1.164632       -31.6912
   4   2.0000      -0.752626       -20.4800
   5   2.0000      -0.619087       -16.8462
   6   2.0000      -0.497220       -13.5300
   7   2.0000      -0.487813       -13.2741
   8   2.0000      -0.447569       -12.1790
   9   2.0000      -0.397446       -10.8151
  10   2.0000      -0.396806       -10.7976
  11   2.0000      -0.327828        -8.9207
  12   2.0000      -0.324295        -8.8245
  13   0.0000       0.064321         1.7503
  14   0.0000       0.109203         2.9716
  15   0.0000       0.115636         3.1466
  16   0.0000       0.133230         3.6254
  17   0.0000       0.147701         4.0192

MULLIKEN ATOMIC CHARGES
-----------------------
   0 C :   -0.017764
   1 C :    0.239799
   2 H :    0.000938
   3 H :    0.000000
   4 F :   -0.266310
   5 H :    0.018933
   6 H :    0.006244
   7 H :    0.018159
Sum of atomic charges:   -0.0000000

LOEWDIN ATOMIC CHARGES
----------------------
   0 C :   -0.065150
   1 C :    0.115985
   2 H :    0.007623
   3 H :    0.007181
   4 F :   -0.138049
   5 H :    0.023264
   6 H :    0.026708
   7 H :    0.022438

  Mayer bond orders larger than 0.100000
B(  0-C ,  1-C ) :   1.1044 B(  0-C ,  5-H ) :   0.9697 B(  0-C ,  6-H ) :   0.9582
B(  0-C ,  7-H ) :   0.9708 B(  1-C ,  2-H ) :   0.9559 B(  1-C ,  3-H ) :   0.9559
B(  1-C ,  4-F ) :   1.0030

Dispersion correction           -0.005745158
FINAL SINGLE POINT ENERGY      -178.830852201819

DIPOLE MOMENT
-------------
                                X             Y             Z
Electronic contribution:      5.08007      -0.75904      -0.43761
Nuclear contribution   :     -5.66833       1.07099       0.52006
                        -----------------------------------------
Total Dipole Moment    :     -0.58826       0.31195       0.08246
                        -----------------------------------------
Magnitude (a.u.)       :      0.67094
Magnitude (Debye)      :      1.70540

Rotational constants in cm-1:     1.245689     0.305293     0.269541
Rotational constants in MHz : 37344.801915  9152.442838  8080.640229

                             ****ORCA TERMINATED NORMALLY****
TOTAL RUN TIME: 0 days 0 hours 0 minutes 7 seconds 390 msec
