                         Program Version 5.0.0 -  RELEASE  -
|  1> !B3LYP D3BJ RIJCOSX def2-SVP def2/J TightSCF
|  2> *xyz 0 1
|  3> C          1.63556       -1.67040       -5.29211
|  4> C          0.33848       -1.50091       -4.50540
|  5> C          2.48451       -0.50741       -5.14039
|  6> H          1.39834       -1.82924       -6.35259
|  7> H          2.15586       -2.56540       -4.93209
|  8> C          3.45115       -0.14953       -5.95259
|  9> N          3.92267        1.08956       -5.85071
| 10> N          3.96616       -1.00618       -6.86788
| 11> H          3.52139       -1.90647       -6.99527
| 12> H          4.44482       -0.62347       -7.67035
| 13> H          2.25200        0.24080       -4.49879
| 14> H          3.46428        1.64078       -5.13639
| 15> H          4.83447        1.31375       -6.22465
| 16> H         -0.17658       -0.62881       -4.85045
| 17> H          0.56384       -1.39374       -3.46490
| 18> H         -0.28102       -2.36136       -4.64938
| 19> *
| 20>
| 21> %MaxCore 64000
| 22>
| 23> %pal nprocs 4
| 24> end
| 25>
| 26> %scf
| 27>   MaxIter 150
| 28> end
| 29>
| 30>
| 31>                          ****END OF INPUT****

CARTESIAN COORDINATES (ANGSTROEM)
---------------------------------
  C      1.635560   -1.670400   -5.292110
  C      0.338480   -1.500910   -4.505400
  C      2.484510   -0.507410   -5.140390
  H      1.398340   -1.829240   -6.352590
  H      2.155860   -2.565400   -4.932090
  C      3.451150   -0.149530   -5.952590
  N      3.922670    1.089560   -5.850710
  N      3.966160   -1.006180   -6.867880
  H      3.521390   -1.906470   -6.995270
  H      4.444820   -0.623470   -7.670350
  H      2.252000    0.240800   -4.498790
  H      3.464280    1.640780   -5.136390
  H      4.834470    1.313750   -6.224650
  H     -0.176580   -0.628810   -4.850450
  H      0.563840   -1.393740   -3.464900
  H     -0.281020   -2.361360   -4.649380

 Total Charge           Charge          ....    0
 Multiplicity           Mult            ....    1
 Number of Electrons    NEL             ....   48
 Basis Dimension        Dim             ....  134

ORBITAL ENERGIES
----------------

  NO   OCC          E(Eh)            E(eV)
   0   2.0000     -14.319430      -389.6515
   1   2.0000     -14.314864      -389.5273
   2   2.0000     -10.211725      -277.8752
   3   2.0000     -10.153238      -276.2837
   4   2.0000     -10.147803      -276.1358
   5   2.0000     -10.094128      -274.6752
   6   2.0000      -0.937591       -25.5132
   7   2.0000      -0.850754       -23.1502
   8   2.0000      -0.759606       -20.6699
   9   2.0000      -0.682367       -18.5681
  10   2.0000      -0.598068       -16.2743
  11   2.0000      -0.568689       -15.4748
  12   2.0000      -0.524206       -14.2644
  13   2.0000      -0.502316       -13.6687
  14   2.0000      -0.458729       -12.4826
  15   2.0000      -0.431642       -11.7456
  16   2.0000      -0.420028       -11.4295
  17   2.0000      -0.385427       -10.4880
  18   2.0000      -0.368522       -10.0280
  19   2.0000      -0.334416        -9.0999
  20   2.0000      -0.323563        -8.8046
  21   2.0000      -0.323062        -8.7910
  22   2.0000      -0.251633        -6.8473
  23   2.0000      -0.150673        -4.1000
  24   0.0000       0.049584         1.3493
  25   0.0000       0.078677         2.1409
  26   0.0000       0.092837         2.5262
  27   0.0000       0.097673         2.6578
  28   0.0000       0.107294         2.9196

MULLIKEN ATOMIC CHARGES
-----------------------
   0 C :    0.067050
   1 C :    0.049446
   2 C :   -0.102063
   3 H :   -0.025953
   4 H :   -0.016648
   5 C :   -0.125155
   6 N :   -0.028510
   7 N :   -0.072417
   8 H :    0.109379
   9 H :    0.093889
  10 H :   -0.126461
  11 H :    0.110292
  12 H :    0.095189
  13 H :   -0.007697
  14 H :   -0.003414
  15 H :   -0.016926
Sum of atomic charges:    0.0000000

LOEWDIN ATOMIC CHARGES
----------------------
   0 C :   -0.034811
   1 C :   -0.038174
   2 C :   -0.217808
   3 H :    0.003522
   4 H :    0.007178
   5 C :    0.024290
   6 N :   -0.022316
   7 N :   -0.029125
   8 H :    0.075834
   9 H :    0.060418
  10 H :   -0.013942
  11 H :    0.080390
  12 H :    0.061734
  13 H :    0.014244
  14 H :    0.016177
  15 H :    0.012388

  Mayer bond orders larger than 0.100000
B(  0-C ,  1-C ) :   1.1143 B(  0-C ,  2-C ) :   1.0484 B(  0-C ,  3-H ) :   0.9330
B(  0-C ,  4-H ) :   0.9176 B(  1-C , 13-H ) :   0.9727 B(  1-C , 14-H ) :   0.9673
B(  1-C , 15-H ) :   0.9615 B(  2-C ,  5-C ) :   1.6748 B(  2-C , 10-H ) :   0.9257
B(  5-C ,  6-N ) :   1.2527 B(  5-C ,  7-N ) :   1.2511 B(  6-N , 11-H ) :   0.9304
B(  6-N , 12-H ) :   0.9433 B(  7-N ,  8-H ) :   0.9395 B(  7-N ,  9-H ) :   0.9447

Dispersion correction           -0.020679637
FINAL SINGLE POINT ENERGY      -267.557232529759

DIPOLE MOMENT
-------------
                                X             Y             Z
Electronic contribution:      4.66497       2.23291      -1.98918
Nuclear contribution   :     -3.99655      -1.83277       1.34879
                        -----------------------------------------
Total Dipole Moment    :      0.66843       0.40014      -0.64040
                        -----------------------------------------
Magnitude (a.u.)       :      1.00847
Magnitude (Debye)      :      2.56334

Rotational constants in cm-1:     0.262971     0.067064     0.055026
Rotational constants in MHz :  7883.664566  2010.513309  1649.636654

                             ****ORCA TERMINATED NORMALLY****
TOTAL RUN TIME: 0 days 0 hours 0 minutes 16 seconds 8 msec
