                         Program Version 5.0.0 -  RELEASE  -
|  1> !B3LYP D3BJ RIJCOSX def2-SVP def2/J TightSCF
|  2> *xyz 0 1
|  3> C          1.63556       -1.67040       -5.29211
|  4> C          0.33848       -1.50091       -4.50540
|  5> N          2.48451       -0.50741       -5.14039
|  6> H          1.39834       -1.82924       -6.35259
|  7> H          2.15586       -2.56540       -4.93209
|  8> C          3.45115       -0.14953       -5.95259
|  9> C          3.92267        1.08956       -5.85071
| 10> N          3.96616       -1.00618       -6.86788
| 11> H          3.52139       -1.90647       -6.99527
| 12> H          4.44482       -0.62347       -7.67035
| 13> H          2.25200        0.24080       -4.49879
| 14> H          3.46428        1.64078       -5.13639
| 15> H          4.83447        1.31375       -6.22465
| 16> H         -0.17658       -0.62881       -4.85045
| 17> H          0.56384       -1.39374       -3.46490
| 18> H         -0.28102       -2.36136       -4.64938
| 19> *
| 20>
| 21> %MaxCore 64000
| 22>
| 23> %pal nprocs 4
| 24> end
| 25>
| 26> %scf
| 27>   MaxIter 150
| 28> end
| 29>
| 30>
| 31>                          ****END OF INPUT****

CARTESIAN COORDINATES (ANGSTROEM)
---------------------------------
  C      1.635560   -1.670400   -5.292110
  C      0.338480   -1.500910   -4.505400
  N      2.484510   -0.507410   -5.140390
  H      1.398340   -1.829240   -6.352590
  H      2.155860   -2.565400   -4.932090
  C      3.451150   -0.149530   -5.952590
  C      3.922670    1.089560   -5.850710
  N      3.966160   -1.006180   -6.867880
  H      3.521390   -1.906470   -6.995270
  H      4.444820   -0.623470   -7.670350
  H      2.252000    0.240800   -4.498790
  H      3.464280    1.640780   -5.136390
  H      4.834470    1.313750   -6.224650
  H     -0.176580   -0.628810   -4.850450
  H      0.563840   -1.393740   -3.464900
  H     -0.281020   -2.361360   -4.649380

 Total Charge           Charge          ....    0
 Multiplicity           Mult            ....    1
 Number of Electrons    NEL             ....   48
 Basis Dimension        Dim             ....  134

ORBITAL ENERGIES
----------------

  NO   OCC          E(Eh)            E(eV)
   0   2.0000     -14.319204      -389.6453
   1   2.0000     -14.317930      -389.6107
   2   2.0000     -10.221980      -278.1542
   3   2.0000     -10.215814      -277.9864
   4   2.0000     -10.183273      -277.1010
   5   2.0000     -10.085076      -274.4289
   6   2.0000      -0.951876       -25.9018
   7   2.0000      -0.865023       -23.5385
   8   2.0000      -0.766326       -20.8528
   9   2.0000      -0.688361       -18.7312
  10   2.0000      -0.617941       -16.8150
  11   2.0000      -0.585895       -15.9430
  12   2.0000      -0.525987       -14.3128
  13   2.0000      -0.489144       -13.3103
  14   2.0000      -0.475411       -12.9366
  15   2.0000      -0.457124       -12.4390
  16   2.0000      -0.413312       -11.2468
  17   2.0000      -0.390436       -10.6243
  18   2.0000      -0.374465       -10.1897
  19   2.0000      -0.371811       -10.1175
  20   2.0000      -0.369454       -10.0534
  21   2.0000      -0.341880        -9.3030
  22   2.0000      -0.247338        -6.7304
  23   2.0000      -0.149425        -4.0660
  24   0.0000       0.050319         1.3692
  25   0.0000       0.070815         1.9270
  26   0.0000       0.078077         2.1246
  27   0.0000       0.094008         2.5581
  28   0.0000       0.112199         3.0531

MULLIKEN ATOMIC CHARGES
-----------------------
   0 C :    0.110558
   1 C :    0.007513
   2 N :   -0.111456
   3 H :   -0.001205
   4 H :    0.002990
   5 C :   -0.078583
   6 C :   -0.054445
   7 N :   -0.084593
   8 H :    0.092292
   9 H :    0.117069
  10 H :    0.114045
  11 H :   -0.087871
  12 H :   -0.066102
  13 H :    0.015205
  14 H :    0.013910
  15 H :    0.010674
Sum of atomic charges:   -0.0000000

LOEWDIN ATOMIC CHARGES
----------------------
   0 C :    0.035369
   1 C :   -0.044839
   2 N :   -0.024981
   3 H :    0.008845
   4 H :    0.008863
   5 C :    0.036055
   6 C :   -0.255665
   7 N :   -0.026982
   8 H :    0.060387
   9 H :    0.079194
  10 H :    0.082112
  11 H :   -0.015726
  12 H :   -0.011898
  13 H :    0.021455
  14 H :    0.021323
  15 H :    0.026488

  Mayer bond orders larger than 0.100000
B(  0-C ,  1-C ) :   1.1166 B(  0-C ,  2-N ) :   1.0015 B(  0-C ,  3-H ) :   0.9382
B(  0-C ,  4-H ) :   0.9419 B(  1-C , 13-H ) :   0.9714 B(  1-C , 14-H ) :   0.9689
B(  1-C , 15-H ) :   0.9626 B(  2-N ,  5-C ) :   1.2351 B(  2-N , 10-H ) :   0.9186
B(  5-C ,  6-C ) :   1.7365 B(  5-C ,  7-N ) :   1.2182 B(  6-C , 11-H ) :   0.9119
B(  6-C , 12-H ) :   0.9427 B(  7-N ,  8-H ) :   0.9527 B(  7-N ,  9-H ) :   0.9490

Dispersion correction           -0.020426333
FINAL SINGLE POINT ENERGY      -267.547899962811

DIPOLE MOMENT
-------------
                                X             Y             Z
Electronic contribution:      2.98327       0.53301      -1.33042
Nuclear contribution   :     -3.69145      -1.49398       1.19810
                        -----------------------------------------
Total Dipole Moment    :     -0.70818      -0.96097      -0.13233
                        -----------------------------------------
Magnitude (a.u.)       :      1.20104
Magnitude (Debye)      :      3.05281

Rotational constants in cm-1:     0.270790     0.068966     0.056679
Rotational constants in MHz :  8118.084803  2067.559423  1699.196934

                             ****ORCA TERMINATED NORMALLY****
TOTAL RUN TIME: 0 days 0 hours 0 minutes 16 seconds 21 msec
