                         Program Version 5.0.0 -  RELEASE  -
|  1> !B3LYP D3BJ RIJCOSX def2-SVP def2/J TightSCF
|  2> *xyz 0 1
|  3> C          1.63556       -1.67040       -5.29211
|  4> C          0.33848       -1.50091       -4.50540
|  5> N          2.48451       -0.50741       -5.14039
|  6> H          1.39834       -1.82924       -6.35259
|  7> H          2.15586       -2.56540       -4.93209
|  8> C          3.45115       -0.14953       -5.95259
|  9> N          3.92267        1.08956       -5.85071
| 10> C          3.96616       -1.00618       -6.86788
| 11> H          3.52139       -1.90647       -6.99527
| 12> H          4.44482       -0.62347       -7.67035
| 13> H          2.25200        0.24080       -4.49879
| 14> H          3.46428        1.64078       -5.13639
| 15> H          4.83447        1.31375       -6.22465
| 16> H         -0.17658       -0.62881       -4.85045
| 17> H          0.56384       -1.39374       -3.46490
| 18> H         -0.28102       -2.36136       -4.64938
| 19> *
| 20>
| 21> %MaxCore 64000
| 22>
| 23> %pal nprocs 4
| 24> end
| 25>
| 26> %scf
| 27>   MaxIter 150
| 28> end
| 29>
| 30>
| 31>                          ****END OF INPUT****

CARTESIAN COORDINATES (ANGSTROEM)
---------------------------------
  C      1.635560   -1.670400   -5.292110
  C      0.338480   -1.500910   -4.505400
  N      2.484510   -0.507410   -5.140390
  H      1.398340   -1.829240   -6.352590
  H      2.155860   -2.565400   -4.932090
  C      3.451150   -0.149530   -5.952590
  N      3.922670    1.089560   -5.850710
  C      3.966160   -1.006180   -6.867880
  H      3.521390   -1.906470   -6.995270
  H      4.444820   -0.623470   -7.670350
  H      2.252000    0.240800   -4.498790
  H      3.464280    1.640780   -5.136390
  H      4.834470    1.313750   -6.224650
  H     -0.176580   -0.628810   -4.850450
  H      0.563840   -1.393740   -3.464900
  H     -0.281020   -2.361360   -4.649380

 Total Charge           Charge          ....    0
 Multiplicity           Mult            ....    1
 Number of Electrons    NEL             ....   48
 Basis Dimension        Dim             ....  134

ORBITAL ENERGIES
----------------

  NO   OCC          E(Eh)            E(eV)
   0   2.0000     -14.325091      -389.8056
   1   2.0000     -14.320666      -389.6851
   2   2.0000     -10.217373      -278.0288
   3   2.0000     -10.213735      -277.9299
   4   2.0000     -10.178911      -276.9823
   5   2.0000     -10.084968      -274.4259
   6   2.0000      -0.960097       -26.1256
   7   2.0000      -0.870203       -23.6794
   8   2.0000      -0.752381       -20.4733
   9   2.0000      -0.686642       -18.6845
  10   2.0000      -0.634809       -17.2740
  11   2.0000      -0.557791       -15.1783
  12   2.0000      -0.526860       -14.3366
  13   2.0000      -0.515466       -14.0265
  14   2.0000      -0.468661       -12.7529
  15   2.0000      -0.461318       -12.5531
  16   2.0000      -0.394689       -10.7400
  17   2.0000      -0.390760       -10.6331
  18   2.0000      -0.385519       -10.4905
  19   2.0000      -0.364096        -9.9076
  20   2.0000      -0.355426        -9.6716
  21   2.0000      -0.342557        -9.3214
  22   2.0000      -0.242494        -6.5986
  23   2.0000      -0.151700        -4.1280
  24   0.0000       0.042060         1.1445
  25   0.0000       0.066842         1.8189
  26   0.0000       0.087916         2.3923
  27   0.0000       0.100174         2.7259
  28   0.0000       0.119218         3.2441

MULLIKEN ATOMIC CHARGES
-----------------------
   0 C :    0.132575
   1 C :    0.009444
   2 N :   -0.130055
   3 H :    0.014686
   4 H :    0.008120
   5 C :   -0.068085
   6 N :   -0.053283
   7 C :   -0.099444
   8 H :   -0.065681
   9 H :   -0.068370
  10 H :    0.083282
  11 H :    0.086477
  12 H :    0.123443
  13 H :    0.007219
  14 H :    0.006887
  15 H :    0.012786
Sum of atomic charges:   -0.0000000

LOEWDIN ATOMIC CHARGES
----------------------
   0 C :    0.050975
   1 C :   -0.048199
   2 N :   -0.020387
   3 H :    0.018400
   4 H :    0.014516
   5 C :    0.029277
   6 N :   -0.016761
   7 C :   -0.266038
   8 H :   -0.013722
   9 H :   -0.013528
  10 H :    0.059393
  11 H :    0.058803
  12 H :    0.083717
  13 H :    0.017886
  14 H :    0.017957
  15 H :    0.027712

  Mayer bond orders larger than 0.100000
B(  0-C ,  1-C ) :   1.1065 B(  0-C ,  2-N ) :   0.9989 B(  0-C ,  3-H ) :   0.9367
B(  0-C ,  4-H ) :   0.9449 B(  1-C , 13-H ) :   0.9701 B(  1-C , 14-H ) :   0.9680
B(  1-C , 15-H ) :   0.9632 B(  2-N ,  5-C ) :   1.2117 B(  2-N , 10-H ) :   0.9299
B(  5-C ,  6-N ) :   1.2340 B(  5-C ,  7-C ) :   1.7288 B(  6-N , 11-H ) :   0.9489
B(  6-N , 12-H ) :   0.9436 B(  7-C ,  8-H ) :   0.9332 B(  7-C ,  9-H ) :   0.9388

Dispersion correction           -0.020518407
FINAL SINGLE POINT ENERGY      -267.547786246918

DIPOLE MOMENT
-------------
                                X             Y             Z
Electronic contribution:      3.07003       2.73062      -0.14919
Nuclear contribution   :     -3.68222      -1.93858       0.98231
                        -----------------------------------------
Total Dipole Moment    :     -0.61219       0.79203       0.83312
                        -----------------------------------------
Magnitude (a.u.)       :      1.30237
Magnitude (Debye)      :      3.31037

Rotational constants in cm-1:     0.275407     0.068040     0.056255
Rotational constants in MHz :  8256.498401  2039.796466  1686.484500

                             ****ORCA TERMINATED NORMALLY****
TOTAL RUN TIME: 0 days 0 hours 0 minutes 15 seconds 127 msec
