                         Program Version 5.0.0 -  RELEASE  -
|  1> !B3LYP D3BJ RIJCOSX def2-TZVP def2/J TightSCF xyzfile
|  2>
|  3> *xyzfile 0 1 D2.xyz
|  4>
|  5> %MaxCore 64000
|  6>
|  7> %pal nprocs 18
|  8> end
|  9>
| 10> %scf
| 11>   MaxIter 150
| 12> end
| 13>
| 14>
| 15>                          ****END OF INPUT****

CARTESIAN COORDINATES (ANGSTROEM)
---------------------------------
  C      1.635557   -1.670396   -5.292109
  C      0.338484   -1.500907   -4.505398
  N      2.484511   -0.507410   -5.140392
  C     -0.684873   -0.528026   -5.099889
  C     -0.290406    0.951335   -5.153423
  H      0.607991    1.070692   -5.764412
  C     -0.055168    1.619420   -3.788577
  H     -1.080912    1.483775   -5.689436
  H      0.045006    0.862302   -3.003015
  H     -0.922936    2.230329   -3.517028
  C      1.223022    2.469865   -3.756911
  H      1.114701    3.258074   -4.532999
  H      1.237732    3.011242   -2.792157
  F      2.353815    1.712032   -3.934477
  H      1.398337   -1.829239   -6.352591
  H      2.155864   -2.565398   -4.932091
  C      3.451149   -0.149530   -5.952589
  C      3.922667    1.089559   -5.850711
  N      3.966162   -1.006183   -6.867880
  H      3.521391   -1.906467   -6.995270
  H      4.444824   -0.623472   -7.670348
  H      2.251995    0.240804   -4.498792
  H      3.464277    1.640782   -5.136392
  H      4.834470    1.313745   -6.224653
  H     -0.937999   -0.869056   -6.110838
  H     -1.604638   -0.622496   -4.513132
  H      0.594887   -1.211578   -3.482312
  H     -0.126530   -2.487656   -4.434176

 Total Charge           Charge          ....    0
 Multiplicity           Mult            ....    1
 Number of Electrons    NEL             ....   88
 Basis Dimension        Dim             ....  443

ORBITAL ENERGIES
----------------

  NO   OCC          E(Eh)            E(eV)
   0   2.0000     -24.695497      -671.9986
   1   2.0000     -14.296494      -389.0274
   2   2.0000     -14.286397      -388.7526
   3   2.0000     -10.257746      -279.1275
   4   2.0000     -10.196698      -277.4663
   5   2.0000     -10.190622      -277.3009
   6   2.0000     -10.182481      -277.0794
   7   2.0000     -10.171225      -276.7731
   8   2.0000     -10.170921      -276.7648
   9   2.0000     -10.168947      -276.7111
  10   2.0000     -10.049485      -273.4604
  11   2.0000      -1.235253       -33.6129
  12   2.0000      -0.950324       -25.8596
  13   2.0000      -0.867356       -23.6019
  14   2.0000      -0.817310       -22.2401
  15   2.0000      -0.775828       -21.1114
  16   2.0000      -0.735896       -20.0247
  17   2.0000      -0.683888       -18.6095
  18   2.0000      -0.650702       -17.7065
  19   2.0000      -0.621316       -16.9069
  20   2.0000      -0.583119       -15.8675
  21   2.0000      -0.567673       -15.4472
  22   2.0000      -0.542277       -14.7561
  23   2.0000      -0.516158       -14.0454
  24   2.0000      -0.509001       -13.8506
  25   2.0000      -0.501858       -13.6562
  26   2.0000      -0.484613       -13.1870
  27   2.0000      -0.470856       -12.8127
  28   2.0000      -0.449970       -12.2443
  29   2.0000      -0.440734       -11.9930
  30   2.0000      -0.422552       -11.4982
  31   2.0000      -0.409803       -11.1513
  32   2.0000      -0.399693       -10.8762
  33   2.0000      -0.380055       -10.3418
  34   2.0000      -0.370444       -10.0803
  35   2.0000      -0.363231        -9.8840
  36   2.0000      -0.351446        -9.5633
  37   2.0000      -0.347955        -9.4683
  38   2.0000      -0.332962        -9.0603
  39   2.0000      -0.324217        -8.8224
  40   2.0000      -0.322958        -8.7881
  41   2.0000      -0.318501        -8.6668
  42   2.0000      -0.238659        -6.4942
  43   2.0000      -0.141650        -3.8545
  44   0.0000       0.027048         0.7360
  45   0.0000       0.037704         1.0260
  46   0.0000       0.048623         1.3231
  47   0.0000       0.053003         1.4423
  48   0.0000       0.068143         1.8543

MULLIKEN ATOMIC CHARGES
-----------------------
   0 C :   -0.077466
   1 C :   -0.207766
   2 N :   -0.277334
   3 C :   -0.161381
   4 C :   -0.232506
   5 H :    0.154511
   6 C :   -0.198695
   7 H :    0.091318
   8 H :    0.100583
   9 H :    0.105549
  10 C :    0.035182
  11 H :    0.103180
  12 H :    0.102822
  13 F :   -0.230035
  14 H :    0.073241
  15 H :    0.095982
  16 C :    0.349493
  17 C :   -0.588899
  18 N :   -0.487447
  19 H :    0.211532
  20 H :    0.230531
  21 H :    0.235936
  22 H :    0.118172
  23 H :    0.079069
  24 H :    0.089565
  25 H :    0.088944
  26 H :    0.098482
  27 H :    0.097442
Sum of atomic charges:   -0.0000000

LOEWDIN ATOMIC CHARGES
----------------------
   0 C :   -0.290141
   1 C :   -0.265891
   2 N :    0.120151
   3 C :   -0.263916
   4 C :   -0.267645
   5 H :    0.145652
   6 C :   -0.268283
   7 H :    0.133408
   8 H :    0.136564
   9 H :    0.140865
  10 C :   -0.333621
  11 H :    0.127383
  12 H :    0.123395
  13 F :    0.149240
  14 H :    0.123203
  15 H :    0.122620
  16 C :   -0.463997
  17 C :   -0.365551
  18 N :   -0.026885
  19 H :    0.155174
  20 H :    0.169657
  21 H :    0.173053
  22 H :    0.093139
  23 H :    0.089939
  24 H :    0.136163
  25 H :    0.135350
  26 H :    0.132326
  27 H :    0.138649

  Mayer bond orders larger than 0.100000
B(  0-C ,  1-C ) :   0.9821 B(  0-C ,  2-N ) :   0.9544 B(  0-C , 14-H ) :   0.9512
B(  0-C , 15-H ) :   0.9519 B(  1-C ,  3-C ) :   0.9805 B(  1-C , 26-H ) :   0.9769
B(  1-C , 27-H ) :   0.9717 B(  2-N , 16-C ) :   1.2301 B(  2-N , 21-H ) :   0.8899
B(  3-C ,  4-C ) :   0.9626 B(  3-C , 24-H ) :   0.9651 B(  3-C , 25-H ) :   0.9680
B(  4-C ,  5-H ) :   0.9768 B(  4-C ,  6-C ) :   0.9253 B(  4-C ,  7-H ) :   0.9668
B(  6-C ,  8-H ) :   0.9701 B(  6-C ,  9-H ) :   0.9515 B(  6-C , 10-C ) :   0.9787
B( 10-C , 11-H ) :   0.9760 B( 10-C , 12-H ) :   0.9648 B( 10-C , 13-F ) :   0.9108
B( 16-C , 17-C ) :   1.5943 B( 16-C , 18-N ) :   1.0978 B( 17-C , 22-H ) :   1.0000
B( 17-C , 23-H ) :   0.9957 B( 18-N , 19-H ) :   0.9321 B( 18-N , 20-H ) :   0.9249

Dispersion correction           -0.046866651
FINAL SINGLE POINT ENERGY      -524.288658887351

DIPOLE MOMENT
-------------
                                X             Y             Z
Electronic contribution:      6.37132       2.42142       1.68925
Nuclear contribution   :     -7.85451      -2.70006      -1.48294
                        -----------------------------------------
Total Dipole Moment    :     -1.48319      -0.27864       0.20631
                        -----------------------------------------
Magnitude (a.u.)       :      1.52317
Magnitude (Debye)      :      3.87159

Rotational constants in cm-1:     0.044065     0.029250     0.019826
Rotational constants in MHz :  1321.026981   876.903192   594.367265

                             ****ORCA TERMINATED NORMALLY****
TOTAL RUN TIME: 0 days 0 hours 0 minutes 47 seconds 751 msec
