                         Program Version 5.0.0 -  RELEASE  -
|  1> !B3LYP D3BJ RIJCOSX def2-TZVP def2/J TightSCF xyzfile
|  2>
|  3> *xyzfile 0 1 D3.xyz
|  4>
|  5> %MaxCore 64000
|  6>
|  7> %pal nprocs 18
|  8> end
|  9>
| 10> %scf
| 11>   MaxIter 150
| 12> end
| 13>
| 14>
| 15>                          ****END OF INPUT****

CARTESIAN COORDINATES (ANGSTROEM)
---------------------------------
  C      1.635557   -1.670396   -5.292109
  C      0.338484   -1.500907   -4.505398
  N      2.484511   -0.507410   -5.140392
  C     -0.684873   -0.528026   -5.099889
  C     -0.290406    0.951335   -5.153423
  H      0.607991    1.070692   -5.764412
  C     -0.055168    1.619420   -3.788577
  H     -1.080912    1.483775   -5.689436
  H      0.045006    0.862302   -3.003015
  H     -0.922936    2.230329   -3.517028
  C      1.223022    2.469865   -3.756911
  H      1.114701    3.258074   -4.532999
  H      1.237732    3.011242   -2.792157
  F      2.353815    1.712032   -3.934477
  H      1.398337   -1.829239   -6.352591
  H      2.155864   -2.565398   -4.932091
  C      3.451149   -0.149530   -5.952589
  N      3.922667    1.089559   -5.850711
  C      3.966162   -1.006183   -6.867880
  H      3.521391   -1.906467   -6.995270
  H      4.444824   -0.623472   -7.670348
  H      2.251995    0.240804   -4.498792
  H      3.464277    1.640782   -5.136392
  H      4.834470    1.313745   -6.224653
  H     -0.937999   -0.869056   -6.110838
  H     -1.604638   -0.622496   -4.513132
  H      0.594887   -1.211578   -3.482312
  H     -0.126530   -2.487656   -4.434176

 Total Charge           Charge          ....    0
 Multiplicity           Mult            ....    1
 Number of Electrons    NEL             ....   88
 Basis Dimension        Dim             ....  443

ORBITAL ENERGIES
----------------

  NO   OCC          E(Eh)            E(eV)
   0   2.0000     -24.724150      -672.7783
   1   2.0000     -14.290038      -388.8517
   2   2.0000     -14.285480      -388.7277
   3   2.0000     -10.275337      -279.6061
   4   2.0000     -10.192499      -277.3520
   5   2.0000     -10.191265      -277.3184
   6   2.0000     -10.189352      -277.2664
   7   2.0000     -10.175162      -276.8802
   8   2.0000     -10.171976      -276.7936
   9   2.0000     -10.168707      -276.7046
  10   2.0000     -10.059644      -273.7368
  11   2.0000      -1.262943       -34.3664
  12   2.0000      -0.955354       -25.9965
  13   2.0000      -0.867760       -23.6129
  14   2.0000      -0.822619       -22.3846
  15   2.0000      -0.779568       -21.2131
  16   2.0000      -0.728866       -19.8334
  17   2.0000      -0.692229       -18.8365
  18   2.0000      -0.659780       -17.9535
  19   2.0000      -0.634051       -17.2534
  20   2.0000      -0.578765       -15.7490
  21   2.0000      -0.569706       -15.5025
  22   2.0000      -0.557818       -15.1790
  23   2.0000      -0.532773       -14.4975
  24   2.0000      -0.528175       -14.3724
  25   2.0000      -0.496625       -13.5138
  26   2.0000      -0.489095       -13.3090
  27   2.0000      -0.473229       -12.8772
  28   2.0000      -0.462148       -12.5757
  29   2.0000      -0.435774       -11.8580
  30   2.0000      -0.427712       -11.6386
  31   2.0000      -0.418724       -11.3941
  32   2.0000      -0.401239       -10.9183
  33   2.0000      -0.377827       -10.2812
  34   2.0000      -0.376261       -10.2386
  35   2.0000      -0.364446        -9.9171
  36   2.0000      -0.358926        -9.7669
  37   2.0000      -0.354115        -9.6360
  38   2.0000      -0.342732        -9.3262
  39   2.0000      -0.333654        -9.0792
  40   2.0000      -0.325070        -8.8456
  41   2.0000      -0.320949        -8.7335
  42   2.0000      -0.228896        -6.2286
  43   2.0000      -0.146081        -3.9751
  44   0.0000       0.022264         0.6058
  45   0.0000       0.038827         1.0565
  46   0.0000       0.045254         1.2314
  47   0.0000       0.052785         1.4364
  48   0.0000       0.061117         1.6631

MULLIKEN ATOMIC CHARGES
-----------------------
   0 C :   -0.048229
   1 C :   -0.202025
   2 N :   -0.297553
   3 C :   -0.162958
   4 C :   -0.221617
   5 H :    0.134491
   6 C :   -0.196223
   7 H :    0.093168
   8 H :    0.108411
   9 H :    0.111431
  10 C :    0.024692
  11 H :    0.109981
  12 H :    0.110959
  13 F :   -0.253323
  14 H :    0.088139
  15 H :    0.097306
  16 C :    0.324370
  17 N :   -0.483985
  18 C :   -0.531769
  19 H :    0.070134
  20 H :    0.071562
  21 H :    0.217952
  22 H :    0.233050
  23 H :    0.225982
  24 H :    0.095130
  25 H :    0.088320
  26 H :    0.092358
  27 H :    0.100245
Sum of atomic charges:   -0.0000000

LOEWDIN ATOMIC CHARGES
----------------------
   0 C :   -0.271597
   1 C :   -0.267349
   2 N :    0.121668
   3 C :   -0.262917
   4 C :   -0.268150
   5 H :    0.141487
   6 C :   -0.266746
   7 H :    0.133995
   8 H :    0.138742
   9 H :    0.143012
  10 C :   -0.332411
  11 H :    0.128178
  12 H :    0.126267
  13 F :    0.137899
  14 H :    0.132030
  15 H :    0.127787
  16 C :   -0.473007
  17 N :   -0.022134
  18 C :   -0.370433
  19 H :    0.091482
  20 H :    0.089613
  21 H :    0.161200
  22 H :    0.147657
  23 H :    0.170583
  24 H :    0.138281
  25 H :    0.135057
  26 H :    0.129937
  27 H :    0.139869

  Mayer bond orders larger than 0.100000
B(  0-C ,  1-C ) :   0.9690 B(  0-C ,  2-N ) :   0.9360 B(  0-C , 14-H ) :   0.9585
B(  0-C , 15-H ) :   0.9628 B(  1-C ,  3-C ) :   0.9760 B(  1-C , 26-H ) :   0.9766
B(  1-C , 27-H ) :   0.9735 B(  2-N , 16-C ) :   1.1948 B(  2-N , 21-H ) :   0.8960
B(  3-C ,  4-C ) :   0.9658 B(  3-C , 24-H ) :   0.9641 B(  3-C , 25-H ) :   0.9680
B(  4-C ,  5-H ) :   0.9770 B(  4-C ,  6-C ) :   0.9203 B(  4-C ,  7-H ) :   0.9658
B(  6-C ,  8-H ) :   0.9704 B(  6-C ,  9-H ) :   0.9506 B(  6-C , 10-C ) :   0.9765
B( 10-C , 11-H ) :   0.9756 B( 10-C , 12-H ) :   0.9673 B( 10-C , 13-F ) :   0.8821
B( 16-C , 17-N ) :   1.1474 B( 16-C , 18-C ) :   1.6036 B( 17-N , 22-H ) :   0.8930
B( 17-N , 23-H ) :   0.9259 B( 18-C , 19-H ) :   1.0097 B( 18-C , 20-H ) :   1.0011

Dispersion correction           -0.046791358
FINAL SINGLE POINT ENERGY      -524.300141238262

DIPOLE MOMENT
-------------
                                X             Y             Z
Electronic contribution:      6.28503       4.47562       2.81564
Nuclear contribution   :     -7.84660      -3.08098      -1.66782
                        -----------------------------------------
Total Dipole Moment    :     -1.56158       1.39464       1.14782
                        -----------------------------------------
Magnitude (a.u.)       :      2.38768
Magnitude (Debye)      :      6.06901

Rotational constants in cm-1:     0.043547     0.029898     0.020008
Rotational constants in MHz :  1305.520367   896.323854   599.829375

                             ****ORCA TERMINATED NORMALLY****
TOTAL RUN TIME: 0 days 0 hours 0 minutes 39 seconds 2 msec
