                         Program Version 5.0.0 -  RELEASE  -
|  1> !wB97X-D3 RIJCOSX def2-SVPD def2/J TightSCF
|  2> *xyz -1 1
|  3> C         -7.33044       -2.67899       -3.20681
|  4> S         -6.01966       -2.92697       -4.41913
|  5> O         -5.64583       -1.58838       -4.91931
|  6> O         -4.88196       -3.50370       -3.66724
|  7> O         -6.54927       -3.80515       -5.42507
|  8> C         -7.46900       -1.24615       -2.71383
|  9> H         -7.11825       -3.37982       -2.39805
| 10> H         -8.24184       -3.00474       -3.70651
| 11> H         -7.67580       -0.60214       -3.54292
| 12> H         -6.55749       -0.94096       -2.24382
| 13> H         -8.27114       -1.18777       -2.00810
| 14> *
| 15> %MaxCore 64000
| 16>
| 17> %pal nprocs 18
| 18> end
| 19>
| 20> %scf
| 21>   MaxIter 150
| 22> end
| 23>
| 24>
| 25>                          ****END OF INPUT****

CARTESIAN COORDINATES (ANGSTROEM)
---------------------------------
  C     -7.330440   -2.678990   -3.206810
  S     -6.019660   -2.926970   -4.419130
  O     -5.645830   -1.588380   -4.919310
  O     -4.881960   -3.503700   -3.667240
  O     -6.549270   -3.805150   -5.425070
  C     -7.469000   -1.246150   -2.713830
  H     -7.118250   -3.379820   -2.398050
  H     -8.241840   -3.004740   -3.706510
  H     -7.675800   -0.602140   -3.542920
  H     -6.557490   -0.940960   -2.243820
  H     -8.271140   -1.187770   -2.008100

 Total Charge           Charge          ....   -1
 Multiplicity           Mult            ....    1
 Number of Electrons    NEL             ....   58
 Basis Dimension        Dim             ....  176

ORBITAL ENERGIES
----------------

  NO   OCC          E(Eh)            E(eV)
   0   2.0000     -88.976121     -2421.1633
   1   2.0000     -19.029016      -517.8058
   2   2.0000     -19.017764      -517.4997
   3   2.0000     -19.014431      -517.4090
   4   2.0000     -10.157130      -276.3896
   5   2.0000     -10.149843      -276.1913
   6   2.0000      -8.049788      -219.0459
   7   2.0000      -6.009309      -163.5216
   8   2.0000      -6.009266      -163.5204
   9   2.0000      -6.008792      -163.5075
  10   2.0000      -1.044221       -28.4147
  11   2.0000      -0.901233       -24.5238
  12   2.0000      -0.877909       -23.8891
  13   2.0000      -0.749918       -20.4063
  14   2.0000      -0.620160       -16.8754
  15   2.0000      -0.490461       -13.3461
  16   2.0000      -0.426500       -11.6056
  17   2.0000      -0.421765       -11.4768
  18   2.0000      -0.381122       -10.3708
  19   2.0000      -0.362843        -9.8735
  20   2.0000      -0.359401        -9.7798
  21   2.0000      -0.329034        -8.9535
  22   2.0000      -0.319011        -8.6807
  23   2.0000      -0.247617        -6.7380
  24   2.0000      -0.246706        -6.7132
  25   2.0000      -0.209129        -5.6907
  26   2.0000      -0.201705        -5.4887
  27   2.0000      -0.194595        -5.2952
  28   2.0000      -0.157415        -4.2835
  29   0.0000       0.205751         5.5988
  30   0.0000       0.229064         6.2332
  31   0.0000       0.232908         6.3377
  32   0.0000       0.239316         6.5121
  33   0.0000       0.260384         7.0854

MULLIKEN ATOMIC CHARGES
-----------------------
   0 C :   -0.387294
   1 S :    1.339127
   2 O :   -0.844561
   3 O :   -0.837804
   4 O :   -0.788848
   5 C :    0.698569
   6 H :   -0.016166
   7 H :   -0.000802
   8 H :   -0.004062
   9 H :   -0.027321
  10 H :   -0.130838
Sum of atomic charges:   -1.0000000

LOEWDIN ATOMIC CHARGES
----------------------
   0 C :   -0.125181
   1 S :    0.877211
   2 O :   -0.592867
   3 O :   -0.606968
   4 O :   -0.581219
   5 C :    0.091908
   6 H :    0.003021
   7 H :   -0.003289
   8 H :   -0.019695
   9 H :   -0.010771
  10 H :   -0.032149

  Mayer bond orders larger than 0.100000
B(  0-C ,  1-S ) :   0.8966 B(  0-C ,  5-C ) :   1.2491 B(  0-C ,  6-H ) :   0.9899
B(  0-C ,  7-H ) :   0.9905 B(  0-C ,  8-H ) :   0.1865 B(  0-C ,  9-H ) :   0.1791
B(  0-C , 10-H ) :   0.1885 B(  1-S ,  2-O ) :   1.2971 B(  1-S ,  3-O ) :   1.2920
B(  1-S ,  4-O ) :   1.3535 B(  5-C ,  8-H ) :   0.8172 B(  5-C ,  9-H ) :   0.8223
B(  5-C , 10-H ) :   0.8059

Dispersion correction           -0.002806043
FINAL SINGLE POINT ENERGY      -702.690445468811

DIPOLE MOMENT
-------------
                                X             Y             Z
Electronic contribution:      4.60040      -3.48549      -5.03034
Nuclear contribution   :     -6.18165       4.01759       6.33106
                        -----------------------------------------
Total Dipole Moment    :     -1.58125       0.53210       1.30072
                        -----------------------------------------
Magnitude (a.u.)       :      2.11551
Magnitude (Debye)      :      5.37719

Rotational constants in cm-1:     0.161711     0.082788     0.081165
Rotational constants in MHz :  4847.971521  2481.906910  2433.276832

                             ****ORCA TERMINATED NORMALLY****
TOTAL RUN TIME: 0 days 0 hours 0 minutes 10 seconds 169 msec
