                         Program Version 5.0.0 -  RELEASE  -
|  1> !wB97X-D3 RIJCOSX def2-SVPD def2/J TightSCF
|  2> *xyz 1 1
|  3> C         -2.16038       -1.36949       -3.46710
|  4> N         -3.03011       -1.91086       -4.54107
|  5> C         -2.04772        0.14658       -3.51177
|  6> H         -3.47744       -2.79151       -4.25710
|  7> H         -2.53801       -2.01786       -5.43808
|  8> H         -3.89159       -1.37604       -4.71437
|  9> H         -1.18444       -1.84400       -3.56639
| 10> H         -2.59819       -1.70838       -2.52848
| 11> H         -1.61525        0.44478       -4.44395
| 12> H         -1.42718        0.48198       -2.70720
| 13> H         -3.02145        0.57958       -3.41560
| 14> *
| 15> %MaxCore 64000
| 16>
| 17> %pal nprocs 18
| 18> end
| 19>
| 20> %scf
| 21>   MaxIter 150
| 22> end
| 23>
| 24>
| 25>                          ****END OF INPUT****

CARTESIAN COORDINATES (ANGSTROEM)
---------------------------------
  C     -2.160380   -1.369490   -3.467100
  N     -3.030110   -1.910860   -4.541070
  C     -2.047720    0.146580   -3.511770
  H     -3.477440   -2.791510   -4.257100
  H     -2.538010   -2.017860   -5.438080
  H     -3.891590   -1.376040   -4.714370
  H     -1.184440   -1.844000   -3.566390
  H     -2.598190   -1.708380   -2.528480
  H     -1.615250    0.444780   -4.443950
  H     -1.427180    0.481980   -2.707200
  H     -3.021450    0.579580   -3.415600

 Total Charge           Charge          ....    1
 Multiplicity           Mult            ....    1
 Number of Electrons    NEL             ....   26
 Basis Dimension        Dim             ....  124

ORBITAL ENERGIES
----------------

  NO   OCC          E(Eh)            E(eV)
   0   2.0000     -14.775418      -402.0596
   1   2.0000     -10.544853      -286.9400
   2   2.0000     -10.463705      -284.7319
   3   2.0000      -1.327395       -36.1202
   4   2.0000      -1.078078       -29.3360
   5   2.0000      -0.954509       -25.9735
   6   2.0000      -0.914827       -24.8937
   7   2.0000      -0.874129       -23.7862
   8   2.0000      -0.801982       -21.8231
   9   2.0000      -0.743772       -20.2391
  10   2.0000      -0.679530       -18.4910
  11   2.0000      -0.664202       -18.0739
  12   2.0000      -0.645456       -17.5638
  13   0.0000      -0.113451        -3.0872
  14   0.0000      -0.054829        -1.4920
  15   0.0000      -0.051741        -1.4080
  16   0.0000      -0.043778        -1.1913
  17   0.0000      -0.014911        -0.4058

MULLIKEN ATOMIC CHARGES
-----------------------
   0 C :    0.168384
   1 N :   -0.908698
   2 C :    0.471701
   3 H :    0.392956
   4 H :    0.438208
   5 H :    0.400664
   6 H :   -0.036808
   7 H :   -0.006426
   8 H :    0.043516
   9 H :    0.043982
  10 H :   -0.007479
Sum of atomic charges:    1.0000000

LOEWDIN ATOMIC CHARGES
----------------------
   0 C :    0.056454
   1 N :    0.318568
   2 C :    0.166821
   3 H :    0.107620
   4 H :    0.115379
   5 H :    0.107145
   6 H :    0.055018
   7 H :    0.052736
   8 H :    0.003097
   9 H :    0.016287
  10 H :    0.000875

  Mayer bond orders larger than 0.100000
B(  0-C ,  1-N ) :   0.6862 B(  0-C ,  2-C ) :   1.3016 B(  0-C ,  6-H ) :   0.9478
B(  0-C ,  7-H ) :   0.9432 B(  0-C ,  8-H ) :   0.1336 B(  0-C ,  9-H ) :   0.1595
B(  0-C , 10-H ) :   0.1456 B(  1-N ,  3-H ) :   0.7413 B(  1-N ,  4-H ) :   0.6788
B(  1-N ,  5-H ) :   0.7360 B(  1-N ,  6-H ) :   0.1071 B(  2-C ,  8-H ) :   0.8376
B(  2-C ,  9-H ) :   0.8516 B(  2-C , 10-H ) :   0.8676

Dispersion correction           -0.001538115
FINAL SINGLE POINT ENERGY      -135.406564454143

DIPOLE MOMENT
-------------
                                X             Y             Z
Electronic contribution:     -0.65535      -1.49857      -0.78159
Nuclear contribution   :     -0.15215       0.37393      -0.04773
                        -----------------------------------------
Total Dipole Moment    :     -0.80750      -1.12463      -0.82932
                        -----------------------------------------
Magnitude (a.u.)       :      1.61389
Magnitude (Debye)      :      4.10217

Rotational constants in cm-1:     1.020762     0.277172     0.247319
Rotational constants in MHz : 30601.664035  8309.399682  7414.438136

                             ****ORCA TERMINATED NORMALLY****
TOTAL RUN TIME: 0 days 0 hours 0 minutes 5 seconds 257 msec
