                         Program Version 5.0.0 -  RELEASE  -
|  1> !wB97X-D3 RIJCOSX def2-SVPD def2/J TightSCF
|  2> *xyz 0 1
|  3> C         -7.33044       -2.67899       -3.20681
|  4> S         -6.01966       -2.92697       -4.41913
|  5> F         -5.64583       -1.58838       -4.91931
|  6> O         -4.88196       -3.50370       -3.66724
|  7> O         -6.54927       -3.80515       -5.42507
|  8> C         -7.46900       -1.24615       -2.71383
|  9> H         -7.11825       -3.37982       -2.39805
| 10> H         -8.24184       -3.00474       -3.70651
| 11> H         -7.67580       -0.60214       -3.54292
| 12> H         -6.55749       -0.94096       -2.24382
| 13> H         -8.27114       -1.18777       -2.00810
| 14> *
| 15> %MaxCore 64000
| 16>
| 17> %pal nprocs 18
| 18> end
| 19>
| 20> %scf
| 21>   MaxIter 150
| 22> end
| 23>
| 24>
| 25>                          ****END OF INPUT****

CARTESIAN COORDINATES (ANGSTROEM)
---------------------------------
  C     -7.330440   -2.678990   -3.206810
  S     -6.019660   -2.926970   -4.419130
  F     -5.645830   -1.588380   -4.919310
  O     -4.881960   -3.503700   -3.667240
  O     -6.549270   -3.805150   -5.425070
  C     -7.469000   -1.246150   -2.713830
  H     -7.118250   -3.379820   -2.398050
  H     -8.241840   -3.004740   -3.706510
  H     -7.675800   -0.602140   -3.542920
  H     -6.557490   -0.940960   -2.243820
  H     -8.271140   -1.187770   -2.008100

 Total Charge           Charge          ....    0
 Multiplicity           Mult            ....    1
 Number of Electrons    NEL             ....   58
 Basis Dimension        Dim             ....  176

ORBITAL ENERGIES
----------------

  NO   OCC          E(Eh)            E(eV)
   0   2.0000     -89.234771     -2428.2016
   1   2.0000     -24.907793      -677.7755
   2   2.0000     -19.263907      -524.1975
   3   2.0000     -19.248750      -523.7851
   4   2.0000     -10.359235      -281.8891
   5   2.0000     -10.320958      -280.8475
   6   2.0000      -8.309229      -226.1056
   7   2.0000      -6.272924      -170.6949
   8   2.0000      -6.266528      -170.5209
   9   2.0000      -6.265217      -170.4852
  10   2.0000      -1.467980       -39.9458
  11   2.0000      -1.229173       -33.4475
  12   2.0000      -1.123439       -30.5703
  13   2.0000      -0.946627       -25.7590
  14   2.0000      -0.837975       -22.8025
  15   2.0000      -0.790192       -21.5022
  16   2.0000      -0.698910       -19.0183
  17   2.0000      -0.678695       -18.4682
  18   2.0000      -0.651152       -17.7188
  19   2.0000      -0.606380       -16.5004
  20   2.0000      -0.580705       -15.8018
  21   2.0000      -0.555637       -15.1197
  22   2.0000      -0.547934       -14.9100
  23   2.0000      -0.517229       -14.0745
  24   2.0000      -0.498819       -13.5736
  25   2.0000      -0.487787       -13.2733
  26   2.0000      -0.434129       -11.8132
  27   2.0000      -0.420964       -11.4550
  28   2.0000      -0.408673       -11.1206
  29   0.0000       0.060101         1.6354
  30   0.0000       0.092969         2.5298
  31   0.0000       0.096599         2.6286
  32   0.0000       0.099192         2.6992
  33   0.0000       0.117051         3.1851

MULLIKEN ATOMIC CHARGES
-----------------------
   0 C :   -0.414238
   1 S :    1.497628
   2 F :   -0.432344
   3 O :   -0.706561
   4 O :   -0.656209
   5 C :    0.651281
   6 H :    0.052332
   7 H :    0.066034
   8 H :    0.012008
   9 H :   -0.001893
  10 H :   -0.068038
Sum of atomic charges:    0.0000000

LOEWDIN ATOMIC CHARGES
----------------------
   0 C :   -0.076207
   1 S :    1.139686
   2 F :   -0.272788
   3 O :   -0.491741
   4 O :   -0.467084
   5 C :    0.121941
   6 H :    0.033100
   7 H :    0.021893
   8 H :   -0.007085
   9 H :    0.000658
  10 H :   -0.002372

  Mayer bond orders larger than 0.100000
B(  0-C ,  1-S ) :   0.9690 B(  0-C ,  5-C ) :   1.2658 B(  0-C ,  6-H ) :   0.9834
B(  0-C ,  7-H ) :   0.9908 B(  0-C ,  8-H ) :   0.1640 B(  0-C ,  9-H ) :   0.1575
B(  0-C , 10-H ) :   0.1816 B(  1-S ,  2-F ) :   0.6471 B(  1-S ,  3-O ) :   1.5034
B(  1-S ,  4-O ) :   1.5617 B(  5-C ,  8-H ) :   0.8288 B(  5-C ,  9-H ) :   0.8362
B(  5-C , 10-H ) :   0.8229

Dispersion correction           -0.002799584
FINAL SINGLE POINT ENERGY      -727.186426692843

DIPOLE MOMENT
-------------
                                X             Y             Z
Electronic contribution:      5.59009      -1.68617      -6.33791
Nuclear contribution   :     -6.81251       2.87933       7.15058
                        -----------------------------------------
Total Dipole Moment    :     -1.22242       1.19316       0.81266
                        -----------------------------------------
Magnitude (a.u.)       :      1.89166
Magnitude (Debye)      :      4.80821

Rotational constants in cm-1:     0.152543     0.082494     0.078987
Rotational constants in MHz :  4573.135887  2473.116216  2367.980829

                             ****ORCA TERMINATED NORMALLY****
TOTAL RUN TIME: 0 days 0 hours 0 minutes 9 seconds 875 msec
