                         Program Version 5.0.0 -  RELEASE  -
|  1> !wB97X-D3 RIJCOSX def2-SVPD def2/J TightSCF
|  2> *xyz 0 1
|  3> C         -2.16038       -1.36949       -3.46710
|  4> C         -3.03011       -1.91086       -4.54107
|  5> C         -2.04772        0.14658       -3.51177
|  6> H         -3.47744       -2.79151       -4.25710
|  7> H         -2.53801       -2.01786       -5.43808
|  8> H         -3.89159       -1.37604       -4.71437
|  9> H         -1.18444       -1.84400       -3.56639
| 10> H         -2.59819       -1.70838       -2.52848
| 11> H         -1.61525        0.44478       -4.44395
| 12> H         -1.42718        0.48198       -2.70720
| 13> H         -3.02145        0.57958       -3.41560
| 14> *
| 15> %MaxCore 64000
| 16>
| 17> %pal nprocs 18
| 18> end
| 19>
| 20> %scf
| 21>   MaxIter 150
| 22> end
| 23>
| 24>
| 25>                          ****END OF INPUT****

CARTESIAN COORDINATES (ANGSTROEM)
---------------------------------
  C     -2.160380   -1.369490   -3.467100
  C     -3.030110   -1.910860   -4.541070
  C     -2.047720    0.146580   -3.511770
  H     -3.477440   -2.791510   -4.257100
  H     -2.538010   -2.017860   -5.438080
  H     -3.891590   -1.376040   -4.714370
  H     -1.184440   -1.844000   -3.566390
  H     -2.598190   -1.708380   -2.528480
  H     -1.615250    0.444780   -4.443950
  H     -1.427180    0.481980   -2.707200
  H     -3.021450    0.579580   -3.415600

 Total Charge           Charge          ....    0
 Multiplicity           Mult            ....    1
 Number of Electrons    NEL             ....   26
 Basis Dimension        Dim             ....  124

ORBITAL ENERGIES
----------------

  NO   OCC          E(Eh)            E(eV)
   0   2.0000     -10.276415      -279.6355
   1   2.0000     -10.267432      -279.3910
   2   2.0000     -10.249405      -278.9005
   3   2.0000      -0.901815       -24.5396
   4   2.0000      -0.799490       -21.7552
   5   2.0000      -0.693200       -18.8629
   6   2.0000      -0.572094       -15.5675
   7   2.0000      -0.540725       -14.7139
   8   2.0000      -0.500241       -13.6123
   9   2.0000      -0.491157       -13.3651
  10   2.0000      -0.434271       -11.8171
  11   2.0000      -0.421789       -11.4775
  12   2.0000      -0.420552       -11.4438
  13   0.0000       0.097693         2.6584
  14   0.0000       0.124465         3.3869
  15   0.0000       0.131995         3.5918
  16   0.0000       0.162410         4.4194
  17   0.0000       0.182699         4.9715

MULLIKEN ATOMIC CHARGES
-----------------------
   0 C :   -0.585091
   1 C :    0.822384
   2 C :    0.563120
   3 H :   -0.162184
   4 H :   -0.162208
   5 H :   -0.229528
   6 H :   -0.095648
   7 H :   -0.040305
   8 H :   -0.040628
   9 H :   -0.051121
  10 H :   -0.018791
Sum of atomic charges:   -0.0000000

LOEWDIN ATOMIC CHARGES
----------------------
   0 C :   -0.115838
   1 C :    0.104908
   2 C :    0.111875
   3 H :   -0.034868
   4 H :   -0.025319
   5 H :   -0.033455
   6 H :    0.022197
   7 H :    0.020618
   8 H :   -0.013995
   9 H :   -0.020664
  10 H :   -0.015460

  Mayer bond orders larger than 0.100000
B(  0-C ,  1-C ) :   1.2788 B(  0-C ,  2-C ) :   1.2284 B(  0-C ,  3-H ) :   0.1918
B(  0-C ,  4-H ) :   0.2120 B(  0-C ,  5-H ) :   0.1785 B(  0-C ,  6-H ) :   0.9739
B(  0-C ,  7-H ) :   0.9398 B(  0-C ,  8-H ) :   0.1702 B(  0-C ,  9-H ) :   0.1747
B(  0-C , 10-H ) :   0.1399 B(  1-C ,  3-H ) :   0.7017 B(  1-C ,  4-H ) :   0.7455
B(  1-C ,  5-H ) :   0.7158 B(  1-C ,  6-H ) :   0.1067 B(  2-C ,  8-H ) :   0.8487
B(  2-C ,  9-H ) :   0.8418 B(  2-C , 10-H ) :   0.8578 B(  3-H ,  5-H ) :   0.2071
B(  4-H ,  5-H ) :   0.1210

Dispersion correction           -0.001485600
FINAL SINGLE POINT ENERGY      -119.010119396078

DIPOLE MOMENT
-------------
                                X             Y             Z
Electronic contribution:      0.31512      -0.13085       0.27344
Nuclear contribution   :     -0.34625       0.09603      -0.26933
                        -----------------------------------------
Total Dipole Moment    :     -0.03113      -0.03482       0.00410
                        -----------------------------------------
Magnitude (a.u.)       :      0.04688
Magnitude (Debye)      :      0.11917

Rotational constants in cm-1:     1.028617     0.291238     0.258956
Rotational constants in MHz : 30837.159054  8731.095379  7763.318586

                             ****ORCA TERMINATED NORMALLY****
TOTAL RUN TIME: 0 days 0 hours 0 minutes 5 seconds 454 msec
