                         Program Version 5.0.0 -  RELEASE  -
|  1> !wB97X-D3 RIJCOSX def2-SVPD def2/J TightSCF
|  2> *xyz 0 1
|  3> C         -7.33044       -2.67899       -3.20681
|  4> S         -6.01966       -2.92697       -4.41913
|  5> O         -5.64583       -1.58838       -4.91931
|  6> F         -4.88196       -3.50370       -3.66724
|  7> O         -6.54927       -3.80515       -5.42507
|  8> C         -7.46900       -1.24615       -2.71383
|  9> H         -7.11825       -3.37982       -2.39805
| 10> H         -8.24184       -3.00474       -3.70651
| 11> H         -7.67580       -0.60214       -3.54292
| 12> H         -6.55749       -0.94096       -2.24382
| 13> H         -8.27114       -1.18777       -2.00810
| 14> *
| 15> %MaxCore 64000
| 16>
| 17> %pal nprocs 18
| 18> end
| 19>
| 20> %scf
| 21>   MaxIter 150
| 22> end
| 23>
| 24>
| 25>                          ****END OF INPUT****

CARTESIAN COORDINATES (ANGSTROEM)
---------------------------------
  C     -7.330440   -2.678990   -3.206810
  S     -6.019660   -2.926970   -4.419130
  O     -5.645830   -1.588380   -4.919310
  F     -4.881960   -3.503700   -3.667240
  O     -6.549270   -3.805150   -5.425070
  C     -7.469000   -1.246150   -2.713830
  H     -7.118250   -3.379820   -2.398050
  H     -8.241840   -3.004740   -3.706510
  H     -7.675800   -0.602140   -3.542920
  H     -6.557490   -0.940960   -2.243820
  H     -8.271140   -1.187770   -2.008100

 Total Charge           Charge          ....    0
 Multiplicity           Mult            ....    1
 Number of Electrons    NEL             ....   58
 Basis Dimension        Dim             ....  176

ORBITAL ENERGIES
----------------

  NO   OCC          E(Eh)            E(eV)
   0   2.0000     -89.234872     -2428.2043
   1   2.0000     -24.904996      -677.6994
   2   2.0000     -19.263914      -524.1978
   3   2.0000     -19.252017      -523.8740
   4   2.0000     -10.359517      -281.8968
   5   2.0000     -10.311949      -280.6024
   6   2.0000      -8.309319      -226.1081
   7   2.0000      -6.272923      -170.6949
   8   2.0000      -6.266631      -170.5237
   9   2.0000      -6.265404      -170.4903
  10   2.0000      -1.464366       -39.8474
  11   2.0000      -1.230116       -33.4732
  12   2.0000      -1.126855       -30.6633
  13   2.0000      -0.942202       -25.6386
  14   2.0000      -0.839259       -22.8374
  15   2.0000      -0.782949       -21.3051
  16   2.0000      -0.688965       -18.7477
  17   2.0000      -0.674843       -18.3634
  18   2.0000      -0.660036       -17.9605
  19   2.0000      -0.600679       -16.3453
  20   2.0000      -0.588685       -16.0189
  21   2.0000      -0.560082       -15.2406
  22   2.0000      -0.532444       -14.4885
  23   2.0000      -0.505381       -13.7521
  24   2.0000      -0.499385       -13.5890
  25   2.0000      -0.484746       -13.1906
  26   2.0000      -0.433639       -11.7999
  27   2.0000      -0.426931       -11.6174
  28   2.0000      -0.411611       -11.2005
  29   0.0000       0.064573         1.7571
  30   0.0000       0.087578         2.3831
  31   0.0000       0.096592         2.6284
  32   0.0000       0.098227         2.6729
  33   0.0000       0.112553         3.0627

MULLIKEN ATOMIC CHARGES
-----------------------
   0 C :   -0.440060
   1 S :    1.513906
   2 O :   -0.717518
   3 F :   -0.422324
   4 O :   -0.662898
   5 C :    0.683876
   6 H :    0.043898
   7 H :    0.063334
   8 H :    0.029798
   9 H :   -0.015986
  10 H :   -0.076027
Sum of atomic charges:   -0.0000000

LOEWDIN ATOMIC CHARGES
----------------------
   0 C :   -0.082309
   1 S :    1.142841
   2 O :   -0.481962
   3 F :   -0.278071
   4 O :   -0.467819
   5 C :    0.126473
   6 H :    0.020663
   7 H :    0.026233
   8 H :   -0.002234
   9 H :   -0.000370
  10 H :   -0.003445

  Mayer bond orders larger than 0.100000
B(  0-C ,  1-S ) :   0.9582 B(  0-C ,  5-C ) :   1.2922 B(  0-C ,  6-H ) :   0.9624
B(  0-C ,  7-H ) :   0.9936 B(  0-C ,  8-H ) :   0.1771 B(  0-C ,  9-H ) :   0.1723
B(  0-C , 10-H ) :   0.1793 B(  1-S ,  2-O ) :   1.5104 B(  1-S ,  3-F ) :   0.6354
B(  1-S ,  4-O ) :   1.5609 B(  5-C ,  8-H ) :   0.8259 B(  5-C ,  9-H ) :   0.8252
B(  5-C , 10-H ) :   0.8183

Dispersion correction           -0.002786952
FINAL SINGLE POINT ENERGY      -727.189584359358

DIPOLE MOMENT
-------------
                                X             Y             Z
Electronic contribution:      6.93621      -4.96597      -4.21782
Nuclear contribution   :     -7.60849       4.87515       5.84588
                        -----------------------------------------
Total Dipole Moment    :     -0.67227      -0.09082       1.62806
                        -----------------------------------------
Magnitude (a.u.)       :      1.76374
Magnitude (Debye)      :      4.48307

Rotational constants in cm-1:     0.153704     0.080342     0.079431
Rotational constants in MHz :  4607.928650  2408.599360  2381.267225

                             ****ORCA TERMINATED NORMALLY****
TOTAL RUN TIME: 0 days 0 hours 0 minutes 10 seconds 209 msec
