                         Program Version 5.0.0 -  RELEASE  -
|  1> !wB97X-D3 RIJCOSX def2-SVPD def2/J TightSCF
|  2> *xyz 0 1
|  3> C         -7.33044       -2.67899       -3.20681
|  4> S         -6.01966       -2.92697       -4.41913
|  5> O         -5.64583       -1.58838       -4.91931
|  6> O         -4.88196       -3.50370       -3.66724
|  7> F         -6.54927       -3.80515       -5.42507
|  8> C         -7.46900       -1.24615       -2.71383
|  9> H         -7.11825       -3.37982       -2.39805
| 10> H         -8.24184       -3.00474       -3.70651
| 11> H         -7.67580       -0.60214       -3.54292
| 12> H         -6.55749       -0.94096       -2.24382
| 13> H         -8.27114       -1.18777       -2.00810
| 14> *
| 15> %MaxCore 64000
| 16>
| 17> %pal nprocs 18
| 18> end
| 19>
| 20> %scf
| 21>   MaxIter 150
| 22> end
| 23>
| 24>
| 25>                          ****END OF INPUT****

CARTESIAN COORDINATES (ANGSTROEM)
---------------------------------
  C     -7.330440   -2.678990   -3.206810
  S     -6.019660   -2.926970   -4.419130
  O     -5.645830   -1.588380   -4.919310
  O     -4.881960   -3.503700   -3.667240
  F     -6.549270   -3.805150   -5.425070
  C     -7.469000   -1.246150   -2.713830
  H     -7.118250   -3.379820   -2.398050
  H     -8.241840   -3.004740   -3.706510
  H     -7.675800   -0.602140   -3.542920
  H     -6.557490   -0.940960   -2.243820
  H     -8.271140   -1.187770   -2.008100

 Total Charge           Charge          ....    0
 Multiplicity           Mult            ....    1
 Number of Electrons    NEL             ....   58
 Basis Dimension        Dim             ....  176

ORBITAL ENERGIES
----------------

  NO   OCC          E(Eh)            E(eV)
   0   2.0000     -89.237039     -2428.2633
   1   2.0000     -24.927028      -678.2989
   2   2.0000     -19.252414      -523.8848
   3   2.0000     -19.249413      -523.8032
   4   2.0000     -10.360393      -281.9206
   5   2.0000     -10.312079      -280.6059
   6   2.0000      -8.311587      -226.1698
   7   2.0000      -6.275380      -170.7618
   8   2.0000      -6.268715      -170.5804
   9   2.0000      -6.267434      -170.5455
  10   2.0000      -1.502051       -40.8729
  11   2.0000      -1.214376       -33.0448
  12   2.0000      -1.109296       -30.1855
  13   2.0000      -0.942631       -25.6503
  14   2.0000      -0.853828       -23.2338
  15   2.0000      -0.790697       -21.5160
  16   2.0000      -0.703493       -19.1430
  17   2.0000      -0.701107       -19.0781
  18   2.0000      -0.665234       -18.1019
  19   2.0000      -0.602178       -16.3861
  20   2.0000      -0.588223       -16.0064
  21   2.0000      -0.548394       -14.9226
  22   2.0000      -0.529490       -14.4082
  23   2.0000      -0.507993       -13.8232
  24   2.0000      -0.489781       -13.3276
  25   2.0000      -0.481423       -13.1002
  26   2.0000      -0.425519       -11.5790
  27   2.0000      -0.419184       -11.4066
  28   2.0000      -0.397942       -10.8286
  29   0.0000       0.063608         1.7309
  30   0.0000       0.084538         2.3004
  31   0.0000       0.095695         2.6040
  32   0.0000       0.098783         2.6880
  33   0.0000       0.114716         3.1216

MULLIKEN ATOMIC CHARGES
-----------------------
   0 C :   -0.439629
   1 S :    1.515274
   2 O :   -0.707411
   3 O :   -0.698320
   4 F :   -0.395866
   5 C :    0.656140
   6 H :    0.044647
   7 H :    0.061958
   8 H :    0.028018
   9 H :    0.010381
  10 H :   -0.075193
Sum of atomic charges:    0.0000000

LOEWDIN ATOMIC CHARGES
----------------------
   0 C :   -0.087498
   1 S :    1.146334
   2 O :   -0.482716
   3 O :   -0.490703
   4 F :   -0.258577
   5 C :    0.133149
   6 H :    0.025871
   7 H :    0.014487
   8 H :   -0.004105
   9 H :    0.005848
  10 H :   -0.002089

  Mayer bond orders larger than 0.100000
B(  0-C ,  1-S ) :   0.9486 B(  0-C ,  5-C ) :   1.3062 B(  0-C ,  6-H ) :   0.9933
B(  0-C ,  7-H ) :   0.9520 B(  0-C ,  8-H ) :   0.1806 B(  0-C ,  9-H ) :   0.1651
B(  0-C , 10-H ) :   0.1790 B(  1-S ,  2-O ) :   1.5048 B(  1-S ,  3-O ) :   1.5028
B(  1-S ,  4-F ) :   0.6911 B(  5-C ,  8-H ) :   0.8196 B(  5-C ,  9-H ) :   0.8318
B(  5-C , 10-H ) :   0.8202

Dispersion correction           -0.002809093
FINAL SINGLE POINT ENERGY      -727.170471169465

DIPOLE MOMENT
-------------
                                X             Y             Z
Electronic contribution:      4.08133      -5.46160      -7.22676
Nuclear contribution   :     -5.87110       5.18927       7.67759
                        -----------------------------------------
Total Dipole Moment    :     -1.78977      -0.27233       0.45083
                        -----------------------------------------
Magnitude (a.u.)       :      1.86566
Magnitude (Debye)      :      4.74213

Rotational constants in cm-1:     0.155988     0.080452     0.078187
Rotational constants in MHz :  4676.405251  2411.902056  2343.983816

                             ****ORCA TERMINATED NORMALLY****
TOTAL RUN TIME: 0 days 0 hours 0 minutes 11 seconds 946 msec
