                         Program Version 5.0.0 -  RELEASE  -
|  1> !wB97X-D3 RIJCOSX def2-SVPD def2/J TightSCF xyzfile
|  2>
|  3> *xyzfile 0 1 D1.xyz
|  4>
|  5> %MaxCore 64000
|  6>
|  7> %pal nprocs 18
|  8> end
|  9>
| 10> %scf
| 11>   MaxIter 150
| 12> end
| 13>
| 14>
| 15>                          ****END OF INPUT****

CARTESIAN COORDINATES (ANGSTROEM)
---------------------------------
  C     -2.160376   -1.369486   -3.467104
  C     -3.030108   -1.910857   -4.541074
  C     -2.047717    0.146583   -3.511774
  C     -7.330440   -2.678991   -3.206811
  S     -6.019659   -2.926965   -4.419128
  H     -3.477443   -2.791513   -4.257096
  H     -2.538013   -2.017860   -5.438075
  H     -3.891589   -1.376039   -4.714365
  F     -5.645830   -1.588384   -4.919307
  O     -4.881961   -3.503697   -3.667235
  H     -1.184438   -1.843997   -3.566393
  H     -2.598195   -1.708376   -2.528477
  O     -6.549267   -3.805150   -5.425071
  C     -3.328755    0.875037   -3.103669
  H     -1.740034    0.452343   -4.517126
  H     -1.232611    0.434938   -2.842208
  C     -3.628487    0.771601   -1.609363
  H     -4.175106    0.490791   -3.682203
  H     -3.237812    1.928663   -3.381480
  C     -4.975718    1.361432   -1.190644
  H     -2.830700    1.276234   -1.054766
  H     -3.594312   -0.275838   -1.294603
  C     -6.184720    0.784347   -1.926464
  H     -4.956292    2.445725   -1.342200
  H     -5.097256    1.205252   -0.114136
  C     -6.286921   -0.735882   -1.893531
  H     -6.163994    1.100199   -2.974250
  H     -7.094530    1.223459   -1.504509
  C     -7.468999   -1.246153   -2.713833
  H     -6.360641   -1.090347   -0.859176
  H     -5.369848   -1.171853   -2.295982
  H     -7.601914   -0.601349   -3.585329
  H     -8.389791   -1.173436   -2.126922
  H     -7.118254   -3.379818   -2.398055
  H     -8.241838   -3.004745   -3.706513

 Total Charge           Charge          ....    0
 Multiplicity           Mult            ....    1
 Number of Electrons    NEL             ....  122
 Basis Dimension        Dim             ....  464

ORBITAL ENERGIES
----------------

  NO   OCC          E(Eh)            E(eV)
   0   2.0000     -89.241462     -2428.3836
   1   2.0000     -24.912904      -677.9146
   2   2.0000     -19.269002      -524.3362
   3   2.0000     -19.252386      -523.8841
   4   2.0000     -10.358152      -281.8596
   5   2.0000     -10.326238      -280.9912
   6   2.0000     -10.304239      -280.3926
   7   2.0000     -10.295967      -280.1675
   8   2.0000     -10.288670      -279.9690
   9   2.0000     -10.281668      -279.7784
  10   2.0000     -10.279141      -279.7096
  11   2.0000     -10.271155      -279.4923
  12   2.0000     -10.261044      -279.2172
  13   2.0000     -10.213368      -277.9199
  14   2.0000      -8.314617      -226.2522
  15   2.0000      -6.278388      -170.8436
  16   2.0000      -6.272098      -170.6725
  17   2.0000      -6.270571      -170.6309
  18   2.0000      -1.475385       -40.1473
  19   2.0000      -1.234912       -33.6037
  20   2.0000      -1.132250       -30.8101
  21   2.0000      -0.963486       -26.2178
  22   2.0000      -0.930023       -25.3072
  23   2.0000      -0.900610       -24.5068
  24   2.0000      -0.873137       -23.7593
  25   2.0000      -0.833297       -22.6752
  26   2.0000      -0.818081       -22.2611
  27   2.0000      -0.781878       -21.2760
  28   2.0000      -0.746333       -20.3088
  29   2.0000      -0.729850       -19.8602
  30   2.0000      -0.701908       -19.0999
  31   2.0000      -0.692391       -18.8409
  32   2.0000      -0.674611       -18.3571
  33   2.0000      -0.659747       -17.9526
  34   2.0000      -0.650673       -17.7057
  35   2.0000      -0.603664       -16.4265
  36   2.0000      -0.596546       -16.2328
  37   2.0000      -0.583923       -15.8894
  38   2.0000      -0.573473       -15.6050
  39   2.0000      -0.567423       -15.4404
  40   2.0000      -0.554146       -15.0791
  41   2.0000      -0.540710       -14.7135
  42   2.0000      -0.534269       -14.5382
  43   2.0000      -0.528547       -14.3825
  44   2.0000      -0.511671       -13.9233
  45   2.0000      -0.496582       -13.5127
  46   2.0000      -0.490036       -13.3345
  47   2.0000      -0.488559       -13.2944
  48   2.0000      -0.473677       -12.8894
  49   2.0000      -0.464157       -12.6304
  50   2.0000      -0.452874       -12.3233
  51   2.0000      -0.449947       -12.2437
  52   2.0000      -0.436370       -11.8742
  53   2.0000      -0.431181       -11.7330
  54   2.0000      -0.425143       -11.5687
  55   2.0000      -0.418338       -11.3836
  56   2.0000      -0.411954       -11.2098
  57   2.0000      -0.408072       -11.1042
  58   2.0000      -0.397179       -10.8078
  59   2.0000      -0.394308       -10.7297
  60   2.0000      -0.370337       -10.0774
  61   0.0000       0.061874         1.6837
  62   0.0000       0.084922         2.3109
  63   0.0000       0.091223         2.4823
  64   0.0000       0.096238         2.6188
  65   0.0000       0.102342         2.7849

MULLIKEN ATOMIC CHARGES
-----------------------
   0 C :    0.003209
   1 C :    1.898084
   2 C :    0.538346
   3 C :    0.366207
   4 S :    1.459523
   5 H :   -0.477464
   6 H :   -0.253070
   7 H :   -0.978260
   8 F :   -0.457018
   9 O :   -0.738116
  10 H :   -0.249461
  11 H :   -0.016654
  12 O :   -0.734598
  13 C :    0.365588
  14 H :   -0.075394
  15 H :   -0.091267
  16 C :   -0.152396
  17 H :   -0.553999
  18 H :   -0.057429
  19 C :    0.662217
  20 H :   -0.319547
  21 H :    0.101509
  22 C :   -0.111925
  23 H :   -0.012637
  24 H :    0.015154
  25 C :    0.330407
  26 H :    0.188086
  27 H :   -0.393198
  28 C :    0.251732
  29 H :   -0.034949
  30 H :   -0.401895
  31 H :    0.055979
  32 H :   -0.161394
  33 H :    0.014084
  34 H :    0.020548
Sum of atomic charges:    0.0000000

LOEWDIN ATOMIC CHARGES
----------------------
   0 C :   -0.038134
   1 C :    0.123839
   2 C :   -0.029687
   3 C :   -0.023072
   4 S :    1.172123
   5 H :   -0.120606
   6 H :   -0.011514
   7 H :   -0.094727
   8 F :   -0.268281
   9 O :   -0.461411
  10 H :    0.025382
  11 H :    0.012703
  12 O :   -0.447510
  13 C :   -0.023887
  14 H :    0.026337
  15 H :    0.018657
  16 C :   -0.035237
  17 H :   -0.006584
  18 H :    0.027245
  19 C :   -0.030574
  20 H :    0.026261
  21 H :    0.005750
  22 C :   -0.038644
  23 H :    0.024640
  24 H :    0.023720
  25 C :   -0.023086
  26 H :    0.016961
  27 H :    0.026972
  28 C :   -0.043163
  29 H :    0.042158
  30 H :   -0.001943
  31 H :    0.024123
  32 H :    0.038262
  33 H :    0.038437
  34 H :    0.024491

  Mayer bond orders larger than 0.100000
B(  0-C ,  1-C ) :   0.9743 B(  0-C ,  2-C ) :   1.1774 B(  0-C ,  5-H ) :   0.3907
B(  0-C ,  6-H ) :   0.1117 B(  0-C ,  7-H ) :   0.4054 B(  0-C , 10-H ) :   0.9170
B(  0-C , 11-H ) :   0.7713 B(  0-C , 14-H ) :   0.1393 B(  0-C , 15-H ) :   0.1741
B(  1-C ,  5-H ) :  -0.1592 B(  1-C ,  6-H ) :   0.6271 B(  1-C ,  7-H ) :  -0.6518
B(  1-C ,  9-O ) :  -0.1049 B(  1-C , 11-H ) :   0.2093 B(  2-C ,  7-H ) :  -0.1078
B(  2-C , 11-H ) :   0.1013 B(  2-C , 13-C ) :   1.1876 B(  2-C , 14-H ) :   0.7182
B(  2-C , 15-H ) :   0.7544 B(  2-C , 17-H ) :   0.1267 B(  3-C ,  4-S ) :   0.9092
B(  3-C , 12-O ) :   0.1141 B(  3-C , 28-C ) :   1.2284 B(  3-C , 33-H ) :   0.9098
B(  3-C , 34-H ) :   0.7799 B(  4-S ,  8-F ) :   0.6006 B(  4-S ,  9-O ) :   1.4459
B(  4-S , 12-O ) :   1.4964 B(  5-H ,  6-H ) :  -0.1300 B(  5-H ,  7-H ) :   0.8725
B(  5-H ,  9-O ) :   0.1457 B(  6-H ,  7-H ) :   0.1580 B(  7-H ,  9-O ) :   0.1064
B(  7-H , 17-H ) :   0.1597 B( 13-C , 14-H ) :   0.1994 B( 13-C , 15-H ) :   0.1474
B( 13-C , 16-C ) :   1.1580 B( 13-C , 17-H ) :   0.7750 B( 13-C , 18-H ) :   0.7593
B( 13-C , 20-H ) :   0.1831 B( 14-H , 15-H ) :  -0.1385 B( 16-C , 17-H ) :   0.1915
B( 16-C , 18-H ) :   0.1854 B( 16-C , 19-C ) :   1.1705 B( 16-C , 20-H ) :   1.0040
B( 16-C , 21-H ) :   0.8683 B( 16-C , 23-H ) :   0.1491 B( 16-C , 24-H ) :   0.2549
B( 19-C , 22-C ) :   1.1309 B( 19-C , 23-H ) :   0.6941 B( 19-C , 24-H ) :   0.6998
B( 22-C , 23-H ) :   0.2247 B( 22-C , 24-H ) :   0.1148 B( 22-C , 25-C ) :   1.2273
B( 22-C , 26-H ) :   0.7997 B( 22-C , 27-H ) :   1.0559 B( 22-C , 28-C ) :   0.1070
B( 22-C , 29-H ) :   0.1030 B( 22-C , 30-H ) :   0.1277 B( 25-C , 27-H ) :   0.1761
B( 25-C , 28-C ) :   1.1121 B( 25-C , 29-H ) :   0.7324 B( 25-C , 30-H ) :   0.8347
B( 25-C , 32-H ) :   0.1850 B( 28-C , 29-H ) :   0.1209 B( 28-C , 31-H ) :   0.8669
B( 28-C , 32-H ) :   0.8383 B( 28-C , 34-H ) :   0.2122 B( 29-H , 30-H ) :   0.2437

Dispersion correction           -0.018496574
FINAL SINGLE POINT ENERGY     -1041.369143916774

DIPOLE MOMENT
-------------
                                X             Y             Z
Electronic contribution:    -10.90139     -16.16123     -13.13635
Nuclear contribution   :      9.63012      17.20461      14.03552
                        -----------------------------------------
Total Dipole Moment    :     -1.27128       1.04337       0.89917
                        -----------------------------------------
Magnitude (a.u.)       :      1.87437
Magnitude (Debye)      :      4.76428

Rotational constants in cm-1:     0.025899     0.015189     0.010690
Rotational constants in MHz :   776.424978   455.369614   320.488876

                             ****ORCA TERMINATED NORMALLY****
TOTAL RUN TIME: 0 days 0 hours 1 minutes 33 seconds 515 msec
