                         Program Version 5.0.0 -  RELEASE  -
|  1> !wB97X-D3 RIJCOSX def2-SVPD def2/J TightSCF xyzfile
|  2>
|  3> *xyzfile 0 1 D3.xyz
|  4>
|  5> %MaxCore 64000
|  6>
|  7> %pal nprocs 18
|  8> end
|  9>
| 10> %scf
| 11>   MaxIter 150
| 12> end
| 13>
| 14>
| 15>                          ****END OF INPUT****

CARTESIAN COORDINATES (ANGSTROEM)
---------------------------------
  C     -2.160376   -1.369486   -3.467104
  C     -3.030108   -1.910857   -4.541074
  C     -2.047717    0.146583   -3.511774
  C     -7.330440   -2.678991   -3.206811
  S     -6.019659   -2.926965   -4.419128
  H     -3.477443   -2.791513   -4.257096
  H     -2.538013   -2.017860   -5.438075
  H     -3.891589   -1.376039   -4.714365
  O     -5.645830   -1.588384   -4.919307
  O     -4.881961   -3.503697   -3.667235
  H     -1.184438   -1.843997   -3.566393
  H     -2.598195   -1.708376   -2.528477
  F     -6.549267   -3.805150   -5.425071
  C     -3.328755    0.875037   -3.103669
  H     -1.740034    0.452343   -4.517126
  H     -1.232611    0.434938   -2.842208
  C     -3.628487    0.771601   -1.609363
  H     -4.175106    0.490791   -3.682203
  H     -3.237812    1.928663   -3.381480
  C     -4.975718    1.361432   -1.190644
  H     -2.830700    1.276234   -1.054766
  H     -3.594312   -0.275838   -1.294603
  C     -6.184720    0.784347   -1.926464
  H     -4.956292    2.445725   -1.342200
  H     -5.097256    1.205252   -0.114136
  C     -6.286921   -0.735882   -1.893531
  H     -6.163994    1.100199   -2.974250
  H     -7.094530    1.223459   -1.504509
  C     -7.468999   -1.246153   -2.713833
  H     -6.360641   -1.090347   -0.859176
  H     -5.369848   -1.171853   -2.295982
  H     -7.601914   -0.601349   -3.585329
  H     -8.389791   -1.173436   -2.126922
  H     -7.118254   -3.379818   -2.398055
  H     -8.241838   -3.004745   -3.706513

 Total Charge           Charge          ....    0
 Multiplicity           Mult            ....    1
 Number of Electrons    NEL             ....  122
 Basis Dimension        Dim             ....  464

ORBITAL ENERGIES
----------------

  NO   OCC          E(Eh)            E(eV)
   0   2.0000     -89.247937     -2428.5598
   1   2.0000     -24.934662      -678.5066
   2   2.0000     -19.261297      -524.1265
   3   2.0000     -19.257786      -524.0310
   4   2.0000     -10.361111      -281.9402
   5   2.0000     -10.319618      -280.8111
   6   2.0000     -10.293012      -280.0871
   7   2.0000     -10.284738      -279.8619
   8   2.0000     -10.278697      -279.6976
   9   2.0000     -10.270543      -279.4757
  10   2.0000     -10.264464      -279.3103
  11   2.0000     -10.258287      -279.1422
  12   2.0000     -10.246939      -278.8334
  13   2.0000     -10.191032      -277.3121
  14   2.0000      -8.320954      -226.4247
  15   2.0000      -6.284868      -171.0200
  16   2.0000      -6.278286      -170.8409
  17   2.0000      -6.276834      -170.8013
  18   2.0000      -1.508447       -41.0469
  19   2.0000      -1.227697       -33.4073
  20   2.0000      -1.122596       -30.5474
  21   2.0000      -0.957724       -26.0610
  22   2.0000      -0.920883       -25.0585
  23   2.0000      -0.890939       -24.2437
  24   2.0000      -0.870979       -23.7005
  25   2.0000      -0.836437       -22.7606
  26   2.0000      -0.809707       -22.0333
  27   2.0000      -0.773744       -21.0546
  28   2.0000      -0.738153       -20.0862
  29   2.0000      -0.716919       -19.5084
  30   2.0000      -0.710627       -19.3372
  31   2.0000      -0.700304       -19.0562
  32   2.0000      -0.673045       -18.3145
  33   2.0000      -0.666398       -18.1336
  34   2.0000      -0.637120       -17.3369
  35   2.0000      -0.606532       -16.5046
  36   2.0000      -0.594457       -16.1760
  37   2.0000      -0.577707       -15.7202
  38   2.0000      -0.573034       -15.5931
  39   2.0000      -0.563100       -15.3227
  40   2.0000      -0.548542       -14.9266
  41   2.0000      -0.533317       -14.5123
  42   2.0000      -0.521672       -14.1954
  43   2.0000      -0.517537       -14.0829
  44   2.0000      -0.504760       -13.7352
  45   2.0000      -0.486220       -13.2307
  46   2.0000      -0.481618       -13.1055
  47   2.0000      -0.475279       -12.9330
  48   2.0000      -0.462198       -12.5770
  49   2.0000      -0.450668       -12.2633
  50   2.0000      -0.444327       -12.0908
  51   2.0000      -0.433556       -11.7976
  52   2.0000      -0.430176       -11.7057
  53   2.0000      -0.426712       -11.6114
  54   2.0000      -0.418183       -11.3793
  55   2.0000      -0.407625       -11.0921
  56   2.0000      -0.401109       -10.9147
  57   2.0000      -0.396471       -10.7885
  58   2.0000      -0.381279       -10.3751
  59   2.0000      -0.372130       -10.1262
  60   2.0000      -0.357712        -9.7338
  61   0.0000       0.059284         1.6132
  62   0.0000       0.080497         2.1904
  63   0.0000       0.086600         2.3565
  64   0.0000       0.097363         2.6494
  65   0.0000       0.102882         2.7996

MULLIKEN ATOMIC CHARGES
-----------------------
   0 C :    0.010152
   1 C :    1.916119
   2 C :    0.542218
   3 C :    0.337013
   4 S :    1.618740
   5 H :   -0.539747
   6 H :   -0.241447
   7 H :   -0.981217
   8 O :   -0.713327
   9 O :   -0.733435
  10 H :   -0.263582
  11 H :   -0.012590
  12 F :   -0.564361
  13 C :    0.388293
  14 H :   -0.069530
  15 H :   -0.099494
  16 C :   -0.154267
  17 H :   -0.573270
  18 H :   -0.050554
  19 C :    0.663081
  20 H :   -0.323899
  21 H :    0.106778
  22 C :   -0.125683
  23 H :   -0.014940
  24 H :    0.009731
  25 C :    0.294040
  26 H :    0.198443
  27 H :   -0.390015
  28 C :    0.228440
  29 H :   -0.035716
  30 H :   -0.398311
  31 H :    0.110978
  32 H :   -0.175999
  33 H :    0.021521
  34 H :    0.015839
Sum of atomic charges:    0.0000000

LOEWDIN ATOMIC CHARGES
----------------------
   0 C :   -0.042575
   1 C :    0.122144
   2 C :   -0.030548
   3 C :   -0.034113
   4 S :    1.205756
   5 H :   -0.121958
   6 H :   -0.014756
   7 H :   -0.114811
   8 O :   -0.456357
   9 O :   -0.461085
  10 H :    0.021107
  11 H :    0.010504
  12 F :   -0.245892
  13 C :   -0.020576
  14 H :    0.025698
  15 H :    0.016071
  16 C :   -0.036441
  17 H :   -0.001684
  18 H :    0.025865
  19 C :   -0.032016
  20 H :    0.024395
  21 H :    0.004930
  22 C :   -0.036150
  23 H :    0.023622
  24 H :    0.021855
  25 C :   -0.020405
  26 H :    0.020761
  27 H :    0.025028
  28 C :   -0.032758
  29 H :    0.038973
  30 H :    0.001789
  31 H :    0.025916
  32 H :    0.038710
  33 H :    0.031653
  34 H :    0.017347

  Mayer bond orders larger than 0.100000
B(  0-C ,  1-C ) :   0.9843 B(  0-C ,  2-C ) :   1.1769 B(  0-C ,  5-H ) :   0.3851
B(  0-C ,  6-H ) :   0.1172 B(  0-C ,  7-H ) :   0.3908 B(  0-C , 10-H ) :   0.9205
B(  0-C , 11-H ) :   0.7637 B(  0-C , 14-H ) :   0.1447 B(  0-C , 15-H ) :   0.1759
B(  1-C ,  5-H ) :  -0.1880 B(  1-C ,  6-H ) :   0.6224 B(  1-C ,  7-H ) :  -0.5638
B(  1-C , 11-H ) :   0.2160 B(  2-C ,  7-H ) :  -0.1085 B(  2-C , 11-H ) :   0.1020
B(  2-C , 13-C ) :   1.1848 B(  2-C , 14-H ) :   0.7138 B(  2-C , 15-H ) :   0.7504
B(  2-C , 17-H ) :   0.1300 B(  3-C ,  4-S ) :   0.9239 B(  3-C , 12-F ) :   0.1211
B(  3-C , 28-C ) :   1.2528 B(  3-C , 33-H ) :   0.9231 B(  3-C , 34-H ) :   0.7402
B(  4-S ,  8-O ) :   1.3607 B(  4-S ,  9-O ) :   1.3684 B(  4-S , 12-F ) :   0.4965
B(  5-H ,  6-H ) :  -0.1643 B(  5-H ,  7-H ) :   0.9116 B(  5-H ,  9-O ) :   0.1748
B(  6-H ,  7-H ) :   0.1726 B(  7-H ,  9-O ) :   0.1388 B(  7-H , 17-H ) :   0.1670
B( 11-H , 21-H ) :   0.1036 B( 13-C , 14-H ) :   0.1970 B( 13-C , 15-H ) :   0.1482
B( 13-C , 16-C ) :   1.1495 B( 13-C , 17-H ) :   0.7612 B( 13-C , 18-H ) :   0.7469
B( 13-C , 20-H ) :   0.1840 B( 14-H , 15-H ) :  -0.1375 B( 16-C , 17-H ) :   0.1984
B( 16-C , 18-H ) :   0.1882 B( 16-C , 19-C ) :   1.1681 B( 16-C , 20-H ) :   1.0043
B( 16-C , 21-H ) :   0.8644 B( 16-C , 22-C ) :   0.1007 B( 16-C , 23-H ) :   0.1507
B( 16-C , 24-H ) :   0.2560 B( 17-H , 26-H ) :   0.1003 B( 19-C , 22-C ) :   1.1300
B( 19-C , 23-H ) :   0.6950 B( 19-C , 24-H ) :   0.6974 B( 22-C , 23-H ) :   0.2249
B( 22-C , 24-H ) :   0.1157 B( 22-C , 25-C ) :   1.2437 B( 22-C , 26-H ) :   0.7938
B( 22-C , 27-H ) :   1.0514 B( 22-C , 28-C ) :   0.1155 B( 22-C , 29-H ) :   0.1059
B( 22-C , 30-H ) :   0.1215 B( 25-C , 26-H ) :   0.1038 B( 25-C , 27-H ) :   0.1748
B( 25-C , 28-C ) :   1.1295 B( 25-C , 29-H ) :   0.7293 B( 25-C , 30-H ) :   0.8352
B( 25-C , 32-H ) :   0.1899 B( 28-C , 29-H ) :   0.1192 B( 28-C , 31-H ) :   0.8490
B( 28-C , 32-H ) :   0.8429 B( 28-C , 34-H ) :   0.2235 B( 29-H , 30-H ) :   0.2640

Dispersion correction           -0.018589015
FINAL SINGLE POINT ENERGY     -1041.353937429731

DIPOLE MOMENT
-------------
                                X             Y             Z
Electronic contribution:    -12.71023     -20.27195     -14.27107
Nuclear contribution   :     10.70731      19.84772      14.63855
                        -----------------------------------------
Total Dipole Moment    :     -2.00292      -0.42424       0.36748
                        -----------------------------------------
Magnitude (a.u.)       :      2.08007
Magnitude (Debye)      :      5.28712

Rotational constants in cm-1:     0.026014     0.014812     0.010477
Rotational constants in MHz :   779.874765   444.063394   314.081855

                             ****ORCA TERMINATED NORMALLY****
TOTAL RUN TIME: 0 days 0 hours 1 minutes 42 seconds 815 msec
