                         Program Version 5.0.0 -  RELEASE  -
|  1> !wB97X-D3 RIJCOSX def2-SVPD def2/J TightSCF CPCM(Water)
|  2> *xyz -1 1
|  3> C          2.09343        1.86104       -4.65684
|  4> S          1.87964        0.07859       -4.46297
|  5> O          3.20757       -0.46611       -4.42026
|  6> O          1.07506       -0.05616       -3.26876
|  7> O          1.13166       -0.31996       -5.67903
|  8> H          2.68437        2.05681       -5.52711
|  9> H          2.58708        2.25699       -3.79404
| 10> H          1.13553        2.32556       -4.76426
| 11> *
| 12>
| 13> %MaxCore 64000
| 14>
| 15> %pal nprocs 8
| 16> end
| 17>
| 18> %scf
| 19>   MaxIter 150
| 20> end
| 21>
| 22>
| 23>                          ****END OF INPUT****

CARTESIAN COORDINATES (ANGSTROEM)
---------------------------------
  C      2.093430    1.861040   -4.656840
  S      1.879640    0.078590   -4.462970
  O      3.207570   -0.466110   -4.420260
  O      1.075060   -0.056160   -3.268760
  O      1.131660   -0.319960   -5.679030
  H      2.684370    2.056810   -5.527110
  H      2.587080    2.256990   -3.794040
  H      1.135530    2.325560   -4.764260

 Total Charge           Charge          ....   -1
 Multiplicity           Mult            ....    1
 Number of Electrons    NEL             ....   50
 Basis Dimension        Dim             ....  140

ORBITAL ENERGIES
----------------

  NO   OCC          E(Eh)            E(eV)
   0   2.0000     -89.155989     -2426.0578
   1   2.0000     -19.211672      -522.7762
   2   2.0000     -19.207989      -522.6760
   3   2.0000     -19.198985      -522.4309
   4   2.0000     -10.286360      -279.9061
   5   2.0000      -8.230138      -223.9534
   6   2.0000      -6.189905      -168.4359
   7   2.0000      -6.189881      -168.4352
   8   2.0000      -6.188519      -168.3982
   9   2.0000      -1.233393       -33.5623
  10   2.0000      -1.093656       -29.7599
  11   2.0000      -1.069555       -29.1041
  12   2.0000      -0.843177       -22.9440
  13   2.0000      -0.664672       -18.0867
  14   2.0000      -0.585834       -15.9414
  15   2.0000      -0.563295       -15.3280
  16   2.0000      -0.562202       -15.2983
  17   2.0000      -0.509376       -13.8608
  18   2.0000      -0.507477       -13.8092
  19   2.0000      -0.440606       -11.9895
  20   2.0000      -0.438466       -11.9313
  21   2.0000      -0.396733       -10.7957
  22   2.0000      -0.385746       -10.4967
  23   2.0000      -0.375314       -10.2128
  24   2.0000      -0.349045        -9.4980
  25   0.0000       0.079563         2.1650
  26   0.0000       0.103211         2.8085
  27   0.0000       0.104021         2.8305
  28   0.0000       0.104406         2.8410
  29   0.0000       0.153787         4.1848

MULLIKEN ATOMIC CHARGES
-----------------------
   0 C :    0.373403
   1 S :    1.077829
   2 O :   -0.775963
   3 O :   -0.790958
   4 O :   -0.834438
   5 H :   -0.019143
   6 H :   -0.016683
   7 H :   -0.014048
Sum of atomic charges:   -1.0000000

LOEWDIN ATOMIC CHARGES
----------------------
   0 C :    0.078191
   1 S :    0.830904
   2 O :   -0.601446
   3 O :   -0.610832
   4 O :   -0.637383
   5 H :   -0.020018
   6 H :   -0.019815
   7 H :   -0.019601

  Mayer bond orders larger than 0.100000
B(  0-C ,  1-S ) :   0.9694 B(  0-C ,  5-H ) :   0.9369 B(  0-C ,  6-H ) :   0.9352
B(  0-C ,  7-H ) :   0.9353 B(  1-S ,  2-O ) :   1.3503 B(  1-S ,  3-O ) :   1.3374
B(  1-S ,  4-O ) :   1.2935 B(  1-S ,  5-H ) :   0.1028 B(  1-S ,  7-H ) :   0.1045

Dispersion correction           -0.001526375
FINAL SINGLE POINT ENERGY      -663.517218993464

DIPOLE MOMENT
-------------
                                X             Y             Z
Electronic contribution:     -0.29626      -3.64500       0.55084
Nuclear contribution   :      0.72475       5.67579      -0.57287
                        -----------------------------------------
Total Dipole Moment    :      0.42849       2.03080      -0.02203
                        -----------------------------------------
Magnitude (a.u.)       :      2.07563
Magnitude (Debye)      :      5.27583

Rotational constants in cm-1:     0.171646     0.157781     0.155534
Rotational constants in MHz :  5145.813281  4730.160232  4662.792719

                             ****ORCA TERMINATED NORMALLY****
TOTAL RUN TIME: 0 days 0 hours 0 minutes 10 seconds 318 msec
