                         Program Version 5.0.0 -  RELEASE  -
|  1> !wB97X-D3 RIJCOSX def2-SVPD def2/J TightSCF CPCM(Water)
|  2> *xyz 1 1
|  3> C         -0.46129        2.23469       -4.98962
|  4> C         -0.42384        2.39877       -6.47432
|  5> N         -0.95947        3.49265       -7.00740
|  6> N          0.14558        1.48689       -7.20399
|  7> H          0.56537        0.69681       -6.72386
|  8> H          0.22068        1.58177       -8.20752
|  9> H         -1.40624        4.18151       -6.40326
| 10> H         -0.93421        3.68160       -7.99947
| 11> H          0.00645        1.31059       -4.72100
| 12> H         -1.47822        2.22967       -4.65687
| 13> H          0.06109        3.04632       -4.52779
| 14> *
| 15>
| 16> %MaxCore 64000
| 17>
| 18> %pal nprocs 8
| 19> end
| 20>
| 21> %scf
| 22>   MaxIter 150
| 23> end
| 24>
| 25>
| 26>                          ****END OF INPUT****

CARTESIAN COORDINATES (ANGSTROEM)
---------------------------------
  C     -0.461290    2.234690   -4.989620
  C     -0.423840    2.398770   -6.474320
  N     -0.959470    3.492650   -7.007400
  N      0.145580    1.486890   -7.203990
  H      0.565370    0.696810   -6.723860
  H      0.220680    1.581770   -8.207520
  H     -1.406240    4.181510   -6.403260
  H     -0.934210    3.681600   -7.999470
  H      0.006450    1.310590   -4.721000
  H     -1.478220    2.229670   -4.656870
  H      0.061090    3.046320   -4.527790

 Total Charge           Charge          ....    1
 Multiplicity           Mult            ....    1
 Number of Electrons    NEL             ....   32
 Basis Dimension        Dim             ....  136

ORBITAL ENERGIES
----------------

  NO   OCC          E(Eh)            E(eV)
   0   2.0000     -14.501775      -394.6134
   1   2.0000     -14.495160      -394.4334
   2   2.0000     -10.438558      -284.0476
   3   2.0000     -10.310502      -280.5630
   4   2.0000      -1.131958       -30.8021
   5   2.0000      -1.032297       -28.0902
   6   2.0000      -0.884026       -24.0556
   7   2.0000      -0.759966       -20.6797
   8   2.0000      -0.698526       -19.0079
   9   2.0000      -0.684796       -18.6342
  10   2.0000      -0.614541       -16.7225
  11   2.0000      -0.583950       -15.8901
  12   2.0000      -0.533528       -14.5180
  13   2.0000      -0.522255       -14.2113
  14   2.0000      -0.494183       -13.4474
  15   2.0000      -0.404438       -11.0053
  16   0.0000       0.052909         1.4397
  17   0.0000       0.088750         2.4150
  18   0.0000       0.129176         3.5150
  19   0.0000       0.136707         3.7200
  20   0.0000       0.156409         4.2561

MULLIKEN ATOMIC CHARGES
-----------------------
   0 C :    0.442552
   1 C :    0.311814
   2 N :    0.000502
   3 N :   -0.052320
   4 H :    0.155759
   5 H :   -0.065390
   6 H :    0.088880
   7 H :   -0.094180
   8 H :    0.090403
   9 H :    0.066167
  10 H :    0.055812
Sum of atomic charges:    1.0000000

LOEWDIN ATOMIC CHARGES
----------------------
   0 C :    0.221298
   1 C :   -0.060940
   2 N :    0.271873
   3 N :    0.282411
   4 H :    0.061466
   5 H :    0.063659
   6 H :    0.062635
   7 H :    0.051599
   8 H :    0.005784
   9 H :    0.019757
  10 H :    0.020458

  Mayer bond orders larger than 0.100000
B(  0-C ,  1-C ) :   1.2756 B(  0-C ,  8-H ) :   0.8007 B(  0-C ,  9-H ) :   0.7809
B(  0-C , 10-H ) :   0.8001 B(  1-C ,  2-N ) :   1.1341 B(  1-C ,  3-N ) :   1.0669
B(  1-C ,  5-H ) :  -0.2153 B(  1-C ,  7-H ) :  -0.1571 B(  1-C ,  8-H ) :   0.2178
B(  1-C ,  9-H ) :   0.1700 B(  1-C , 10-H ) :   0.1585 B(  2-N ,  3-N ) :   0.1418
B(  2-N ,  6-H ) :   1.0857 B(  2-N ,  7-H ) :   1.2667 B(  3-N ,  4-H ) :   0.9991
B(  3-N ,  5-H ) :   1.3524 B(  4-H ,  5-H ) :  -0.1684 B(  6-H ,  7-H ) :  -0.1550
B(  8-H ,  9-H ) :   0.1042

Dispersion correction           -0.001673264
FINAL SINGLE POINT ENERGY      -189.643202728669

DIPOLE MOMENT
-------------
                                X             Y             Z
Electronic contribution:      0.08942       0.18123      -2.36089
Nuclear contribution   :     -0.00094      -0.11553       1.69525
                        -----------------------------------------
Total Dipole Moment    :      0.08848       0.06570      -0.66563
                        -----------------------------------------
Magnitude (a.u.)       :      0.67470
Magnitude (Debye)      :      1.71494

Rotational constants in cm-1:     0.329971     0.303414     0.162776
Rotational constants in MHz :  9892.292308  9096.128349  4879.901854

                             ****ORCA TERMINATED NORMALLY****
TOTAL RUN TIME: 0 days 0 hours 0 minutes 11 seconds 632 msec
