                         Program Version 5.0.0 -  RELEASE  -
|  1> !wB97X-D3 RIJCOSX def2-SVPD def2/J TightSCF CPCM(Water) xyzfile
|  2>
|  3> *xyzfile 0 1 B.xyz
|  4>
|  5> %MaxCore 64000
|  6>
|  7> %pal nprocs 18
|  8> end
|  9>
| 10> %scf
| 11>   MaxIter 150
| 12> end
| 13>
| 14>
| 15>                          ****END OF INPUT****

CARTESIAN COORDINATES (ANGSTROEM)
---------------------------------
  C     -0.461293    2.234686   -4.989619
  C      0.848883    2.667967   -4.302351
  C      2.093434    1.861037   -4.656845
  H      2.444814    2.041567   -5.674990
  H      2.901748    2.137864   -3.980338
  S      1.879644    0.078594   -4.462965
  C     -0.423841    2.398772   -6.474317
  N     -0.959467    3.492647   -7.007401
  N      0.145585    1.486891   -7.203987
  H      0.565371    0.696807   -6.723858
  H      0.220682    1.581768   -8.207520
  H     -1.406243    4.181507   -6.403261
  H     -0.934215    3.681601   -7.999468
  O      3.207574   -0.466111   -4.420259
  O      1.075064   -0.056160   -3.268758
  O      1.131661   -0.319960   -5.679031
  H      0.668432    2.559427   -3.232850
  H      1.034074    3.729426   -4.497081
  H     -1.288884    2.826737   -4.594997
  H     -0.651696    1.186343   -4.756552

 Total Charge           Charge          ....    0
 Multiplicity           Mult            ....    1
 Number of Electrons    NEL             ....   88
 Basis Dimension        Dim             ....  296

ORBITAL ENERGIES
----------------

  NO   OCC          E(Eh)            E(eV)
   0   2.0000     -89.168614     -2426.4013
   1   2.0000     -19.221461      -523.0426
   2   2.0000     -19.218659      -522.9663
   3   2.0000     -19.217820      -522.9435
   4   2.0000     -14.488281      -394.2462
   5   2.0000     -14.472395      -393.8139
   6   2.0000     -10.423647      -283.6419
   7   2.0000     -10.313926      -280.6562
   8   2.0000     -10.308116      -280.4981
   9   2.0000     -10.307604      -280.4842
  10   2.0000      -8.242223      -224.2823
  11   2.0000      -6.202368      -168.7750
  12   2.0000      -6.201808      -168.7598
  13   2.0000      -6.200435      -168.7224
  14   2.0000      -1.247002       -33.9326
  15   2.0000      -1.120247       -30.4835
  16   2.0000      -1.103400       -30.0250
  17   2.0000      -1.091756       -29.7082
  18   2.0000      -1.018929       -27.7265
  19   2.0000      -0.928710       -25.2715
  20   2.0000      -0.854972       -23.2650
  21   2.0000      -0.771354       -20.9896
  22   2.0000      -0.732914       -19.9436
  23   2.0000      -0.692884       -18.8543
  24   2.0000      -0.684659       -18.6305
  25   2.0000      -0.648245       -17.6396
  26   2.0000      -0.622218       -16.9314
  27   2.0000      -0.597975       -16.2717
  28   2.0000      -0.590847       -16.0778
  29   2.0000      -0.574724       -15.6390
  30   2.0000      -0.558316       -15.1925
  31   2.0000      -0.542614       -14.7653
  32   2.0000      -0.528632       -14.3848
  33   2.0000      -0.520066       -14.1517
  34   2.0000      -0.478373       -13.0172
  35   2.0000      -0.462395       -12.5824
  36   2.0000      -0.451300       -12.2805
  37   2.0000      -0.450534       -12.2597
  38   2.0000      -0.441225       -12.0064
  39   2.0000      -0.405614       -11.0373
  40   2.0000      -0.401479       -10.9248
  41   2.0000      -0.392832       -10.6895
  42   2.0000      -0.378670       -10.3041
  43   2.0000      -0.364441        -9.9169
  44   0.0000       0.057552         1.5661
  45   0.0000       0.080611         2.1935
  46   0.0000       0.094474         2.5708
  47   0.0000       0.097898         2.6639
  48   0.0000       0.100984         2.7479

MULLIKEN ATOMIC CHARGES
-----------------------
   0 C :    0.057603
   1 C :    0.082434
   2 C :    0.057983
   3 H :    0.160430
   4 H :   -0.067952
   5 S :    1.382691
   6 C :    0.774811
   7 N :   -0.103218
   8 N :    0.274345
   9 H :   -0.160353
  10 H :   -0.084769
  11 H :    0.076924
  12 H :   -0.086930
  13 O :   -0.822297
  14 O :   -0.831925
  15 O :   -0.897072
  16 H :    0.166010
  17 H :   -0.115012
  18 H :   -0.003713
  19 H :    0.140011
Sum of atomic charges:    0.0000000

LOEWDIN ATOMIC CHARGES
----------------------
   0 C :    0.059245
   1 C :   -0.005671
   2 C :   -0.055596
   3 H :    0.022903
   4 H :    0.022542
   5 S :    0.917654
   6 C :   -0.025498
   7 N :    0.272867
   8 N :    0.302624
   9 H :   -0.122073
  10 H :    0.063803
  11 H :    0.054803
  12 H :    0.049272
  13 O :   -0.570182
  14 O :   -0.568462
  15 O :   -0.553431
  16 H :    0.030327
  17 H :    0.040145
  18 H :    0.044932
  19 H :    0.019796

  Mayer bond orders larger than 0.100000
B(  0-C ,  1-C ) :   1.2092 B(  0-C ,  6-C ) :   1.1106 B(  0-C , 16-H ) :   0.1299
B(  0-C , 18-H ) :   0.8489 B(  0-C , 19-H ) :   0.8454 B(  1-C ,  2-C ) :   1.3383
B(  1-C ,  3-H ) :   0.1170 B(  1-C ,  4-H ) :   0.1667 B(  1-C , 16-H ) :   0.8037
B(  1-C , 17-H ) :   0.9186 B(  1-C , 18-H ) :   0.1461 B(  1-C , 19-H ) :   0.1199
B(  2-C ,  3-H ) :   0.8815 B(  2-C ,  4-H ) :   0.8638 B(  2-C ,  5-S ) :   0.9171
B(  2-C , 15-O ) :   0.1188 B(  2-C , 16-H ) :   0.1335 B(  2-C , 17-H ) :   0.1046
B(  5-S , 13-O ) :   1.3885 B(  5-S , 14-O ) :   1.3202 B(  5-S , 15-O ) :   1.1797
B(  6-C ,  7-N ) :   0.9852 B(  6-C ,  8-N ) :   1.0929 B(  6-C , 10-H ) :  -0.2401
B(  6-C , 12-H ) :  -0.1573 B(  6-C , 18-H ) :   0.1122 B(  7-N ,  8-N ) :   0.1407
B(  7-N , 11-H ) :   1.1181 B(  7-N , 12-H ) :   1.3157 B(  8-N ,  9-H ) :   1.0845
B(  8-N , 10-H ) :   1.3652 B(  9-H , 10-H ) :  -0.2485 B(  9-H , 15-O ) :   0.1791
B( 11-H , 12-H ) :  -0.1743

Dispersion correction           -0.008674276
FINAL SINGLE POINT ENERGY      -891.252289675693

DIPOLE MOMENT
-------------
                                X             Y             Z
Electronic contribution:      2.45813      -6.20221       0.27688
Nuclear contribution   :     -5.91573      12.15027      -4.18945
                        -----------------------------------------
Total Dipole Moment    :     -3.45760       5.94806      -3.91257
                        -----------------------------------------
Magnitude (a.u.)       :      7.91471
Magnitude (Debye)      :     20.11759

Rotational constants in cm-1:     0.082044     0.024757     0.022371
Rotational constants in MHz :  2459.631375   742.181961   670.660570

                             ****ORCA TERMINATED NORMALLY****
TOTAL RUN TIME: 0 days 0 hours 0 minutes 28 seconds 934 msec
