                         Program Version 5.0.0 -  RELEASE  -
|  1> !wB97X-D3 RIJCOSX def2-SVPD def2/J TightSCF CPCM(Water)
|  2> *xyz 0 1
|  3> C          2.09343        1.86104       -4.65684
|  4> S          1.87964        0.07859       -4.46297
|  5> F          3.20757       -0.46611       -4.42026
|  6> O          1.07506       -0.05616       -3.26876
|  7> O          1.13166       -0.31996       -5.67903
|  8> H          2.68437        2.05681       -5.52711
|  9> H          2.58708        2.25699       -3.79404
| 10> H          1.13553        2.32556       -4.76426
| 11> *
| 12>
| 13> %MaxCore 64000
| 14>
| 15> %pal nprocs 8
| 16> end
| 17>
| 18> %scf
| 19>   MaxIter 150
| 20> end
| 21>
| 22>
| 23>                          ****END OF INPUT****

CARTESIAN COORDINATES (ANGSTROEM)
---------------------------------
  C      2.093430    1.861040   -4.656840
  S      1.879640    0.078590   -4.462970
  F      3.207570   -0.466110   -4.420260
  O      1.075060   -0.056160   -3.268760
  O      1.131660   -0.319960   -5.679030
  H      2.684370    2.056810   -5.527110
  H      2.587080    2.256990   -3.794040
  H      1.135530    2.325560   -4.764260

 Total Charge           Charge          ....    0
 Multiplicity           Mult            ....    1
 Number of Electrons    NEL             ....   50
 Basis Dimension        Dim             ....  140

ORBITAL ENERGIES
----------------

  NO   OCC          E(Eh)            E(eV)
   0   2.0000     -89.245302     -2428.4881
   1   2.0000     -24.922802      -678.1839
   2   2.0000     -19.269361      -524.3460
   3   2.0000     -19.259646      -524.0816
   4   2.0000     -10.328135      -281.0428
   5   2.0000      -8.319329      -226.3805
   6   2.0000      -6.283013      -170.9695
   7   2.0000      -6.276941      -170.8042
   8   2.0000      -6.275060      -170.7531
   9   2.0000      -1.498252       -40.7695
  10   2.0000      -1.234365       -33.5888
  11   2.0000      -1.130022       -30.7495
  12   2.0000      -0.900497       -24.5038
  13   2.0000      -0.825289       -22.4573
  14   2.0000      -0.707503       -19.2521
  15   2.0000      -0.698812       -19.0156
  16   2.0000      -0.666963       -18.1490
  17   2.0000      -0.580920       -15.8076
  18   2.0000      -0.572614       -15.5816
  19   2.0000      -0.549032       -14.9399
  20   2.0000      -0.536438       -14.5972
  21   2.0000      -0.496199       -13.5023
  22   2.0000      -0.442801       -12.0492
  23   2.0000      -0.430705       -11.7201
  24   2.0000      -0.417592       -11.3633
  25   0.0000       0.066554         1.8110
  26   0.0000       0.099390         2.7045
  27   0.0000       0.099561         2.7092
  28   0.0000       0.102521         2.7897
  29   0.0000       0.128692         3.5019

MULLIKEN ATOMIC CHARGES
-----------------------
   0 C :    0.276616
   1 S :    1.303177
   2 F :   -0.360800
   3 O :   -0.675532
   4 O :   -0.719448
   5 H :    0.057788
   6 H :    0.060628
   7 H :    0.057572
Sum of atomic charges:    0.0000000

LOEWDIN ATOMIC CHARGES
----------------------
   0 C :    0.139893
   1 S :    1.120365
   2 F :   -0.235856
   3 O :   -0.503448
   4 O :   -0.528445
   5 H :   -0.000403
   6 H :   -0.000297
   7 H :    0.008191

  Mayer bond orders larger than 0.100000
B(  0-C ,  1-S ) :   1.0182 B(  0-C ,  5-H ) :   0.9336 B(  0-C ,  6-H ) :   0.9324
B(  0-C ,  7-H ) :   0.9296 B(  1-S ,  2-F ) :   0.7297 B(  1-S ,  3-O ) :   1.5143
B(  1-S ,  4-O ) :   1.4730 B(  1-S ,  7-H ) :   0.1026

Dispersion correction           -0.001536585
FINAL SINGLE POINT ENERGY      -687.907448629999

DIPOLE MOMENT
-------------
                                X             Y             Z
Electronic contribution:      2.18954      -4.84366       0.67367
Nuclear contribution   :     -0.60459       6.33153      -0.64388
                        -----------------------------------------
Total Dipole Moment    :      1.58495       1.48787       0.02980
                        -----------------------------------------
Magnitude (a.u.)       :      2.17410
Magnitude (Debye)      :      5.52612

Rotational constants in cm-1:     0.163601     0.155191     0.147098
Rotational constants in MHz :  4904.622287  4652.507792  4409.891356

                             ****ORCA TERMINATED NORMALLY****
TOTAL RUN TIME: 0 days 0 hours 0 minutes 10 seconds 830 msec
