                         Program Version 5.0.0 -  RELEASE  -
|  1> !wB97X-D3 RIJCOSX def2-SVPD def2/J TightSCF CPCM(Water)
|  2> *xyz 0 1
|  3> C         -0.46129        2.23469       -4.98962
|  4> C         -0.42384        2.39877       -6.47432
|  5> C         -0.95947        3.49265       -7.00740
|  6> N          0.14558        1.48689       -7.20399
|  7> H          0.56537        0.69681       -6.72386
|  8> H          0.22068        1.58177       -8.20752
|  9> H         -1.40624        4.18151       -6.40326
| 10> H         -0.93421        3.68160       -7.99947
| 11> H          0.00645        1.31059       -4.72100
| 12> H         -1.47822        2.22967       -4.65687
| 13> H          0.06109        3.04632       -4.52779
| 14> *
| 15>
| 16> %MaxCore 64000
| 17>
| 18> %pal nprocs 8
| 19> end
| 20>
| 21> %scf
| 22>   MaxIter 150
| 23> end
| 24>
| 25>
| 26>                          ****END OF INPUT****

CARTESIAN COORDINATES (ANGSTROEM)
---------------------------------
  C     -0.461290    2.234690   -4.989620
  C     -0.423840    2.398770   -6.474320
  C     -0.959470    3.492650   -7.007400
  N      0.145580    1.486890   -7.203990
  H      0.565370    0.696810   -6.723860
  H      0.220680    1.581770   -8.207520
  H     -1.406240    4.181510   -6.403260
  H     -0.934210    3.681600   -7.999470
  H      0.006450    1.310590   -4.721000
  H     -1.478220    2.229670   -4.656870
  H      0.061090    3.046320   -4.527790

 Total Charge           Charge          ....    0
 Multiplicity           Mult            ....    1
 Number of Electrons    NEL             ....   32
 Basis Dimension        Dim             ....  136

ORBITAL ENERGIES
----------------

  NO   OCC          E(Eh)            E(eV)
   0   2.0000     -14.435219      -392.8023
   1   2.0000     -10.317250      -280.7466
   2   2.0000     -10.275179      -279.6018
   3   2.0000     -10.219941      -278.0987
   4   2.0000      -1.042515       -28.3683
   5   2.0000      -0.864507       -23.5244
   6   2.0000      -0.795114       -21.6362
   7   2.0000      -0.675105       -18.3706
   8   2.0000      -0.627964       -17.0878
   9   2.0000      -0.576073       -15.6758
  10   2.0000      -0.531989       -14.4762
  11   2.0000      -0.490032       -13.3345
  12   2.0000      -0.488363       -13.2890
  13   2.0000      -0.449365       -12.2278
  14   2.0000      -0.437389       -11.9020
  15   2.0000      -0.277926        -7.5627
  16   0.0000       0.097158         2.6438
  17   0.0000       0.120283         3.2731
  18   0.0000       0.131725         3.5844
  19   0.0000       0.138239         3.7617
  20   0.0000       0.168770         4.5925

MULLIKEN ATOMIC CHARGES
-----------------------
   0 C :    0.690709
   1 C :   -0.515174
   2 C :    0.380301
   3 N :    0.141309
   4 H :    0.002429
   5 H :   -0.119867
   6 H :   -0.179698
   7 H :   -0.401919
   8 H :   -0.065698
   9 H :    0.043159
  10 H :    0.024448
Sum of atomic charges:   -0.0000000

LOEWDIN ATOMIC CHARGES
----------------------
   0 C :    0.163483
   1 C :   -0.301899
   2 C :    0.129014
   3 N :    0.170132
   4 H :    0.018678
   5 H :    0.027583
   6 H :   -0.087836
   7 H :   -0.098848
   8 H :   -0.016991
   9 H :   -0.001840
  10 H :   -0.001476

  Mayer bond orders larger than 0.100000
B(  0-C ,  1-C ) :   1.1258 B(  0-C ,  2-C ) :   0.1097 B(  0-C ,  8-H ) :   0.7537
B(  0-C ,  9-H ) :   0.7416 B(  0-C , 10-H ) :   0.7664 B(  1-C ,  2-C ) :   1.8469
B(  1-C ,  3-N ) :   1.1486 B(  1-C ,  5-H ) :  -0.1238 B(  1-C ,  7-H ) :   0.1670
B(  1-C ,  8-H ) :   0.2660 B(  1-C ,  9-H ) :   0.1876 B(  1-C , 10-H ) :   0.1752
B(  2-C ,  3-N ) :   0.2111 B(  2-C ,  6-H ) :   0.8450 B(  2-C ,  7-H ) :   0.8350
B(  3-N ,  4-H ) :   1.0430 B(  3-N ,  5-H ) :   1.2933 B(  4-H ,  5-H ) :  -0.1471

Dispersion correction           -0.001670730
FINAL SINGLE POINT ENERGY      -173.092363734689

DIPOLE MOMENT
-------------
                                X             Y             Z
Electronic contribution:      0.71910      -1.12032      -1.49330
Nuclear contribution   :     -0.12116       0.12783       1.56719
                        -----------------------------------------
Total Dipole Moment    :      0.59794      -0.99249       0.07389
                        -----------------------------------------
Magnitude (a.u.)       :      1.16105
Magnitude (Debye)      :      2.95114

Rotational constants in cm-1:     0.350065     0.307664     0.168807
Rotational constants in MHz : 10494.676477  9223.531181  5060.697310

                             ****ORCA TERMINATED NORMALLY****
TOTAL RUN TIME: 0 days 0 hours 0 minutes 11 seconds 134 msec
