                         Program Version 5.0.0 -  RELEASE  -
|  1> !wB97X-D3 RIJCOSX def2-SVPD def2/J TightSCF CPCM(Water)
|  2> *xyz 0 1
|  3> C          2.09343        1.86104       -4.65684
|  4> S          1.87964        0.07859       -4.46297
|  5> O          3.20757       -0.46611       -4.42026
|  6> F          1.07506       -0.05616       -3.26876
|  7> O          1.13166       -0.31996       -5.67903
|  8> H          2.68437        2.05681       -5.52711
|  9> H          2.58708        2.25699       -3.79404
| 10> H          1.13553        2.32556       -4.76426
| 11> *
| 12>
| 13> %MaxCore 64000
| 14>
| 15> %pal nprocs 8
| 16> end
| 17>
| 18> %scf
| 19>   MaxIter 150
| 20> end
| 21>
| 22>
| 23>                          ****END OF INPUT****

CARTESIAN COORDINATES (ANGSTROEM)
---------------------------------
  C      2.093430    1.861040   -4.656840
  S      1.879640    0.078590   -4.462970
  O      3.207570   -0.466110   -4.420260
  F      1.075060   -0.056160   -3.268760
  O      1.131660   -0.319960   -5.679030
  H      2.684370    2.056810   -5.527110
  H      2.587080    2.256990   -3.794040
  H      1.135530    2.325560   -4.764260

 Total Charge           Charge          ....    0
 Multiplicity           Mult            ....    1
 Number of Electrons    NEL             ....   50
 Basis Dimension        Dim             ....  140

ORBITAL ENERGIES
----------------

  NO   OCC          E(Eh)            E(eV)
   0   2.0000     -89.244685     -2428.4713
   1   2.0000     -24.917700      -678.0451
   2   2.0000     -19.273076      -524.4470
   3   2.0000     -19.259534      -524.0786
   4   2.0000     -10.327900      -281.0364
   5   2.0000      -8.318721      -226.3639
   6   2.0000      -6.282370      -170.9520
   7   2.0000      -6.276385      -170.7891
   8   2.0000      -6.274481      -170.7373
   9   2.0000      -1.489570       -40.5332
  10   2.0000      -1.238712       -33.7071
  11   2.0000      -1.133404       -30.8415
  12   2.0000      -0.900262       -24.4974
  13   2.0000      -0.821216       -22.3464
  14   2.0000      -0.702963       -19.1286
  15   2.0000      -0.693112       -18.8605
  16   2.0000      -0.666909       -18.1475
  17   2.0000      -0.582327       -15.8459
  18   2.0000      -0.573420       -15.6036
  19   2.0000      -0.548400       -14.9227
  20   2.0000      -0.537486       -14.6257
  21   2.0000      -0.498354       -13.5609
  22   2.0000      -0.446470       -12.1491
  23   2.0000      -0.431449       -11.7403
  24   2.0000      -0.420148       -11.4328
  25   0.0000       0.066769         1.8169
  26   0.0000       0.099535         2.7085
  27   0.0000       0.099647         2.7115
  28   0.0000       0.102574         2.7912
  29   0.0000       0.129247         3.5170

MULLIKEN ATOMIC CHARGES
-----------------------
   0 C :    0.274781
   1 S :    1.301044
   2 O :   -0.662830
   3 F :   -0.367278
   4 O :   -0.721990
   5 H :    0.052774
   6 H :    0.060871
   7 H :    0.062627
Sum of atomic charges:    0.0000000

LOEWDIN ATOMIC CHARGES
----------------------
   0 C :    0.139911
   1 S :    1.118498
   2 O :   -0.494361
   3 F :   -0.243308
   4 O :   -0.528392
   5 H :    0.007821
   6 H :   -0.000282
   7 H :    0.000112

  Mayer bond orders larger than 0.100000
B(  0-C ,  1-S ) :   1.0179 B(  0-C ,  5-H ) :   0.9310 B(  0-C ,  6-H ) :   0.9324
B(  0-C ,  7-H ) :   0.9330 B(  1-S ,  2-O ) :   1.5262 B(  1-S ,  3-F ) :   0.7191
B(  1-S ,  4-O ) :   1.4731 B(  1-S ,  5-H ) :   0.1022

Dispersion correction           -0.001537547
FINAL SINGLE POINT ENERGY      -687.912039766008

DIPOLE MOMENT
-------------
                                X             Y             Z
Electronic contribution:     -1.80408      -4.08032       2.83729
Nuclear contribution   :      1.52593       5.92196      -1.79430
                        -----------------------------------------
Total Dipole Moment    :     -0.27815       1.84164       1.04299
                        -----------------------------------------
Magnitude (a.u.)       :      2.13468
Magnitude (Debye)      :      5.42592

Rotational constants in cm-1:     0.162837     0.155564     0.147443
Rotational constants in MHz :  4881.731197  4663.686927  4420.233103

                             ****ORCA TERMINATED NORMALLY****
TOTAL RUN TIME: 0 days 0 hours 0 minutes 10 seconds 956 msec
