                         Program Version 5.0.0 -  RELEASE  -
|  1> !wB97X-D3 RIJCOSX def2-SVPD def2/J TightSCF CPCM(Water)
|  2> *xyz 0 1
|  3> C         -0.46129        2.23469       -4.98962
|  4> C         -0.42384        2.39877       -6.47432
|  5> N         -0.95947        3.49265       -7.00740
|  6> C          0.14558        1.48689       -7.20399
|  7> H          0.56537        0.69681       -6.72386
|  8> H          0.22068        1.58177       -8.20752
|  9> H         -1.40624        4.18151       -6.40326
| 10> H         -0.93421        3.68160       -7.99947
| 11> H          0.00645        1.31059       -4.72100
| 12> H         -1.47822        2.22967       -4.65687
| 13> H          0.06109        3.04632       -4.52779
| 14> *
| 15>
| 16> %MaxCore 64000
| 17>
| 18> %pal nprocs 8
| 19> end
| 20>
| 21> %scf
| 22>   MaxIter 150
| 23> end
| 24>
| 25>
| 26>                          ****END OF INPUT****

CARTESIAN COORDINATES (ANGSTROEM)
---------------------------------
  C     -0.461290    2.234690   -4.989620
  C     -0.423840    2.398770   -6.474320
  N     -0.959470    3.492650   -7.007400
  C      0.145580    1.486890   -7.203990
  H      0.565370    0.696810   -6.723860
  H      0.220680    1.581770   -8.207520
  H     -1.406240    4.181510   -6.403260
  H     -0.934210    3.681600   -7.999470
  H      0.006450    1.310590   -4.721000
  H     -1.478220    2.229670   -4.656870
  H      0.061090    3.046320   -4.527790

 Total Charge           Charge          ....    0
 Multiplicity           Mult            ....    1
 Number of Electrons    NEL             ....   32
 Basis Dimension        Dim             ....  136

ORBITAL ENERGIES
----------------

  NO   OCC          E(Eh)            E(eV)
   0   2.0000     -14.430635      -392.6775
   1   2.0000     -10.314761      -280.6789
   2   2.0000     -10.274305      -279.5781
   3   2.0000     -10.223527      -278.1963
   4   2.0000      -1.029783       -28.0218
   5   2.0000      -0.868868       -23.6431
   6   2.0000      -0.798402       -21.7256
   7   2.0000      -0.671419       -18.2703
   8   2.0000      -0.617823       -16.8118
   9   2.0000      -0.578936       -15.7536
  10   2.0000      -0.531322       -14.4580
  11   2.0000      -0.494070       -13.4443
  12   2.0000      -0.488307       -13.2875
  13   2.0000      -0.449263       -12.2251
  14   2.0000      -0.429915       -11.6986
  15   2.0000      -0.286835        -7.8052
  16   0.0000       0.097004         2.6396
  17   0.0000       0.126623         3.4456
  18   0.0000       0.132043         3.5931
  19   0.0000       0.138563         3.7705
  20   0.0000       0.168344         4.5809

MULLIKEN ATOMIC CHARGES
-----------------------
   0 C :    0.724683
   1 C :   -0.570746
   2 N :    0.163954
   3 C :    0.357947
   4 H :   -0.074822
   5 H :   -0.391403
   6 H :   -0.083023
   7 H :   -0.150297
   8 H :    0.053564
   9 H :   -0.009717
  10 H :   -0.020139
Sum of atomic charges:    0.0000000

LOEWDIN ATOMIC CHARGES
----------------------
   0 C :    0.160609
   1 C :   -0.307398
   2 N :    0.163922
   3 C :    0.138868
   4 H :   -0.085104
   5 H :   -0.082406
   6 H :    0.018170
   7 H :    0.014824
   8 H :   -0.012091
   9 H :   -0.005076
  10 H :   -0.004318

  Mayer bond orders larger than 0.100000
B(  0-C ,  1-C ) :   1.3123 B(  0-C ,  8-H ) :   0.7997 B(  0-C ,  9-H ) :   0.6997
B(  0-C , 10-H ) :   0.6988 B(  1-C ,  2-N ) :   1.2075 B(  1-C ,  3-C ) :   1.8138
B(  1-C ,  5-H ) :   0.1708 B(  1-C ,  8-H ) :   0.2031 B(  1-C ,  9-H ) :   0.2603
B(  1-C , 10-H ) :   0.2667 B(  2-N ,  3-C ) :   0.2242 B(  2-N ,  6-H ) :   1.1429
B(  2-N ,  7-H ) :   1.2174 B(  3-C ,  4-H ) :   0.9180 B(  3-C ,  5-H ) :   0.8061
B(  6-H ,  7-H ) :  -0.1335

Dispersion correction           -0.001683463
FINAL SINGLE POINT ENERGY      -173.095475115347

DIPOLE MOMENT
-------------
                                X             Y             Z
Electronic contribution:     -0.56456       1.19264      -1.31596
Nuclear contribution   :      0.12666      -0.32199       1.52310
                        -----------------------------------------
Total Dipole Moment    :     -0.43790       0.87064       0.20714
                        -----------------------------------------
Magnitude (a.u.)       :      0.99633
Magnitude (Debye)      :      2.53248

Rotational constants in cm-1:     0.352483     0.305471     0.168700
Rotational constants in MHz : 10567.165953  9157.779739  5057.501411

                             ****ORCA TERMINATED NORMALLY****
TOTAL RUN TIME: 0 days 0 hours 0 minutes 11 seconds 86 msec
