                         Program Version 5.0.0 -  RELEASE  -
|  1> !wB97X-D3 RIJCOSX def2-SVPD def2/J TightSCF CPCM(Water)
|  2> *xyz 0 1
|  3> C          2.09343        1.86104       -4.65684
|  4> S          1.87964        0.07859       -4.46297
|  5> O          3.20757       -0.46611       -4.42026
|  6> O          1.07506       -0.05616       -3.26876
|  7> F          1.13166       -0.31996       -5.67903
|  8> H          2.68437        2.05681       -5.52711
|  9> H          2.58708        2.25699       -3.79404
| 10> H          1.13553        2.32556       -4.76426
| 11> *
| 12>
| 13> %MaxCore 64000
| 14>
| 15> %pal nprocs 8
| 16> end
| 17>
| 18> %scf
| 19>   MaxIter 150
| 20> end
| 21>
| 22>
| 23>                          ****END OF INPUT****

CARTESIAN COORDINATES (ANGSTROEM)
---------------------------------
  C      2.093430    1.861040   -4.656840
  S      1.879640    0.078590   -4.462970
  O      3.207570   -0.466110   -4.420260
  O      1.075060   -0.056160   -3.268760
  F      1.131660   -0.319960   -5.679030
  H      2.684370    2.056810   -5.527110
  H      2.587080    2.256990   -3.794040
  H      1.135530    2.325560   -4.764260

 Total Charge           Charge          ....    0
 Multiplicity           Mult            ....    1
 Number of Electrons    NEL             ....   50
 Basis Dimension        Dim             ....  140

ORBITAL ENERGIES
----------------

  NO   OCC          E(Eh)            E(eV)
   0   2.0000     -89.242093     -2428.4008
   1   2.0000     -24.901644      -677.6082
   2   2.0000     -19.272545      -524.4326
   3   2.0000     -19.268678      -524.3274
   4   2.0000     -10.326998      -281.0119
   5   2.0000      -8.316119      -226.2931
   6   2.0000      -6.279614      -170.8770
   7   2.0000      -6.273888      -170.7212
   8   2.0000      -6.272058      -170.6714
   9   2.0000      -1.461108       -39.7588
  10   2.0000      -1.245525       -33.8925
  11   2.0000      -1.150557       -31.3082
  12   2.0000      -0.897272       -24.4160
  13   2.0000      -0.808487       -22.0000
  14   2.0000      -0.689915       -18.7735
  15   2.0000      -0.674438       -18.3524
  16   2.0000      -0.664829       -18.0909
  17   2.0000      -0.582949       -15.8629
  18   2.0000      -0.575326       -15.6554
  19   2.0000      -0.547440       -14.8966
  20   2.0000      -0.540183       -14.6991
  21   2.0000      -0.501468       -13.6456
  22   2.0000      -0.451842       -12.2952
  23   2.0000      -0.437237       -11.8978
  24   2.0000      -0.431244       -11.7347
  25   0.0000       0.067664         1.8412
  26   0.0000       0.099778         2.7151
  27   0.0000       0.100119         2.7244
  28   0.0000       0.102514         2.7895
  29   0.0000       0.125921         3.4265

MULLIKEN ATOMIC CHARGES
-----------------------
   0 C :    0.274984
   1 S :    1.300966
   2 O :   -0.672412
   3 O :   -0.687681
   4 F :   -0.387963
   5 H :    0.056411
   6 H :    0.054292
   7 H :    0.061405
Sum of atomic charges:    0.0000000

LOEWDIN ATOMIC CHARGES
----------------------
   0 C :    0.139627
   1 S :    1.114339
   2 O :   -0.494370
   3 O :   -0.503617
   4 F :   -0.262860
   5 H :   -0.000771
   6 H :    0.007748
   7 H :   -0.000097

  Mayer bond orders larger than 0.100000
B(  0-C ,  1-S ) :   1.0175 B(  0-C ,  5-H ) :   0.9360 B(  0-C ,  6-H ) :   0.9277
B(  0-C ,  7-H ) :   0.9334 B(  1-S ,  2-O ) :   1.5230 B(  1-S ,  3-O ) :   1.5119
B(  1-S ,  4-F ) :   0.6765

Dispersion correction           -0.001535974
FINAL SINGLE POINT ENERGY      -687.925146398583

DIPOLE MOMENT
-------------
                                X             Y             Z
Electronic contribution:     -1.71796      -4.58704      -1.72048
Nuclear contribution   :      1.46938       6.18552       0.61372
                        -----------------------------------------
Total Dipole Moment    :     -0.24858       1.59848      -1.10677
                        -----------------------------------------
Magnitude (a.u.)       :      1.96007
Magnitude (Debye)      :      4.98209

Rotational constants in cm-1:     0.163578     0.153284     0.148718
Rotational constants in MHz :  4903.939615  4595.352658  4458.447794

                             ****ORCA TERMINATED NORMALLY****
TOTAL RUN TIME: 0 days 0 hours 0 minutes 11 seconds 155 msec
