                         Program Version 5.0.0 -  RELEASE  -
|  1> !wB97X-D3 RIJCOSX def2-SVPD def2/J TightSCF CPCM(Water) xyzfile
|  2>
|  3> *xyzfile 0 1 D3.xyz
|  4>
|  5> %MaxCore 64000
|  6>
|  7> %pal nprocs 18
|  8> end
|  9>
| 10> %scf
| 11>   MaxIter 150
| 12> end
| 13>
| 14>
| 15>                          ****END OF INPUT****

CARTESIAN COORDINATES (ANGSTROEM)
---------------------------------
  C     -0.461293    2.234686   -4.989619
  C      0.848883    2.667967   -4.302351
  C      2.093434    1.861037   -4.656845
  H      2.444814    2.041567   -5.674990
  H      2.901748    2.137864   -3.980338
  S      1.879644    0.078594   -4.462965
  C     -0.423841    2.398772   -6.474317
  C     -0.959467    3.492647   -7.007401
  N      0.145585    1.486891   -7.203987
  H      0.565371    0.696807   -6.723858
  H      0.220682    1.581768   -8.207520
  H     -1.406243    4.181507   -6.403261
  H     -0.934215    3.681601   -7.999468
  O      3.207574   -0.466111   -4.420259
  F      1.075064   -0.056160   -3.268758
  O      1.131661   -0.319960   -5.679031
  H      0.668432    2.559427   -3.232850
  H      1.034074    3.729426   -4.497081
  H     -1.288884    2.826737   -4.594997
  H     -0.651696    1.186343   -4.756552

 Total Charge           Charge          ....    0
 Multiplicity           Mult            ....    1
 Number of Electrons    NEL             ....   88
 Basis Dimension        Dim             ....  296

ORBITAL ENERGIES
----------------

  NO   OCC          E(Eh)            E(eV)
   0   2.0000     -89.251528     -2428.6575
   1   2.0000     -24.924120      -678.2198
   2   2.0000     -19.279384      -524.6187
   3   2.0000     -19.270600      -524.3797
   4   2.0000     -14.415001      -392.2521
   5   2.0000     -10.341300      -281.4011
   6   2.0000     -10.313453      -280.6433
   7   2.0000     -10.308536      -280.5095
   8   2.0000     -10.292897      -280.0840
   9   2.0000     -10.221272      -278.1350
  10   2.0000      -8.325196      -226.5401
  11   2.0000      -6.288893      -171.1295
  12   2.0000      -6.283063      -170.9708
  13   2.0000      -6.280685      -170.9061
  14   2.0000      -1.495491       -40.6944
  15   2.0000      -1.247665       -33.9507
  16   2.0000      -1.148058       -31.2402
  17   2.0000      -1.035537       -28.1784
  18   2.0000      -0.941554       -25.6210
  19   2.0000      -0.873486       -23.7688
  20   2.0000      -0.841242       -22.8913
  21   2.0000      -0.804380       -21.8883
  22   2.0000      -0.748200       -20.3596
  23   2.0000      -0.705026       -19.1847
  24   2.0000      -0.704308       -19.1652
  25   2.0000      -0.678065       -18.4511
  26   2.0000      -0.665306       -18.1039
  27   2.0000      -0.619720       -16.8635
  28   2.0000      -0.595830       -16.2134
  29   2.0000      -0.591211       -16.0877
  30   2.0000      -0.575839       -15.6694
  31   2.0000      -0.558727       -15.2037
  32   2.0000      -0.547673       -14.9029
  33   2.0000      -0.518456       -14.1079
  34   2.0000      -0.501125       -13.6363
  35   2.0000      -0.491093       -13.3633
  36   2.0000      -0.482317       -13.1245
  37   2.0000      -0.466857       -12.7038
  38   2.0000      -0.446075       -12.1383
  39   2.0000      -0.439079       -11.9480
  40   2.0000      -0.432060       -11.7570
  41   2.0000      -0.423190       -11.5156
  42   2.0000      -0.413406       -11.2493
  43   2.0000      -0.275962        -7.5093
  44   0.0000       0.066949         1.8218
  45   0.0000       0.092870         2.5271
  46   0.0000       0.094715         2.5773
  47   0.0000       0.097842         2.6624
  48   0.0000       0.115391         3.1400

MULLIKEN ATOMIC CHARGES
-----------------------
   0 C :    0.384120
   1 C :    0.050603
   2 C :   -0.018911
   3 H :    0.223032
   4 H :   -0.029734
   5 S :    1.601745
   6 C :   -0.189622
   7 C :    0.301496
   8 N :    0.579426
   9 H :   -0.394640
  10 H :   -0.148635
  11 H :   -0.085549
  12 H :   -0.375672
  13 O :   -0.703844
  14 F :   -0.420651
  15 O :   -0.837271
  16 H :    0.191001
  17 H :   -0.140952
  18 H :    0.041897
  19 H :   -0.027839
Sum of atomic charges:    0.0000000

LOEWDIN ATOMIC CHARGES
----------------------
   0 C :    0.021969
   1 C :   -0.009356
   2 C :   -0.014107
   3 H :    0.042814
   4 H :    0.034551
   5 S :    1.181779
   6 C :   -0.255458
   7 C :    0.145581
   8 N :    0.199905
   9 H :   -0.137568
  10 H :    0.031354
  11 H :   -0.090999
  12 H :   -0.094706
  13 O :   -0.470746
  14 F :   -0.226929
  15 O :   -0.478121
  16 H :    0.031930
  17 H :    0.042405
  18 H :    0.034573
  19 H :    0.011130

  Mayer bond orders larger than 0.100000
B(  0-C ,  1-C ) :   1.1770 B(  0-C ,  6-C ) :   1.1700 B(  0-C ,  8-N ) :   0.1085
B(  0-C , 16-H ) :   0.1285 B(  0-C , 17-H ) :   0.1016 B(  0-C , 18-H ) :   0.7553
B(  0-C , 19-H ) :   0.7316 B(  1-C ,  2-C ) :   1.3535 B(  1-C ,  3-H ) :   0.1107
B(  1-C ,  4-H ) :   0.1802 B(  1-C , 16-H ) :   0.7865 B(  1-C , 17-H ) :   0.9309
B(  1-C , 18-H ) :   0.1474 B(  1-C , 19-H ) :   0.1415 B(  2-C ,  3-H ) :   0.8618
B(  2-C ,  4-H ) :   0.8906 B(  2-C ,  5-S ) :   0.9852 B(  2-C , 16-H ) :   0.1187
B(  5-S , 13-O ) :   1.5539 B(  5-S , 14-F ) :   0.6665 B(  5-S , 15-O ) :   1.3810
B(  6-C ,  7-C ) :   1.7541 B(  6-C ,  8-N ) :   1.1804 B(  6-C , 10-H ) :  -0.1168
B(  6-C , 12-H ) :   0.1493 B(  6-C , 18-H ) :   0.1465 B(  6-C , 19-H ) :   0.1862
B(  7-C ,  8-N ) :   0.1686 B(  7-C , 11-H ) :   0.9026 B(  7-C , 12-H ) :   0.7185
B(  8-N ,  9-H ) :   0.9326 B(  8-N , 10-H ) :   1.2412 B(  9-H , 10-H ) :  -0.2123
B(  9-H , 15-O ) :   0.1638

Dispersion correction           -0.008640544
FINAL SINGLE POINT ENERGY      -899.085509820066

DIPOLE MOMENT
-------------
                                X             Y             Z
Electronic contribution:      6.61839     -12.93935       7.77485
Nuclear contribution   :     -6.19944      13.70770      -6.43483
                        -----------------------------------------
Total Dipole Moment    :      0.41895       0.76834       1.34003
                        -----------------------------------------
Magnitude (a.u.)       :      1.60048
Magnitude (Debye)      :      4.06810

Rotational constants in cm-1:     0.079903     0.025241     0.022805
Rotational constants in MHz :  2395.439281   756.708181   683.680583

                             ****ORCA TERMINATED NORMALLY****
TOTAL RUN TIME: 0 days 0 hours 0 minutes 30 seconds 729 msec
