                         Program Version 5.0.0 -  RELEASE  -
|  1> !wB97X-D3 RIJCOSX def2-SVPD def2/J TightSCF CPCM(Water) xyzfile
|  2>
|  3> *xyzfile 0 1 D4.xyz
|  4>
|  5> %MaxCore 64000
|  6>
|  7> %pal nprocs 18
|  8> end
|  9>
| 10> %scf
| 11>   MaxIter 150
| 12> end
| 13>
| 14>
| 15>                          ****END OF INPUT****

CARTESIAN COORDINATES (ANGSTROEM)
---------------------------------
  C     -0.461293    2.234686   -4.989619
  C      0.848883    2.667967   -4.302351
  C      2.093434    1.861037   -4.656845
  H      2.444814    2.041567   -5.674990
  H      2.901748    2.137864   -3.980338
  S      1.879644    0.078594   -4.462965
  C     -0.423841    2.398772   -6.474317
  N     -0.959467    3.492647   -7.007401
  C      0.145585    1.486891   -7.203987
  H      0.565371    0.696807   -6.723858
  H      0.220682    1.581768   -8.207520
  H     -1.406243    4.181507   -6.403261
  H     -0.934215    3.681601   -7.999468
  O      3.207574   -0.466111   -4.420259
  F      1.075064   -0.056160   -3.268758
  O      1.131661   -0.319960   -5.679031
  H      0.668432    2.559427   -3.232850
  H      1.034074    3.729426   -4.497081
  H     -1.288884    2.826737   -4.594997
  H     -0.651696    1.186343   -4.756552

 Total Charge           Charge          ....    0
 Multiplicity           Mult            ....    1
 Number of Electrons    NEL             ....   88
 Basis Dimension        Dim             ....  296

ORBITAL ENERGIES
----------------

  NO   OCC          E(Eh)            E(eV)
   0   2.0000     -89.242955     -2428.4243
   1   2.0000     -24.918454      -678.0656
   2   2.0000     -19.273060      -524.4466
   3   2.0000     -19.257999      -524.0368
   4   2.0000     -14.427714      -392.5981
   5   2.0000     -10.336632      -281.2741
   6   2.0000     -10.306535      -280.4551
   7   2.0000     -10.306264      -280.4477
   8   2.0000     -10.290809      -280.0272
   9   2.0000     -10.202020      -277.6111
  10   2.0000      -8.316683      -226.3085
  11   2.0000      -6.280495      -170.9010
  12   2.0000      -6.274502      -170.7379
  13   2.0000      -6.272106      -170.6727
  14   2.0000      -1.489893       -40.5420
  15   2.0000      -1.239779       -33.7361
  16   2.0000      -1.137990       -30.9663
  17   2.0000      -1.027403       -27.9571
  18   2.0000      -0.938132       -25.5279
  19   2.0000      -0.874022       -23.7834
  20   2.0000      -0.830324       -22.5943
  21   2.0000      -0.810975       -22.0677
  22   2.0000      -0.742580       -20.2066
  23   2.0000      -0.701860       -19.0986
  24   2.0000      -0.696648       -18.9568
  25   2.0000      -0.668190       -18.1824
  26   2.0000      -0.661477       -17.9997
  27   2.0000      -0.612477       -16.6664
  28   2.0000      -0.593275       -16.1438
  29   2.0000      -0.582069       -15.8389
  30   2.0000      -0.573968       -15.6185
  31   2.0000      -0.568650       -15.4737
  32   2.0000      -0.542569       -14.7641
  33   2.0000      -0.512962       -13.9584
  34   2.0000      -0.498143       -13.5552
  35   2.0000      -0.492398       -13.3988
  36   2.0000      -0.476825       -12.9751
  37   2.0000      -0.464958       -12.6522
  38   2.0000      -0.434067       -11.8116
  39   2.0000      -0.429857       -11.6970
  40   2.0000      -0.426933       -11.6174
  41   2.0000      -0.417988       -11.3740
  42   2.0000      -0.392487       -10.6801
  43   2.0000      -0.277678        -7.5560
  44   0.0000       0.069964         1.9038
  45   0.0000       0.093414         2.5419
  46   0.0000       0.094770         2.5788
  47   0.0000       0.098604         2.6831
  48   0.0000       0.117920         3.2088

MULLIKEN ATOMIC CHARGES
-----------------------
   0 C :    0.287483
   1 C :    0.077190
   2 C :   -0.035798
   3 H :    0.266638
   4 H :   -0.070651
   5 S :    1.569123
   6 C :    0.030562
   7 N :   -0.048786
   8 C :    0.840210
   9 H :   -0.166078
  10 H :   -0.644780
  11 H :   -0.042978
  12 H :   -0.137888
  13 O :   -0.710947
  14 F :   -0.430372
  15 O :   -0.819736
  16 H :    0.173571
  17 H :   -0.136239
  18 H :   -0.126615
  19 H :    0.126090
Sum of atomic charges:    0.0000000

LOEWDIN ATOMIC CHARGES
----------------------
   0 C :    0.024388
   1 C :   -0.010538
   2 C :   -0.015134
   3 H :    0.038494
   4 H :    0.032424
   5 S :    1.173133
   6 C :   -0.242905
   7 N :    0.166621
   8 C :    0.172007
   9 H :   -0.198654
  10 H :   -0.075151
  11 H :    0.012982
  12 H :    0.014192
  13 O :   -0.481442
  14 F :   -0.233217
  15 O :   -0.494712
  16 H :    0.030678
  17 H :    0.043219
  18 H :    0.030834
  19 H :    0.012781

  Mayer bond orders larger than 0.100000
B(  0-C ,  1-C ) :   1.1803 B(  0-C ,  6-C ) :   1.1128 B(  0-C ,  8-C ) :   0.1882
B(  0-C , 16-H ) :   0.1128 B(  0-C , 18-H ) :   0.8022 B(  0-C , 19-H ) :   0.8295
B(  1-C ,  2-C ) :   1.3493 B(  1-C ,  3-H ) :   0.1066 B(  1-C ,  4-H ) :   0.1741
B(  1-C , 16-H ) :   0.7753 B(  1-C , 17-H ) :   0.9167 B(  1-C , 18-H ) :   0.1567
B(  1-C , 19-H ) :   0.1310 B(  2-C ,  3-H ) :   0.8492 B(  2-C ,  4-H ) :   0.9119
B(  2-C ,  5-S ) :   0.9954 B(  2-C , 15-O ) :   0.1075 B(  2-C , 16-H ) :   0.1132
B(  5-S , 13-O ) :   1.5355 B(  5-S , 14-F ) :   0.6603 B(  5-S , 15-O ) :   1.4156
B(  6-C ,  7-N ) :   0.9947 B(  6-C ,  8-C ) :   1.9072 B(  6-C ,  9-H ) :   0.3453
B(  6-C , 10-H ) :   0.2255 B(  6-C , 12-H ) :  -0.1139 B(  6-C , 18-H ) :   0.1516
B(  7-N ,  8-C ) :   0.2762 B(  7-N , 11-H ) :   1.1490 B(  7-N , 12-H ) :   1.3328
B(  8-C ,  9-H ) :   0.5327 B(  8-C , 10-H ) :   0.7617 B(  9-H , 10-H ) :  -0.2403
B(  9-H , 15-O ) :   0.1125 B( 11-H , 12-H ) :  -0.1522

Dispersion correction           -0.008575530
FINAL SINGLE POINT ENERGY      -899.067440042766

DIPOLE MOMENT
-------------
                                X             Y             Z
Electronic contribution:      5.42194     -10.92578       7.81897
Nuclear contribution   :     -6.09390      13.51614      -6.45360
                        -----------------------------------------
Total Dipole Moment    :     -0.67196       2.59036       1.36537
                        -----------------------------------------
Magnitude (a.u.)       :      3.00428
Magnitude (Debye)      :      7.63628

Rotational constants in cm-1:     0.081469     0.024519     0.022336
Rotational constants in MHz :  2442.393231   735.066768   669.628729

                             ****ORCA TERMINATED NORMALLY****
TOTAL RUN TIME: 0 days 0 hours 0 minutes 30 seconds 545 msec
