                         Program Version 5.0.0 -  RELEASE  -
|  1> !M062X D3Zero RIJCOSX def2-SVPD def2/J TightSCF
|  2> *xyz -1 1
|  3> C         -0.98480        1.28474       -2.92869
|  4> C         -0.10608        1.76991       -4.08984
|  5> H         -0.34774        2.82220       -4.26294
|  6> H          0.94968        1.74588       -3.80878
|  7> C         -0.25875        1.00432       -5.40983
|  8> C          0.39596       -0.37070       -5.33994
|  9> H          0.23915        1.56939       -6.20125
| 10> H         -1.30936        0.88869       -5.68245
| 11> O         -0.32633       -1.39040       -5.49128
| 12> O          1.61941       -0.40073       -5.03683
| 13> H         -2.01317        1.31546       -3.22263
| 14> H         -0.83724        1.91975       -2.08023
| 15> H         -0.71656        0.28077       -2.67373
| 16> *
| 17> %MaxCore 64000
| 18>
| 19> %pal nprocs 4
| 20> end
| 21>
| 22> %scf
| 23>   MaxIter 150
| 24> end
| 25>
| 26>
| 27>                          ****END OF INPUT****

CARTESIAN COORDINATES (ANGSTROEM)
---------------------------------
  C     -0.984800    1.284740   -2.928690
  C     -0.106080    1.769910   -4.089840
  H     -0.347740    2.822200   -4.262940
  H      0.949680    1.745880   -3.808780
  C     -0.258750    1.004320   -5.409830
  C      0.395960   -0.370700   -5.339940
  H      0.239150    1.569390   -6.201250
  H     -1.309360    0.888690   -5.682450
  O     -0.326330   -1.390400   -5.491280
  O      1.619410   -0.400730   -5.036830
  H     -2.013170    1.315460   -3.222630
  H     -0.837240    1.919750   -2.080230
  H     -0.716560    0.280770   -2.673730

 Total Charge           Charge          ....   -1
 Multiplicity           Mult            ....    1
 Number of Electrons    NEL             ....   48
 Basis Dimension        Dim             ....  182

ORBITAL ENERGIES
----------------

  NO   OCC          E(Eh)            E(eV)
   0   2.0000     -19.374648      -527.2110
   1   2.0000     -19.373345      -527.1755
   2   2.0000     -10.440302      -284.0950
   3   2.0000     -10.402396      -283.0636
   4   2.0000     -10.401854      -283.0488
   5   2.0000     -10.378337      -282.4089
   6   2.0000      -0.929799       -25.3011
   7   2.0000      -0.828616       -22.5478
   8   2.0000      -0.728833       -19.8326
   9   2.0000      -0.630923       -17.1683
  10   2.0000      -0.524901       -14.2833
  11   2.0000      -0.405037       -11.0216
  12   2.0000      -0.374851       -10.2002
  13   2.0000      -0.361025        -9.8240
  14   2.0000      -0.328717        -8.9448
  15   2.0000      -0.311610        -8.4793
  16   2.0000      -0.286991        -7.8094
  17   2.0000      -0.278429        -7.5764
  18   2.0000      -0.257612        -7.0100
  19   2.0000      -0.240286        -6.5385
  20   2.0000      -0.229571        -6.2469
  21   2.0000      -0.113815        -3.0971
  22   2.0000      -0.112168        -3.0522
  23   2.0000      -0.103750        -2.8232
  24   0.0000       0.163250         4.4423
  25   0.0000       0.187924         5.1137
  26   0.0000       0.202116         5.4998
  27   0.0000       0.213554         5.8111
  28   0.0000       0.245535         6.6813

MULLIKEN ATOMIC CHARGES
-----------------------
   0 C :    0.650925
   1 C :   -0.435769
   2 H :   -0.147251
   3 H :   -0.041468
   4 C :    0.105916
   5 C :    0.576484
   6 H :   -0.027860
   7 H :   -0.043710
   8 O :   -0.744373
   9 O :   -0.784065
  10 H :    0.000110
  11 H :   -0.063966
  12 H :   -0.044972
Sum of atomic charges:   -1.0000000

LOEWDIN ATOMIC CHARGES
----------------------
   0 C :    0.115501
   1 C :   -0.087237
   2 H :   -0.003930
   3 H :    0.010406
   4 C :    0.001054
   5 C :   -0.291027
   6 H :    0.010995
   7 H :    0.004890
   8 O :   -0.341247
   9 O :   -0.339952
  10 H :   -0.027255
  11 H :   -0.036248
  12 H :   -0.015951

  Mayer bond orders larger than 0.100000
B(  0-C ,  1-C ) :   1.2961 B(  0-C , 10-H ) :   0.7833 B(  0-C , 11-H ) :   0.7761
B(  0-C , 12-H ) :   0.8424 B(  1-C ,  2-H ) :   0.9740 B(  1-C ,  3-H ) :   0.9507
B(  1-C ,  4-C ) :   1.2376 B(  1-C ,  6-H ) :   0.1255 B(  1-C ,  7-H ) :   0.1278
B(  1-C , 10-H ) :   0.2104 B(  1-C , 11-H ) :   0.2084 B(  1-C , 12-H ) :   0.2186
B(  3-H ,  4-C ) :   0.1454 B(  4-C ,  5-C ) :   0.9666 B(  4-C ,  6-H ) :   0.8513
B(  4-C ,  7-H ) :   0.9009 B(  5-C ,  7-H ) :   0.1911 B(  5-C ,  8-O ) :   1.3885
B(  5-C ,  9-O ) :   1.3960

Dispersion correction           -0.000201749
FINAL SINGLE POINT ENERGY      -306.798702428528

DIPOLE MOMENT
-------------
                                X             Y             Z
Electronic contribution:      3.11951      -5.64376      -3.87457
Nuclear contribution   :     -4.15791       7.87420       4.69333
                        -----------------------------------------
Total Dipole Moment    :     -1.03840       2.23044       0.81876
                        -----------------------------------------
Magnitude (a.u.)       :      2.59298
Magnitude (Debye)      :      6.59082

Rotational constants in cm-1:     0.200385     0.078723     0.072676
Rotational constants in MHz :  6007.394681  2360.059351  2178.761275

                             ****ORCA TERMINATED NORMALLY****
TOTAL RUN TIME: 0 days 0 hours 0 minutes 20 seconds 163 msec
