                         Program Version 5.0.0 -  RELEASE  -
|  1> !M062X D3Zero RIJCOSX def2-SVPD def2/J TightSCF
|  2> *xyz 1 1
|  3> C          0.81607       -2.10149       -2.18655
|  4> H          1.69623       -2.36869       -1.60046
|  5> N          1.10055       -2.46749       -3.59927
|  6> C          0.51624       -0.61363       -2.03937
|  7> H         -0.02007       -2.71285       -1.84084
|  8> C         -0.86862       -0.19392       -2.54630
|  9> H          1.70061       -1.75723       -4.07838
| 10> H          0.29386       -2.35977       -4.25632
| 11> H          1.50132       -3.42848       -3.69491
| 12> H          1.29904       -0.05680       -2.55898
| 13> H          0.61239       -0.36558       -0.97917
| 14> H         -0.95781       -0.43872       -3.58410
| 15> H         -0.99113        0.86113       -2.41690
| 16> H         -1.62334       -0.71130       -1.99167
| 17> *
| 18> %MaxCore 64000
| 19>
| 20> %pal nprocs 4
| 21> end
| 22>
| 23> %scf
| 24>   MaxIter 150
| 25> end
| 26>
| 27>
| 28>                          ****END OF INPUT****

CARTESIAN COORDINATES (ANGSTROEM)
---------------------------------
  C      0.816070   -2.101490   -2.186550
  H      1.696230   -2.368690   -1.600460
  N      1.100550   -2.467490   -3.599270
  C      0.516240   -0.613630   -2.039370
  H     -0.020070   -2.712850   -1.840840
  C     -0.868620   -0.193920   -2.546300
  H      1.700610   -1.757230   -4.078380
  H      0.293860   -2.359770   -4.256320
  H      1.501320   -3.428480   -3.694910
  H      1.299040   -0.056800   -2.558980
  H      0.612390   -0.365580   -0.979170
  H     -0.957810   -0.438720   -3.584100
  H     -0.991130    0.861130   -2.416900
  H     -1.623340   -0.711300   -1.991670

 Total Charge           Charge          ....    1
 Multiplicity           Mult            ....    1
 Number of Electrons    NEL             ....   34
 Basis Dimension        Dim             ....  160

ORBITAL ENERGIES
----------------

  NO   OCC          E(Eh)            E(eV)
   0   2.0000     -15.094182      -410.7336
   1   2.0000     -10.798964      -293.8547
   2   2.0000     -10.729941      -291.9765
   3   2.0000     -10.695119      -291.0290
   4   2.0000      -1.301719       -35.4216
   5   2.0000      -1.062282       -28.9062
   6   2.0000      -0.968196       -26.3460
   7   2.0000      -0.882526       -24.0148
   8   2.0000      -0.851816       -23.1791
   9   2.0000      -0.833241       -22.6736
  10   2.0000      -0.764032       -20.7904
  11   2.0000      -0.693907       -18.8822
  12   2.0000      -0.675971       -18.3941
  13   2.0000      -0.650440       -17.6994
  14   2.0000      -0.586059       -15.9475
  15   2.0000      -0.579490       -15.7687
  16   2.0000      -0.576534       -15.6883
  17   0.0000      -0.165575        -4.5055
  18   0.0000      -0.109710        -2.9854
  19   0.0000      -0.106908        -2.9091
  20   0.0000      -0.094103        -2.5607
  21   0.0000      -0.067524        -1.8374

MULLIKEN ATOMIC CHARGES
-----------------------
   0 C :    0.646487
   1 H :   -0.039956
   2 N :   -1.057916
   3 C :   -0.347044
   4 H :   -0.040248
   5 C :    0.716108
   6 H :    0.508143
   7 H :    0.377917
   8 H :    0.422554
   9 H :   -0.053751
  10 H :   -0.051155
  11 H :   -0.124074
  12 H :   -0.001905
  13 H :    0.044840
Sum of atomic charges:    1.0000000

LOEWDIN ATOMIC CHARGES
----------------------
   0 C :    0.086869
   1 H :    0.052274
   2 N :    0.301303
   3 C :   -0.046739
   4 H :    0.055183
   5 C :    0.153895
   6 H :    0.113073
   7 H :    0.107852
   8 H :    0.123058
   9 H :    0.028815
  10 H :    0.045266
  11 H :   -0.024830
  12 H :    0.004859
  13 H :   -0.000879

  Mayer bond orders larger than 0.100000
B(  0-C ,  1-H ) :   0.9136 B(  0-C ,  2-N ) :   0.6297 B(  0-C ,  3-C ) :   1.1359
B(  0-C ,  4-H ) :   0.9041 B(  0-C , 10-H ) :   0.1059 B(  1-H ,  2-N ) :   0.1106
B(  2-N ,  4-H ) :   0.1423 B(  2-N ,  6-H ) :   0.5469 B(  2-N ,  7-H ) :   0.7527
B(  2-N ,  8-H ) :   0.6264 B(  3-C ,  5-C ) :   1.2598 B(  3-C ,  9-H ) :   0.9593
B(  3-C , 10-H ) :   0.9994 B(  3-C , 11-H ) :   0.1810 B(  3-C , 12-H ) :   0.1971
B(  3-C , 13-H ) :   0.1809 B(  5-C , 11-H ) :   0.8335 B(  5-C , 12-H ) :   0.8089
B(  5-C , 13-H ) :   0.7958

Dispersion correction           -0.000158063
FINAL SINGLE POINT ENERGY      -174.622426145952

DIPOLE MOMENT
-------------
                                X             Y             Z
Electronic contribution:      1.48215      -1.83456      -0.69667
Nuclear contribution   :     -0.52914       0.42437      -0.52967
                        -----------------------------------------
Total Dipole Moment    :      0.95301      -1.41020      -1.22635
                        -----------------------------------------
Magnitude (a.u.)       :      2.09781
Magnitude (Debye)      :      5.33221

Rotational constants in cm-1:     0.462856     0.150885     0.132529
Rotational constants in MHz : 13876.083919  4523.416930  3973.119974

                             ****ORCA TERMINATED NORMALLY****
TOTAL RUN TIME: 0 days 0 hours 0 minutes 13 seconds 940 msec
