                         Program Version 5.0.0 -  RELEASE  -
|  1> !M062X D3Zero RIJCOSX def2-SVPD def2/J TightSCF
|  2> *xyz 0 1
|  3> C         -0.98480        1.28474       -2.92869
|  4> C         -0.10608        1.76991       -4.08984
|  5> H         -0.34774        2.82220       -4.26294
|  6> H          0.94968        1.74588       -3.80878
|  7> C         -0.25875        1.00432       -5.40983
|  8> C          0.39596       -0.37070       -5.33994
|  9> H          0.23915        1.56939       -6.20125
| 10> H         -1.30936        0.88869       -5.68245
| 11> F         -0.32633       -1.39040       -5.49128
| 12> O          1.61941       -0.40073       -5.03683
| 13> H         -2.01317        1.31546       -3.22263
| 14> H         -0.83724        1.91975       -2.08023
| 15> H         -0.71656        0.28077       -2.67373
| 16> *
| 17> %MaxCore 64000
| 18>
| 19> %pal nprocs 4
| 20> end
| 21>
| 22> %scf
| 23>   MaxIter 150
| 24> end
| 25>
| 26>
| 27>                          ****END OF INPUT****

CARTESIAN COORDINATES (ANGSTROEM)
---------------------------------
  C     -0.984800    1.284740   -2.928690
  C     -0.106080    1.769910   -4.089840
  H     -0.347740    2.822200   -4.262940
  H      0.949680    1.745880   -3.808780
  C     -0.258750    1.004320   -5.409830
  C      0.395960   -0.370700   -5.339940
  H      0.239150    1.569390   -6.201250
  H     -1.309360    0.888690   -5.682450
  F     -0.326330   -1.390400   -5.491280
  O      1.619410   -0.400730   -5.036830
  H     -2.013170    1.315460   -3.222630
  H     -0.837240    1.919750   -2.080230
  H     -0.716560    0.280770   -2.673730

 Total Charge           Charge          ....    0
 Multiplicity           Mult            ....    1
 Number of Electrons    NEL             ....   48
 Basis Dimension        Dim             ....  182

ORBITAL ENERGIES
----------------

  NO   OCC          E(Eh)            E(eV)
   0   2.0000     -25.328694      -689.2288
   1   2.0000     -19.648492      -534.6626
   2   2.0000     -10.739323      -292.2318
   3   2.0000     -10.583717      -287.9976
   4   2.0000     -10.566610      -287.5321
   5   2.0000     -10.547329      -287.0074
   6   2.0000      -1.443633       -39.2833
   7   2.0000      -1.141507       -31.0620
   8   2.0000      -0.906431       -24.6652
   9   2.0000      -0.820682       -22.3319
  10   2.0000      -0.757006       -20.5992
  11   2.0000      -0.694619       -18.9016
  12   2.0000      -0.643763       -17.5177
  13   2.0000      -0.626748       -17.0547
  14   2.0000      -0.593945       -16.1621
  15   2.0000      -0.535653       -14.5759
  16   2.0000      -0.529708       -14.4141
  17   2.0000      -0.490877       -13.3574
  18   2.0000      -0.478599       -13.0233
  19   2.0000      -0.446367       -12.1463
  20   2.0000      -0.416635       -11.3372
  21   2.0000      -0.412617       -11.2279
  22   2.0000      -0.407576       -11.0907
  23   2.0000      -0.372205       -10.1282
  24   0.0000       0.007117         0.1937
  25   0.0000       0.030049         0.8177
  26   0.0000       0.055082         1.4988
  27   0.0000       0.063525         1.7286
  28   0.0000       0.072336         1.9684

MULLIKEN ATOMIC CHARGES
-----------------------
   0 C :    0.647959
   1 C :   -0.414310
   2 H :   -0.100422
   3 H :   -0.019086
   4 C :   -0.002883
   5 C :    0.848124
   6 H :    0.045077
   7 H :    0.025853
   8 F :   -0.407353
   9 O :   -0.558654
  10 H :    0.024631
  11 H :   -0.031373
  12 H :   -0.057564
Sum of atomic charges:    0.0000000

LOEWDIN ATOMIC CHARGES
----------------------
   0 C :    0.134471
   1 C :   -0.062038
   2 H :    0.022661
   3 H :    0.024471
   4 C :    0.044665
   5 C :    0.014516
   6 H :    0.041218
   7 H :    0.026537
   8 F :   -0.051693
   9 O :   -0.148288
  10 H :   -0.015907
  11 H :   -0.014275
  12 H :   -0.016338

  Mayer bond orders larger than 0.100000
B(  0-C ,  1-C ) :   1.3256 B(  0-C , 10-H ) :   0.7803 B(  0-C , 11-H ) :   0.7870
B(  0-C , 12-H ) :   0.8454 B(  1-C ,  2-H ) :   0.9773 B(  1-C ,  3-H ) :   0.9492
B(  1-C ,  4-C ) :   1.2482 B(  1-C ,  6-H ) :   0.1163 B(  1-C ,  7-H ) :   0.1261
B(  1-C , 10-H ) :   0.2020 B(  1-C , 11-H ) :   0.1995 B(  1-C , 12-H ) :   0.2032
B(  3-H ,  4-C ) :   0.1233 B(  4-C ,  5-C ) :   1.0569 B(  4-C ,  6-H ) :   0.8665
B(  4-C ,  7-H ) :   0.9051 B(  5-C ,  7-H ) :   0.1026 B(  5-C ,  8-F ) :   0.6621
B(  5-C ,  9-O ) :   1.7676

Dispersion correction           -0.000203854
FINAL SINGLE POINT ENERGY      -331.329510043154

DIPOLE MOMENT
-------------
                                X             Y             Z
Electronic contribution:      2.75548      -9.05735      -5.66941
Nuclear contribution   :     -3.72230       9.78546       5.57872
                        -----------------------------------------
Total Dipole Moment    :     -0.96683       0.72811      -0.09069
                        -----------------------------------------
Magnitude (a.u.)       :      1.21372
Magnitude (Debye)      :      3.08504

Rotational constants in cm-1:     0.192703     0.076176     0.069525
Rotational constants in MHz :  5777.081080  2283.698999  2084.312921

                             ****ORCA TERMINATED NORMALLY****
TOTAL RUN TIME: 0 days 0 hours 0 minutes 19 seconds 663 msec
