                         Program Version 5.0.0 -  RELEASE  -
|  1> !M062X D3Zero RIJCOSX def2-SVPD def2/J TightSCF
|  2> *xyz 0 1
|  3> C          0.81607       -2.10149       -2.18655
|  4> H          1.69623       -2.36869       -1.60046
|  5> C          1.10055       -2.46749       -3.59927
|  6> C          0.51624       -0.61363       -2.03937
|  7> H         -0.02007       -2.71285       -1.84084
|  8> C         -0.86862       -0.19392       -2.54630
|  9> H          1.70061       -1.75723       -4.07838
| 10> H          0.29386       -2.35977       -4.25632
| 11> H          1.50132       -3.42848       -3.69491
| 12> H          1.29904       -0.05680       -2.55898
| 13> H          0.61239       -0.36558       -0.97917
| 14> H         -0.95781       -0.43872       -3.58410
| 15> H         -0.99113        0.86113       -2.41690
| 16> H         -1.62334       -0.71130       -1.99167
| 17> *
| 18> %MaxCore 64000
| 19>
| 20> %pal nprocs 4
| 21> end
| 22>
| 23> %scf
| 24>   MaxIter 150
| 25> end
| 26>
| 27>
| 28>                          ****END OF INPUT****

CARTESIAN COORDINATES (ANGSTROEM)
---------------------------------
  C      0.816070   -2.101490   -2.186550
  H      1.696230   -2.368690   -1.600460
  C      1.100550   -2.467490   -3.599270
  C      0.516240   -0.613630   -2.039370
  H     -0.020070   -2.712850   -1.840840
  C     -0.868620   -0.193920   -2.546300
  H      1.700610   -1.757230   -4.078380
  H      0.293860   -2.359770   -4.256320
  H      1.501320   -3.428480   -3.694910
  H      1.299040   -0.056800   -2.558980
  H      0.612390   -0.365580   -0.979170
  H     -0.957810   -0.438720   -3.584100
  H     -0.991130    0.861130   -2.416900
  H     -1.623340   -0.711300   -1.991670

 Total Charge           Charge          ....    0
 Multiplicity           Mult            ....    1
 Number of Electrons    NEL             ....   34
 Basis Dimension        Dim             ....  160

ORBITAL ENERGIES
----------------

  NO   OCC          E(Eh)            E(eV)
   0   2.0000     -10.539863      -286.8043
   1   2.0000     -10.536885      -286.7232
   2   2.0000     -10.530991      -286.5628
   3   2.0000     -10.517198      -286.1875
   4   2.0000      -0.892524       -24.2868
   5   2.0000      -0.813978       -22.1495
   6   2.0000      -0.724652       -19.7188
   7   2.0000      -0.647424       -17.6173
   8   2.0000      -0.533463       -14.5163
   9   2.0000      -0.527284       -14.3481
  10   2.0000      -0.489956       -13.3324
  11   2.0000      -0.460145       -12.5212
  12   2.0000      -0.448464       -12.2033
  13   2.0000      -0.416950       -11.3458
  14   2.0000      -0.387044       -10.5320
  15   2.0000      -0.380962       -10.3665
  16   2.0000      -0.374117       -10.1803
  17   0.0000       0.044247         1.2040
  18   0.0000       0.067146         1.8271
  19   0.0000       0.070150         1.9089
  20   0.0000       0.078241         2.1290
  21   0.0000       0.124399         3.3851

MULLIKEN ATOMIC CHARGES
-----------------------
   0 C :   -0.202655
   1 H :   -0.093947
   2 C :    0.862533
   3 C :   -0.335859
   4 H :   -0.072933
   5 C :    0.719810
   6 H :   -0.113175
   7 H :   -0.265090
   8 H :   -0.167876
   9 H :   -0.027840
  10 H :   -0.137140
  11 H :   -0.138857
  12 H :   -0.035634
  13 H :    0.008662
Sum of atomic charges:    0.0000000

LOEWDIN ATOMIC CHARGES
----------------------
   0 C :   -0.082452
   1 H :    0.021393
   2 C :    0.108578
   3 C :   -0.083163
   4 H :    0.024176
   5 C :    0.129182
   6 H :   -0.028582
   7 H :   -0.035087
   8 H :   -0.022682
   9 H :    0.017852
  10 H :    0.014354
  11 H :   -0.026550
  12 H :   -0.020132
  13 H :   -0.016887

  Mayer bond orders larger than 0.100000
B(  0-C ,  1-H ) :   0.9513 B(  0-C ,  2-C ) :   1.2437 B(  0-C ,  3-C ) :   1.1599
B(  0-C ,  4-H ) :   0.9287 B(  0-C ,  6-H ) :   0.1922 B(  0-C ,  7-H ) :   0.1987
B(  0-C ,  8-H ) :   0.2142 B(  0-C , 10-H ) :   0.1246 B(  2-C ,  4-H ) :   0.1210
B(  2-C ,  6-H ) :   0.6809 B(  2-C ,  7-H ) :   0.6947 B(  2-C ,  8-H ) :   0.7742
B(  3-C ,  5-C ) :   1.2566 B(  3-C ,  9-H ) :   0.9242 B(  3-C , 10-H ) :   1.0042
B(  3-C , 11-H ) :   0.2035 B(  3-C , 12-H ) :   0.1998 B(  3-C , 13-H ) :   0.1964
B(  5-C , 11-H ) :   0.8416 B(  5-C , 12-H ) :   0.7781 B(  5-C , 13-H ) :   0.7894
B(  6-H ,  7-H ) :   0.3264

Dispersion correction           -0.000152507
FINAL SINGLE POINT ENERGY      -158.230418025304

DIPOLE MOMENT
-------------
                                X             Y             Z
Electronic contribution:      0.32113      -0.06727       0.82813
Nuclear contribution   :     -0.30980       0.07990      -0.83209
                        -----------------------------------------
Total Dipole Moment    :      0.01132       0.01263      -0.00396
                        -----------------------------------------
Magnitude (a.u.)       :      0.01742
Magnitude (Debye)      :      0.04428

Rotational constants in cm-1:     0.470198     0.157622     0.138278
Rotational constants in MHz : 14096.185772  4725.380109  4145.481686

                             ****ORCA TERMINATED NORMALLY****
TOTAL RUN TIME: 0 days 0 hours 0 minutes 14 seconds 9 msec
