                         Program Version 5.0.0 -  RELEASE  -
|  1> !M062X D3Zero RIJCOSX def2-SVPD def2/J TightSCF
|  2> *xyz 0 1
|  3> C         -0.98480        1.28474       -2.92869
|  4> C         -0.10608        1.76991       -4.08984
|  5> H         -0.34774        2.82220       -4.26294
|  6> H          0.94968        1.74588       -3.80878
|  7> C         -0.25875        1.00432       -5.40983
|  8> C          0.39596       -0.37070       -5.33994
|  9> H          0.23915        1.56939       -6.20125
| 10> H         -1.30936        0.88869       -5.68245
| 11> O         -0.32633       -1.39040       -5.49128
| 12> F          1.61941       -0.40073       -5.03683
| 13> H         -2.01317        1.31546       -3.22263
| 14> H         -0.83724        1.91975       -2.08023
| 15> H         -0.71656        0.28077       -2.67373
| 16> *
| 17> %MaxCore 64000
| 18>
| 19> %pal nprocs 4
| 20> end
| 21>
| 22> %scf
| 23>   MaxIter 150
| 24> end
| 25>
| 26>
| 27>                          ****END OF INPUT****

CARTESIAN COORDINATES (ANGSTROEM)
---------------------------------
  C     -0.984800    1.284740   -2.928690
  C     -0.106080    1.769910   -4.089840
  H     -0.347740    2.822200   -4.262940
  H      0.949680    1.745880   -3.808780
  C     -0.258750    1.004320   -5.409830
  C      0.395960   -0.370700   -5.339940
  H      0.239150    1.569390   -6.201250
  H     -1.309360    0.888690   -5.682450
  O     -0.326330   -1.390400   -5.491280
  F      1.619410   -0.400730   -5.036830
  H     -2.013170    1.315460   -3.222630
  H     -0.837240    1.919750   -2.080230
  H     -0.716560    0.280770   -2.673730

 Total Charge           Charge          ....    0
 Multiplicity           Mult            ....    1
 Number of Electrons    NEL             ....   48
 Basis Dimension        Dim             ....  182

ORBITAL ENERGIES
----------------

  NO   OCC          E(Eh)            E(eV)
   0   2.0000     -25.327811      -689.2048
   1   2.0000     -19.648976      -534.6758
   2   2.0000     -10.738202      -292.2013
   3   2.0000     -10.583413      -287.9893
   4   2.0000     -10.571713      -287.6709
   5   2.0000     -10.548081      -287.0279
   6   2.0000      -1.442345       -39.2482
   7   2.0000      -1.141392       -31.0589
   8   2.0000      -0.910683       -24.7810
   9   2.0000      -0.820845       -22.3363
  10   2.0000      -0.754079       -20.5195
  11   2.0000      -0.697550       -18.9813
  12   2.0000      -0.645499       -17.5649
  13   2.0000      -0.634619       -17.2689
  14   2.0000      -0.580065       -15.7844
  15   2.0000      -0.537911       -14.6373
  16   2.0000      -0.533295       -14.5117
  17   2.0000      -0.493111       -13.4182
  18   2.0000      -0.474875       -12.9220
  19   2.0000      -0.445819       -12.1314
  20   2.0000      -0.427902       -11.6438
  21   2.0000      -0.419738       -11.4216
  22   2.0000      -0.410442       -11.1687
  23   2.0000      -0.365505        -9.9459
  24   0.0000       0.011373         0.3095
  25   0.0000       0.028801         0.7837
  26   0.0000       0.055609         1.5132
  27   0.0000       0.065099         1.7714
  28   0.0000       0.067104         1.8260

MULLIKEN ATOMIC CHARGES
-----------------------
   0 C :    0.644867
   1 C :   -0.432077
   2 H :   -0.107971
   3 H :   -0.024664
   4 C :    0.017435
   5 C :    0.866428
   6 H :    0.048470
   7 H :    0.001146
   8 O :   -0.530890
   9 F :   -0.432866
  10 H :    0.027468
  11 H :   -0.025184
  12 H :   -0.052162
Sum of atomic charges:   -0.0000000

LOEWDIN ATOMIC CHARGES
----------------------
   0 C :    0.137250
   1 C :   -0.069094
   2 H :    0.021924
   3 H :    0.020387
   4 C :    0.047889
   5 C :    0.008405
   6 H :    0.036584
   7 H :    0.037912
   8 O :   -0.146089
   9 F :   -0.052991
  10 H :   -0.012077
  11 H :   -0.014910
  12 H :   -0.015191

  Mayer bond orders larger than 0.100000
B(  0-C ,  1-C ) :   1.3307 B(  0-C , 10-H ) :   0.7856 B(  0-C , 11-H ) :   0.7879
B(  0-C , 12-H ) :   0.8439 B(  1-C ,  2-H ) :   0.9971 B(  1-C ,  3-H ) :   0.9276
B(  1-C ,  4-C ) :   1.2222 B(  1-C ,  6-H ) :   0.1125 B(  1-C ,  7-H ) :   0.1108
B(  1-C , 10-H ) :   0.2045 B(  1-C , 11-H ) :   0.1993 B(  1-C , 12-H ) :   0.2049
B(  3-H ,  4-C ) :   0.1126 B(  4-C ,  5-C ) :   1.0161 B(  4-C ,  6-H ) :   0.8612
B(  4-C ,  7-H ) :   0.9439 B(  5-C ,  7-H ) :   0.1316 B(  5-C ,  8-O ) :   1.7661
B(  5-C ,  9-F ) :   0.6461

Dispersion correction           -0.000203746
FINAL SINGLE POINT ENERGY      -331.330585295056

DIPOLE MOMENT
-------------
                                X             Y             Z
Electronic contribution:      6.02508      -7.36578      -4.89150
Nuclear contribution   :     -5.92016       8.66755       5.06539
                        -----------------------------------------
Total Dipole Moment    :      0.10493       1.30177       0.17389
                        -----------------------------------------
Magnitude (a.u.)       :      1.31752
Magnitude (Debye)      :      3.34886

Rotational constants in cm-1:     0.191324     0.076691     0.070269
Rotational constants in MHz :  5735.753800  2299.148675  2106.608556

                             ****ORCA TERMINATED NORMALLY****
TOTAL RUN TIME: 0 days 0 hours 0 minutes 20 seconds 366 msec
