                         Program Version 5.0.0 -  RELEASE  -
|  1> !PBE D3BJ RIJCOSX def2-TZVPD def2/J TightSCF
|  2> *xyz 1 1
|  3> C          5.55821       -1.99291       -6.21505
|  4> C          4.18188       -2.58967       -6.29891
|  5> N          3.14587       -1.76843       -6.48675
|  6> N          4.01910       -3.86431       -6.22743
|  7> H          4.76849       -4.59115       -5.99077
|  8> H          3.12241       -4.33339       -6.31462
|  9> H          3.28164       -0.77779       -6.56655
| 10> H          2.21255       -2.13419       -6.56225
| 11> C          6.41926       -2.54294       -5.07763
| 12> H          6.03683       -2.19819       -7.17685
| 13> H          5.46761       -0.90737       -6.12797
| 14> H          6.50056       -3.60553       -5.17358
| 15> H          5.96544       -2.30329       -4.13874
| 16> H          7.39438       -2.10494       -5.12457
| 17> *
| 18>
| 19> %MaxCore 64000
| 20>
| 21> %pal nprocs 4
| 22> end
| 23>
| 24> %scf
| 25>   MaxIter 150
| 26> end
| 27>
| 28>
| 29>                          ****END OF INPUT****

CARTESIAN COORDINATES (ANGSTROEM)
---------------------------------
  C      5.558210   -1.992910   -6.215050
  C      4.181880   -2.589670   -6.298910
  N      3.145870   -1.768430   -6.486750
  N      4.019100   -3.864310   -6.227430
  H      4.768490   -4.591150   -5.990770
  H      3.122410   -4.333390   -6.314620
  H      3.281640   -0.777790   -6.566550
  H      2.212550   -2.134190   -6.562250
  C      6.419260   -2.542940   -5.077630
  H      6.036830   -2.198190   -7.176850
  H      5.467610   -0.907370   -6.127970
  H      6.500560   -3.605530   -5.173580
  H      5.965440   -2.303290   -4.138740
  H      7.394380   -2.104940   -5.124570

 Total Charge           Charge          ....    1
 Multiplicity           Mult            ....    1
 Number of Electrons    NEL             ....   40
 Basis Dimension        Dim             ....  266

ORBITAL ENERGIES
----------------

  NO   OCC          E(Eh)            E(eV)
   0   2.0000     -14.234601      -387.3432
   1   2.0000     -14.224449      -387.0669
   2   2.0000     -10.195583      -277.4359
   3   2.0000     -10.079641      -274.2810
   4   2.0000     -10.035192      -273.0714
   5   2.0000      -1.120284       -30.4845
   6   2.0000      -1.029342       -28.0098
   7   2.0000      -0.897361       -24.4184
   8   2.0000      -0.805142       -21.9090
   9   2.0000      -0.756735       -20.5918
  10   2.0000      -0.721297       -19.6275
  11   2.0000      -0.692954       -18.8562
  12   2.0000      -0.649242       -17.6668
  13   2.0000      -0.605090       -16.4653
  14   2.0000      -0.576957       -15.6998
  15   2.0000      -0.556708       -15.1488
  16   2.0000      -0.507734       -13.8161
  17   2.0000      -0.496614       -13.5135
  18   2.0000      -0.481633       -13.1059
  19   2.0000      -0.453927       -12.3520
  20   0.0000      -0.242392        -6.5958
  21   0.0000      -0.189264        -5.1501
  22   0.0000      -0.155095        -4.2204
  23   0.0000      -0.143362        -3.9011
  24   0.0000      -0.124054        -3.3757

MULLIKEN ATOMIC CHARGES
-----------------------
   0 C :   -0.049819
   1 C :    0.440383
   2 N :   -0.161389
   3 N :   -0.142830
   4 H :    0.196873
   5 H :    0.185446
   6 H :    0.195046
   7 H :    0.156022
   8 C :   -0.981080
   9 H :    0.193026
  10 H :    0.170990
  11 H :    0.310284
  12 H :    0.266118
  13 H :    0.220929
Sum of atomic charges:    1.0000000

LOEWDIN ATOMIC CHARGES
----------------------
   0 C :   -0.146162
   1 C :   -0.378700
   2 N :    0.238517
   3 N :    0.228381
   4 H :    0.185522
   5 H :    0.147848
   6 H :    0.135825
   7 H :    0.136920
   8 C :   -0.058316
   9 H :    0.142671
  10 H :    0.126485
  11 H :    0.065324
  12 H :    0.087187
  13 H :    0.088500

  Mayer bond orders larger than 0.100000
B(  0-C ,  1-C ) :   0.8848 B(  0-C ,  8-C ) :   0.7728 B(  0-C ,  9-H ) :   0.8913
B(  0-C , 10-H ) :   0.9583 B(  1-C ,  2-N ) :   1.2459 B(  1-C ,  3-N ) :   1.3221
B(  2-N ,  3-N ) :   0.1234 B(  2-N ,  6-H ) :   0.9603 B(  2-N ,  7-H ) :   1.0314
B(  3-N ,  4-H ) :   0.9408 B(  3-N ,  5-H ) :   0.9886 B(  8-C , 11-H ) :   0.9258
B(  8-C , 12-H ) :   0.9615 B(  8-C , 13-H ) :   0.9978

Dispersion correction           -0.010065932
FINAL SINGLE POINT ENERGY      -228.825754112306

DIPOLE MOMENT
-------------
                                X             Y             Z
Electronic contribution:     -3.76969      -0.46587      -1.56185
Nuclear contribution   :      2.76041       0.12669       1.26265
                        -----------------------------------------
Total Dipole Moment    :     -1.00928      -0.33918      -0.29920
                        -----------------------------------------
Magnitude (a.u.)       :      1.10599
Magnitude (Debye)      :      2.81121

Rotational constants in cm-1:     0.280918     0.124524     0.094121
Rotational constants in MHz :  8421.697738  3733.133254  2821.684112

                             ****ORCA TERMINATED NORMALLY****
TOTAL RUN TIME: 0 days 0 hours 0 minutes 16 seconds 835 msec
