                         Program Version 5.0.0 -  RELEASE  -
|  1> !PBE D3BJ RIJCOSX def2-TZVPD def2/J TightSCF xyzfile
|  2>
|  3> *xyzfile 0 1 B.xyz
|  4>
|  5> %MaxCore 64000
|  6>
|  7> %pal nprocs 4
|  8> end
|  9>
| 10> %scf
| 11>   MaxIter 150
| 12> end
| 13>
| 14>
| 15>                          ****END OF INPUT****

CARTESIAN COORDINATES (ANGSTROEM)
---------------------------------
  C      5.558206   -1.992914   -6.215054
  C      4.930199   -7.375319   -2.649623
  C      3.841892   -6.951611   -3.632829
  H      3.458144   -5.954425   -3.407121
  H      2.988484   -7.643606   -3.567078
  S      4.318115   -6.915930   -5.368692
  C      4.181880   -2.589671   -6.298911
  N      3.145873   -1.768431   -6.486753
  N      4.019102   -3.864307   -6.227427
  H      4.768490   -4.591153   -5.990773
  H      3.122405   -4.333392   -6.314620
  H      3.281635   -0.777786   -6.566549
  H      2.212549   -2.134193   -6.562246
  O      5.406154   -5.899480   -5.512972
  O      3.111910   -6.445079   -6.043792
  C      6.419260   -2.542944   -5.077630
  C      5.872267   -5.002756   -2.427819
  C      6.173994   -6.485522   -2.606315
  H      6.734852   -6.613767   -3.534015
  H      6.821463   -6.831018   -1.793617
  H      4.469612   -7.406168   -1.655876
  H      5.230134   -8.398678   -2.885906
  C      5.896512   -2.169314   -3.694552
  H      7.428880   -2.143665   -5.208078
  H      6.505894   -3.627541   -5.175502
  C      6.807804   -2.623428   -2.551019
  H      4.894708   -2.589732   -3.557501
  H      5.778823   -1.081255   -3.635790
  C      7.111544   -4.122463   -2.520363
  H      7.751615   -2.071393   -2.614406
  H      6.345837   -2.326401   -1.604086
  H      5.362882   -4.828697   -1.471335
  H      5.174429   -4.702577   -3.211298
  H      7.778329   -4.329347   -1.677651
  H      7.673189   -4.402845   -3.417586
  O      4.763396   -8.239424   -5.698629
  H      6.036826   -2.198189   -7.176852
  H      5.467610   -0.907371   -6.127968

 Total Charge           Charge          ....    0
 Multiplicity           Mult            ....    1
 Number of Electrons    NEL             ....  136
 Basis Dimension        Dim             ....  808

ORBITAL ENERGIES
----------------

  NO   OCC          E(Eh)            E(eV)
   0   2.0000     -88.167066     -2399.1478
   1   2.0000     -18.696275      -508.7515
   2   2.0000     -18.684256      -508.4245
   3   2.0000     -18.678898      -508.2787
   4   2.0000     -14.073452      -382.9581
   5   2.0000     -14.034418      -381.8959
   6   2.0000     -10.029791      -272.9245
   7   2.0000      -9.938436      -270.4386
   8   2.0000      -9.906789      -269.5774
   9   2.0000      -9.895249      -269.2634
  10   2.0000      -9.884079      -268.9595
  11   2.0000      -9.874358      -268.6949
  12   2.0000      -9.872028      -268.6315
  13   2.0000      -9.864029      -268.4139
  14   2.0000      -9.863550      -268.4008
  15   2.0000      -9.856400      -268.2063
  16   2.0000      -7.762761      -211.2355
  17   2.0000      -5.783823      -157.3858
  18   2.0000      -5.782815      -157.3584
  19   2.0000      -5.781942      -157.3346
  20   2.0000      -0.990761       -26.9600
  21   2.0000      -0.954912       -25.9845
  22   2.0000      -0.867523       -23.6065
  23   2.0000      -0.857623       -23.3371
  24   2.0000      -0.853332       -23.2203
  25   2.0000      -0.767623       -20.8881
  26   2.0000      -0.733035       -19.9469
  27   2.0000      -0.710354       -19.3297
  28   2.0000      -0.673924       -18.3384
  29   2.0000      -0.643052       -17.4983
  30   2.0000      -0.613786       -16.7020
  31   2.0000      -0.593464       -16.1490
  32   2.0000      -0.568251       -15.4629
  33   2.0000      -0.554079       -15.0772
  34   2.0000      -0.542206       -14.7542
  35   2.0000      -0.518193       -14.1008
  36   2.0000      -0.503848       -13.7104
  37   2.0000      -0.486835       -13.2475
  38   2.0000      -0.459468       -12.5028
  39   2.0000      -0.454079       -12.3561
  40   2.0000      -0.438110       -11.9216
  41   2.0000      -0.424186       -11.5427
  42   2.0000      -0.416708       -11.3392
  43   2.0000      -0.402950       -10.9648
  44   2.0000      -0.398453       -10.8425
  45   2.0000      -0.391345       -10.6490
  46   2.0000      -0.382151       -10.3989
  47   2.0000      -0.375802       -10.2261
  48   2.0000      -0.361838        -9.8461
  49   2.0000      -0.355503        -9.6737
  50   2.0000      -0.350983        -9.5507
  51   2.0000      -0.347615        -9.4591
  52   2.0000      -0.331124        -9.0103
  53   2.0000      -0.324452        -8.8288
  54   2.0000      -0.319854        -8.7037
  55   2.0000      -0.303445        -8.2572
  56   2.0000      -0.294828        -8.0227
  57   2.0000      -0.290052        -7.8927
  58   2.0000      -0.286193        -7.7877
  59   2.0000      -0.275017        -7.4836
  60   2.0000      -0.272398        -7.4123
  61   2.0000      -0.264321        -7.1925
  62   2.0000      -0.260943        -7.1006
  63   2.0000      -0.255816        -6.9611
  64   2.0000      -0.222720        -6.0605
  65   2.0000      -0.219099        -5.9620
  66   2.0000      -0.213159        -5.8004
  67   2.0000      -0.187227        -5.0947
  68   0.0000      -0.082968        -2.2577
  69   0.0000      -0.055095        -1.4992
  70   0.0000      -0.021634        -0.5887
  71   0.0000      -0.011275        -0.3068
  72   0.0000      -0.005714        -0.1555

MULLIKEN ATOMIC CHARGES
-----------------------
   0 C :   -0.203359
   1 C :   -0.360704
   2 C :   -0.419598
   3 H :    0.260937
   4 H :    0.229571
   5 S :    1.015217
   6 C :    0.506985
   7 N :   -0.210088
   8 N :    0.050177
   9 H :    0.070077
  10 H :    0.170365
  11 H :    0.171946
  12 H :    0.148152
  13 O :   -0.783844
  14 O :   -0.750511
  15 C :   -0.286031
  16 C :    0.158377
  17 C :   -0.371529
  18 H :    0.173895
  19 H :    0.196185
  20 H :    0.148036
  21 H :    0.118152
  22 C :   -0.264656
  23 H :    0.111118
  24 H :    0.151581
  25 C :   -0.463705
  26 H :    0.232403
  27 H :    0.123022
  28 C :   -0.379698
  29 H :    0.170480
  30 H :    0.166598
  31 H :    0.174790
  32 H :   -0.190956
  33 H :    0.168647
  34 H :    0.192353
  35 O :   -0.585617
  36 H :    0.170272
  37 H :    0.190963
Sum of atomic charges:   -0.0000000

LOEWDIN ATOMIC CHARGES
----------------------
   0 C :   -0.110854
   1 C :   -0.227400
   2 C :   -0.260001
   3 H :    0.087885
   4 H :    0.105887
   5 S :    0.405031
   6 C :   -0.387715
   7 N :    0.200307
   8 N :    0.234265
   9 H :    0.050251
  10 H :    0.112013
  11 H :    0.114593
  12 H :    0.123747
  13 O :   -0.352900
  14 O :   -0.344124
  15 C :   -0.191647
  16 C :   -0.225768
  17 C :   -0.217868
  18 H :    0.105989
  19 H :    0.115274
  20 H :    0.110395
  21 H :    0.111244
  22 C :   -0.214522
  23 H :    0.126712
  24 H :    0.100783
  25 C :   -0.209135
  26 H :    0.109056
  27 H :    0.113855
  28 C :   -0.213267
  29 H :    0.110194
  30 H :    0.111380
  31 H :    0.126980
  32 H :    0.079602
  33 H :    0.115309
  34 H :    0.112657
  35 O :   -0.282037
  36 H :    0.136770
  37 H :    0.117058

  Mayer bond orders larger than 0.100000
B(  0-C ,  6-C ) :   0.6470 B(  0-C , 15-C ) :   0.8177 B(  0-C , 22-C ) :   0.1544
B(  0-C , 36-H ) :   0.8432 B(  0-C , 37-H ) :   1.0023 B(  1-C ,  2-C ) :   1.1225
B(  1-C ,  5-S ) :   0.1864 B(  1-C , 16-C ) :   0.1757 B(  1-C , 17-C ) :   1.0203
B(  1-C , 20-H ) :   0.9285 B(  1-C , 21-H ) :   0.9155 B(  2-C ,  3-H ) :   0.8775
B(  2-C ,  4-H ) :   0.8720 B(  2-C ,  5-S ) :   0.8146 B(  2-C , 13-O ) :   0.1068
B(  2-C , 14-O ) :   0.1489 B(  2-C , 32-H ) :   0.1303 B(  2-C , 35-O ) :   0.1549
B(  5-S , 13-O ) :   1.5163 B(  5-S , 14-O ) :   1.3430 B(  5-S , 35-O ) :   1.4505
B(  6-C ,  7-N ) :   1.1047 B(  6-C ,  8-N ) :   1.1774 B(  6-C ,  9-H ) :  -0.1784
B(  6-C , 10-H ) :  -0.1092 B(  6-C , 15-C ) :   0.1642 B(  6-C , 22-C ) :   0.1805
B(  6-C , 36-H ) :   0.1166 B(  6-C , 37-H ) :  -0.1574 B(  7-N ,  8-N ) :   0.1464
B(  7-N , 11-H ) :   0.9817 B(  7-N , 12-H ) :   1.0226 B(  8-N ,  9-H ) :   0.9482
B(  8-N , 10-H ) :   1.0116 B(  8-N , 13-O ) :  -0.1039 B(  8-N , 15-C ) :   0.1001
B(  9-H , 13-O ) :   0.1252 B(  9-H , 14-O ) :  -0.1054 B( 13-O , 14-O ) :   0.1247
B( 13-O , 17-C ) :   0.1215 B( 15-C , 16-C ) :  -0.1209 B( 15-C , 22-C ) :   0.5520
B( 15-C , 23-H ) :   0.8464 B( 15-C , 24-H ) :   1.1698 B( 15-C , 25-C ) :   0.2366
B( 15-C , 28-C ) :   0.2049 B( 16-C , 17-C ) :   0.6110 B( 16-C , 22-C ) :   0.1809
B( 16-C , 25-C ) :   0.2198 B( 16-C , 28-C ) :   0.5125 B( 16-C , 31-H ) :   0.7480
B( 16-C , 32-H ) :   1.5162 B( 17-C , 18-H ) :   0.8436 B( 17-C , 19-H ) :   0.9003
B( 17-C , 28-C ) :   0.5396 B( 17-C , 31-H ) :  -0.1069 B( 22-C , 25-C ) :   1.0889
B( 22-C , 26-H ) :   0.9416 B( 22-C , 27-H ) :   0.8989 B( 23-H , 24-H ) :   0.1029
B( 25-C , 28-C ) :   0.9860 B( 25-C , 29-H ) :   0.9306 B( 25-C , 30-H ) :   0.9155
B( 28-C , 31-H ) :  -0.1215 B( 28-C , 32-H ) :  -0.1237 B( 28-C , 33-H ) :   0.9514
B( 28-C , 34-H ) :   0.8765 B( 31-H , 32-H ) :   0.1754

Dispersion correction           -0.046357703
FINAL SINGLE POINT ENERGY     -1126.987086038413

DIPOLE MOMENT
-------------
                                X             Y             Z
Electronic contribution:     -9.17880     -11.56624     -14.23824
Nuclear contribution   :      8.53517      16.50844      14.36520
                        -----------------------------------------
Total Dipole Moment    :     -0.64363       4.94220       0.12695
                        -----------------------------------------
Magnitude (a.u.)       :      4.98555
Magnitude (Debye)      :     12.67225

Rotational constants in cm-1:     0.017951     0.012436     0.008288
Rotational constants in MHz :   538.163255   372.824050   248.467077

                             ****ORCA TERMINATED NORMALLY****
TOTAL RUN TIME: 0 days 0 hours 3 minutes 6 seconds 585 msec
