                         Program Version 5.0.0 -  RELEASE  -
|  1> !PBE D3BJ RIJCOSX def2-TZVPD def2/J TightSCF
|  2> *xyz 0 1
|  3> C          4.93020       -7.37532       -2.64962
|  4> C          3.84189       -6.95161       -3.63283
|  5> H          3.45814       -5.95442       -3.40712
|  6> H          2.98848       -7.64361       -3.56708
|  7> S          4.31812       -6.91593       -5.36869
|  8> F          5.40615       -5.89948       -5.51297
|  9> O          3.11191       -6.44508       -6.04379
| 10> O          4.76340       -8.23942       -5.69863
| 11> H          5.27901       -8.35440       -2.90385
| 12> H          4.53000       -7.38577       -1.65734
| 13> H          5.74437       -6.68276       -2.69856
| 14> *
| 15>
| 16> %MaxCore 64000
| 17>
| 18> %pal nprocs 4
| 19> end
| 20>
| 21> %scf
| 22>   MaxIter 150
| 23> end
| 24>
| 25>
| 26>                          ****END OF INPUT****

CARTESIAN COORDINATES (ANGSTROEM)
---------------------------------
  C      4.930200   -7.375320   -2.649620
  C      3.841890   -6.951610   -3.632830
  H      3.458140   -5.954420   -3.407120
  H      2.988480   -7.643610   -3.567080
  S      4.318120   -6.915930   -5.368690
  F      5.406150   -5.899480   -5.512970
  O      3.111910   -6.445080   -6.043790
  O      4.763400   -8.239420   -5.698630
  H      5.279010   -8.354400   -2.903850
  H      4.530000   -7.385770   -1.657340
  H      5.744370   -6.682760   -2.698560

 Total Charge           Charge          ....    0
 Multiplicity           Mult            ....    1
 Number of Electrons    NEL             ....   58
 Basis Dimension        Dim             ....  285

ORBITAL ENERGIES
----------------

  NO   OCC          E(Eh)            E(eV)
   0   2.0000     -88.266982     -2401.8667
   1   2.0000     -24.351175      -662.6292
   2   2.0000     -18.767014      -510.6764
   3   2.0000     -18.757899      -510.4284
   4   2.0000      -9.943353      -270.5724
   5   2.0000      -9.900791      -269.4142
   6   2.0000      -7.862714      -213.9553
   7   2.0000      -5.887125      -160.1968
   8   2.0000      -5.880732      -160.0229
   9   2.0000      -5.880183      -160.0079
  10   2.0000      -1.236753       -33.6538
  11   2.0000      -1.022801       -27.8318
  12   2.0000      -0.934475       -25.4284
  13   2.0000      -0.750250       -20.4154
  14   2.0000      -0.652812       -17.7639
  15   2.0000      -0.607476       -16.5303
  16   2.0000      -0.515540       -14.0286
  17   2.0000      -0.492689       -13.4067
  18   2.0000      -0.486752       -13.2452
  19   2.0000      -0.443448       -12.0668
  20   2.0000      -0.425576       -11.5805
  21   2.0000      -0.404960       -11.0195
  22   2.0000      -0.387506       -10.5446
  23   2.0000      -0.363946        -9.9035
  24   2.0000      -0.358227        -9.7479
  25   2.0000      -0.334449        -9.1008
  26   2.0000      -0.296688        -8.0733
  27   2.0000      -0.286959        -7.8085
  28   2.0000      -0.273440        -7.4407
  29   0.0000      -0.038117        -1.0372
  30   0.0000      -0.003340        -0.0909
  31   0.0000       0.005823         0.1585
  32   0.0000       0.008893         0.2420
  33   0.0000       0.017394         0.4733

MULLIKEN ATOMIC CHARGES
-----------------------
   0 C :   -0.911455
   1 C :   -0.168346
   2 H :    0.242717
   3 H :    0.224809
   4 S :    0.980882
   5 F :   -0.132187
   6 O :   -0.506848
   7 O :   -0.495440
   8 H :    0.271837
   9 H :    0.217241
  10 H :    0.276789
Sum of atomic charges:   -0.0000000

LOEWDIN ATOMIC CHARGES
----------------------
   0 C :   -0.113696
   1 C :   -0.288780
   2 H :    0.100303
   3 H :    0.115084
   4 S :    0.551469
   5 F :   -0.073306
   6 O :   -0.265106
   7 O :   -0.240366
   8 H :    0.071830
   9 H :    0.072617
  10 H :    0.069952

  Mayer bond orders larger than 0.100000
B(  0-C ,  1-C ) :   0.8783 B(  0-C ,  8-H ) :   0.9734 B(  0-C ,  9-H ) :   0.9763
B(  0-C , 10-H ) :   0.9336 B(  1-C ,  2-H ) :   0.9261 B(  1-C ,  3-H ) :   0.9243
B(  1-C ,  4-S ) :   0.8245 B(  1-C ,  6-O ) :   0.1221 B(  4-S ,  5-F ) :   1.0163
B(  4-S ,  6-O ) :   1.7269 B(  4-S ,  7-O ) :   1.7666 B(  6-O ,  7-O ) :   0.1154

Dispersion correction           -0.009153799
FINAL SINGLE POINT ENERGY      -727.338294947063

DIPOLE MOMENT
-------------
                                X             Y             Z
Electronic contribution:      1.28818       2.60739      -8.83561
Nuclear contribution   :     -0.98922      -2.24849      10.35711
                        -----------------------------------------
Total Dipole Moment    :      0.29896       0.35889       1.52150
                        -----------------------------------------
Magnitude (a.u.)       :      1.59158
Magnitude (Debye)      :      4.04548

Rotational constants in cm-1:     0.151436     0.080885     0.078670
Rotational constants in MHz :  4539.936009  2424.868817  2358.476812

                             ****ORCA TERMINATED NORMALLY****
TOTAL RUN TIME: 0 days 0 hours 0 minutes 12 seconds 110 msec
