                         Program Version 5.0.0 -  RELEASE  -
|  1> !PBE D3BJ RIJCOSX def2-TZVPD def2/J TightSCF
|  2> *xyz 0 1
|  3> C          5.55821       -1.99291       -6.21505
|  4> C          4.18188       -2.58967       -6.29891
|  5> C          3.14587       -1.76843       -6.48675
|  6> N          4.01910       -3.86431       -6.22743
|  7> H          4.76849       -4.59115       -5.99077
|  8> H          3.12241       -4.33339       -6.31462
|  9> H          3.28164       -0.77779       -6.56655
| 10> H          2.21255       -2.13419       -6.56225
| 11> C          6.41926       -2.54294       -5.07763
| 12> H          6.03683       -2.19819       -7.17685
| 13> H          5.46761       -0.90737       -6.12797
| 14> H          6.50056       -3.60553       -5.17358
| 15> H          5.96544       -2.30329       -4.13874
| 16> H          7.39438       -2.10494       -5.12457
| 17> *
| 18>
| 19> %MaxCore 64000
| 20>
| 21> %pal nprocs 4
| 22> end
| 23>
| 24> %scf
| 25>   MaxIter 150
| 26> end
| 27>
| 28>
| 29>                          ****END OF INPUT****

CARTESIAN COORDINATES (ANGSTROEM)
---------------------------------
  C      5.558210   -1.992910   -6.215050
  C      4.181880   -2.589670   -6.298910
  C      3.145870   -1.768430   -6.486750
  N      4.019100   -3.864310   -6.227430
  H      4.768490   -4.591150   -5.990770
  H      3.122410   -4.333390   -6.314620
  H      3.281640   -0.777790   -6.566550
  H      2.212550   -2.134190   -6.562250
  C      6.419260   -2.542940   -5.077630
  H      6.036830   -2.198190   -7.176850
  H      5.467610   -0.907370   -6.127970
  H      6.500560   -3.605530   -5.173580
  H      5.965440   -2.303290   -4.138740
  H      7.394380   -2.104940   -5.124570

 Total Charge           Charge          ....    0
 Multiplicity           Mult            ....    1
 Number of Electrons    NEL             ....   40
 Basis Dimension        Dim             ....  266

ORBITAL ENERGIES
----------------

  NO   OCC          E(Eh)            E(eV)
   0   2.0000     -13.994979      -380.8227
   1   2.0000      -9.900046      -269.3939
   2   2.0000      -9.880474      -268.8614
   3   2.0000      -9.868442      -268.5340
   4   2.0000      -9.810039      -266.9447
   5   2.0000      -0.855299       -23.2739
   6   2.0000      -0.706475       -19.2242
   7   2.0000      -0.648986       -17.6598
   8   2.0000      -0.568679       -15.4745
   9   2.0000      -0.528086       -14.3700
  10   2.0000      -0.467386       -12.7182
  11   2.0000      -0.422849       -11.5063
  12   2.0000      -0.395923       -10.7736
  13   2.0000      -0.376472       -10.2443
  14   2.0000      -0.347020        -9.4429
  15   2.0000      -0.337355        -9.1799
  16   2.0000      -0.315937        -8.5971
  17   2.0000      -0.292992        -7.9727
  18   2.0000      -0.286700        -7.8015
  19   2.0000      -0.156159        -4.2493
  20   0.0000      -0.019595        -0.5332
  21   0.0000       0.006122         0.1666
  22   0.0000       0.016559         0.4506
  23   0.0000       0.021064         0.5732
  24   0.0000       0.037678         1.0253

MULLIKEN ATOMIC CHARGES
-----------------------
   0 C :   -0.003378
   1 C :    0.690107
   2 C :   -1.252015
   3 N :   -0.228880
   4 H :    0.130594
   5 H :    0.139580
   6 H :    0.246721
   7 H :    0.243935
   8 C :   -0.937581
   9 H :    0.139204
  10 H :    0.129997
  11 H :    0.249395
  12 H :    0.239388
  13 H :    0.212931
Sum of atomic charges:    0.0000000

LOEWDIN ATOMIC CHARGES
----------------------
   0 C :   -0.200131
   1 C :   -0.515650
   2 C :    0.025417
   3 N :    0.102587
   4 H :    0.137712
   5 H :    0.112618
   6 H :    0.009406
   7 H :    0.012475
   8 C :   -0.098872
   9 H :    0.116133
  10 H :    0.110968
  11 H :    0.049821
  12 H :    0.072825
  13 H :    0.064691

  Mayer bond orders larger than 0.100000
B(  0-C ,  1-C ) :   0.9284 B(  0-C ,  8-C ) :   0.7175 B(  0-C ,  9-H ) :   0.9099
B(  0-C , 10-H ) :   0.9326 B(  1-C ,  2-C ) :   1.1110 B(  1-C ,  3-N ) :   1.1290
B(  1-C ,  7-H ) :  -0.1015 B(  2-C ,  3-N ) :   0.1239 B(  2-C ,  6-H ) :   0.9453
B(  2-C ,  7-H ) :   1.0705 B(  3-N ,  4-H ) :   1.0076 B(  3-N ,  5-H ) :   1.0013
B(  8-C , 11-H ) :   0.9668 B(  8-C , 12-H ) :   1.0027 B(  8-C , 13-H ) :   0.9967

Dispersion correction           -0.010422149
FINAL SINGLE POINT ENERGY      -212.353883425873

DIPOLE MOMENT
-------------
                                X             Y             Z
Electronic contribution:     -2.04833      -1.05818      -1.03041
Nuclear contribution   :      2.41345       0.31141       1.16343
                        -----------------------------------------
Total Dipole Moment    :      0.36512      -0.74676       0.13302
                        -----------------------------------------
Magnitude (a.u.)       :      0.84182
Magnitude (Debye)      :      2.13975

Rotational constants in cm-1:     0.287957     0.129204     0.097498
Rotational constants in MHz :  8632.737925  3873.424745  2922.919500

                             ****ORCA TERMINATED NORMALLY****
TOTAL RUN TIME: 0 days 0 hours 0 minutes 15 seconds 234 msec
