                         Program Version 5.0.0 -  RELEASE  -
|  1> !PBE D3BJ RIJCOSX def2-TZVPD def2/J TightSCF
|  2> *xyz 0 1
|  3> C          4.93020       -7.37532       -2.64962
|  4> C          3.84189       -6.95161       -3.63283
|  5> H          3.45814       -5.95442       -3.40712
|  6> H          2.98848       -7.64361       -3.56708
|  7> S          4.31812       -6.91593       -5.36869
|  8> O          5.40615       -5.89948       -5.51297
|  9> F          3.11191       -6.44508       -6.04379
| 10> O          4.76340       -8.23942       -5.69863
| 11> H          5.27901       -8.35440       -2.90385
| 12> H          4.53000       -7.38577       -1.65734
| 13> H          5.74437       -6.68276       -2.69856
| 14> *
| 15>
| 16> %MaxCore 64000
| 17>
| 18> %pal nprocs 4
| 19> end
| 20>
| 21> %scf
| 22>   MaxIter 150
| 23> end
| 24>
| 25>
| 26>                          ****END OF INPUT****

CARTESIAN COORDINATES (ANGSTROEM)
---------------------------------
  C      4.930200   -7.375320   -2.649620
  C      3.841890   -6.951610   -3.632830
  H      3.458140   -5.954420   -3.407120
  H      2.988480   -7.643610   -3.567080
  S      4.318120   -6.915930   -5.368690
  O      5.406150   -5.899480   -5.512970
  F      3.111910   -6.445080   -6.043790
  O      4.763400   -8.239420   -5.698630
  H      5.279010   -8.354400   -2.903850
  H      4.530000   -7.385770   -1.657340
  H      5.744370   -6.682760   -2.698560

 Total Charge           Charge          ....    0
 Multiplicity           Mult            ....    1
 Number of Electrons    NEL             ....   58
 Basis Dimension        Dim             ....  285

ORBITAL ENERGIES
----------------

  NO   OCC          E(Eh)            E(eV)
   0   2.0000     -88.269072     -2401.9236
   1   2.0000     -24.365549      -663.0203
   2   2.0000     -18.766265      -510.6560
   3   2.0000     -18.750677      -510.2319
   4   2.0000      -9.944383      -270.6004
   5   2.0000      -9.899950      -269.3913
   6   2.0000      -7.864659      -214.0083
   7   2.0000      -5.888994      -160.2477
   8   2.0000      -5.882525      -160.0716
   9   2.0000      -5.882305      -160.0656
  10   2.0000      -1.262751       -34.3612
  11   2.0000      -1.016554       -27.6618
  12   2.0000      -0.916824       -24.9481
  13   2.0000      -0.750207       -20.4142
  14   2.0000      -0.665834       -18.1183
  15   2.0000      -0.607693       -16.5362
  16   2.0000      -0.518445       -14.1076
  17   2.0000      -0.510908       -13.9025
  18   2.0000      -0.496068       -13.4987
  19   2.0000      -0.444531       -12.0963
  20   2.0000      -0.429702       -11.6928
  21   2.0000      -0.393261       -10.7012
  22   2.0000      -0.385719       -10.4959
  23   2.0000      -0.366811        -9.9814
  24   2.0000      -0.346238        -9.4216
  25   2.0000      -0.338510        -9.2113
  26   2.0000      -0.294051        -8.0015
  27   2.0000      -0.278970        -7.5912
  28   2.0000      -0.260004        -7.0751
  29   0.0000      -0.028910        -0.7867
  30   0.0000      -0.014651        -0.3987
  31   0.0000       0.007662         0.2085
  32   0.0000       0.013050         0.3551
  33   0.0000       0.022824         0.6211

MULLIKEN ATOMIC CHARGES
-----------------------
   0 C :   -0.922503
   1 C :   -0.186068
   2 H :    0.241211
   3 H :    0.240999
   4 S :    0.976740
   5 O :   -0.535712
   6 F :   -0.089753
   7 O :   -0.490787
   8 H :    0.273158
   9 H :    0.220036
  10 H :    0.272680
Sum of atomic charges:    0.0000000

LOEWDIN ATOMIC CHARGES
----------------------
   0 C :   -0.101748
   1 C :   -0.297370
   2 H :    0.099163
   3 H :    0.103675
   4 S :    0.550076
   5 O :   -0.281574
   6 F :   -0.054030
   7 O :   -0.242896
   8 H :    0.074424
   9 H :    0.074787
  10 H :    0.075493

  Mayer bond orders larger than 0.100000
B(  0-C ,  1-C ) :   0.9308 B(  0-C ,  8-H ) :   0.9483 B(  0-C ,  9-H ) :   0.9645
B(  0-C , 10-H ) :   0.9524 B(  1-C ,  2-H ) :   0.9078 B(  1-C ,  3-H ) :   0.9014
B(  1-C ,  4-S ) :   0.8271 B(  1-C ,  5-O ) :   0.1003 B(  1-C ,  7-O ) :   0.1019
B(  4-S ,  5-O ) :   1.6859 B(  4-S ,  6-F ) :   1.0577 B(  4-S ,  7-O ) :   1.7660
B(  5-O ,  7-O ) :   0.1278

Dispersion correction           -0.009188259
FINAL SINGLE POINT ENERGY      -727.327466164073

DIPOLE MOMENT
-------------
                                X             Y             Z
Electronic contribution:     -2.51755       1.69557      -9.72309
Nuclear contribution   :      1.40145      -1.67996      10.91024
                        -----------------------------------------
Total Dipole Moment    :     -1.11610       0.01561       1.18715
                        -----------------------------------------
Magnitude (a.u.)       :      1.62949
Magnitude (Debye)      :      4.14184

Rotational constants in cm-1:     0.155875     0.079864     0.077188
Rotational constants in MHz :  4673.017506  2394.277415  2314.027118

                             ****ORCA TERMINATED NORMALLY****
TOTAL RUN TIME: 0 days 0 hours 0 minutes 16 seconds 423 msec
