                         Program Version 5.0.0 -  RELEASE  -
|  1> !PBE D3BJ RIJCOSX def2-TZVPD def2/J TightSCF
|  2> *xyz 0 1
|  3> C          5.55821       -1.99291       -6.21505
|  4> C          4.18188       -2.58967       -6.29891
|  5> N          3.14587       -1.76843       -6.48675
|  6> C          4.01910       -3.86431       -6.22743
|  7> H          4.76849       -4.59115       -5.99077
|  8> H          3.12241       -4.33339       -6.31462
|  9> H          3.28164       -0.77779       -6.56655
| 10> H          2.21255       -2.13419       -6.56225
| 11> C          6.41926       -2.54294       -5.07763
| 12> H          6.03683       -2.19819       -7.17685
| 13> H          5.46761       -0.90737       -6.12797
| 14> H          6.50056       -3.60553       -5.17358
| 15> H          5.96544       -2.30329       -4.13874
| 16> H          7.39438       -2.10494       -5.12457
| 17> *
| 18>
| 19> %MaxCore 64000
| 20>
| 21> %pal nprocs 4
| 22> end
| 23>
| 24> %scf
| 25>   MaxIter 150
| 26> end
| 27>
| 28>
| 29>                          ****END OF INPUT****

CARTESIAN COORDINATES (ANGSTROEM)
---------------------------------
  C      5.558210   -1.992910   -6.215050
  C      4.181880   -2.589670   -6.298910
  N      3.145870   -1.768430   -6.486750
  C      4.019100   -3.864310   -6.227430
  H      4.768490   -4.591150   -5.990770
  H      3.122410   -4.333390   -6.314620
  H      3.281640   -0.777790   -6.566550
  H      2.212550   -2.134190   -6.562250
  C      6.419260   -2.542940   -5.077630
  H      6.036830   -2.198190   -7.176850
  H      5.467610   -0.907370   -6.127970
  H      6.500560   -3.605530   -5.173580
  H      5.965440   -2.303290   -4.138740
  H      7.394380   -2.104940   -5.124570

 Total Charge           Charge          ....    0
 Multiplicity           Mult            ....    1
 Number of Electrons    NEL             ....   40
 Basis Dimension        Dim             ....  266

ORBITAL ENERGIES
----------------

  NO   OCC          E(Eh)            E(eV)
   0   2.0000     -13.984912      -380.5488
   1   2.0000      -9.897900      -269.3355
   2   2.0000      -9.881645      -268.8932
   3   2.0000      -9.862488      -268.3719
   4   2.0000      -9.816240      -267.1135
   5   2.0000      -0.845758       -23.0143
   6   2.0000      -0.709602       -19.3093
   7   2.0000      -0.645113       -17.5544
   8   2.0000      -0.578470       -15.7410
   9   2.0000      -0.504144       -13.7185
  10   2.0000      -0.473047       -12.8723
  11   2.0000      -0.435950       -11.8628
  12   2.0000      -0.399705       -10.8765
  13   2.0000      -0.371481       -10.1085
  14   2.0000      -0.341362        -9.2889
  15   2.0000      -0.327795        -8.9198
  16   2.0000      -0.308709        -8.4004
  17   2.0000      -0.294394        -8.0109
  18   2.0000      -0.284005        -7.7282
  19   2.0000      -0.162469        -4.4210
  20   0.0000      -0.011958        -0.3254
  21   0.0000       0.005468         0.1488
  22   0.0000       0.018413         0.5010
  23   0.0000       0.022118         0.6019
  24   0.0000       0.041523         1.1299

MULLIKEN ATOMIC CHARGES
-----------------------
   0 C :   -0.022031
   1 C :    0.724975
   2 N :   -0.239797
   3 C :   -1.172807
   4 H :    0.150650
   5 H :    0.228874
   6 H :    0.139291
   7 H :    0.118975
   8 C :   -0.851298
   9 H :    0.134954
  10 H :    0.128915
  11 H :    0.225509
  12 H :    0.226474
  13 H :    0.207317
Sum of atomic charges:   -0.0000000

LOEWDIN ATOMIC CHARGES
----------------------
   0 C :   -0.200956
   1 C :   -0.499207
   2 N :    0.115094
   3 C :    0.000767
   4 H :    0.052549
   5 H :    0.021989
   6 H :    0.090014
   7 H :    0.102301
   8 C :   -0.096238
   9 H :    0.118147
  10 H :    0.102728
  11 H :    0.056153
  12 H :    0.073343
  13 H :    0.063318

  Mayer bond orders larger than 0.100000
B(  0-C ,  1-C ) :   0.7569 B(  0-C ,  8-C ) :   0.7414 B(  0-C ,  9-H ) :   0.9087
B(  0-C , 10-H ) :   1.0452 B(  1-C ,  2-N ) :   1.0549 B(  1-C ,  3-C ) :   1.1901
B(  1-C ,  5-H ) :  -0.1057 B(  1-C , 10-H ) :  -0.1137 B(  2-N ,  3-C ) :   0.1529
B(  2-N ,  6-H ) :   1.0332 B(  2-N ,  7-H ) :   1.0412 B(  3-C ,  4-H ) :   1.0162
B(  3-C ,  5-H ) :   1.0855 B(  8-C , 11-H ) :   0.9815 B(  8-C , 12-H ) :   0.9876
B(  8-C , 13-H ) :   0.9938

Dispersion correction           -0.010456189
FINAL SINGLE POINT ENERGY      -212.362748612945

DIPOLE MOMENT
-------------
                                X             Y             Z
Electronic contribution:     -2.81604       0.80514      -1.28783
Nuclear contribution   :      2.61570      -0.17401       1.22349
                        -----------------------------------------
Total Dipole Moment    :     -0.20034       0.63113      -0.06434
                        -----------------------------------------
Magnitude (a.u.)       :      0.66528
Magnitude (Debye)      :      1.69100

Rotational constants in cm-1:     0.298189     0.125314     0.096441
Rotational constants in MHz :  8939.495008  3756.825352  2891.223400

                             ****ORCA TERMINATED NORMALLY****
TOTAL RUN TIME: 0 days 0 hours 0 minutes 16 seconds 282 msec
