                         Program Version 5.0.0 -  RELEASE  -
|  1> !PBE D3BJ RIJCOSX def2-TZVPD def2/J TightSCF
|  2> *xyz 0 1
|  3> C          4.93020       -7.37532       -2.64962
|  4> C          3.84189       -6.95161       -3.63283
|  5> H          3.45814       -5.95442       -3.40712
|  6> H          2.98848       -7.64361       -3.56708
|  7> S          4.31812       -6.91593       -5.36869
|  8> O          5.40615       -5.89948       -5.51297
|  9> O          3.11191       -6.44508       -6.04379
| 10> F          4.76340       -8.23942       -5.69863
| 11> H          5.27901       -8.35440       -2.90385
| 12> H          4.53000       -7.38577       -1.65734
| 13> H          5.74437       -6.68276       -2.69856
| 14> *
| 15>
| 16> %MaxCore 64000
| 17>
| 18> %pal nprocs 4
| 19> end
| 20>
| 21> %scf
| 22>   MaxIter 150
| 23> end
| 24>
| 25>
| 26>                          ****END OF INPUT****

CARTESIAN COORDINATES (ANGSTROEM)
---------------------------------
  C      4.930200   -7.375320   -2.649620
  C      3.841890   -6.951610   -3.632830
  H      3.458140   -5.954420   -3.407120
  H      2.988480   -7.643610   -3.567080
  S      4.318120   -6.915930   -5.368690
  O      5.406150   -5.899480   -5.512970
  O      3.111910   -6.445080   -6.043790
  F      4.763400   -8.239420   -5.698630
  H      5.279010   -8.354400   -2.903850
  H      4.530000   -7.385770   -1.657340
  H      5.744370   -6.682760   -2.698560

 Total Charge           Charge          ....    0
 Multiplicity           Mult            ....    1
 Number of Electrons    NEL             ....   58
 Basis Dimension        Dim             ....  285

ORBITAL ENERGIES
----------------

  NO   OCC          E(Eh)            E(eV)
   0   2.0000     -88.270854     -2401.9721
   1   2.0000     -24.378955      -663.3851
   2   2.0000     -18.758216      -510.4370
   3   2.0000     -18.751749      -510.2610
   4   2.0000      -9.944538      -270.6046
   5   2.0000      -9.901789      -269.4414
   6   2.0000      -7.866321      -214.0535
   7   2.0000      -5.890799      -160.2968
   8   2.0000      -5.883993      -160.1116
   9   2.0000      -5.883975      -160.1111
  10   2.0000      -1.284328       -34.9483
  11   2.0000      -1.005839       -27.3703
  12   2.0000      -0.909982       -24.7619
  13   2.0000      -0.752587       -20.4789
  14   2.0000      -0.669598       -18.2207
  15   2.0000      -0.616990       -16.7891
  16   2.0000      -0.536721       -14.6049
  17   2.0000      -0.524888       -14.2829
  18   2.0000      -0.493002       -13.4153
  19   2.0000      -0.444161       -12.0862
  20   2.0000      -0.426476       -11.6050
  21   2.0000      -0.402133       -10.9426
  22   2.0000      -0.384269       -10.4565
  23   2.0000      -0.364223        -9.9110
  24   2.0000      -0.353658        -9.6235
  25   2.0000      -0.328187        -8.9304
  26   2.0000      -0.286129        -7.7860
  27   2.0000      -0.277898        -7.5620
  28   2.0000      -0.254703        -6.9308
  29   0.0000      -0.036692        -0.9984
  30   0.0000      -0.006013        -0.1636
  31   0.0000       0.007100         0.1932
  32   0.0000       0.008048         0.2190
  33   0.0000       0.019885         0.5411

MULLIKEN ATOMIC CHARGES
-----------------------
   0 C :   -0.912302
   1 C :   -0.165897
   2 H :    0.221319
   3 H :    0.243124
   4 S :    0.954963
   5 O :   -0.531211
   6 O :   -0.497460
   7 F :   -0.080646
   8 H :    0.277603
   9 H :    0.218233
  10 H :    0.272274
Sum of atomic charges:    0.0000000

LOEWDIN ATOMIC CHARGES
----------------------
   0 C :   -0.114037
   1 C :   -0.289859
   2 H :    0.110552
   3 H :    0.104646
   4 S :    0.547557
   5 O :   -0.278870
   6 O :   -0.264888
   7 F :   -0.029497
   8 H :    0.068618
   9 H :    0.072778
  10 H :    0.073000

  Mayer bond orders larger than 0.100000
B(  0-C ,  1-C ) :   0.8721 B(  0-C ,  8-H ) :   0.9284 B(  0-C ,  9-H ) :   0.9762
B(  0-C , 10-H ) :   0.9792 B(  1-C ,  2-H ) :   0.9338 B(  1-C ,  3-H ) :   0.9199
B(  1-C ,  4-S ) :   0.8302 B(  1-C ,  6-O ) :   0.1224 B(  4-S ,  5-O ) :   1.6997
B(  4-S ,  6-O ) :   1.7384 B(  4-S ,  7-F ) :   1.0923 B(  5-O ,  6-O ) :   0.1177

Dispersion correction           -0.009145551
FINAL SINGLE POINT ENERGY      -727.316447337266

DIPOLE MOMENT
-------------
                                X             Y             Z
Electronic contribution:      0.21301      -1.25777      -9.14747
Nuclear contribution   :     -0.31946       0.18980      10.55057
                        -----------------------------------------
Total Dipole Moment    :     -0.10645      -1.06798       1.40310
                        -----------------------------------------
Magnitude (a.u.)       :      1.76652
Magnitude (Debye)      :      4.49015

Rotational constants in cm-1:     0.151421     0.081183     0.078684
Rotational constants in MHz :  4539.489207  2433.790160  2358.892966

                             ****ORCA TERMINATED NORMALLY****
TOTAL RUN TIME: 0 days 0 hours 0 minutes 16 seconds 288 msec
