                         Program Version 5.0.0 -  RELEASE  -
|  1> !PBE D3BJ RIJCOSX def2-TZVPD def2/J TightSCF xyzfile
|  2>
|  3> *xyzfile 0 1 D1.xyz
|  4>
|  5> %MaxCore 64000
|  6>
|  7> %pal nprocs 4
|  8> end
|  9>
| 10> %scf
| 11>   MaxIter 150
| 12> end
| 13>
| 14>
| 15>                          ****END OF INPUT****

CARTESIAN COORDINATES (ANGSTROEM)
---------------------------------
  C      5.558206   -1.992914   -6.215054
  C      4.930199   -7.375319   -2.649623
  C      3.841892   -6.951611   -3.632829
  H      3.458144   -5.954425   -3.407121
  H      2.988484   -7.643606   -3.567078
  S      4.318115   -6.915930   -5.368692
  C      4.181880   -2.589671   -6.298911
  C      3.145873   -1.768431   -6.486753
  N      4.019102   -3.864307   -6.227427
  H      4.768490   -4.591153   -5.990773
  H      3.122405   -4.333392   -6.314620
  H      3.281635   -0.777786   -6.566549
  H      2.212549   -2.134193   -6.562246
  F      5.406154   -5.899480   -5.512972
  O      3.111910   -6.445079   -6.043792
  C      6.419260   -2.542944   -5.077630
  C      5.872267   -5.002756   -2.427819
  C      6.173994   -6.485522   -2.606315
  H      6.734852   -6.613767   -3.534015
  H      6.821463   -6.831018   -1.793617
  H      4.469612   -7.406168   -1.655876
  H      5.230134   -8.398678   -2.885906
  C      5.896512   -2.169314   -3.694552
  H      7.428880   -2.143665   -5.208078
  H      6.505894   -3.627541   -5.175502
  C      6.807804   -2.623428   -2.551019
  H      4.894708   -2.589732   -3.557501
  H      5.778823   -1.081255   -3.635790
  C      7.111544   -4.122463   -2.520363
  H      7.751615   -2.071393   -2.614406
  H      6.345837   -2.326401   -1.604086
  H      5.362882   -4.828697   -1.471335
  H      5.174429   -4.702577   -3.211298
  H      7.778329   -4.329347   -1.677651
  H      7.673189   -4.402845   -3.417586
  O      4.763396   -8.239424   -5.698629
  H      6.036826   -2.198189   -7.176852
  H      5.467610   -0.907371   -6.127968

 Total Charge           Charge          ....    0
 Multiplicity           Mult            ....    1
 Number of Electrons    NEL             ....  136
 Basis Dimension        Dim             ....  808

ORBITAL ENERGIES
----------------

  NO   OCC          E(Eh)            E(eV)
   0   2.0000     -88.284719     -2402.3493
   1   2.0000     -24.380723      -663.4332
   2   2.0000     -18.783829      -511.1340
   3   2.0000     -18.776840      -510.9438
   4   2.0000     -13.970093      -380.1456
   5   2.0000      -9.951258      -270.7875
   6   2.0000      -9.916903      -269.8527
   7   2.0000      -9.901418      -269.4313
   8   2.0000      -9.892687      -269.1937
   9   2.0000      -9.888460      -269.0787
  10   2.0000      -9.886146      -269.0157
  11   2.0000      -9.881010      -268.8759
  12   2.0000      -9.879863      -268.8447
  13   2.0000      -9.875866      -268.7360
  14   2.0000      -9.874178      -268.6900
  15   2.0000      -9.800277      -266.6791
  16   2.0000      -7.881091      -214.4554
  17   2.0000      -5.905881      -160.7072
  18   2.0000      -5.898672      -160.5110
  19   2.0000      -5.898389      -160.5033
  20   2.0000      -1.271864       -34.6092
  21   2.0000      -1.042179       -28.3591
  22   2.0000      -0.954020       -25.9602
  23   2.0000      -0.840683       -22.8761
  24   2.0000      -0.777436       -21.1551
  25   2.0000      -0.746465       -20.3123
  26   2.0000      -0.720550       -19.6072
  27   2.0000      -0.691085       -18.8054
  28   2.0000      -0.674115       -18.3436
  29   2.0000      -0.645917       -17.5763
  30   2.0000      -0.631985       -17.1972
  31   2.0000      -0.596184       -16.2230
  32   2.0000      -0.563538       -15.3346
  33   2.0000      -0.552319       -15.0294
  34   2.0000      -0.548628       -14.9289
  35   2.0000      -0.524247       -14.2655
  36   2.0000      -0.515311       -14.0223
  37   2.0000      -0.504090       -13.7170
  38   2.0000      -0.501554       -13.6480
  39   2.0000      -0.459186       -12.4951
  40   2.0000      -0.451564       -12.2877
  41   2.0000      -0.440918       -11.9980
  42   2.0000      -0.435134       -11.8406
  43   2.0000      -0.426518       -11.6062
  44   2.0000      -0.416852       -11.3431
  45   2.0000      -0.413543       -11.2531
  46   2.0000      -0.404095       -10.9960
  47   2.0000      -0.389385       -10.5957
  48   2.0000      -0.386217       -10.5095
  49   2.0000      -0.376660       -10.2494
  50   2.0000      -0.365300        -9.9403
  51   2.0000      -0.363401        -9.8886
  52   2.0000      -0.350006        -9.5242
  53   2.0000      -0.336085        -9.1453
  54   2.0000      -0.329645        -8.9701
  55   2.0000      -0.327418        -8.9095
  56   2.0000      -0.325409        -8.8548
  57   2.0000      -0.315136        -8.5753
  58   2.0000      -0.310707        -8.4548
  59   2.0000      -0.303840        -8.2679
  60   2.0000      -0.298828        -8.1315
  61   2.0000      -0.295510        -8.0412
  62   2.0000      -0.293281        -7.9806
  63   2.0000      -0.288215        -7.8427
  64   2.0000      -0.280601        -7.6355
  65   2.0000      -0.273406        -7.4398
  66   2.0000      -0.268885        -7.3167
  67   2.0000      -0.145704        -3.9648
  68   0.0000      -0.048434        -1.3180
  69   0.0000      -0.019217        -0.5229
  70   0.0000      -0.014466        -0.3936
  71   0.0000      -0.009836        -0.2677
  72   0.0000      -0.004241        -0.1154

MULLIKEN ATOMIC CHARGES
-----------------------
   0 C :   -0.165056
   1 C :   -0.311094
   2 C :   -0.438950
   3 H :    0.333990
   4 H :    0.272039
   5 S :    0.954579
   6 C :    0.707260
   7 C :   -1.420572
   8 N :   -0.105613
   9 H :    0.200437
  10 H :    0.099800
  11 H :    0.267348
  12 H :    0.284746
  13 F :   -0.230189
  14 O :   -0.594710
  15 C :   -0.188442
  16 C :    0.093564
  17 C :   -0.335785
  18 H :    0.104824
  19 H :    0.194808
  20 H :    0.172870
  21 H :    0.117076
  22 C :   -0.146261
  23 H :    0.113405
  24 H :   -0.031271
  25 C :   -0.426340
  26 H :    0.167864
  27 H :    0.127461
  28 C :   -0.379806
  29 H :    0.177296
  30 H :    0.163542
  31 H :    0.182778
  32 H :   -0.165041
  33 H :    0.165151
  34 H :    0.213317
  35 O :   -0.489441
  36 H :    0.131540
  37 H :    0.182874
Sum of atomic charges:    0.0000000

LOEWDIN ATOMIC CHARGES
----------------------
   0 C :   -0.146646
   1 C :   -0.221535
   2 C :   -0.225320
   3 H :    0.104255
   4 H :    0.123370
   5 S :    0.583823
   6 C :   -0.498184
   7 C :    0.029259
   8 N :    0.120813
   9 H :    0.064694
  10 H :    0.093986
  11 H :    0.007855
  12 H :    0.014248
  13 F :   -0.099316
  14 O :   -0.250567
  15 C :   -0.209029
  16 C :   -0.222748
  17 C :   -0.214513
  18 H :    0.106253
  19 H :    0.122245
  20 H :    0.121572
  21 H :    0.114264
  22 C :   -0.210671
  23 H :    0.119356
  24 H :    0.087197
  25 C :   -0.210882
  26 H :    0.109713
  27 H :    0.119525
  28 C :   -0.215627
  29 H :    0.110875
  30 H :    0.110479
  31 H :    0.132116
  32 H :    0.081595
  33 H :    0.115536
  34 H :    0.109274
  35 O :   -0.213960
  36 H :    0.120660
  37 H :    0.116036

  Mayer bond orders larger than 0.100000
B(  0-C ,  6-C ) :   0.7658 B(  0-C , 15-C ) :   0.9109 B(  0-C , 22-C ) :   0.1102
B(  0-C , 24-H ) :   0.1262 B(  0-C , 36-H ) :   0.8969 B(  0-C , 37-H ) :   0.8552
B(  1-C ,  2-C ) :   1.1092 B(  1-C ,  5-S ) :   0.1767 B(  1-C , 16-C ) :   0.1468
B(  1-C , 17-C ) :   1.0185 B(  1-C , 20-H ) :   0.9081 B(  1-C , 21-H ) :   0.9450
B(  2-C ,  3-H ) :   0.8661 B(  2-C ,  4-H ) :   0.8362 B(  2-C ,  5-S ) :   0.8091
B(  2-C , 14-O ) :   0.1265 B(  2-C , 32-H ) :   0.1124 B(  2-C , 35-O ) :   0.1052
B(  5-S , 13-F ) :   1.1370 B(  5-S , 14-O ) :   1.6086 B(  5-S , 35-O ) :   1.5694
B(  6-C ,  7-C ) :   1.1607 B(  6-C ,  8-N ) :   0.9736 B(  6-C ,  9-H ) :  -0.1183
B(  6-C , 22-C ) :   0.1839 B(  7-C ,  8-N ) :   0.1113 B(  7-C , 11-H ) :   1.0010
B(  7-C , 12-H ) :   0.9843 B(  8-N ,  9-H ) :   0.9799 B(  8-N , 10-H ) :   0.9949
B(  8-N , 14-O ) :   0.1042 B(  8-N , 15-C ) :   0.1289 B( 15-C , 16-C ) :  -0.1042
B( 15-C , 22-C ) :   0.6741 B( 15-C , 23-H ) :   0.8610 B( 15-C , 24-H ) :   1.1929
B( 15-C , 25-C ) :   0.2370 B( 15-C , 28-C ) :   0.2032 B( 16-C , 17-C ) :   0.5308
B( 16-C , 22-C ) :   0.1235 B( 16-C , 25-C ) :   0.2607 B( 16-C , 28-C ) :   0.5401
B( 16-C , 31-H ) :   0.7559 B( 16-C , 32-H ) :   1.4973 B( 17-C , 18-H ) :   0.9260
B( 17-C , 19-H ) :   0.8976 B( 17-C , 28-C ) :   0.5061 B( 17-C , 31-H ) :  -0.1069
B( 22-C , 24-H ) :  -0.1040 B( 22-C , 25-C ) :   1.0146 B( 22-C , 26-H ) :   0.9729
B( 22-C , 27-H ) :   0.8889 B( 25-C , 28-C ) :   1.0208 B( 25-C , 29-H ) :   0.9357
B( 25-C , 30-H ) :   0.9230 B( 28-C , 31-H ) :  -0.1180 B( 28-C , 33-H ) :   0.9466
B( 28-C , 34-H ) :   0.8627 B( 31-H , 32-H ) :   0.1874

Dispersion correction           -0.045848702
FINAL SINGLE POINT ENERGY     -1134.853889893027

DIPOLE MOMENT
-------------
                                X             Y             Z
Electronic contribution:     -7.03835     -18.81386     -13.29301
Nuclear contribution   :      7.78491      18.17172      15.09294
                        -----------------------------------------
Total Dipole Moment    :      0.74657      -0.64213       1.79992
                        -----------------------------------------
Magnitude (a.u.)       :      2.05169
Magnitude (Debye)      :      5.21497

Rotational constants in cm-1:     0.018190     0.012573     0.008405
Rotational constants in MHz :   545.327178   376.916509   251.974803

                             ****ORCA TERMINATED NORMALLY****
TOTAL RUN TIME: 0 days 0 hours 2 minutes 17 seconds 690 msec
