                         Program Version 5.0.0 -  RELEASE  -
|  1> !PBE D3BJ RIJCOSX def2-TZVPD def2/J TightSCF xyzfile
|  2>
|  3> *xyzfile 0 1 D2.xyz
|  4>
|  5> %MaxCore 64000
|  6>
|  7> %pal nprocs 4
|  8> end
|  9>
| 10> %scf
| 11>   MaxIter 150
| 12> end
| 13>
| 14>
| 15>                          ****END OF INPUT****

CARTESIAN COORDINATES (ANGSTROEM)
---------------------------------
  C      5.558206   -1.992914   -6.215054
  C      4.930199   -7.375319   -2.649623
  C      3.841892   -6.951611   -3.632829
  H      3.458144   -5.954425   -3.407121
  H      2.988484   -7.643606   -3.567078
  S      4.318115   -6.915930   -5.368692
  C      4.181880   -2.589671   -6.298911
  N      3.145873   -1.768431   -6.486753
  C      4.019102   -3.864307   -6.227427
  H      4.768490   -4.591153   -5.990773
  H      3.122405   -4.333392   -6.314620
  H      3.281635   -0.777786   -6.566549
  H      2.212549   -2.134193   -6.562246
  F      5.406154   -5.899480   -5.512972
  O      3.111910   -6.445079   -6.043792
  C      6.419260   -2.542944   -5.077630
  C      5.872267   -5.002756   -2.427819
  C      6.173994   -6.485522   -2.606315
  H      6.734852   -6.613767   -3.534015
  H      6.821463   -6.831018   -1.793617
  H      4.469612   -7.406168   -1.655876
  H      5.230134   -8.398678   -2.885906
  C      5.896512   -2.169314   -3.694552
  H      7.428880   -2.143665   -5.208078
  H      6.505894   -3.627541   -5.175502
  C      6.807804   -2.623428   -2.551019
  H      4.894708   -2.589732   -3.557501
  H      5.778823   -1.081255   -3.635790
  C      7.111544   -4.122463   -2.520363
  H      7.751615   -2.071393   -2.614406
  H      6.345837   -2.326401   -1.604086
  H      5.362882   -4.828697   -1.471335
  H      5.174429   -4.702577   -3.211298
  H      7.778329   -4.329347   -1.677651
  H      7.673189   -4.402845   -3.417586
  O      4.763396   -8.239424   -5.698629
  H      6.036826   -2.198189   -7.176852
  H      5.467610   -0.907371   -6.127968

 Total Charge           Charge          ....    0
 Multiplicity           Mult            ....    1
 Number of Electrons    NEL             ....  136
 Basis Dimension        Dim             ....  808

ORBITAL ENERGIES
----------------

  NO   OCC          E(Eh)            E(eV)
   0   2.0000     -88.263207     -2401.7640
   1   2.0000     -24.350303      -662.6054
   2   2.0000     -18.763718      -510.5867
   3   2.0000     -18.752303      -510.2761
   4   2.0000     -13.978536      -380.3753
   5   2.0000      -9.935469      -270.3578
   6   2.0000      -9.905139      -269.5325
   7   2.0000      -9.891262      -269.1549
   8   2.0000      -9.889139      -269.0972
   9   2.0000      -9.883681      -268.9486
  10   2.0000      -9.880055      -268.8500
  11   2.0000      -9.877915      -268.7917
  12   2.0000      -9.877451      -268.7791
  13   2.0000      -9.876759      -268.7603
  14   2.0000      -9.873191      -268.6632
  15   2.0000      -9.795578      -266.5512
  16   2.0000      -7.859300      -213.8624
  17   2.0000      -5.883877      -160.1084
  18   2.0000      -5.877182      -159.9263
  19   2.0000      -5.876618      -159.9109
  20   2.0000      -1.242992       -33.8235
  21   2.0000      -1.020243       -27.7622
  22   2.0000      -0.931429       -25.3455
  23   2.0000      -0.839174       -22.8351
  24   2.0000      -0.764882       -20.8135
  25   2.0000      -0.741370       -20.1737
  26   2.0000      -0.714518       -19.4430
  27   2.0000      -0.688044       -18.7226
  28   2.0000      -0.654052       -17.7977
  29   2.0000      -0.643878       -17.5208
  30   2.0000      -0.618623       -16.8336
  31   2.0000      -0.595028       -16.1915
  32   2.0000      -0.561181       -15.2705
  33   2.0000      -0.544348       -14.8125
  34   2.0000      -0.526286       -14.3210
  35   2.0000      -0.505270       -13.7491
  36   2.0000      -0.502945       -13.6858
  37   2.0000      -0.487725       -13.2717
  38   2.0000      -0.484580       -13.1861
  39   2.0000      -0.463679       -12.6173
  40   2.0000      -0.443874       -12.0784
  41   2.0000      -0.438797       -11.9403
  42   2.0000      -0.433923       -11.8076
  43   2.0000      -0.418750       -11.3948
  44   2.0000      -0.408367       -11.1122
  45   2.0000      -0.405202       -11.0261
  46   2.0000      -0.398929       -10.8554
  47   2.0000      -0.388274       -10.5655
  48   2.0000      -0.371921       -10.1205
  49   2.0000      -0.367578       -10.0023
  50   2.0000      -0.360598        -9.8124
  51   2.0000      -0.356232        -9.6936
  52   2.0000      -0.332442        -9.0462
  53   2.0000      -0.329940        -8.9781
  54   2.0000      -0.324136        -8.8202
  55   2.0000      -0.318838        -8.6760
  56   2.0000      -0.309268        -8.4156
  57   2.0000      -0.306077        -8.3288
  58   2.0000      -0.297922        -8.1069
  59   2.0000      -0.294600        -8.0165
  60   2.0000      -0.289362        -7.8739
  61   2.0000      -0.285133        -7.7589
  62   2.0000      -0.279349        -7.6015
  63   2.0000      -0.277793        -7.5591
  64   2.0000      -0.273700        -7.4478
  65   2.0000      -0.268273        -7.3001
  66   2.0000      -0.259843        -7.0707
  67   2.0000      -0.154854        -4.2138
  68   0.0000      -0.030308        -0.8247
  69   0.0000      -0.011298        -0.3074
  70   0.0000      -0.010208        -0.2778
  71   0.0000      -0.007596        -0.2067
  72   0.0000       0.002458         0.0669

MULLIKEN ATOMIC CHARGES
-----------------------
   0 C :   -0.285341
   1 C :   -0.321362
   2 C :   -0.440448
   3 H :    0.328054
   4 H :    0.270998
   5 S :    0.908061
   6 C :    0.850730
   7 N :   -0.247040
   8 C :   -1.591753
   9 H :    0.474528
  10 H :    0.376627
  11 H :    0.124427
  12 H :    0.126697
  13 F :   -0.154608
  14 O :   -0.565633
  15 C :   -0.107260
  16 C :    0.189563
  17 C :   -0.352668
  18 H :    0.113171
  19 H :    0.188515
  20 H :    0.169941
  21 H :    0.114948
  22 C :   -0.210152
  23 H :    0.124757
  24 H :   -0.019322
  25 C :   -0.463798
  26 H :    0.171761
  27 H :    0.156853
  28 C :   -0.367261
  29 H :    0.172824
  30 H :    0.153919
  31 H :    0.169340
  32 H :   -0.226920
  33 H :    0.163316
  34 H :    0.218397
  35 O :   -0.506239
  36 H :    0.109176
  37 H :    0.183202
Sum of atomic charges:    0.0000000

LOEWDIN ATOMIC CHARGES
----------------------
   0 C :   -0.145292
   1 C :   -0.223595
   2 C :   -0.226489
   3 H :    0.103272
   4 H :    0.121113
   5 S :    0.576654
   6 C :   -0.469351
   7 N :    0.122434
   8 C :    0.002751
   9 H :    0.007575
  10 H :    0.023271
  11 H :    0.088970
  12 H :    0.103961
  13 F :   -0.111576
  14 O :   -0.256777
  15 C :   -0.204444
  16 C :   -0.221798
  17 C :   -0.214994
  18 H :    0.106581
  19 H :    0.120727
  20 H :    0.119434
  21 H :    0.113172
  22 C :   -0.212322
  23 H :    0.119257
  24 H :    0.093145
  25 C :   -0.211530
  26 H :    0.109150
  27 H :    0.115792
  28 C :   -0.215408
  29 H :    0.109891
  30 H :    0.109739
  31 H :    0.130904
  32 H :    0.083637
  33 H :    0.114845
  34 H :    0.109867
  35 O :   -0.224029
  36 H :    0.122824
  37 H :    0.108642

  Mayer bond orders larger than 0.100000
B(  0-C ,  6-C ) :   0.5295 B(  0-C ,  7-N ) :   0.1014 B(  0-C ,  8-C ) :  -0.1409
B(  0-C , 15-C ) :   0.8843 B(  0-C , 22-C ) :   0.1662 B(  0-C , 24-H ) :   0.1132
B(  0-C , 36-H ) :   0.8489 B(  0-C , 37-H ) :   1.0284 B(  1-C ,  2-C ) :   1.1084
B(  1-C ,  5-S ) :   0.1838 B(  1-C , 16-C ) :   0.1327 B(  1-C , 17-C ) :   1.0171
B(  1-C , 20-H ) :   0.9068 B(  1-C , 21-H ) :   0.9449 B(  2-C ,  3-H ) :   0.8788
B(  2-C ,  4-H ) :   0.8391 B(  2-C ,  5-S ) :   0.8066 B(  2-C , 14-O ) :   0.1298
B(  2-C , 32-H ) :   0.1239 B(  2-C , 35-O ) :   0.1205 B(  5-S ,  8-C ) :   0.1749
B(  5-S , 13-F ) :   1.1633 B(  5-S , 14-O ) :   1.6062 B(  5-S , 35-O ) :   1.5280
B(  6-C ,  7-N ) :   0.9816 B(  6-C ,  8-C ) :   0.9179 B(  6-C ,  9-H ) :   0.2359
B(  6-C , 10-H ) :  -0.2438 B(  6-C , 22-C ) :   0.1446 B(  6-C , 37-H ) :  -0.1871
B(  7-N , 11-H ) :   1.0513 B(  7-N , 12-H ) :   1.0287 B(  8-C ,  9-H ) :   0.7899
B(  8-C , 10-H ) :   0.9894 B(  8-C , 13-F ) :   0.1631 B(  9-H , 13-F ) :  -0.2637
B( 15-C , 16-C ) :  -0.1120 B( 15-C , 22-C ) :   0.6022 B( 15-C , 23-H ) :   0.8425
B( 15-C , 24-H ) :   1.2245 B( 15-C , 25-C ) :   0.2191 B( 15-C , 28-C ) :   0.2118
B( 16-C , 17-C ) :   0.5380 B( 16-C , 22-C ) :   0.1356 B( 16-C , 25-C ) :   0.2518
B( 16-C , 28-C ) :   0.5355 B( 16-C , 31-H ) :   0.7709 B( 16-C , 32-H ) :   1.4980
B( 17-C , 18-H ) :   0.9033 B( 17-C , 19-H ) :   0.9083 B( 17-C , 28-C ) :   0.5185
B( 17-C , 31-H ) :  -0.1128 B( 22-C , 25-C ) :   1.0098 B( 22-C , 26-H ) :   1.0119
B( 22-C , 27-H ) :   0.8629 B( 25-C , 28-C ) :   1.0321 B( 25-C , 29-H ) :   0.9337
B( 25-C , 30-H ) :   0.9302 B( 28-C , 31-H ) :  -0.1132 B( 28-C , 33-H ) :   0.9515
B( 28-C , 34-H ) :   0.8580 B( 31-H , 32-H ) :   0.1763

Dispersion correction           -0.046115131
FINAL SINGLE POINT ENERGY     -1134.847444009922

DIPOLE MOMENT
-------------
                                X             Y             Z
Electronic contribution:     -7.77170     -16.96152     -13.71647
Nuclear contribution   :      7.91684      17.85507      15.13212
                        -----------------------------------------
Total Dipole Moment    :      0.14514       0.89356       1.41565
                        -----------------------------------------
Magnitude (a.u.)       :      1.68035
Magnitude (Debye)      :      4.27110

Rotational constants in cm-1:     0.018015     0.012410     0.008313
Rotational constants in MHz :   540.084467   372.038374   249.228144

                             ****ORCA TERMINATED NORMALLY****
TOTAL RUN TIME: 0 days 0 hours 3 minutes 11 seconds 966 msec
