                         Program Version 5.0.0 -  RELEASE  -
|  1> !PBE D3BJ RIJCOSX def2-TZVPD def2/J TightSCF xyzfile
|  2>
|  3> *xyzfile 0 1 D3.xyz
|  4>
|  5> %MaxCore 64000
|  6>
|  7> %pal nprocs 4
|  8> end
|  9>
| 10> %scf
| 11>   MaxIter 150
| 12> end
| 13>
| 14>
| 15>                          ****END OF INPUT****

CARTESIAN COORDINATES (ANGSTROEM)
---------------------------------
  C      5.558206   -1.992914   -6.215054
  C      4.930199   -7.375319   -2.649623
  C      3.841892   -6.951611   -3.632829
  H      3.458144   -5.954425   -3.407121
  H      2.988484   -7.643606   -3.567078
  S      4.318115   -6.915930   -5.368692
  C      4.181880   -2.589671   -6.298911
  C      3.145873   -1.768431   -6.486753
  N      4.019102   -3.864307   -6.227427
  H      4.768490   -4.591153   -5.990773
  H      3.122405   -4.333392   -6.314620
  H      3.281635   -0.777786   -6.566549
  H      2.212549   -2.134193   -6.562246
  O      5.406154   -5.899480   -5.512972
  F      3.111910   -6.445079   -6.043792
  C      6.419260   -2.542944   -5.077630
  C      5.872267   -5.002756   -2.427819
  C      6.173994   -6.485522   -2.606315
  H      6.734852   -6.613767   -3.534015
  H      6.821463   -6.831018   -1.793617
  H      4.469612   -7.406168   -1.655876
  H      5.230134   -8.398678   -2.885906
  C      5.896512   -2.169314   -3.694552
  H      7.428880   -2.143665   -5.208078
  H      6.505894   -3.627541   -5.175502
  C      6.807804   -2.623428   -2.551019
  H      4.894708   -2.589732   -3.557501
  H      5.778823   -1.081255   -3.635790
  C      7.111544   -4.122463   -2.520363
  H      7.751615   -2.071393   -2.614406
  H      6.345837   -2.326401   -1.604086
  H      5.362882   -4.828697   -1.471335
  H      5.174429   -4.702577   -3.211298
  H      7.778329   -4.329347   -1.677651
  H      7.673189   -4.402845   -3.417586
  O      4.763396   -8.239424   -5.698629
  H      6.036826   -2.198189   -7.176852
  H      5.467610   -0.907371   -6.127968

 Total Charge           Charge          ....    0
 Multiplicity           Mult            ....    1
 Number of Electrons    NEL             ....  136
 Basis Dimension        Dim             ....  808

ORBITAL ENERGIES
----------------

  NO   OCC          E(Eh)            E(eV)
   0   2.0000     -88.294527     -2402.6162
   1   2.0000     -24.389500      -663.6720
   2   2.0000     -18.789052      -511.2761
   3   2.0000     -18.782719      -511.1038
   4   2.0000     -13.958835      -379.8392
   5   2.0000      -9.956148      -270.9206
   6   2.0000      -9.919426      -269.9213
   7   2.0000      -9.890643      -269.1381
   8   2.0000      -9.882478      -268.9159
   9   2.0000      -9.881387      -268.8862
  10   2.0000      -9.875826      -268.7349
  11   2.0000      -9.872295      -268.6388
  12   2.0000      -9.867081      -268.4969
  13   2.0000      -9.866655      -268.4853
  14   2.0000      -9.866118      -268.4707
  15   2.0000      -9.794794      -266.5299
  16   2.0000      -7.890528      -214.7122
  17   2.0000      -5.914875      -160.9519
  18   2.0000      -5.908509      -160.7787
  19   2.0000      -5.907957      -160.7637
  20   2.0000      -1.288144       -35.0522
  21   2.0000      -1.043670       -28.3997
  22   2.0000      -0.953334       -25.9415
  23   2.0000      -0.832680       -22.6584
  24   2.0000      -0.775978       -21.1154
  25   2.0000      -0.739253       -20.1161
  26   2.0000      -0.716118       -19.4866
  27   2.0000      -0.690002       -18.7759
  28   2.0000      -0.669236       -18.2108
  29   2.0000      -0.642229       -17.4759
  30   2.0000      -0.623228       -16.9589
  31   2.0000      -0.590789       -16.0762
  32   2.0000      -0.559795       -15.2328
  33   2.0000      -0.545221       -14.8362
  34   2.0000      -0.540727       -14.7139
  35   2.0000      -0.530722       -14.4417
  36   2.0000      -0.518545       -14.1103
  37   2.0000      -0.503937       -13.7128
  38   2.0000      -0.495245       -13.4763
  39   2.0000      -0.467236       -12.7141
  40   2.0000      -0.454829       -12.3765
  41   2.0000      -0.445873       -12.1328
  42   2.0000      -0.430549       -11.7158
  43   2.0000      -0.417435       -11.3590
  44   2.0000      -0.411866       -11.2074
  45   2.0000      -0.407947       -11.1008
  46   2.0000      -0.398418       -10.8415
  47   2.0000      -0.385753       -10.4969
  48   2.0000      -0.377324       -10.2675
  49   2.0000      -0.371343       -10.1048
  50   2.0000      -0.365994        -9.9592
  51   2.0000      -0.359020        -9.7694
  52   2.0000      -0.347465        -9.4550
  53   2.0000      -0.337168        -9.1748
  54   2.0000      -0.329457        -8.9650
  55   2.0000      -0.321047        -8.7361
  56   2.0000      -0.317609        -8.6426
  57   2.0000      -0.312965        -8.5162
  58   2.0000      -0.308491        -8.3945
  59   2.0000      -0.296725        -8.0743
  60   2.0000      -0.292497        -7.9593
  61   2.0000      -0.287479        -7.8227
  62   2.0000      -0.284681        -7.7466
  63   2.0000      -0.275672        -7.5014
  64   2.0000      -0.270713        -7.3665
  65   2.0000      -0.263515        -7.1706
  66   2.0000      -0.259737        -7.0678
  67   2.0000      -0.139765        -3.8032
  68   0.0000      -0.044922        -1.2224
  69   0.0000      -0.029174        -0.7939
  70   0.0000      -0.010828        -0.2946
  71   0.0000      -0.003898        -0.1061
  72   0.0000       0.000587         0.0160

MULLIKEN ATOMIC CHARGES
-----------------------
   0 C :   -0.133695
   1 C :   -0.383873
   2 C :   -0.429741
   3 H :    0.370169
   4 H :    0.254035
   5 S :    0.913831
   6 C :    0.659759
   7 C :   -1.430934
   8 N :   -0.068491
   9 H :    0.234393
  10 H :    0.057109
  11 H :    0.268693
  12 H :    0.278203
  13 O :   -0.638641
  14 F :   -0.149731
  15 C :   -0.222279
  16 C :    0.075474
  17 C :   -0.311491
  18 H :    0.154115
  19 H :    0.201662
  20 H :    0.158028
  21 H :    0.122700
  22 C :   -0.165002
  23 H :    0.094907
  24 H :    0.027272
  25 C :   -0.417199
  26 H :    0.167920
  27 H :    0.126866
  28 C :   -0.417164
  29 H :    0.176301
  30 H :    0.162389
  31 H :    0.179471
  32 H :   -0.136257
  33 H :    0.169462
  34 H :    0.223510
  35 O :   -0.482892
  36 H :    0.134655
  37 H :    0.176464
Sum of atomic charges:    0.0000000

LOEWDIN ATOMIC CHARGES
----------------------
   0 C :   -0.144799
   1 C :   -0.210560
   2 C :   -0.230574
   3 H :    0.103503
   4 H :    0.113223
   5 S :    0.607661
   6 C :   -0.500873
   7 C :    0.021423
   8 N :    0.110940
   9 H :    0.034384
  10 H :    0.093339
  11 H :    0.005446
  12 H :    0.009557
  13 O :   -0.274451
  14 F :   -0.045298
  15 C :   -0.205583
  16 C :   -0.222624
  17 C :   -0.212789
  18 H :    0.107657
  19 H :    0.121178
  20 H :    0.123777
  21 H :    0.115696
  22 C :   -0.211399
  23 H :    0.118448
  24 H :    0.090436
  25 C :   -0.211893
  26 H :    0.108965
  27 H :    0.117768
  28 C :   -0.213646
  29 H :    0.109980
  30 H :    0.109003
  31 H :    0.129331
  32 H :    0.082340
  33 H :    0.114191
  34 H :    0.111808
  35 O :   -0.211214
  36 H :    0.120855
  37 H :    0.114798

  Mayer bond orders larger than 0.100000
B(  0-C ,  6-C ) :   0.7607 B(  0-C , 15-C ) :   0.8924 B(  0-C , 22-C ) :   0.1126
B(  0-C , 24-H ) :   0.1319 B(  0-C , 36-H ) :   0.8800 B(  0-C , 37-H ) :   0.8662
B(  1-C ,  2-C ) :   1.1670 B(  1-C ,  5-S ) :   0.1917 B(  1-C , 16-C ) :   0.1648
B(  1-C , 17-C ) :   1.0224 B(  1-C , 20-H ) :   0.9021 B(  1-C , 21-H ) :   0.9201
B(  2-C ,  3-H ) :   0.8121 B(  2-C ,  4-H ) :   0.8412 B(  2-C ,  5-S ) :   0.7866
B(  2-C , 35-O ) :   0.1222 B(  5-S , 13-O ) :   1.7532 B(  5-S , 14-F ) :   1.0178
B(  5-S , 35-O ) :   1.6224 B(  6-C ,  7-C ) :   1.1482 B(  6-C ,  8-N ) :   1.0804
B(  6-C ,  9-H ) :  -0.1199 B(  6-C , 22-C ) :   0.1788 B(  7-C ,  8-N ) :   0.1104
B(  7-C , 11-H ) :   0.9964 B(  7-C , 12-H ) :   1.0003 B(  8-N ,  9-H ) :   0.8692
B(  8-N , 10-H ) :   0.9813 B(  8-N , 15-C ) :   0.1526 B( 13-O , 17-C ) :   0.1019
B( 15-C , 16-C ) :  -0.1119 B( 15-C , 22-C ) :   0.6604 B( 15-C , 23-H ) :   0.8682
B( 15-C , 24-H ) :   1.1465 B( 15-C , 25-C ) :   0.2282 B( 15-C , 28-C ) :   0.2157
B( 16-C , 17-C ) :   0.5724 B( 16-C , 22-C ) :   0.1437 B( 16-C , 25-C ) :   0.2477
B( 16-C , 28-C ) :   0.5305 B( 16-C , 31-H ) :   0.7587 B( 16-C , 32-H ) :   1.5007
B( 17-C , 18-H ) :   0.8811 B( 17-C , 19-H ) :   0.9081 B( 17-C , 28-C ) :   0.5316
B( 17-C , 31-H ) :  -0.1154 B( 22-C , 25-C ) :   1.0090 B( 22-C , 26-H ) :   0.9700
B( 22-C , 27-H ) :   0.8936 B( 25-C , 28-C ) :   1.0060 B( 25-C , 29-H ) :   0.9337
B( 25-C , 30-H ) :   0.9213 B( 28-C , 31-H ) :  -0.1132 B( 28-C , 33-H ) :   0.9453
B( 28-C , 34-H ) :   0.8593 B( 31-H , 32-H ) :   0.1743

Dispersion correction           -0.046164624
FINAL SINGLE POINT ENERGY     -1134.852840834691

DIPOLE MOMENT
-------------
                                X             Y             Z
Electronic contribution:    -10.91816     -20.05048     -14.27742
Nuclear contribution   :     10.48431      18.81367      15.71750
                        -----------------------------------------
Total Dipole Moment    :     -0.43385      -1.23681       1.44008
                        -----------------------------------------
Magnitude (a.u.)       :      1.94724
Magnitude (Debye)      :      4.94950

Rotational constants in cm-1:     0.017977     0.012528     0.008321
Rotational constants in MHz :   538.924099   375.570730   249.458530

                             ****ORCA TERMINATED NORMALLY****
TOTAL RUN TIME: 0 days 0 hours 2 minutes 20 seconds 611 msec
