                         Program Version 5.0.0 -  RELEASE  -
|  1> !PBE D3BJ RIJCOSX def2-TZVPD def2/J TightSCF xyzfile
|  2>
|  3> *xyzfile 0 1 D4.xyz
|  4>
|  5> %MaxCore 64000
|  6>
|  7> %pal nprocs 4
|  8> end
|  9>
| 10> %scf
| 11>   MaxIter 150
| 12> end
| 13>
| 14>
| 15>                          ****END OF INPUT****

CARTESIAN COORDINATES (ANGSTROEM)
---------------------------------
  C      5.558206   -1.992914   -6.215054
  C      4.930199   -7.375319   -2.649623
  C      3.841892   -6.951611   -3.632829
  H      3.458144   -5.954425   -3.407121
  H      2.988484   -7.643606   -3.567078
  S      4.318115   -6.915930   -5.368692
  C      4.181880   -2.589671   -6.298911
  N      3.145873   -1.768431   -6.486753
  C      4.019102   -3.864307   -6.227427
  H      4.768490   -4.591153   -5.990773
  H      3.122405   -4.333392   -6.314620
  H      3.281635   -0.777786   -6.566549
  H      2.212549   -2.134193   -6.562246
  O      5.406154   -5.899480   -5.512972
  F      3.111910   -6.445079   -6.043792
  C      6.419260   -2.542944   -5.077630
  C      5.872267   -5.002756   -2.427819
  C      6.173994   -6.485522   -2.606315
  H      6.734852   -6.613767   -3.534015
  H      6.821463   -6.831018   -1.793617
  H      4.469612   -7.406168   -1.655876
  H      5.230134   -8.398678   -2.885906
  C      5.896512   -2.169314   -3.694552
  H      7.428880   -2.143665   -5.208078
  H      6.505894   -3.627541   -5.175502
  C      6.807804   -2.623428   -2.551019
  H      4.894708   -2.589732   -3.557501
  H      5.778823   -1.081255   -3.635790
  C      7.111544   -4.122463   -2.520363
  H      7.751615   -2.071393   -2.614406
  H      6.345837   -2.326401   -1.604086
  H      5.362882   -4.828697   -1.471335
  H      5.174429   -4.702577   -3.211298
  H      7.778329   -4.329347   -1.677651
  H      7.673189   -4.402845   -3.417586
  O      4.763396   -8.239424   -5.698629
  H      6.036826   -2.198189   -7.176852
  H      5.467610   -0.907371   -6.127968

 Total Charge           Charge          ....    0
 Multiplicity           Mult            ....    1
 Number of Electrons    NEL             ....  136
 Basis Dimension        Dim             ....  808

ORBITAL ENERGIES
----------------

  NO   OCC          E(Eh)            E(eV)
   0   2.0000     -88.271151     -2401.9801
   1   2.0000     -24.364151      -662.9823
   2   2.0000     -18.767598      -510.6923
   3   2.0000     -18.752991      -510.2948
   4   2.0000     -13.974299      -380.2600
   5   2.0000      -9.939695      -270.4728
   6   2.0000      -9.907036      -269.5842
   7   2.0000      -9.883574      -268.9457
   8   2.0000      -9.880051      -268.8499
   9   2.0000      -9.872327      -268.6397
  10   2.0000      -9.870379      -268.5867
  11   2.0000      -9.869807      -268.5711
  12   2.0000      -9.868984      -268.5487
  13   2.0000      -9.864887      -268.4372
  14   2.0000      -9.864470      -268.4259
  15   2.0000      -9.786205      -266.2962
  16   2.0000      -7.866988      -214.0716
  17   2.0000      -5.891136      -160.3060
  18   2.0000      -5.884913      -160.1366
  19   2.0000      -5.884720      -160.1314
  20   2.0000      -1.262912       -34.3656
  21   2.0000      -1.020233       -27.7619
  22   2.0000      -0.927052       -25.2264
  23   2.0000      -0.834699       -22.7133
  24   2.0000      -0.761577       -20.7236
  25   2.0000      -0.733952       -19.9718
  26   2.0000      -0.708644       -19.2832
  27   2.0000      -0.685771       -18.6608
  28   2.0000      -0.655182       -17.8284
  29   2.0000      -0.637558       -17.3488
  30   2.0000      -0.614218       -16.7137
  31   2.0000      -0.587666       -15.9912
  32   2.0000      -0.556267       -15.1368
  33   2.0000      -0.538207       -14.6453
  34   2.0000      -0.518065       -14.0973
  35   2.0000      -0.508940       -13.8490
  36   2.0000      -0.502567       -13.6755
  37   2.0000      -0.494929       -13.4677
  38   2.0000      -0.483405       -13.1541
  39   2.0000      -0.462884       -12.5957
  40   2.0000      -0.444132       -12.0854
  41   2.0000      -0.440213       -11.9788
  42   2.0000      -0.428183       -11.6514
  43   2.0000      -0.415548       -11.3076
  44   2.0000      -0.407429       -11.0867
  45   2.0000      -0.399349       -10.8668
  46   2.0000      -0.395390       -10.7591
  47   2.0000      -0.380099       -10.3430
  48   2.0000      -0.368622       -10.0307
  49   2.0000      -0.363604        -9.8942
  50   2.0000      -0.358458        -9.7541
  51   2.0000      -0.349507        -9.5106
  52   2.0000      -0.340975        -9.2784
  53   2.0000      -0.323764        -8.8101
  54   2.0000      -0.320383        -8.7181
  55   2.0000      -0.315427        -8.5832
  56   2.0000      -0.308359        -8.3909
  57   2.0000      -0.300262        -8.1706
  58   2.0000      -0.294933        -8.0255
  59   2.0000      -0.292473        -7.9586
  60   2.0000      -0.282639        -7.6910
  61   2.0000      -0.280350        -7.6287
  62   2.0000      -0.278330        -7.5737
  63   2.0000      -0.268857        -7.3160
  64   2.0000      -0.263563        -7.1719
  65   2.0000      -0.260176        -7.0798
  66   2.0000      -0.227962        -6.2032
  67   2.0000      -0.149430        -4.0662
  68   0.0000      -0.026235        -0.7139
  69   0.0000      -0.017133        -0.4662
  70   0.0000      -0.007593        -0.2066
  71   0.0000      -0.003143        -0.0855
  72   0.0000       0.002356         0.0641

MULLIKEN ATOMIC CHARGES
-----------------------
   0 C :   -0.258311
   1 C :   -0.397202
   2 C :   -0.427975
   3 H :    0.358972
   4 H :    0.258577
   5 S :    0.868161
   6 C :    0.631616
   7 N :   -0.251039
   8 C :   -1.362487
   9 H :    0.523478
  10 H :    0.311977
  11 H :    0.124704
  12 H :    0.118786
  13 O :   -0.579979
  14 F :   -0.116338
  15 C :   -0.123305
  16 C :    0.156986
  17 C :   -0.320548
  18 H :    0.161099
  19 H :    0.199936
  20 H :    0.153256
  21 H :    0.120064
  22 C :   -0.221873
  23 H :    0.107662
  24 H :    0.009409
  25 C :   -0.457537
  26 H :    0.164471
  27 H :    0.157447
  28 C :   -0.401113
  29 H :    0.171896
  30 H :    0.153561
  31 H :    0.169848
  32 H :   -0.198605
  33 H :    0.166951
  34 H :    0.227902
  35 O :   -0.499136
  36 H :    0.113702
  37 H :    0.184985
Sum of atomic charges:   -0.0000000

LOEWDIN ATOMIC CHARGES
----------------------
   0 C :   -0.143820
   1 C :   -0.212690
   2 C :   -0.232214
   3 H :    0.102197
   4 H :    0.110794
   5 S :    0.596613
   6 C :   -0.472257
   7 N :    0.117105
   8 C :   -0.006295
   9 H :   -0.019613
  10 H :    0.021631
  11 H :    0.087105
  12 H :    0.100111
  13 O :   -0.286672
  14 F :   -0.052262
  15 C :   -0.200341
  16 C :   -0.221812
  17 C :   -0.213590
  18 H :    0.107788
  19 H :    0.119555
  20 H :    0.121481
  21 H :    0.114608
  22 C :   -0.212897
  23 H :    0.118633
  24 H :    0.096711
  25 C :   -0.212490
  26 H :    0.108463
  27 H :    0.114096
  28 C :   -0.213451
  29 H :    0.109017
  30 H :    0.108316
  31 H :    0.128085
  32 H :    0.084351
  33 H :    0.113543
  34 H :    0.112377
  35 O :   -0.222601
  36 H :    0.123083
  37 H :    0.107342

  Mayer bond orders larger than 0.100000
B(  0-C ,  6-C ) :   0.5218 B(  0-C ,  7-N ) :   0.1010 B(  0-C ,  8-C ) :  -0.1474
B(  0-C , 15-C ) :   0.8704 B(  0-C , 22-C ) :   0.1667 B(  0-C , 24-H ) :   0.1123
B(  0-C , 36-H ) :   0.8305 B(  0-C , 37-H ) :   1.0368 B(  1-C ,  2-C ) :   1.1696
B(  1-C ,  5-S ) :   0.2028 B(  1-C , 16-C ) :   0.1534 B(  1-C , 17-C ) :   1.0168
B(  1-C , 20-H ) :   0.9023 B(  1-C , 21-H ) :   0.9179 B(  2-C ,  3-H ) :   0.8239
B(  2-C ,  4-H ) :   0.8441 B(  2-C ,  5-S ) :   0.7731 B(  2-C , 13-O ) :   0.1048
B(  2-C , 32-H ) :   0.1055 B(  2-C , 35-O ) :   0.1385 B(  5-S ,  8-C ) :   0.1430
B(  5-S , 13-O ) :   1.7966 B(  5-S , 14-F ) :   1.0151 B(  5-S , 35-O ) :   1.5966
B(  6-C ,  7-N ) :   0.9695 B(  6-C ,  8-C ) :   1.3555 B(  6-C ,  9-H ) :   0.2921
B(  6-C , 10-H ) :  -0.1843 B(  6-C , 22-C ) :   0.1466 B(  6-C , 37-H ) :  -0.1956
B(  7-N , 11-H ) :   1.0530 B(  7-N , 12-H ) :   1.0367 B(  8-C ,  9-H ) :   0.6890
B(  8-C , 10-H ) :   1.0043 B(  8-C , 13-O ) :   0.1503 B(  9-H , 13-O ) :  -0.3216
B( 15-C , 16-C ) :  -0.1181 B( 15-C , 22-C ) :   0.5852 B( 15-C , 23-H ) :   0.8486
B( 15-C , 24-H ) :   1.1852 B( 15-C , 25-C ) :   0.2157 B( 15-C , 28-C ) :   0.2208
B( 16-C , 17-C ) :   0.5847 B( 16-C , 22-C ) :   0.1527 B( 16-C , 25-C ) :   0.2353
B( 16-C , 28-C ) :   0.5246 B( 16-C , 31-H ) :   0.7754 B( 16-C , 32-H ) :   1.4946
B( 17-C , 18-H ) :   0.8643 B( 17-C , 19-H ) :   0.9134 B( 17-C , 28-C ) :   0.5468
B( 17-C , 31-H ) :  -0.1177 B( 22-C , 25-C ) :   1.0037 B( 22-C , 26-H ) :   1.0083
B( 22-C , 27-H ) :   0.8692 B( 25-C , 28-C ) :   1.0219 B( 25-C , 29-H ) :   0.9322
B( 25-C , 30-H ) :   0.9278 B( 28-C , 31-H ) :  -0.1092 B( 28-C , 33-H ) :   0.9488
B( 28-C , 34-H ) :   0.8532 B( 31-H , 32-H ) :   0.1604

Dispersion correction           -0.046431471
FINAL SINGLE POINT ENERGY     -1134.840438026163

DIPOLE MOMENT
-------------
                                X             Y             Z
Electronic contribution:    -11.65079     -18.14573     -14.71214
Nuclear contribution   :     10.61624      18.49702      15.75668
                        -----------------------------------------
Total Dipole Moment    :     -1.03455       0.35129       1.04454
                        -----------------------------------------
Magnitude (a.u.)       :      1.51154
Magnitude (Debye)      :      3.84203

Rotational constants in cm-1:     0.017796     0.012372     0.008231
Rotational constants in MHz :   533.524905   370.895973   246.762347

                             ****ORCA TERMINATED NORMALLY****
TOTAL RUN TIME: 0 days 0 hours 2 minutes 12 seconds 765 msec
