                         Program Version 5.0.0 -  RELEASE  -
|  1> !PBE D3BJ RIJCOSX def2-TZVPD def2/J TightSCF xyzfile
|  2>
|  3> *xyzfile 0 1 D5.xyz
|  4>
|  5> %MaxCore 64000
|  6>
|  7> %pal nprocs 4
|  8> end
|  9>
| 10> %scf
| 11>   MaxIter 150
| 12> end
| 13>
| 14>
| 15>                          ****END OF INPUT****

CARTESIAN COORDINATES (ANGSTROEM)
---------------------------------
  C      5.558206   -1.992914   -6.215054
  C      4.930199   -7.375319   -2.649623
  C      3.841892   -6.951611   -3.632829
  H      3.458144   -5.954425   -3.407121
  H      2.988484   -7.643606   -3.567078
  S      4.318115   -6.915930   -5.368692
  C      4.181880   -2.589671   -6.298911
  C      3.145873   -1.768431   -6.486753
  N      4.019102   -3.864307   -6.227427
  H      4.768490   -4.591153   -5.990773
  H      3.122405   -4.333392   -6.314620
  H      3.281635   -0.777786   -6.566549
  H      2.212549   -2.134193   -6.562246
  O      5.406154   -5.899480   -5.512972
  O      3.111910   -6.445079   -6.043792
  C      6.419260   -2.542944   -5.077630
  C      5.872267   -5.002756   -2.427819
  C      6.173994   -6.485522   -2.606315
  H      6.734852   -6.613767   -3.534015
  H      6.821463   -6.831018   -1.793617
  H      4.469612   -7.406168   -1.655876
  H      5.230134   -8.398678   -2.885906
  C      5.896512   -2.169314   -3.694552
  H      7.428880   -2.143665   -5.208078
  H      6.505894   -3.627541   -5.175502
  C      6.807804   -2.623428   -2.551019
  H      4.894708   -2.589732   -3.557501
  H      5.778823   -1.081255   -3.635790
  C      7.111544   -4.122463   -2.520363
  H      7.751615   -2.071393   -2.614406
  H      6.345837   -2.326401   -1.604086
  H      5.362882   -4.828697   -1.471335
  H      5.174429   -4.702577   -3.211298
  H      7.778329   -4.329347   -1.677651
  H      7.673189   -4.402845   -3.417586
  F      4.763396   -8.239424   -5.698629
  H      6.036826   -2.198189   -7.176852
  H      5.467610   -0.907371   -6.127968

 Total Charge           Charge          ....    0
 Multiplicity           Mult            ....    1
 Number of Electrons    NEL             ....  136
 Basis Dimension        Dim             ....  808

ORBITAL ENERGIES
----------------

  NO   OCC          E(Eh)            E(eV)
   0   2.0000     -88.298492     -2402.7241
   1   2.0000     -24.401652      -664.0027
   2   2.0000     -18.784606      -511.1551
   3   2.0000     -18.784021      -511.1392
   4   2.0000     -13.943279      -379.4159
   5   2.0000      -9.957531      -270.9582
   6   2.0000      -9.921277      -269.9717
   7   2.0000      -9.893969      -269.2286
   8   2.0000      -9.882313      -268.9114
   9   2.0000      -9.875851      -268.7356
  10   2.0000      -9.871371      -268.6137
  11   2.0000      -9.870732      -268.5963
  12   2.0000      -9.863260      -268.3930
  13   2.0000      -9.862935      -268.3841
  14   2.0000      -9.859010      -268.2773
  15   2.0000      -9.783917      -266.2339
  16   2.0000      -7.894260      -214.8137
  17   2.0000      -5.918562      -161.0523
  18   2.0000      -5.912413      -160.8849
  19   2.0000      -5.911566      -160.8619
  20   2.0000      -1.306970       -35.5645
  21   2.0000      -1.038745       -28.2657
  22   2.0000      -0.945973       -25.7412
  23   2.0000      -0.818571       -22.2744
  24   2.0000      -0.779445       -21.2098
  25   2.0000      -0.738495       -20.0955
  26   2.0000      -0.714555       -19.4440
  27   2.0000      -0.688537       -18.7360
  28   2.0000      -0.670741       -18.2518
  29   2.0000      -0.641273       -17.4499
  30   2.0000      -0.619569       -16.8593
  31   2.0000      -0.588619       -16.0171
  32   2.0000      -0.564169       -15.3518
  33   2.0000      -0.551935       -15.0189
  34   2.0000      -0.544593       -14.8191
  35   2.0000      -0.532903       -14.5010
  36   2.0000      -0.515501       -14.0275
  37   2.0000      -0.499985       -13.6053
  38   2.0000      -0.490326       -13.3424
  39   2.0000      -0.459541       -12.5047
  40   2.0000      -0.457092       -12.4381
  41   2.0000      -0.451101       -12.2751
  42   2.0000      -0.431132       -11.7317
  43   2.0000      -0.415488       -11.3060
  44   2.0000      -0.413233       -11.2446
  45   2.0000      -0.403896       -10.9906
  46   2.0000      -0.392437       -10.6787
  47   2.0000      -0.385214       -10.4822
  48   2.0000      -0.376080       -10.2337
  49   2.0000      -0.373088       -10.1523
  50   2.0000      -0.358385        -9.7522
  51   2.0000      -0.354040        -9.6339
  52   2.0000      -0.347828        -9.4649
  53   2.0000      -0.332761        -9.0549
  54   2.0000      -0.323157        -8.7936
  55   2.0000      -0.316983        -8.6256
  56   2.0000      -0.314241        -8.5509
  57   2.0000      -0.307189        -8.3590
  58   2.0000      -0.304241        -8.2788
  59   2.0000      -0.297431        -8.0935
  60   2.0000      -0.289312        -7.8726
  61   2.0000      -0.283943        -7.7265
  62   2.0000      -0.281237        -7.6528
  63   2.0000      -0.273666        -7.4468
  64   2.0000      -0.267701        -7.2845
  65   2.0000      -0.257480        -7.0064
  66   2.0000      -0.252973        -6.8838
  67   2.0000      -0.127699        -3.4749
  68   0.0000      -0.051618        -1.4046
  69   0.0000      -0.024094        -0.6556
  70   0.0000      -0.012924        -0.3517
  71   0.0000      -0.008063        -0.2194
  72   0.0000      -0.004691        -0.1277

MULLIKEN ATOMIC CHARGES
-----------------------
   0 C :   -0.131177
   1 C :   -0.333621
   2 C :   -0.417842
   3 H :    0.310884
   4 H :    0.251415
   5 S :    0.903739
   6 C :    0.668066
   7 C :   -1.425988
   8 N :   -0.052246
   9 H :    0.165786
  10 H :    0.101431
  11 H :    0.269685
  12 H :    0.285315
  13 O :   -0.631577
  14 O :   -0.595308
  15 C :   -0.233603
  16 C :    0.093555
  17 C :   -0.270708
  18 H :    0.111194
  19 H :    0.203320
  20 H :    0.158908
  21 H :    0.136687
  22 C :   -0.158133
  23 H :    0.095805
  24 H :    0.035983
  25 C :   -0.416594
  26 H :    0.167072
  27 H :    0.127327
  28 C :   -0.432321
  29 H :    0.176501
  30 H :    0.161222
  31 H :    0.178430
  32 H :   -0.153838
  33 H :    0.168515
  34 H :    0.231375
  35 F :   -0.054527
  36 H :    0.131716
  37 H :    0.173553
Sum of atomic charges:   -0.0000000

LOEWDIN ATOMIC CHARGES
----------------------
   0 C :   -0.146817
   1 C :   -0.222354
   2 C :   -0.221849
   3 H :    0.114751
   4 H :    0.114127
   5 S :    0.615273
   6 C :   -0.501936
   7 C :    0.018286
   8 N :    0.121169
   9 H :    0.038227
  10 H :    0.091910
  11 H :    0.002695
  12 H :    0.009524
  13 O :   -0.278380
  14 O :   -0.246664
  15 C :   -0.206940
  16 C :   -0.220996
  17 C :   -0.218579
  18 H :    0.103232
  19 H :    0.120346
  20 H :    0.121687
  21 H :    0.110390
  22 C :   -0.211030
  23 H :    0.117459
  24 H :    0.089421
  25 C :   -0.212169
  26 H :    0.109566
  27 H :    0.117885
  28 C :   -0.214145
  29 H :    0.109792
  30 H :    0.108857
  31 H :    0.129978
  32 H :    0.084042
  33 H :    0.113729
  34 H :    0.111332
  35 F :   -0.005293
  36 H :    0.119664
  37 H :    0.113807

  Mayer bond orders larger than 0.100000
B(  0-C ,  6-C ) :   0.7606 B(  0-C , 15-C ) :   0.8942 B(  0-C , 22-C ) :   0.1133
B(  0-C , 24-H ) :   0.1321 B(  0-C , 36-H ) :   0.8804 B(  0-C , 37-H ) :   0.8661
B(  1-C ,  2-C ) :   1.0486 B(  1-C ,  5-S ) :   0.1542 B(  1-C , 16-C ) :   0.1699
B(  1-C , 17-C ) :   0.9965 B(  1-C , 20-H ) :   0.9183 B(  1-C , 21-H ) :   0.9269
B(  2-C ,  3-H ) :   0.8848 B(  2-C ,  4-H ) :   0.8675 B(  2-C ,  5-S ) :   0.8130
B(  2-C , 14-O ) :   0.1321 B(  2-C , 32-H ) :   0.1228 B(  5-S , 13-O ) :   1.7792
B(  5-S , 14-O ) :   1.6704 B(  5-S , 35-F ) :   1.0090 B(  6-C ,  7-C ) :   1.1835
B(  6-C ,  8-N ) :   1.0260 B(  6-C ,  9-H ) :  -0.1524 B(  6-C , 22-C ) :   0.1763
B(  7-C ,  8-N ) :   0.1130 B(  7-C , 11-H ) :   1.0035 B(  7-C , 12-H ) :   0.9825
B(  8-N ,  9-H ) :   0.9164 B(  8-N , 10-H ) :   0.9939 B(  8-N , 15-C ) :   0.1559
B( 13-O , 14-O ) :   0.1462 B( 15-C , 16-C ) :  -0.1106 B( 15-C , 22-C ) :   0.6564
B( 15-C , 23-H ) :   0.8653 B( 15-C , 24-H ) :   1.1483 B( 15-C , 25-C ) :   0.2313
B( 15-C , 28-C ) :   0.2172 B( 16-C , 17-C ) :   0.5866 B( 16-C , 22-C ) :   0.1390
B( 16-C , 25-C ) :   0.2477 B( 16-C , 28-C ) :   0.5259 B( 16-C , 31-H ) :   0.7526
B( 16-C , 32-H ) :   1.4924 B( 17-C , 18-H ) :   0.8811 B( 17-C , 19-H ) :   0.9140
B( 17-C , 28-C ) :   0.5400 B( 17-C , 31-H ) :  -0.1195 B( 22-C , 25-C ) :   1.0018
B( 22-C , 26-H ) :   0.9711 B( 22-C , 27-H ) :   0.8926 B( 25-C , 28-C ) :   1.0105
B( 25-C , 29-H ) :   0.9352 B( 25-C , 30-H ) :   0.9205 B( 28-C , 31-H ) :  -0.1135
B( 28-C , 33-H ) :   0.9440 B( 28-C , 34-H ) :   0.8569 B( 31-H , 32-H ) :   0.1801

Dispersion correction           -0.046251104
FINAL SINGLE POINT ENERGY     -1134.844419414997

DIPOLE MOMENT
-------------
                                X             Y             Z
Electronic contribution:     -8.09816     -23.31518     -13.68859
Nuclear contribution   :      8.54118      20.92489      15.31138
                        -----------------------------------------
Total Dipole Moment    :      0.44302      -2.39029       1.62279
                        -----------------------------------------
Magnitude (a.u.)       :      2.92287
Magnitude (Debye)      :      7.42935

Rotational constants in cm-1:     0.018156     0.012306     0.008278
Rotational constants in MHz :   544.309022   368.914527   248.178402

                             ****ORCA TERMINATED NORMALLY****
TOTAL RUN TIME: 0 days 0 hours 2 minutes 19 seconds 71 msec
