                         Program Version 5.0.0 -  RELEASE  -
|  1> !PBE D3BJ RIJCOSX def2-TZVPD def2/J TightSCF xyzfile
|  2>
|  3> *xyzfile 0 1 D6.xyz
|  4>
|  5> %MaxCore 64000
|  6>
|  7> %pal nprocs 4
|  8> end
|  9>
| 10> %scf
| 11>   MaxIter 150
| 12> end
| 13>
| 14>
| 15>                          ****END OF INPUT****

CARTESIAN COORDINATES (ANGSTROEM)
---------------------------------
  C      5.558206   -1.992914   -6.215054
  C      4.930199   -7.375319   -2.649623
  C      3.841892   -6.951611   -3.632829
  H      3.458144   -5.954425   -3.407121
  H      2.988484   -7.643606   -3.567078
  S      4.318115   -6.915930   -5.368692
  C      4.181880   -2.589671   -6.298911
  N      3.145873   -1.768431   -6.486753
  C      4.019102   -3.864307   -6.227427
  H      4.768490   -4.591153   -5.990773
  H      3.122405   -4.333392   -6.314620
  H      3.281635   -0.777786   -6.566549
  H      2.212549   -2.134193   -6.562246
  O      5.406154   -5.899480   -5.512972
  O      3.111910   -6.445079   -6.043792
  C      6.419260   -2.542944   -5.077630
  C      5.872267   -5.002756   -2.427819
  C      6.173994   -6.485522   -2.606315
  H      6.734852   -6.613767   -3.534015
  H      6.821463   -6.831018   -1.793617
  H      4.469612   -7.406168   -1.655876
  H      5.230134   -8.398678   -2.885906
  C      5.896512   -2.169314   -3.694552
  H      7.428880   -2.143665   -5.208078
  H      6.505894   -3.627541   -5.175502
  C      6.807804   -2.623428   -2.551019
  H      4.894708   -2.589732   -3.557501
  H      5.778823   -1.081255   -3.635790
  C      7.111544   -4.122463   -2.520363
  H      7.751615   -2.071393   -2.614406
  H      6.345837   -2.326401   -1.604086
  H      5.362882   -4.828697   -1.471335
  H      5.174429   -4.702577   -3.211298
  H      7.778329   -4.329347   -1.677651
  H      7.673189   -4.402845   -3.417586
  F      4.763396   -8.239424   -5.698629
  H      6.036826   -2.198189   -7.176852
  H      5.467610   -0.907371   -6.127968

 Total Charge           Charge          ....    0
 Multiplicity           Mult            ....    1
 Number of Electrons    NEL             ....  136
 Basis Dimension        Dim             ....  808

ORBITAL ENERGIES
----------------

  NO   OCC          E(Eh)            E(eV)
   0   2.0000     -88.273312     -2402.0389
   1   2.0000     -24.379493      -663.3997
   2   2.0000     -18.759674      -510.4767
   3   2.0000     -18.756693      -510.3956
   4   2.0000     -13.963498      -379.9661
   5   2.0000      -9.940149      -270.4852
   6   2.0000      -9.908537      -269.6250
   7   2.0000      -9.883075      -268.9322
   8   2.0000      -9.873030      -268.6588
   9   2.0000      -9.870749      -268.5967
  10   2.0000      -9.869629      -268.5663
  11   2.0000      -9.867222      -268.5008
  12   2.0000      -9.863031      -268.3867
  13   2.0000      -9.860815      -268.3264
  14   2.0000      -9.860328      -268.3132
  15   2.0000      -9.772528      -265.9240
  16   2.0000      -7.869086      -214.1287
  17   2.0000      -5.893491      -160.3700
  18   2.0000      -5.886966      -160.1925
  19   2.0000      -5.886566      -160.1816
  20   2.0000      -1.285135       -34.9703
  21   2.0000      -1.012920       -27.5630
  22   2.0000      -0.919693       -25.0261
  23   2.0000      -0.823772       -22.4160
  24   2.0000      -0.764510       -20.8034
  25   2.0000      -0.732197       -19.9241
  26   2.0000      -0.705984       -19.2108
  27   2.0000      -0.684060       -18.6142
  28   2.0000      -0.657361       -17.8877
  29   2.0000      -0.636232       -17.3128
  30   2.0000      -0.612620       -16.6702
  31   2.0000      -0.584507       -15.9052
  32   2.0000      -0.554740       -15.0953
  33   2.0000      -0.541578       -14.7371
  34   2.0000      -0.529725       -14.4146
  35   2.0000      -0.521128       -14.1806
  36   2.0000      -0.500755       -13.6262
  37   2.0000      -0.490991       -13.3605
  38   2.0000      -0.475942       -12.9511
  39   2.0000      -0.454299       -12.3621
  40   2.0000      -0.444524       -12.0961
  41   2.0000      -0.437463       -11.9040
  42   2.0000      -0.423145       -11.5144
  43   2.0000      -0.414621       -11.2824
  44   2.0000      -0.409965       -11.1557
  45   2.0000      -0.399893       -10.8817
  46   2.0000      -0.394987       -10.7481
  47   2.0000      -0.375462       -10.2168
  48   2.0000      -0.369742       -10.0612
  49   2.0000      -0.364700        -9.9240
  50   2.0000      -0.363431        -9.8895
  51   2.0000      -0.347676        -9.4607
  52   2.0000      -0.329518        -8.9666
  53   2.0000      -0.323248        -8.7960
  54   2.0000      -0.313735        -8.5372
  55   2.0000      -0.304889        -8.2964
  56   2.0000      -0.302222        -8.2239
  57   2.0000      -0.298244        -8.1156
  58   2.0000      -0.289006        -7.8643
  59   2.0000      -0.282941        -7.6992
  60   2.0000      -0.277476        -7.5505
  61   2.0000      -0.276719        -7.5299
  62   2.0000      -0.274727        -7.4757
  63   2.0000      -0.266686        -7.2569
  64   2.0000      -0.260726        -7.0947
  65   2.0000      -0.254742        -6.9319
  66   2.0000      -0.227482        -6.1901
  67   2.0000      -0.137012        -3.7283
  68   0.0000      -0.034157        -0.9295
  69   0.0000      -0.010581        -0.2879
  70   0.0000      -0.005013        -0.1364
  71   0.0000      -0.001517        -0.0413
  72   0.0000       0.004283         0.1165

MULLIKEN ATOMIC CHARGES
-----------------------
   0 C :   -0.257723
   1 C :   -0.344899
   2 C :   -0.415641
   3 H :    0.304100
   4 H :    0.253057
   5 S :    0.843469
   6 C :    0.795488
   7 N :   -0.252371
   8 C :   -1.424545
   9 H :    0.443304
  10 H :    0.322297
  11 H :    0.119626
  12 H :    0.121756
  13 O :   -0.578347
  14 O :   -0.565609
  15 C :   -0.126610
  16 C :    0.188076
  17 C :   -0.284448
  18 H :    0.118106
  19 H :    0.201893
  20 H :    0.155766
  21 H :    0.130956
  22 C :   -0.220314
  23 H :    0.108057
  24 H :    0.014086
  25 C :   -0.456696
  26 H :    0.166355
  27 H :    0.158978
  28 C :   -0.416838
  29 H :    0.172335
  30 H :    0.151933
  31 H :    0.167760
  32 H :   -0.230528
  33 H :    0.166392
  34 H :    0.235890
  35 F :   -0.057357
  36 H :    0.108385
  37 H :    0.183859
Sum of atomic charges:    0.0000000

LOEWDIN ATOMIC CHARGES
----------------------
   0 C :   -0.146451
   1 C :   -0.224464
   2 C :   -0.224701
   3 H :    0.112994
   4 H :    0.111380
   5 S :    0.601729
   6 C :   -0.473021
   7 N :    0.113955
   8 C :    0.002959
   9 H :   -0.014435
  10 H :    0.022832
  11 H :    0.084618
  12 H :    0.100080
  13 O :   -0.288195
  14 O :   -0.253488
  15 C :   -0.202132
  16 C :   -0.220277
  17 C :   -0.219568
  18 H :    0.103146
  19 H :    0.118670
  20 H :    0.119363
  21 H :    0.109242
  22 C :   -0.212648
  23 H :    0.117509
  24 H :    0.095434
  25 C :   -0.212842
  26 H :    0.108946
  27 H :    0.114182
  28 C :   -0.213999
  29 H :    0.108787
  30 H :    0.108120
  31 H :    0.128712
  32 H :    0.085856
  33 H :    0.113053
  34 H :    0.111869
  35 F :   -0.014885
  36 H :    0.121454
  37 H :    0.106214

  Mayer bond orders larger than 0.100000
B(  0-C ,  6-C ) :   0.5099 B(  0-C ,  8-C ) :  -0.1323 B(  0-C , 15-C ) :   0.8695
B(  0-C , 22-C ) :   0.1681 B(  0-C , 24-H ) :   0.1140 B(  0-C , 36-H ) :   0.8297
B(  0-C , 37-H ) :   1.0380 B(  1-C ,  2-C ) :   1.0530 B(  1-C ,  5-S ) :   0.1617
B(  1-C , 16-C ) :   0.1588 B(  1-C , 17-C ) :   0.9911 B(  1-C , 20-H ) :   0.9171
B(  1-C , 21-H ) :   0.9268 B(  2-C ,  3-H ) :   0.8939 B(  2-C ,  4-H ) :   0.8666
B(  2-C ,  5-S ) :   0.8019 B(  2-C , 14-O ) :   0.1327 B(  2-C , 32-H ) :   0.1310
B(  5-S ,  8-C ) :   0.1281 B(  5-S , 13-O ) :   1.8267 B(  5-S , 14-O ) :   1.6585
B(  5-S , 35-F ) :   0.9941 B(  6-C ,  7-N ) :   0.9785 B(  6-C ,  8-C ) :   0.9950
B(  6-C ,  9-H ) :   0.2656 B(  6-C , 10-H ) :  -0.2625 B(  6-C , 22-C ) :   0.1519
B(  6-C , 37-H ) :  -0.1974 B(  7-N , 11-H ) :   1.0587 B(  7-N , 12-H ) :   1.0339
B(  8-C ,  9-H ) :   0.8789 B(  8-C , 10-H ) :   1.0661 B(  8-C , 13-O ) :   0.1310
B(  9-H , 13-O ) :  -0.3085 B( 13-O , 14-O ) :   0.1489 B( 15-C , 16-C ) :  -0.1176
B( 15-C , 22-C ) :   0.5863 B( 15-C , 23-H ) :   0.8492 B( 15-C , 24-H ) :   1.1867
B( 15-C , 25-C ) :   0.2160 B( 15-C , 28-C ) :   0.2227 B( 16-C , 17-C ) :   0.5981
B( 16-C , 22-C ) :   0.1470 B( 16-C , 25-C ) :   0.2358 B( 16-C , 28-C ) :   0.5200
B( 16-C , 31-H ) :   0.7714 B( 16-C , 32-H ) :   1.4873 B( 17-C , 18-H ) :   0.8662
B( 17-C , 19-H ) :   0.9186 B( 17-C , 28-C ) :   0.5566 B( 17-C , 31-H ) :  -0.1247
B( 22-C , 25-C ) :   0.9972 B( 22-C , 26-H ) :   1.0099 B( 22-C , 27-H ) :   0.8670
B( 25-C , 28-C ) :   1.0270 B( 25-C , 29-H ) :   0.9338 B( 25-C , 30-H ) :   0.9279
B( 28-C , 31-H ) :  -0.1092 B( 28-C , 33-H ) :   0.9487 B( 28-C , 34-H ) :   0.8506
B( 31-H , 32-H ) :   0.1667

Dispersion correction           -0.046524292
FINAL SINGLE POINT ENERGY     -1134.828398431618

DIPOLE MOMENT
-------------
                                X             Y             Z
Electronic contribution:     -8.84599     -21.40702     -14.14399
Nuclear contribution   :      8.67311      20.60825      15.35056
                        -----------------------------------------
Total Dipole Moment    :     -0.17288      -0.79878       1.20657
                        -----------------------------------------
Magnitude (a.u.)       :      1.45731
Magnitude (Debye)      :      3.70418

Rotational constants in cm-1:     0.017976     0.012151     0.008188
Rotational constants in MHz :   538.898457   364.286417   245.482451

                             ****ORCA TERMINATED NORMALLY****
TOTAL RUN TIME: 0 days 0 hours 2 minutes 0 seconds 716 msec
