                         Program Version 5.0.0 -  RELEASE  -
|  1> !PBE0 D3BJ RIJCOSX def2-SVP def2/J TightSCF
|  2> *xyz -1 1
|  3> C          3.80351        1.37472       -3.26081
|  4> C          3.93993        0.32036       -4.36773
|  5> H          4.10504       -0.65508       -3.90773
|  6> H          3.02280        0.28052       -4.95712
|  7> C          5.10585        0.66802       -5.30546
|  8> O          4.80913        1.15019       -6.41436
|  9> O          6.26737        0.56500       -4.81948
| 10> H          3.64113        2.33595       -3.70189
| 11> H          4.69995        1.39701       -2.67703
| 12> H          2.97435        1.12625       -2.63180
| 13> *
| 14>
| 15> %MaxCore 64000
| 16>
| 17> %pal nprocs 4
| 18> end
| 19>
| 20> %scf
| 21>   MaxIter 150
| 22> end
| 23>
| 24>
| 25>                          ****END OF INPUT****

CARTESIAN COORDINATES (ANGSTROEM)
---------------------------------
  C      3.803510    1.374720   -3.260810
  C      3.939930    0.320360   -4.367730
  H      4.105040   -0.655080   -3.907730
  H      3.022800    0.280520   -4.957120
  C      5.105850    0.668020   -5.305460
  O      4.809130    1.150190   -6.414360
  O      6.267370    0.565000   -4.819480
  H      3.641130    2.335950   -3.701890
  H      4.699950    1.397010   -2.677030
  H      2.974350    1.126250   -2.631800

 Total Charge           Charge          ....   -1
 Multiplicity           Mult            ....    1
 Number of Electrons    NEL             ....   40
 Basis Dimension        Dim             ....   95

ORBITAL ENERGIES
----------------

  NO   OCC          E(Eh)            E(eV)
   0   2.0000     -18.913013      -514.6492
   1   2.0000     -18.909203      -514.5456
   2   2.0000     -10.082377      -274.3554
   3   2.0000     -10.061321      -273.7825
   4   2.0000     -10.038991      -273.1748
   5   2.0000      -0.805561       -21.9204
   6   2.0000      -0.710861       -19.3435
   7   2.0000      -0.607521       -16.5315
   8   2.0000      -0.470823       -12.8117
   9   2.0000      -0.315863        -8.5951
  10   2.0000      -0.292173        -7.9504
  11   2.0000      -0.251797        -6.8518
  12   2.0000      -0.224141        -6.0992
  13   2.0000      -0.206537        -5.6202
  14   2.0000      -0.199569        -5.4305
  15   2.0000      -0.165378        -4.5002
  16   2.0000      -0.152676        -4.1545
  17   2.0000      -0.026706        -0.7267
  18   2.0000      -0.020378        -0.5545
  19   2.0000      -0.007971        -0.2169
  20   0.0000       0.227645         6.1945
  21   0.0000       0.277496         7.5510
  22   0.0000       0.285275         7.7627
  23   0.0000       0.292226         7.9519
  24   0.0000       0.303873         8.2688

MULLIKEN ATOMIC CHARGES
-----------------------
   0 C :   -0.048854
   1 C :   -0.055445
   2 H :   -0.024723
   3 H :   -0.030918
   4 C :    0.081850
   5 O :   -0.445708
   6 O :   -0.477041
   7 H :    0.009867
   8 H :    0.014292
   9 H :   -0.023321
Sum of atomic charges:   -1.0000000

LOEWDIN ATOMIC CHARGES
----------------------
   0 C :   -0.068351
   1 C :   -0.100771
   2 H :    0.000958
   3 H :   -0.002549
   4 C :   -0.049689
   5 O :   -0.387497
   6 O :   -0.415849
   7 H :    0.013759
   8 H :    0.013870
   9 H :   -0.003881

  Mayer bond orders larger than 0.100000
B(  0-C ,  1-C ) :   1.0943 B(  0-C ,  7-H ) :   0.9714 B(  0-C ,  8-H ) :   0.9660
B(  0-C ,  9-H ) :   0.9701 B(  1-C ,  2-H ) :   0.9362 B(  1-C ,  3-H ) :   0.9392
B(  1-C ,  4-C ) :   0.9166 B(  4-C ,  5-O ) :   1.8464 B(  4-C ,  6-O ) :   1.7981
B(  5-O ,  6-O ) :   0.1160

Dispersion correction           -0.005485757
FINAL SINGLE POINT ENERGY      -267.322060567658

DIPOLE MOMENT
-------------
                                X             Y             Z
Electronic contribution:      3.88432      -0.43888      -4.62344
Nuclear contribution   :     -5.15232       0.33441       5.87398
                        -----------------------------------------
Total Dipole Moment    :     -1.26800      -0.10447       1.25054
                        -----------------------------------------
Magnitude (a.u.)       :      1.78399
Magnitude (Debye)      :      4.53453

Rotational constants in cm-1:     0.295355     0.137164     0.110193
Rotational constants in MHz :  8854.523706  4112.077980  3303.490503

                             ****ORCA TERMINATED NORMALLY****
TOTAL RUN TIME: 0 days 0 hours 0 minutes 10 seconds 931 msec
