                         Program Version 5.0.0 -  RELEASE  -
|  1> !PBE0 D3BJ RIJCOSX def2-SVP def2/J TightSCF
|  2> *xyz 1 1
|  3> C          3.90595        2.81985       -3.75292
|  4> N          5.29562        3.13151       -4.10533
|  5> C          3.80351        1.37472       -3.26081
|  6> C          5.70862        3.46889       -5.32419
|  7> N          6.90470        3.03895       -5.71708
|  8> N          4.98188        4.29357       -6.09746
|  9> H          5.00055        4.10131       -7.08776
| 10> H          4.08469        4.59690       -5.73965
| 11> H          5.96336        2.52611       -3.64239
| 12> H          7.04716        2.06686       -5.47360
| 13> H          7.19815        3.30799       -6.64523
| 14> H          3.28202        2.94919       -4.64026
| 15> H          3.56525        3.51457       -2.98252
| 16> H          4.14157        0.71142       -4.02935
| 17> H          2.78528        1.15146       -3.01944
| 18> H          4.41205        1.25066       -2.38949
| 19> *
| 20>
| 21> %MaxCore 64000
| 22>
| 23> %pal nprocs 4
| 24> end
| 25>
| 26> %scf
| 27>   MaxIter 150
| 28> end
| 29>
| 30>
| 31>                          ****END OF INPUT****

CARTESIAN COORDINATES (ANGSTROEM)
---------------------------------
  C      3.905950    2.819850   -3.752920
  N      5.295620    3.131510   -4.105330
  C      3.803510    1.374720   -3.260810
  C      5.708620    3.468890   -5.324190
  N      6.904700    3.038950   -5.717080
  N      4.981880    4.293570   -6.097460
  H      5.000550    4.101310   -7.087760
  H      4.084690    4.596900   -5.739650
  H      5.963360    2.526110   -3.642390
  H      7.047160    2.066860   -5.473600
  H      7.198150    3.307990   -6.645230
  H      3.282020    2.949190   -4.640260
  H      3.565250    3.514570   -2.982520
  H      4.141570    0.711420   -4.029350
  H      2.785280    1.151460   -3.019440
  H      4.412050    1.250660   -2.389490

 Total Charge           Charge          ....    1
 Multiplicity           Mult            ....    1
 Number of Electrons    NEL             ....   48
 Basis Dimension        Dim             ....  134

ORBITAL ENERGIES
----------------

  NO   OCC          E(Eh)            E(eV)
   0   2.0000     -14.621590      -397.8737
   1   2.0000     -14.620790      -397.8519
   2   2.0000     -14.620163      -397.8349
   3   2.0000     -10.566256      -287.5224
   4   2.0000     -10.442443      -284.1533
   5   2.0000     -10.376525      -282.3596
   6   2.0000      -1.241766       -33.7902
   7   2.0000      -1.126947       -30.6658
   8   2.0000      -1.117597       -30.4114
   9   2.0000      -0.951521       -25.8922
  10   2.0000      -0.850102       -23.1325
  11   2.0000      -0.824260       -22.4292
  12   2.0000      -0.793960       -21.6048
  13   2.0000      -0.761370       -20.7179
  14   2.0000      -0.716985       -19.5101
  15   2.0000      -0.704014       -19.1572
  16   2.0000      -0.666212       -18.1285
  17   2.0000      -0.642662       -17.4877
  18   2.0000      -0.609514       -16.5857
  19   2.0000      -0.573273       -15.5996
  20   2.0000      -0.548831       -14.9344
  21   2.0000      -0.533395       -14.5144
  22   2.0000      -0.501190       -13.6381
  23   2.0000      -0.470785       -12.8107
  24   0.0000      -0.181222        -4.9313
  25   0.0000      -0.127181        -3.4608
  26   0.0000      -0.092788        -2.5249
  27   0.0000      -0.078267        -2.1298
  28   0.0000      -0.060686        -1.6514

MULLIKEN ATOMIC CHARGES
-----------------------
   0 C :    0.005355
   1 N :   -0.165638
   2 C :   -0.095570
   3 C :    0.095308
   4 N :   -0.062875
   5 N :   -0.074951
   6 H :    0.184108
   7 H :    0.183324
   8 H :    0.168336
   9 H :    0.184221
  10 H :    0.177749
  11 H :    0.065160
  12 H :    0.104644
  13 H :    0.055771
  14 H :    0.096162
  15 H :    0.078896
Sum of atomic charges:    1.0000000

LOEWDIN ATOMIC CHARGES
----------------------
   0 C :    0.037271
   1 N :    0.029536
   2 C :   -0.053425
   3 C :    0.135984
   4 N :    0.048085
   5 N :    0.047749
   6 H :    0.110545
   7 H :    0.109999
   8 H :    0.103048
   9 H :    0.110732
  10 H :    0.110965
  11 H :    0.031812
  12 H :    0.048127
  13 H :    0.031939
  14 H :    0.056964
  15 H :    0.040672

  Mayer bond orders larger than 0.100000
B(  0-C ,  1-N ) :   0.9139 B(  0-C ,  2-C ) :   1.0943 B(  0-C , 11-H ) :   0.9502
B(  0-C , 12-H ) :   0.9437 B(  1-N ,  3-C ) :   1.3856 B(  1-N ,  8-H ) :   0.9098
B(  2-C , 13-H ) :   0.9720 B(  2-C , 14-H ) :   0.9598 B(  2-C , 15-H ) :   0.9672
B(  3-C ,  4-N ) :   1.3703 B(  3-C ,  5-N ) :   1.3746 B(  4-N ,  9-H ) :   0.9266
B(  4-N , 10-H ) :   0.9269 B(  5-N ,  6-H ) :   0.9259 B(  5-N ,  7-H ) :   0.9212

Dispersion correction           -0.010307802
FINAL SINGLE POINT ENERGY      -283.862015174745

DIPOLE MOMENT
-------------
                                X             Y             Z
Electronic contribution:      3.54263       3.38751      -2.73016
Nuclear contribution   :     -3.31456      -3.64300       1.57303
                        -----------------------------------------
Total Dipole Moment    :      0.22806      -0.25549      -1.15713
                        -----------------------------------------
Magnitude (a.u.)       :      1.20675
Magnitude (Debye)      :      3.06731

Rotational constants in cm-1:     0.229487     0.071000     0.059428
Rotational constants in MHz :  6879.840828  2128.520047  1781.605314

                             ****ORCA TERMINATED NORMALLY****
TOTAL RUN TIME: 0 days 0 hours 0 minutes 15 seconds 774 msec
