                         Program Version 5.0.0 -  RELEASE  -
|  1> !PBE0 D3BJ RIJCOSX def2-SVP def2/J TightSCF
|  2> *xyz 0 1
|  3> C          3.80351        1.37472       -3.26081
|  4> C          3.93993        0.32036       -4.36773
|  5> H          4.10504       -0.65508       -3.90773
|  6> H          3.02280        0.28052       -4.95712
|  7> C          5.10585        0.66802       -5.30546
|  8> F          4.80913        1.15019       -6.41436
|  9> O          6.26737        0.56500       -4.81948
| 10> H          3.64113        2.33595       -3.70189
| 11> H          4.69995        1.39701       -2.67703
| 12> H          2.97435        1.12625       -2.63180
| 13> *
| 14>
| 15> %MaxCore 64000
| 16>
| 17> %pal nprocs 4
| 18> end
| 19>
| 20> %scf
| 21>   MaxIter 150
| 22> end
| 23>
| 24>
| 25>                          ****END OF INPUT****

CARTESIAN COORDINATES (ANGSTROEM)
---------------------------------
  C      3.803510    1.374720   -3.260810
  C      3.939930    0.320360   -4.367730
  H      4.105040   -0.655080   -3.907730
  H      3.022800    0.280520   -4.957120
  C      5.105850    0.668020   -5.305460
  F      4.809130    1.150190   -6.414360
  O      6.267370    0.565000   -4.819480
  H      3.641130    2.335950   -3.701890
  H      4.699950    1.397010   -2.677030
  H      2.974350    1.126250   -2.631800

 Total Charge           Charge          ....    0
 Multiplicity           Mult            ....    1
 Number of Electrons    NEL             ....   40
 Basis Dimension        Dim             ....   95

ORBITAL ENERGIES
----------------

  NO   OCC          E(Eh)            E(eV)
   0   2.0000     -24.844705      -676.0588
   1   2.0000     -19.210372      -522.7408
   2   2.0000     -10.403443      -283.0921
   3   2.0000     -10.259467      -279.1743
   4   2.0000     -10.238498      -278.6037
   5   2.0000      -1.338119       -36.4121
   6   2.0000      -1.039960       -28.2987
   7   2.0000      -0.814900       -22.1746
   8   2.0000      -0.701584       -19.0911
   9   2.0000      -0.654389       -17.8068
  10   2.0000      -0.566260       -15.4087
  11   2.0000      -0.551635       -15.0108
  12   2.0000      -0.516306       -14.0494
  13   2.0000      -0.476361       -12.9625
  14   2.0000      -0.444790       -12.1034
  15   2.0000      -0.410565       -11.1721
  16   2.0000      -0.388592       -10.5741
  17   2.0000      -0.383498       -10.4355
  18   2.0000      -0.353420        -9.6170
  19   2.0000      -0.296694        -8.0734
  20   0.0000      -0.017846        -0.4856
  21   0.0000       0.071310         1.9404
  22   0.0000       0.117096         3.1863
  23   0.0000       0.118748         3.2313
  24   0.0000       0.140759         3.8303

MULLIKEN ATOMIC CHARGES
-----------------------
   0 C :   -0.065323
   1 C :   -0.134843
   2 H :    0.080209
   3 H :    0.047938
   4 C :    0.274005
   5 F :   -0.072915
   6 O :   -0.289999
   7 H :    0.044756
   8 H :    0.064801
   9 H :    0.051372
Sum of atomic charges:   -0.0000000

LOEWDIN ATOMIC CHARGES
----------------------
   0 C :   -0.045783
   1 C :   -0.079079
   2 H :    0.050612
   3 H :    0.029636
   4 C :    0.105164
   5 F :    0.054663
   6 O :   -0.210068
   7 H :    0.028294
   8 H :    0.034689
   9 H :    0.031873

  Mayer bond orders larger than 0.100000
B(  0-C ,  1-C ) :   1.0791 B(  0-C ,  7-H ) :   0.9752 B(  0-C ,  8-H ) :   0.9711
B(  0-C ,  9-H ) :   0.9713 B(  1-C ,  2-H ) :   0.9393 B(  1-C ,  3-H ) :   0.9395
B(  1-C ,  4-C ) :   0.9951 B(  4-C ,  5-F ) :   1.1942 B(  4-C ,  6-O ) :   2.0372

Dispersion correction           -0.005190338
FINAL SINGLE POINT ENERGY      -291.858681679126

DIPOLE MOMENT
-------------
                                X             Y             Z
Electronic contribution:      4.06863      -0.00038      -7.46656
Nuclear contribution   :     -5.17129      -0.01923       7.59895
                        -----------------------------------------
Total Dipole Moment    :     -1.10266      -0.01961       0.13239
                        -----------------------------------------
Magnitude (a.u.)       :      1.11076
Magnitude (Debye)      :      2.82332

Rotational constants in cm-1:     0.282073     0.131822     0.105134
Rotational constants in MHz :  8456.328792  3951.925810  3151.840112

                             ****ORCA TERMINATED NORMALLY****
TOTAL RUN TIME: 0 days 0 hours 0 minutes 10 seconds 928 msec
