                         Program Version 5.0.0 -  RELEASE  -
|  1> !PBE0 D3BJ RIJCOSX def2-SVP def2/J TightSCF
|  2> *xyz 0 1
|  3> C          3.90595        2.81985       -3.75292
|  4> C          5.29562        3.13151       -4.10533
|  5> C          3.80351        1.37472       -3.26081
|  6> C          5.70862        3.46889       -5.32419
|  7> N          6.90470        3.03895       -5.71708
|  8> N          4.98188        4.29357       -6.09746
|  9> H          5.00055        4.10131       -7.08776
| 10> H          4.08469        4.59690       -5.73965
| 11> H          5.96336        2.52611       -3.64239
| 12> H          7.04716        2.06686       -5.47360
| 13> H          7.19815        3.30799       -6.64523
| 14> H          3.28202        2.94919       -4.64026
| 15> H          3.56525        3.51457       -2.98252
| 16> H          4.14157        0.71142       -4.02935
| 17> H          2.78528        1.15146       -3.01944
| 18> H          4.41205        1.25066       -2.38949
| 19> *
| 20>
| 21> %MaxCore 64000
| 22>
| 23> %pal nprocs 4
| 24> end
| 25>
| 26> %scf
| 27>   MaxIter 150
| 28> end
| 29>
| 30>
| 31>                          ****END OF INPUT****

CARTESIAN COORDINATES (ANGSTROEM)
---------------------------------
  C      3.905950    2.819850   -3.752920
  C      5.295620    3.131510   -4.105330
  C      3.803510    1.374720   -3.260810
  C      5.708620    3.468890   -5.324190
  N      6.904700    3.038950   -5.717080
  N      4.981880    4.293570   -6.097460
  H      5.000550    4.101310   -7.087760
  H      4.084690    4.596900   -5.739650
  H      5.963360    2.526110   -3.642390
  H      7.047160    2.066860   -5.473600
  H      7.198150    3.307990   -6.645230
  H      3.282020    2.949190   -4.640260
  H      3.565250    3.514570   -2.982520
  H      4.141570    0.711420   -4.029350
  H      2.785280    1.151460   -3.019440
  H      4.412050    1.250660   -2.389490

 Total Charge           Charge          ....    0
 Multiplicity           Mult            ....    1
 Number of Electrons    NEL             ....   48
 Basis Dimension        Dim             ....  134

ORBITAL ENERGIES
----------------

  NO   OCC          E(Eh)            E(eV)
   0   2.0000     -14.391798      -391.6207
   1   2.0000     -14.387772      -391.5112
   2   2.0000     -10.266715      -279.3715
   3   2.0000     -10.205638      -277.7095
   4   2.0000     -10.200142      -277.5600
   5   2.0000     -10.150041      -276.1967
   6   2.0000      -0.977638       -26.6029
   7   2.0000      -0.886926       -24.1345
   8   2.0000      -0.788539       -21.4572
   9   2.0000      -0.705369       -19.1941
  10   2.0000      -0.622506       -16.9392
  11   2.0000      -0.586034       -15.9468
  12   2.0000      -0.545480       -14.8433
  13   2.0000      -0.519199       -14.1281
  14   2.0000      -0.486632       -13.2419
  15   2.0000      -0.454856       -12.3773
  16   2.0000      -0.430193       -11.7061
  17   2.0000      -0.396484       -10.7889
  18   2.0000      -0.377142       -10.2626
  19   2.0000      -0.359126        -9.7723
  20   2.0000      -0.333840        -9.0842
  21   2.0000      -0.329815        -8.9747
  22   2.0000      -0.278484        -7.5779
  23   2.0000      -0.171072        -4.6551
  24   0.0000       0.051511         1.4017
  25   0.0000       0.079596         2.1659
  26   0.0000       0.094863         2.5814
  27   0.0000       0.099960         2.7200
  28   0.0000       0.118995         3.2380

MULLIKEN ATOMIC CHARGES
-----------------------
   0 C :   -0.048690
   1 C :   -0.102088
   2 C :   -0.051525
   3 C :   -0.085449
   4 N :   -0.114681
   5 N :   -0.113090
   6 H :    0.107628
   7 H :    0.130587
   8 H :   -0.065733
   9 H :    0.141978
  10 H :    0.104709
  11 H :   -0.004817
  12 H :    0.024744
  13 H :    0.019194
  14 H :    0.022140
  15 H :    0.035093
Sum of atomic charges:   -0.0000000

LOEWDIN ATOMIC CHARGES
----------------------
   0 C :   -0.049625
   1 C :   -0.210985
   2 C :   -0.059188
   3 C :    0.004315
   4 N :   -0.020306
   5 N :   -0.025918
   6 H :    0.059657
   7 H :    0.079881
   8 H :   -0.006963
   9 H :    0.082090
  10 H :    0.063055
  11 H :    0.007092
  12 H :    0.017115
  13 H :    0.017478
  14 H :    0.019150
  15 H :    0.023152

  Mayer bond orders larger than 0.100000
B(  0-C ,  1-C ) :   1.0615 B(  0-C ,  2-C ) :   1.0864 B(  0-C , 11-H ) :   0.9466
B(  0-C , 12-H ) :   0.9310 B(  1-C ,  3-C ) :   1.7098 B(  1-C ,  8-H ) :   0.9330
B(  2-C , 13-H ) :   0.9732 B(  2-C , 14-H ) :   0.9672 B(  2-C , 15-H ) :   0.9745
B(  3-C ,  4-N ) :   1.1929 B(  3-C ,  5-N ) :   1.2283 B(  4-N ,  9-H ) :   0.9466
B(  4-N , 10-H ) :   0.9536 B(  5-N ,  6-H ) :   0.9415 B(  5-N ,  7-H ) :   0.9415

Dispersion correction           -0.010730141
FINAL SINGLE POINT ENERGY      -267.402495179263

DIPOLE MOMENT
-------------
                                X             Y             Z
Electronic contribution:      3.23150       3.28266      -2.96739
Nuclear contribution   :     -3.27358      -3.61654       1.70633
                        -----------------------------------------
Total Dipole Moment    :     -0.04207      -0.33388      -1.26106
                        -----------------------------------------
Magnitude (a.u.)       :      1.30519
Magnitude (Debye)      :      3.31753

Rotational constants in cm-1:     0.231961     0.071249     0.059473
Rotational constants in MHz :  6954.024434  2135.976855  1782.962814

                             ****ORCA TERMINATED NORMALLY****
TOTAL RUN TIME: 0 days 0 hours 0 minutes 16 seconds 512 msec
