                         Program Version 5.0.0 -  RELEASE  -
|  1> !PBE0 D3BJ RIJCOSX def2-SVP def2/J TightSCF
|  2> *xyz 0 1
|  3> C          3.80351        1.37472       -3.26081
|  4> C          3.93993        0.32036       -4.36773
|  5> H          4.10504       -0.65508       -3.90773
|  6> H          3.02280        0.28052       -4.95712
|  7> C          5.10585        0.66802       -5.30546
|  8> O          4.80913        1.15019       -6.41436
|  9> F          6.26737        0.56500       -4.81948
| 10> H          3.64113        2.33595       -3.70189
| 11> H          4.69995        1.39701       -2.67703
| 12> H          2.97435        1.12625       -2.63180
| 13> *
| 14>
| 15> %MaxCore 64000
| 16>
| 17> %pal nprocs 4
| 18> end
| 19>
| 20> %scf
| 21>   MaxIter 150
| 22> end
| 23>
| 24>
| 25>                          ****END OF INPUT****

CARTESIAN COORDINATES (ANGSTROEM)
---------------------------------
  C      3.803510    1.374720   -3.260810
  C      3.939930    0.320360   -4.367730
  H      4.105040   -0.655080   -3.907730
  H      3.022800    0.280520   -4.957120
  C      5.105850    0.668020   -5.305460
  O      4.809130    1.150190   -6.414360
  F      6.267370    0.565000   -4.819480
  H      3.641130    2.335950   -3.701890
  H      4.699950    1.397010   -2.677030
  H      2.974350    1.126250   -2.631800

 Total Charge           Charge          ....    0
 Multiplicity           Mult            ....    1
 Number of Electrons    NEL             ....   40
 Basis Dimension        Dim             ....   95

ORBITAL ENERGIES
----------------

  NO   OCC          E(Eh)            E(eV)
   0   2.0000     -24.838068      -675.8782
   1   2.0000     -19.213208      -522.8180
   2   2.0000     -10.401625      -283.0426
   3   2.0000     -10.258853      -279.1576
   4   2.0000     -10.241214      -278.6776
   5   2.0000      -1.324313       -36.0364
   6   2.0000      -1.051157       -28.6034
   7   2.0000      -0.816864       -22.2280
   8   2.0000      -0.695905       -18.9366
   9   2.0000      -0.652220       -17.7478
  10   2.0000      -0.560519       -15.2525
  11   2.0000      -0.547100       -14.8873
  12   2.0000      -0.513168       -13.9640
  13   2.0000      -0.475919       -12.9504
  14   2.0000      -0.446645       -12.1538
  15   2.0000      -0.413641       -11.2558
  16   2.0000      -0.394113       -10.7244
  17   2.0000      -0.384033       -10.4501
  18   2.0000      -0.362505        -9.8643
  19   2.0000      -0.297759        -8.1024
  20   0.0000      -0.013251        -0.3606
  21   0.0000       0.068830         1.8730
  22   0.0000       0.114773         3.1231
  23   0.0000       0.120885         3.2894
  24   0.0000       0.144906         3.9431

MULLIKEN ATOMIC CHARGES
-----------------------
   0 C :   -0.079384
   1 C :   -0.130275
   2 H :    0.059643
   3 H :    0.074306
   4 C :    0.276524
   5 O :   -0.264763
   6 F :   -0.099434
   7 H :    0.057755
   8 H :    0.050168
   9 H :    0.055462
Sum of atomic charges:    0.0000000

LOEWDIN ATOMIC CHARGES
----------------------
   0 C :   -0.051135
   1 C :   -0.076603
   2 H :    0.037223
   3 H :    0.046599
   4 C :    0.107260
   5 O :   -0.187588
   6 F :    0.030256
   7 H :    0.032151
   8 H :    0.028158
   9 H :    0.033679

  Mayer bond orders larger than 0.100000
B(  0-C ,  1-C ) :   1.0699 B(  0-C ,  7-H ) :   0.9737 B(  0-C ,  8-H ) :   0.9741
B(  0-C ,  9-H ) :   0.9710 B(  1-C ,  2-H ) :   0.9337 B(  1-C ,  3-H ) :   0.9499
B(  1-C ,  4-C ) :   1.0021 B(  4-C ,  5-O ) :   2.0726 B(  4-C ,  6-F ) :   1.1608

Dispersion correction           -0.005174287
FINAL SINGLE POINT ENERGY      -291.864078647475

DIPOLE MOMENT
-------------
                                X             Y             Z
Electronic contribution:      6.45899      -0.96224      -4.83314
Nuclear contribution   :     -6.76123       0.61881       5.86003
                        -----------------------------------------
Total Dipole Moment    :     -0.30224      -0.34344       1.02689
                        -----------------------------------------
Magnitude (a.u.)       :      1.12419
Magnitude (Debye)      :      2.85747

Rotational constants in cm-1:     0.275298     0.134631     0.105723
Rotational constants in MHz :  8253.224169  4036.137572  3169.487264

                             ****ORCA TERMINATED NORMALLY****
TOTAL RUN TIME: 0 days 0 hours 0 minutes 10 seconds 583 msec
