                         Program Version 5.0.0 -  RELEASE  -
|  1> !PBE0 D3BJ RIJCOSX def2-SVP def2/J TightSCF
|  2> *xyz 0 1
|  3> C          3.90595        2.81985       -3.75292
|  4> N          5.29562        3.13151       -4.10533
|  5> C          3.80351        1.37472       -3.26081
|  6> C          5.70862        3.46889       -5.32419
|  7> C          6.90470        3.03895       -5.71708
|  8> N          4.98188        4.29357       -6.09746
|  9> H          5.00055        4.10131       -7.08776
| 10> H          4.08469        4.59690       -5.73965
| 11> H          5.96336        2.52611       -3.64239
| 12> H          7.04716        2.06686       -5.47360
| 13> H          7.19815        3.30799       -6.64523
| 14> H          3.28202        2.94919       -4.64026
| 15> H          3.56525        3.51457       -2.98252
| 16> H          4.14157        0.71142       -4.02935
| 17> H          2.78528        1.15146       -3.01944
| 18> H          4.41205        1.25066       -2.38949
| 19> *
| 20>
| 21> %MaxCore 64000
| 22>
| 23> %pal nprocs 4
| 24> end
| 25>
| 26> %scf
| 27>   MaxIter 150
| 28> end
| 29>
| 30>
| 31>                          ****END OF INPUT****

CARTESIAN COORDINATES (ANGSTROEM)
---------------------------------
  C      3.905950    2.819850   -3.752920
  N      5.295620    3.131510   -4.105330
  C      3.803510    1.374720   -3.260810
  C      5.708620    3.468890   -5.324190
  C      6.904700    3.038950   -5.717080
  N      4.981880    4.293570   -6.097460
  H      5.000550    4.101310   -7.087760
  H      4.084690    4.596900   -5.739650
  H      5.963360    2.526110   -3.642390
  H      7.047160    2.066860   -5.473600
  H      7.198150    3.307990   -6.645230
  H      3.282020    2.949190   -4.640260
  H      3.565250    3.514570   -2.982520
  H      4.141570    0.711420   -4.029350
  H      2.785280    1.151460   -3.019440
  H      4.412050    1.250660   -2.389490

 Total Charge           Charge          ....    0
 Multiplicity           Mult            ....    1
 Number of Electrons    NEL             ....   48
 Basis Dimension        Dim             ....  134

ORBITAL ENERGIES
----------------

  NO   OCC          E(Eh)            E(eV)
   0   2.0000     -14.391581      -391.6148
   1   2.0000     -14.390228      -391.5780
   2   2.0000     -10.271342      -279.4974
   3   2.0000     -10.270200      -279.4664
   4   2.0000     -10.231315      -278.4082
   5   2.0000     -10.138242      -275.8756
   6   2.0000      -0.983923       -26.7739
   7   2.0000      -0.899983       -24.4898
   8   2.0000      -0.787824       -21.4378
   9   2.0000      -0.717270       -19.5179
  10   2.0000      -0.641675       -17.4609
  11   2.0000      -0.607636       -16.5346
  12   2.0000      -0.544776       -14.8241
  13   2.0000      -0.505456       -13.7542
  14   2.0000      -0.495933       -13.4950
  15   2.0000      -0.463808       -12.6209
  16   2.0000      -0.432704       -11.7745
  17   2.0000      -0.410893       -11.1810
  18   2.0000      -0.390093       -10.6150
  19   2.0000      -0.383519       -10.4361
  20   2.0000      -0.381747       -10.3879
  21   2.0000      -0.344621        -9.3776
  22   2.0000      -0.266319        -7.2469
  23   2.0000      -0.175652        -4.7797
  24   0.0000       0.055414         1.5079
  25   0.0000       0.072543         1.9740
  26   0.0000       0.086054         2.3417
  27   0.0000       0.098735         2.6867
  28   0.0000       0.116546         3.1714

MULLIKEN ATOMIC CHARGES
-----------------------
   0 C :    0.043734
   1 N :   -0.197507
   2 C :   -0.088525
   3 C :   -0.034886
   4 C :   -0.113721
   5 N :   -0.132522
   6 H :    0.140113
   7 H :    0.112600
   8 H :    0.127241
   9 H :   -0.019620
  10 H :   -0.041463
  11 H :    0.024125
  12 H :    0.043617
  13 H :    0.048412
  14 H :    0.041928
  15 H :    0.046474
Sum of atomic charges:    0.0000000

LOEWDIN ATOMIC CHARGES
----------------------
   0 C :    0.023208
   1 N :   -0.033215
   2 C :   -0.068357
   3 C :    0.026662
   4 C :   -0.264000
   5 N :   -0.020038
   6 H :    0.081562
   7 H :    0.063394
   8 H :    0.082046
   9 H :   -0.004262
  10 H :   -0.008330
  11 H :    0.016019
  12 H :    0.019062
  13 H :    0.028725
  14 H :    0.030681
  15 H :    0.026843

  Mayer bond orders larger than 0.100000
B(  0-C ,  1-N ) :   0.9812 B(  0-C ,  2-C ) :   1.0985 B(  0-C , 11-H ) :   0.9469
B(  0-C , 12-H ) :   0.9517 B(  1-N ,  3-C ) :   1.2127 B(  1-N ,  8-H ) :   0.9301
B(  2-C , 13-H ) :   0.9737 B(  2-C , 14-H ) :   0.9654 B(  2-C , 15-H ) :   0.9709
B(  3-C ,  4-C ) :   1.7184 B(  3-C ,  5-N ) :   1.1953 B(  4-C ,  9-H ) :   0.9506
B(  4-C , 10-H ) :   0.9532 B(  5-N ,  6-H ) :   0.9486 B(  5-N ,  7-H ) :   0.9513

Dispersion correction           -0.010644312
FINAL SINGLE POINT ENERGY      -267.390962881421

DIPOLE MOMENT
-------------
                                X             Y             Z
Electronic contribution:      1.49965       3.26064      -1.29855
Nuclear contribution   :     -2.93222      -3.63618       1.36440
                        -----------------------------------------
Total Dipole Moment    :     -1.43257      -0.37554       0.06586
                        -----------------------------------------
Magnitude (a.u.)       :      1.48244
Magnitude (Debye)      :      3.76807

Rotational constants in cm-1:     0.237993     0.072843     0.061284
Rotational constants in MHz :  7134.860770  2183.763760  1837.240960

                             ****ORCA TERMINATED NORMALLY****
TOTAL RUN TIME: 0 days 0 hours 0 minutes 15 seconds 799 msec
