                         Program Version 5.0.0 -  RELEASE  -
|  1> !PBE0 D3BJ RIJCOSX def2-SVP def2/J TightSCF
|  2> *xyz 0 1
|  3> C          3.90595        2.81985       -3.75292
|  4> N          5.29562        3.13151       -4.10533
|  5> C          3.80351        1.37472       -3.26081
|  6> C          5.70862        3.46889       -5.32419
|  7> N          6.90470        3.03895       -5.71708
|  8> C          4.98188        4.29357       -6.09746
|  9> H          5.00055        4.10131       -7.08776
| 10> H          4.08469        4.59690       -5.73965
| 11> H          5.96336        2.52611       -3.64239
| 12> H          7.04716        2.06686       -5.47360
| 13> H          7.19815        3.30799       -6.64523
| 14> H          3.28202        2.94919       -4.64026
| 15> H          3.56525        3.51457       -2.98252
| 16> H          4.14157        0.71142       -4.02935
| 17> H          2.78528        1.15146       -3.01944
| 18> H          4.41205        1.25066       -2.38949
| 19> *
| 20>
| 21> %MaxCore 64000
| 22>
| 23> %pal nprocs 4
| 24> end
| 25>
| 26> %scf
| 27>   MaxIter 150
| 28> end
| 29>
| 30>
| 31>                          ****END OF INPUT****

CARTESIAN COORDINATES (ANGSTROEM)
---------------------------------
  C      3.905950    2.819850   -3.752920
  N      5.295620    3.131510   -4.105330
  C      3.803510    1.374720   -3.260810
  C      5.708620    3.468890   -5.324190
  N      6.904700    3.038950   -5.717080
  C      4.981880    4.293570   -6.097460
  H      5.000550    4.101310   -7.087760
  H      4.084690    4.596900   -5.739650
  H      5.963360    2.526110   -3.642390
  H      7.047160    2.066860   -5.473600
  H      7.198150    3.307990   -6.645230
  H      3.282020    2.949190   -4.640260
  H      3.565250    3.514570   -2.982520
  H      4.141570    0.711420   -4.029350
  H      2.785280    1.151460   -3.019440
  H      4.412050    1.250660   -2.389490

 Total Charge           Charge          ....    0
 Multiplicity           Mult            ....    1
 Number of Electrons    NEL             ....   48
 Basis Dimension        Dim             ....  134

ORBITAL ENERGIES
----------------

  NO   OCC          E(Eh)            E(eV)
   0   2.0000     -14.392498      -391.6398
   1   2.0000     -14.390503      -391.5855
   2   2.0000     -10.270676      -279.4793
   3   2.0000     -10.263493      -279.2838
   4   2.0000     -10.228961      -278.3442
   5   2.0000     -10.143849      -276.0282
   6   2.0000      -0.988944       -26.9105
   7   2.0000      -0.902166       -24.5492
   8   2.0000      -0.776578       -21.1318
   9   2.0000      -0.717950       -19.5364
  10   2.0000      -0.655721       -17.8431
  11   2.0000      -0.577379       -15.7113
  12   2.0000      -0.547957       -14.9107
  13   2.0000      -0.527058       -14.3420
  14   2.0000      -0.483305       -13.1514
  15   2.0000      -0.468405       -12.7460
  16   2.0000      -0.414311       -11.2740
  17   2.0000      -0.413260       -11.2454
  18   2.0000      -0.401409       -10.9229
  19   2.0000      -0.382341       -10.4040
  20   2.0000      -0.372829       -10.1452
  21   2.0000      -0.346144        -9.4191
  22   2.0000      -0.263917        -7.1816
  23   2.0000      -0.179185        -4.8759
  24   0.0000       0.053018         1.4427
  25   0.0000       0.077401         2.1062
  26   0.0000       0.087787         2.3888
  27   0.0000       0.102300         2.7837
  28   0.0000       0.116216         3.1624

MULLIKEN ATOMIC CHARGES
-----------------------
   0 C :    0.069847
   1 N :   -0.213457
   2 C :   -0.093550
   3 C :   -0.035131
   4 N :   -0.112588
   5 C :   -0.118689
   6 H :   -0.023210
   7 H :   -0.025288
   8 H :    0.103345
   9 H :    0.107521
  10 H :    0.127913
  11 H :    0.046888
  12 H :    0.043895
  13 H :    0.037570
  14 H :    0.044028
  15 H :    0.040906
Sum of atomic charges:   -0.0000000

LOEWDIN ATOMIC CHARGES
----------------------
   0 C :    0.037577
   1 N :   -0.030461
   2 C :   -0.071314
   3 C :    0.018084
   4 N :   -0.022384
   5 C :   -0.252927
   6 H :   -0.005253
   7 H :   -0.006129
   8 H :    0.061000
   9 H :    0.059799
  10 H :    0.082719
  11 H :    0.028015
  12 H :    0.021580
  13 H :    0.023891
  14 H :    0.032171
  15 H :    0.023634

  Mayer bond orders larger than 0.100000
B(  0-C ,  1-N ) :   0.9812 B(  0-C ,  2-C ) :   1.0978 B(  0-C , 11-H ) :   0.9407
B(  0-C , 12-H ) :   0.9546 B(  1-N ,  3-C ) :   1.1810 B(  1-N ,  8-H ) :   0.9370
B(  2-C , 13-H ) :   0.9734 B(  2-C , 14-H ) :   0.9649 B(  2-C , 15-H ) :   0.9704
B(  3-C ,  4-N ) :   1.2183 B(  3-C ,  5-C ) :   1.7137 B(  4-N ,  9-H ) :   0.9444
B(  4-N , 10-H ) :   0.9451 B(  5-C ,  6-H ) :   0.9475 B(  5-C ,  7-H ) :   0.9463

Dispersion correction           -0.010669216
FINAL SINGLE POINT ENERGY      -267.395307781297

DIPOLE MOMENT
-------------
                                X             Y             Z
Electronic contribution:      3.47500       2.03053      -1.00087
Nuclear contribution   :     -3.34013      -3.37002       1.28371
                        -----------------------------------------
Total Dipole Moment    :      0.13487      -1.33949       0.28284
                        -----------------------------------------
Magnitude (a.u.)       :      1.37565
Magnitude (Debye)      :      3.49663

Rotational constants in cm-1:     0.239537     0.072280     0.060961
Rotational constants in MHz :  7181.153552  2166.902802  1827.551447

                             ****ORCA TERMINATED NORMALLY****
TOTAL RUN TIME: 0 days 0 hours 0 minutes 17 seconds 47 msec
