                         Program Version 5.0.0 -  RELEASE  -
|  1> !PBE0 D3BJ RIJCOSX def2-TZVP def2/J TightSCF xyzfile
|  2>
|  3> *xyzfile 0 1 D3.xyz
|  4>
|  5> %MaxCore 64000
|  6>
|  7> %pal nprocs 18
|  8> end
|  9>
| 10> %scf
| 11>   MaxIter 150
| 12> end
| 13>
| 14>
| 15>                          ****END OF INPUT****

CARTESIAN COORDINATES (ANGSTROEM)
---------------------------------
  C      3.905947    2.819855   -3.752920
  N      5.295615    3.131515   -4.105334
  C      3.803511    1.374716   -3.260807
  C      3.939934    0.320362   -4.367729
  H      4.105043   -0.655085   -3.907733
  H      3.022801    0.280517   -4.957117
  C      5.105846    0.668022   -5.305463
  C      5.708619    3.468885   -5.324190
  N      6.904696    3.038954   -5.717084
  C      4.981884    4.293570   -6.097457
  H      5.000546    4.101311   -7.087761
  H      4.084693    4.596899   -5.739652
  H      5.963358    2.526112   -3.642391
  H      7.047164    2.066861   -5.473604
  H      7.198145    3.307994   -6.645225
  H      3.282025    2.949187   -4.640259
  H      3.565254    3.514574   -2.982523
  H      4.574833    1.215157   -2.500443
  H      2.843514    1.260845   -2.751465
  F      4.809132    1.150187   -6.414361
  O      6.267366    0.564999   -4.819481

 Total Charge           Charge          ....    0
 Multiplicity           Mult            ....    1
 Number of Electrons    NEL             ....   78
 Basis Dimension        Dim             ....  376

ORBITAL ENERGIES
----------------

  NO   OCC          E(Eh)            E(eV)
   0   2.0000     -24.860165      -676.4795
   1   2.0000     -19.230208      -523.2806
   2   2.0000     -14.388491      -391.5307
   3   2.0000     -14.362492      -390.8233
   4   2.0000     -10.421849      -283.5929
   5   2.0000     -10.266562      -279.3674
   6   2.0000     -10.265948      -279.3507
   7   2.0000     -10.259458      -279.1740
   8   2.0000     -10.253847      -279.0214
   9   2.0000     -10.130407      -275.6624
  10   2.0000      -1.375127       -37.4191
  11   2.0000      -1.085523       -29.5386
  12   2.0000      -0.998098       -27.1596
  13   2.0000      -0.912348       -24.8262
  14   2.0000      -0.843056       -22.9407
  15   2.0000      -0.761497       -20.7214
  16   2.0000      -0.725455       -19.7406
  17   2.0000      -0.700000       -19.0480
  18   2.0000      -0.653352       -17.7786
  19   2.0000      -0.589492       -16.0409
  20   2.0000      -0.585728       -15.9385
  21   2.0000      -0.574609       -15.6359
  22   2.0000      -0.558834       -15.2066
  23   2.0000      -0.531126       -14.4527
  24   2.0000      -0.519955       -14.1487
  25   2.0000      -0.498151       -13.5554
  26   2.0000      -0.488798       -13.3009
  27   2.0000      -0.450565       -12.2605
  28   2.0000      -0.442131       -12.0310
  29   2.0000      -0.422480       -11.4963
  30   2.0000      -0.405785       -11.0420
  31   2.0000      -0.404025       -10.9941
  32   2.0000      -0.389838       -10.6080
  33   2.0000      -0.383194       -10.4272
  34   2.0000      -0.370998       -10.0954
  35   2.0000      -0.345322        -9.3967
  36   2.0000      -0.326506        -8.8847
  37   2.0000      -0.264341        -7.1931
  38   2.0000      -0.181589        -4.9413
  39   0.0000      -0.047712        -1.2983
  40   0.0000       0.033641         0.9154
  41   0.0000       0.057693         1.5699
  42   0.0000       0.069896         1.9020
  43   0.0000       0.070571         1.9203

MULLIKEN ATOMIC CHARGES
-----------------------
   0 C :   -0.119089
   1 N :   -0.253560
   2 C :   -0.266311
   3 C :   -0.194112
   4 H :    0.141071
   5 H :    0.122423
   6 C :    0.378611
   7 C :    0.156918
   8 N :   -0.421619
   9 C :   -0.474628
  10 H :    0.094356
  11 H :    0.077980
  12 H :    0.213446
  13 H :    0.242285
  14 H :    0.235645
  15 H :    0.123478
  16 H :    0.130694
  17 H :    0.135110
  18 H :    0.124706
  19 F :   -0.059801
  20 O :   -0.387603
Sum of atomic charges:   -0.0000000

LOEWDIN ATOMIC CHARGES
----------------------
   0 C :   -0.274398
   1 N :    0.130949
   2 C :   -0.262801
   3 C :   -0.227969
   4 H :    0.157944
   5 H :    0.146442
   6 C :   -0.498819
   7 C :   -0.508441
   8 N :   -0.006922
   9 C :   -0.346776
  10 H :    0.097137
  11 H :    0.095682
  12 H :    0.185058
  13 H :    0.154536
  14 H :    0.173955
  15 H :    0.142177
  16 H :    0.132945
  17 H :    0.146067
  18 H :    0.145826
  19 F :    0.373589
  20 O :    0.043818

  Mayer bond orders larger than 0.100000
B(  0-C ,  1-N ) :   0.9655 B(  0-C ,  2-C ) :   0.9965 B(  0-C , 15-H ) :   0.9587
B(  0-C , 16-H ) :   0.9612 B(  1-N ,  7-C ) :   1.1547 B(  1-N , 12-H ) :   0.9152
B(  2-C ,  3-C ) :   0.9943 B(  2-C , 17-H ) :   0.9614 B(  2-C , 18-H ) :   0.9509
B(  3-C ,  4-H ) :   0.9373 B(  3-C ,  5-H ) :   0.9440 B(  3-C ,  6-C ) :   1.0049
B(  6-C , 19-F ) :   1.2130 B(  6-C , 20-O ) :   1.9410 B(  7-C ,  8-N ) :   1.2271
B(  7-C ,  9-C ) :   1.6870 B(  8-N , 13-H ) :   0.8745 B(  8-N , 14-H ) :   0.9183
B(  9-C , 10-H ) :   0.9736 B(  9-C , 11-H ) :   1.0025

Dispersion correction           -0.019553858
FINAL SINGLE POINT ENERGY      -519.414998141638

DIPOLE MOMENT
-------------
                                X             Y             Z
Electronic contribution:      3.59688      -4.85681      -4.88353
Nuclear contribution   :     -4.64021       3.37029       5.31478
                        -----------------------------------------
Total Dipole Moment    :     -1.04333      -1.48652       0.43125
                        -----------------------------------------
Magnitude (a.u.)       :      1.86662
Magnitude (Debye)      :      4.74457

Rotational constants in cm-1:     0.061077     0.043622     0.034103
Rotational constants in MHz :  1831.041375  1307.759852  1022.388536

                             ****ORCA TERMINATED NORMALLY****
TOTAL RUN TIME: 0 days 0 hours 0 minutes 29 seconds 507 msec
