                         Program Version 5.0.0 -  RELEASE  -
|  1> !PBE0 D3BJ RIJCOSX def2-TZVP def2/J TightSCF xyzfile
|  2>
|  3> *xyzfile 0 1 D6.xyz
|  4>
|  5> %MaxCore 64000
|  6>
|  7> %pal nprocs 18
|  8> end
|  9>
| 10> %scf
| 11>   MaxIter 150
| 12> end
| 13>
| 14>
| 15>                          ****END OF INPUT****

CARTESIAN COORDINATES (ANGSTROEM)
---------------------------------
  C      3.905947    2.819855   -3.752920
  N      5.295615    3.131515   -4.105334
  C      3.803511    1.374716   -3.260807
  C      3.939934    0.320362   -4.367729
  H      4.105043   -0.655085   -3.907733
  H      3.022801    0.280517   -4.957117
  C      5.105846    0.668022   -5.305463
  C      5.708619    3.468885   -5.324190
  N      6.904696    3.038954   -5.717084
  C      4.981884    4.293570   -6.097457
  H      5.000546    4.101311   -7.087761
  H      4.084693    4.596899   -5.739652
  H      5.963358    2.526112   -3.642391
  H      7.047164    2.066861   -5.473604
  H      7.198145    3.307994   -6.645225
  H      3.282025    2.949187   -4.640259
  H      3.565254    3.514574   -2.982523
  H      4.574833    1.215157   -2.500443
  H      2.843514    1.260845   -2.751465
  O      4.809132    1.150187   -6.414361
  F      6.267366    0.564999   -4.819481

 Total Charge           Charge          ....    0
 Multiplicity           Mult            ....    1
 Number of Electrons    NEL             ....   78
 Basis Dimension        Dim             ....  376

ORBITAL ENERGIES
----------------

  NO   OCC          E(Eh)            E(eV)
   0   2.0000     -24.860309      -676.4834
   1   2.0000     -19.221761      -523.0507
   2   2.0000     -14.394128      -391.6841
   3   2.0000     -14.370375      -391.0378
   4   2.0000     -10.406596      -283.1779
   5   2.0000     -10.264695      -279.3165
   6   2.0000     -10.261730      -279.2359
   7   2.0000     -10.260119      -279.1920
   8   2.0000     -10.253259      -279.0054
   9   2.0000     -10.130026      -275.6520
  10   2.0000      -1.371751       -37.3272
  11   2.0000      -1.079256       -29.3680
  12   2.0000      -1.002358       -27.2756
  13   2.0000      -0.916137       -24.9294
  14   2.0000      -0.841533       -22.8993
  15   2.0000      -0.760434       -20.6925
  16   2.0000      -0.724904       -19.7256
  17   2.0000      -0.701026       -19.0759
  18   2.0000      -0.653728       -17.7888
  19   2.0000      -0.595094       -16.1933
  20   2.0000      -0.590275       -16.0622
  21   2.0000      -0.580558       -15.7978
  22   2.0000      -0.540525       -14.7084
  23   2.0000      -0.527564       -14.3557
  24   2.0000      -0.517670       -14.0865
  25   2.0000      -0.498275       -13.5587
  26   2.0000      -0.494406       -13.4535
  27   2.0000      -0.444548       -12.0968
  28   2.0000      -0.441424       -12.0118
  29   2.0000      -0.418199       -11.3798
  30   2.0000      -0.406170       -11.0525
  31   2.0000      -0.401836       -10.9345
  32   2.0000      -0.394332       -10.7303
  33   2.0000      -0.379165       -10.3176
  34   2.0000      -0.372951       -10.1485
  35   2.0000      -0.344145        -9.3647
  36   2.0000      -0.312171        -8.4946
  37   2.0000      -0.268957        -7.3187
  38   2.0000      -0.182197        -4.9578
  39   0.0000      -0.031959        -0.8696
  40   0.0000       0.029867         0.8127
  41   0.0000       0.057056         1.5526
  42   0.0000       0.066760         1.8166
  43   0.0000       0.072908         1.9839

MULLIKEN ATOMIC CHARGES
-----------------------
   0 C :   -0.095795
   1 N :   -0.250996
   2 C :   -0.295429
   3 C :   -0.186941
   4 H :    0.130434
   5 H :    0.134619
   6 C :    0.322489
   7 C :    0.192906
   8 N :   -0.416417
   9 C :   -0.467544
  10 H :    0.107516
  11 H :    0.076101
  12 H :    0.192258
  13 H :    0.215218
  14 H :    0.243230
  15 H :    0.131299
  16 H :    0.129430
  17 H :    0.131179
  18 H :    0.125189
  19 O :   -0.284264
  20 F :   -0.134481
Sum of atomic charges:    0.0000000

LOEWDIN ATOMIC CHARGES
----------------------
   0 C :   -0.270815
   1 N :    0.130716
   2 C :   -0.269838
   3 C :   -0.229993
   4 H :    0.147884
   5 H :    0.157475
   6 C :   -0.524449
   7 C :   -0.503378
   8 N :   -0.005358
   9 C :   -0.325775
  10 H :    0.101398
  11 H :    0.096451
  12 H :    0.177084
  13 H :    0.152252
  14 H :    0.177689
  15 H :    0.147589
  16 H :    0.132487
  17 H :    0.141057
  18 H :    0.145856
  19 O :    0.114768
  20 F :    0.306899

  Mayer bond orders larger than 0.100000
B(  0-C ,  1-N ) :   0.9517 B(  0-C ,  2-C ) :   0.9906 B(  0-C , 15-H ) :   0.9562
B(  0-C , 16-H ) :   0.9602 B(  1-N ,  7-C ) :   1.1541 B(  1-N , 12-H ) :   0.9211
B(  2-C ,  3-C ) :   0.9873 B(  2-C , 17-H ) :   0.9670 B(  2-C , 18-H ) :   0.9495
B(  3-C ,  4-H ) :   0.9378 B(  3-C ,  5-H ) :   0.9534 B(  3-C ,  6-C ) :   1.0121
B(  6-C , 19-O ) :   2.0824 B(  6-C , 20-F ) :   1.0811 B(  7-C ,  8-N ) :   1.2069
B(  7-C ,  9-C ) :   1.6826 B(  8-N , 13-H ) :   0.9125 B(  8-N , 14-H ) :   0.9181
B(  9-C , 10-H ) :   0.9708 B(  9-C , 11-H ) :   1.0003

Dispersion correction           -0.019596262
FINAL SINGLE POINT ENERGY      -519.411526491750

DIPOLE MOMENT
-------------
                                X             Y             Z
Electronic contribution:      5.99271      -5.65262      -2.35036
Nuclear contribution   :     -6.29470       4.03423       3.50525
                        -----------------------------------------
Total Dipole Moment    :     -0.30199      -1.61839       1.15489
                        -----------------------------------------
Magnitude (a.u.)       :      2.01100
Magnitude (Debye)      :      5.11157

Rotational constants in cm-1:     0.061094     0.043661     0.033867
Rotational constants in MHz :  1831.559881  1308.929520  1015.295167

                             ****ORCA TERMINATED NORMALLY****
TOTAL RUN TIME: 0 days 0 hours 0 minutes 28 seconds 548 msec
