                         Program Version 5.0.0 -  RELEASE  -
|  1> !PBE D3BJ RIJCOSX def2-TZVP def2/J TightSCF
|  2> *xyz -1 1
|  3> C         -7.33044       -2.67899       -3.20681
|  4> S         -6.01966       -2.92697       -4.41913
|  5> O         -5.64583       -1.58838       -4.91931
|  6> O         -4.88196       -3.50370       -3.66724
|  7> O         -6.54927       -3.80515       -5.42507
|  8> C         -7.46900       -1.24615       -2.71383
|  9> H         -7.11825       -3.37982       -2.39805
| 10> H         -8.24184       -3.00474       -3.70651
| 11> H         -7.67580       -0.60214       -3.54292
| 12> H         -6.55749       -0.94096       -2.24382
| 13> H         -8.27114       -1.18777       -2.00810
| 14> *
| 15> %MaxCore 64000
| 16>
| 17> %pal nprocs 4
| 18> end
| 19>
| 20> %scf
| 21>   MaxIter 150
| 22> end
| 23>
| 24>
| 25>                          ****END OF INPUT****

CARTESIAN COORDINATES (ANGSTROEM)
---------------------------------
  C     -7.330440   -2.678990   -3.206810
  S     -6.019660   -2.926970   -4.419130
  O     -5.645830   -1.588380   -4.919310
  O     -4.881960   -3.503700   -3.667240
  O     -6.549270   -3.805150   -5.425070
  C     -7.469000   -1.246150   -2.713830
  H     -7.118250   -3.379820   -2.398050
  H     -8.241840   -3.004740   -3.706510
  H     -7.675800   -0.602140   -3.542920
  H     -6.557490   -0.940960   -2.243820
  H     -8.271140   -1.187770   -2.008100

 Total Charge           Charge          ....   -1
 Multiplicity           Mult            ....    1
 Number of Electrons    NEL             ....   58
 Basis Dimension        Dim             ....  222

ORBITAL ENERGIES
----------------

  NO   OCC          E(Eh)            E(eV)
   0   2.0000     -88.001730     -2394.6488
   1   2.0000     -18.521378      -503.9923
   2   2.0000     -18.511514      -503.7239
   3   2.0000     -18.507203      -503.6066
   4   2.0000      -9.736584      -264.9459
   5   2.0000      -9.730860      -264.7902
   6   2.0000      -7.596539      -206.7123
   7   2.0000      -5.617477      -152.8593
   8   2.0000      -5.616428      -152.8308
   9   2.0000      -5.616183      -152.8241
  10   2.0000      -0.819501       -22.2997
  11   2.0000      -0.693457       -18.8699
  12   2.0000      -0.672006       -18.2862
  13   2.0000      -0.556623       -15.1465
  14   2.0000      -0.437416       -11.9027
  15   2.0000      -0.317111        -8.6290
  16   2.0000      -0.265607        -7.2275
  17   2.0000      -0.253125        -6.8879
  18   2.0000      -0.218658        -5.9500
  19   2.0000      -0.198068        -5.3897
  20   2.0000      -0.195654        -5.3240
  21   2.0000      -0.176339        -4.7984
  22   2.0000      -0.168459        -4.5840
  23   2.0000      -0.092118        -2.5067
  24   2.0000      -0.089548        -2.4367
  25   2.0000      -0.062228        -1.6933
  26   2.0000      -0.054303        -1.4777
  27   2.0000      -0.043450        -1.1823
  28   2.0000      -0.007286        -0.1982
  29   0.0000       0.154996         4.2177
  30   0.0000       0.200037         5.4433
  31   0.0000       0.208914         5.6849
  32   0.0000       0.216492         5.8911
  33   0.0000       0.238576         6.4920

MULLIKEN ATOMIC CHARGES
-----------------------
   0 C :   -0.244112
   1 S :    0.660301
   2 O :   -0.522116
   3 O :   -0.532654
   4 O :   -0.485599
   5 C :   -0.300817
   6 H :    0.083853
   7 H :    0.079338
   8 H :    0.104471
   9 H :    0.099267
  10 H :    0.058068
Sum of atomic charges:   -1.0000000

LOEWDIN ATOMIC CHARGES
----------------------
   0 C :   -0.440280
   1 S :    0.362982
   2 O :   -0.384567
   3 O :   -0.402738
   4 O :   -0.346029
   5 C :   -0.352745
   6 H :    0.118986
   7 H :    0.116790
   8 H :    0.114464
   9 H :    0.115151
  10 H :    0.097986

  Mayer bond orders larger than 0.100000
B(  0-C ,  1-S ) :   0.8598 B(  0-C ,  5-C ) :   0.9891 B(  0-C ,  6-H ) :   0.9514
B(  0-C ,  7-H ) :   0.9455 B(  1-S ,  2-O ) :   1.7860 B(  1-S ,  3-O ) :   1.8054
B(  1-S ,  4-O ) :   1.8616 B(  5-C ,  8-H ) :   0.9671 B(  5-C ,  9-H ) :   0.9703
B(  5-C , 10-H ) :   0.9448

Dispersion correction           -0.009632645
FINAL SINGLE POINT ENERGY      -702.804165296832

DIPOLE MOMENT
-------------
                                X             Y             Z
Electronic contribution:      4.82968      -3.56913      -5.22754
Nuclear contribution   :     -6.18165       4.01759       6.33106
                        -----------------------------------------
Total Dipole Moment    :     -1.35197       0.44847       1.10352
                        -----------------------------------------
Magnitude (a.u.)       :      1.80186
Magnitude (Debye)      :      4.57997

Rotational constants in cm-1:     0.161711     0.082788     0.081165
Rotational constants in MHz :  4847.971521  2481.906910  2433.276832

                             ****ORCA TERMINATED NORMALLY****
TOTAL RUN TIME: 0 days 0 hours 0 minutes 12 seconds 220 msec
