                         Program Version 5.0.0 -  RELEASE  -
|  1> !PBE D3BJ RIJCOSX def2-TZVP def2/J TightSCF
|  2> *xyz 1 1
|  3> C         -2.16038       -1.36949       -3.46710
|  4> N         -3.03011       -1.91086       -4.54107
|  5> C         -2.04772        0.14658       -3.51177
|  6> H         -3.47744       -2.79151       -4.25710
|  7> H         -2.53801       -2.01786       -5.43808
|  8> H         -3.89159       -1.37604       -4.71437
|  9> H         -1.18444       -1.84400       -3.56639
| 10> H         -2.59819       -1.70838       -2.52848
| 11> H         -1.61525        0.44478       -4.44395
| 12> H         -1.42718        0.48198       -2.70720
| 13> H         -3.02145        0.57958       -3.41560
| 14> *
| 15> %MaxCore 64000
| 16>
| 17> %pal nprocs 4
| 18> end
| 19>
| 20> %scf
| 21>   MaxIter 150
| 22> end
| 23>
| 24>
| 25>                          ****END OF INPUT****

CARTESIAN COORDINATES (ANGSTROEM)
---------------------------------
  C     -2.160380   -1.369490   -3.467100
  N     -3.030110   -1.910860   -4.541070
  C     -2.047720    0.146580   -3.511770
  H     -3.477440   -2.791510   -4.257100
  H     -2.538010   -2.017860   -5.438080
  H     -3.891590   -1.376040   -4.714370
  H     -1.184440   -1.844000   -3.566390
  H     -2.598190   -1.708380   -2.528480
  H     -1.615250    0.444780   -4.443950
  H     -1.427180    0.481980   -2.707200
  H     -3.021450    0.579580   -3.415600

 Total Charge           Charge          ....    1
 Multiplicity           Mult            ....    1
 Number of Electrons    NEL             ....   26
 Basis Dimension        Dim             ....  141

ORBITAL ENERGIES
----------------

  NO   OCC          E(Eh)            E(eV)
   0   2.0000     -14.318227      -389.6188
   1   2.0000     -10.134542      -275.7749
   2   2.0000     -10.054291      -273.5912
   3   2.0000      -1.138691       -30.9854
   4   2.0000      -0.899496       -24.4765
   5   2.0000      -0.787262       -21.4225
   6   2.0000      -0.758304       -20.6345
   7   2.0000      -0.719368       -19.5750
   8   2.0000      -0.653644       -17.7866
   9   2.0000      -0.595825       -16.2132
  10   2.0000      -0.539506       -14.6807
  11   2.0000      -0.525289       -14.2938
  12   2.0000      -0.507152       -13.8003
  13   0.0000      -0.220338        -5.9957
  14   0.0000      -0.162410        -4.4194
  15   0.0000      -0.160586        -4.3698
  16   0.0000      -0.136278        -3.7083
  17   0.0000      -0.096450        -2.6245

MULLIKEN ATOMIC CHARGES
-----------------------
   0 C :   -0.198918
   1 N :   -0.264094
   2 C :   -0.351921
   3 H :    0.322059
   4 H :    0.326392
   5 H :    0.311136
   6 H :    0.191954
   7 H :    0.182255
   8 H :    0.150666
   9 H :    0.180466
  10 H :    0.150005
Sum of atomic charges:    1.0000000

LOEWDIN ATOMIC CHARGES
----------------------
   0 C :   -0.284639
   1 N :    0.173520
   2 C :   -0.278529
   3 H :    0.222941
   4 H :    0.222503
   5 H :    0.218825
   6 H :    0.155915
   7 H :    0.153810
   8 H :    0.133197
   9 H :    0.150338
  10 H :    0.132119

  Mayer bond orders larger than 0.100000
B(  0-C ,  1-N ) :   0.8795 B(  0-C ,  2-C ) :   1.0272 B(  0-C ,  6-H ) :   0.9439
B(  0-C ,  7-H ) :   0.9427 B(  1-N ,  3-H ) :   0.8813 B(  1-N ,  4-H ) :   0.8750
B(  1-N ,  5-H ) :   0.8776 B(  2-C ,  8-H ) :   0.9545 B(  2-C ,  9-H ) :   0.9496
B(  2-C , 10-H ) :   0.9540

Dispersion correction           -0.006126575
FINAL SINGLE POINT ENERGY      -135.396758103732

DIPOLE MOMENT
-------------
                                X             Y             Z
Electronic contribution:     -0.64428      -1.48064      -0.77070
Nuclear contribution   :     -0.15215       0.37393      -0.04773
                        -----------------------------------------
Total Dipole Moment    :     -0.79642      -1.10670      -0.81843
                        -----------------------------------------
Magnitude (a.u.)       :      1.59025
Magnitude (Debye)      :      4.04210

Rotational constants in cm-1:     1.020762     0.277172     0.247319
Rotational constants in MHz : 30601.664035  8309.399682  7414.438136

                             ****ORCA TERMINATED NORMALLY****
TOTAL RUN TIME: 0 days 0 hours 0 minutes 7 seconds 533 msec
