                         Program Version 5.0.0 -  RELEASE  -
|  1> !PBE D3BJ RIJCOSX def2-TZVP def2/J TightSCF xyzfile
|  2>
|  3> *xyzfile 0 1 B.xyz
|  4>
|  5> %MaxCore 64000
|  6>
|  7> %pal nprocs 18
|  8> end
|  9>
| 10> %scf
| 11>   MaxIter 150
| 12> end
| 13>
| 14>
| 15>                          ****END OF INPUT****

CARTESIAN COORDINATES (ANGSTROEM)
---------------------------------
  C     -2.160376   -1.369486   -3.467104
  N     -3.030108   -1.910857   -4.541074
  C     -2.047717    0.146583   -3.511774
  C     -7.330440   -2.678991   -3.206811
  S     -6.019659   -2.926965   -4.419128
  H     -3.477443   -2.791513   -4.257096
  H     -2.538013   -2.017860   -5.438075
  H     -3.891589   -1.376039   -4.714365
  O     -5.645830   -1.588384   -4.919307
  O     -4.881961   -3.503697   -3.667235
  H     -1.184438   -1.843997   -3.566393
  H     -2.598195   -1.708376   -2.528477
  O     -6.549267   -3.805150   -5.425071
  C     -3.328755    0.875037   -3.103669
  H     -1.740034    0.452343   -4.517126
  H     -1.232611    0.434938   -2.842208
  C     -3.628487    0.771601   -1.609363
  H     -4.175106    0.490791   -3.682203
  H     -3.237812    1.928663   -3.381480
  C     -4.975718    1.361432   -1.190644
  H     -2.830700    1.276234   -1.054766
  H     -3.594312   -0.275838   -1.294603
  C     -6.184720    0.784347   -1.926464
  H     -4.956292    2.445725   -1.342200
  H     -5.097256    1.205252   -0.114136
  C     -6.286921   -0.735882   -1.893531
  H     -6.163994    1.100199   -2.974250
  H     -7.094530    1.223459   -1.504509
  C     -7.468999   -1.246153   -2.713833
  H     -6.360641   -1.090347   -0.859176
  H     -5.369848   -1.171853   -2.295982
  H     -7.601914   -0.601349   -3.585329
  H     -8.389791   -1.173436   -2.126922
  H     -7.118254   -3.379818   -2.398055
  H     -8.241838   -3.004745   -3.706513

 Total Charge           Charge          ....    0
 Multiplicity           Mult            ....    1
 Number of Electrons    NEL             ....  122
 Basis Dimension        Dim             ....  566

ORBITAL ENERGIES
----------------

  NO   OCC          E(Eh)            E(eV)
   0   2.0000     -88.176462     -2399.4035
   1   2.0000     -18.700336      -508.8620
   2   2.0000     -18.700054      -508.8543
   3   2.0000     -18.684520      -508.4316
   4   2.0000     -14.084339      -383.2543
   5   2.0000      -9.962094      -271.0824
   6   2.0000      -9.917251      -269.8621
   7   2.0000      -9.897473      -269.3239
   8   2.0000      -9.889273      -269.1008
   9   2.0000      -9.881404      -268.8867
  10   2.0000      -9.879121      -268.8246
  11   2.0000      -9.873537      -268.6726
  12   2.0000      -9.871631      -268.6207
  13   2.0000      -9.869138      -268.5529
  14   2.0000      -7.772266      -211.4941
  15   2.0000      -5.793249      -157.6423
  16   2.0000      -5.792285      -157.6161
  17   2.0000      -5.791449      -157.5933
  18   2.0000      -1.001230       -27.2449
  19   2.0000      -0.924368       -25.1533
  20   2.0000      -0.867983       -23.6190
  21   2.0000      -0.865883       -23.5619
  22   2.0000      -0.763141       -20.7661
  23   2.0000      -0.734362       -19.9830
  24   2.0000      -0.709721       -19.3125
  25   2.0000      -0.669879       -18.2283
  26   2.0000      -0.639263       -17.3952
  27   2.0000      -0.598468       -16.2852
  28   2.0000      -0.563909       -15.3448
  29   2.0000      -0.551894       -15.0178
  30   2.0000      -0.536303       -14.5935
  31   2.0000      -0.516140       -14.0449
  32   2.0000      -0.504264       -13.7217
  33   2.0000      -0.478695       -13.0260
  34   2.0000      -0.465491       -12.6667
  35   2.0000      -0.439594       -11.9619
  36   2.0000      -0.437255       -11.8983
  37   2.0000      -0.421131       -11.4595
  38   2.0000      -0.408226       -11.1084
  39   2.0000      -0.395218       -10.7544
  40   2.0000      -0.392451       -10.6791
  41   2.0000      -0.383626       -10.4390
  42   2.0000      -0.382525       -10.4090
  43   2.0000      -0.367554       -10.0016
  44   2.0000      -0.359295        -9.7769
  45   2.0000      -0.354048        -9.6341
  46   2.0000      -0.343003        -9.3336
  47   2.0000      -0.332970        -9.0606
  48   2.0000      -0.326031        -8.8718
  49   2.0000      -0.312708        -8.5092
  50   2.0000      -0.304538        -8.2869
  51   2.0000      -0.293827        -7.9954
  52   2.0000      -0.282426        -7.6852
  53   2.0000      -0.280370        -7.6293
  54   2.0000      -0.275849        -7.5062
  55   2.0000      -0.269211        -7.3256
  56   2.0000      -0.267095        -7.2680
  57   2.0000      -0.235135        -6.3984
  58   2.0000      -0.231416        -6.2971
  59   2.0000      -0.221076        -6.0158
  60   2.0000      -0.193812        -5.2739
  61   0.0000      -0.030172        -0.8210
  62   0.0000       0.006631         0.1804
  63   0.0000       0.015111         0.4112
  64   0.0000       0.018600         0.5061
  65   0.0000       0.031559         0.8588

MULLIKEN ATOMIC CHARGES
-----------------------
   0 C :   -0.196953
   1 N :   -0.232308
   2 C :   -0.128703
   3 C :   -0.235032
   4 S :    0.710523
   5 H :    0.282543
   6 H :    0.256597
   7 H :    0.265013
   8 O :   -0.532150
   9 O :   -0.531995
  10 H :    0.141070
  11 H :    0.153626
  12 O :   -0.423869
  13 C :   -0.266368
  14 H :    0.106364
  15 H :    0.103885
  16 C :   -0.232057
  17 H :    0.143909
  18 H :    0.104442
  19 C :   -0.111091
  20 H :    0.097062
  21 H :    0.105901
  22 C :   -0.200912
  23 H :    0.088153
  24 H :    0.091153
  25 C :   -0.263627
  26 H :    0.112612
  27 H :    0.092047
  28 C :   -0.108482
  29 H :    0.081569
  30 H :    0.090179
  31 H :    0.099595
  32 H :    0.091597
  33 H :    0.110440
  34 H :    0.135267
Sum of atomic charges:    0.0000000

LOEWDIN ATOMIC CHARGES
----------------------
   0 C :   -0.279716
   1 N :    0.141503
   2 C :   -0.273920
   3 C :   -0.382589
   4 S :    0.405825
   5 H :    0.163950
   6 H :    0.191900
   7 H :    0.171491
   8 O :   -0.350835
   9 O :   -0.357245
  10 H :    0.138182
  11 H :    0.144441
  12 O :   -0.284139
  13 C :   -0.269773
  14 H :    0.140819
  15 H :    0.149533
  16 C :   -0.274769
  17 H :    0.143051
  18 H :    0.143212
  19 C :   -0.270148
  20 H :    0.137925
  21 H :    0.135767
  22 C :   -0.275420
  23 H :    0.138103
  24 H :    0.139374
  25 C :   -0.275603
  26 H :    0.139727
  27 H :    0.138857
  28 C :   -0.292998
  29 H :    0.134612
  30 H :    0.133216
  31 H :    0.144493
  32 H :    0.137682
  33 H :    0.135773
  34 H :    0.137717

  Mayer bond orders larger than 0.100000
B(  0-C ,  1-N ) :   0.9391 B(  0-C ,  2-C ) :   0.9980 B(  0-C , 10-H ) :   0.9529
B(  0-C , 11-H ) :   0.9540 B(  1-N ,  5-H ) :   0.7805 B(  1-N ,  6-H ) :   0.8974
B(  1-N ,  7-H ) :   0.8182 B(  2-C , 13-C ) :   1.0031 B(  2-C , 14-H ) :   0.9476
B(  2-C , 15-H ) :   0.9393 B(  3-C ,  4-S ) :   0.8839 B(  3-C , 28-C ) :   0.9995
B(  3-C , 33-H ) :   0.9392 B(  3-C , 34-H ) :   0.9403 B(  4-S ,  8-O ) :   1.6015
B(  4-S ,  9-O ) :   1.5710 B(  4-S , 12-O ) :   1.9832 B(  5-H ,  9-O ) :   0.1854
B(  7-H ,  8-O ) :   0.1437 B( 13-C , 16-C ) :   0.9860 B( 13-C , 17-H ) :   0.9663
B( 13-C , 18-H ) :   0.9406 B( 16-C , 19-C ) :   1.0052 B( 16-C , 20-H ) :   0.9380
B( 16-C , 21-H ) :   0.9670 B( 19-C , 22-C ) :   1.0034 B( 19-C , 23-H ) :   0.9496
B( 19-C , 24-H ) :   0.9481 B( 22-C , 25-C ) :   0.9954 B( 22-C , 26-H ) :   0.9639
B( 22-C , 27-H ) :   0.9455 B( 25-C , 28-C ) :   1.0115 B( 25-C , 29-H ) :   0.9421
B( 25-C , 30-H ) :   0.9670 B( 28-C , 31-H ) :   0.9443 B( 28-C , 32-H ) :   0.9314

Dispersion correction           -0.041842557
FINAL SINGLE POINT ENERGY     -1033.574441326095

DIPOLE MOMENT
-------------
                                X             Y             Z
Electronic contribution:     -5.99842     -15.29878     -11.52917
Nuclear contribution   :      8.59301      16.99497      12.41069
                        -----------------------------------------
Total Dipole Moment    :      2.59459       1.69620       0.88152
                        -----------------------------------------
Magnitude (a.u.)       :      3.22274
Magnitude (Debye)      :      8.19156

Rotational constants in cm-1:     0.025617     0.015295     0.010641
Rotational constants in MHz :   767.991150   458.522408   319.013093

                             ****ORCA TERMINATED NORMALLY****
TOTAL RUN TIME: 0 days 0 hours 0 minutes 27 seconds 772 msec
