                         Program Version 5.0.0 -  RELEASE  -
|  1> !PBE D3BJ RIJCOSX def2-TZVP def2/J TightSCF
|  2> *xyz 0 1
|  3> C         -7.33044       -2.67899       -3.20681
|  4> S         -6.01966       -2.92697       -4.41913
|  5> F         -5.64583       -1.58838       -4.91931
|  6> O         -4.88196       -3.50370       -3.66724
|  7> O         -6.54927       -3.80515       -5.42507
|  8> C         -7.46900       -1.24615       -2.71383
|  9> H         -7.11825       -3.37982       -2.39805
| 10> H         -8.24184       -3.00474       -3.70651
| 11> H         -7.67580       -0.60214       -3.54292
| 12> H         -6.55749       -0.94096       -2.24382
| 13> H         -8.27114       -1.18777       -2.00810
| 14> *
| 15> %MaxCore 64000
| 16>
| 17> %pal nprocs 4
| 18> end
| 19>
| 20> %scf
| 21>   MaxIter 150
| 22> end
| 23>
| 24>
| 25>                          ****END OF INPUT****

CARTESIAN COORDINATES (ANGSTROEM)
---------------------------------
  C     -7.330440   -2.678990   -3.206810
  S     -6.019660   -2.926970   -4.419130
  F     -5.645830   -1.588380   -4.919310
  O     -4.881960   -3.503700   -3.667240
  O     -6.549270   -3.805150   -5.425070
  C     -7.469000   -1.246150   -2.713830
  H     -7.118250   -3.379820   -2.398050
  H     -8.241840   -3.004740   -3.706510
  H     -7.675800   -0.602140   -3.542920
  H     -6.557490   -0.940960   -2.243820
  H     -8.271140   -1.187770   -2.008100

 Total Charge           Charge          ....    0
 Multiplicity           Mult            ....    1
 Number of Electrons    NEL             ....   58
 Basis Dimension        Dim             ....  222

ORBITAL ENERGIES
----------------

  NO   OCC          E(Eh)            E(eV)
   0   2.0000     -88.264182     -2401.7905
   1   2.0000     -24.355134      -662.7369
   2   2.0000     -18.761066      -510.5146
   3   2.0000     -18.747110      -510.1348
   4   2.0000      -9.940773      -270.5022
   5   2.0000      -9.904828      -269.5241
   6   2.0000      -7.859794      -213.8759
   7   2.0000      -5.884282      -160.1194
   8   2.0000      -5.877544      -159.9361
   9   2.0000      -5.877383      -159.9317
  10   2.0000      -1.247562       -33.9479
  11   2.0000      -1.014402       -27.6033
  12   2.0000      -0.919573       -25.0229
  13   2.0000      -0.754051       -20.5188
  14   2.0000      -0.654981       -17.8230
  15   2.0000      -0.610776       -16.6201
  16   2.0000      -0.522034       -14.2053
  17   2.0000      -0.499460       -13.5910
  18   2.0000      -0.482667       -13.1340
  19   2.0000      -0.447466       -12.1762
  20   2.0000      -0.419248       -11.4083
  21   2.0000      -0.400220       -10.8905
  22   2.0000      -0.391174       -10.6444
  23   2.0000      -0.369118       -10.0442
  24   2.0000      -0.352795        -9.6000
  25   2.0000      -0.335933        -9.1412
  26   2.0000      -0.290012        -7.8916
  27   2.0000      -0.275287        -7.4910
  28   2.0000      -0.261570        -7.1177
  29   0.0000      -0.024860        -0.6765
  30   0.0000       0.017168         0.4672
  31   0.0000       0.030051         0.8177
  32   0.0000       0.033918         0.9229
  33   0.0000       0.051016         1.3882

MULLIKEN ATOMIC CHARGES
-----------------------
   0 C :   -0.242665
   1 S :    0.719190
   2 F :   -0.083446
   3 O :   -0.395100
   4 O :   -0.348534
   5 C :   -0.352911
   6 H :    0.158465
   7 H :    0.148253
   8 H :    0.128321
   9 H :    0.136954
  10 H :    0.131474
Sum of atomic charges:    0.0000000

LOEWDIN ATOMIC CHARGES
----------------------
   0 C :   -0.394723
   1 S :    0.488729
   2 F :    0.078004
   3 O :   -0.283631
   4 O :   -0.229853
   5 C :   -0.323674
   6 H :    0.148785
   7 H :    0.141936
   8 H :    0.121598
   9 H :    0.125293
  10 H :    0.127535

  Mayer bond orders larger than 0.100000
B(  0-C ,  1-S ) :   0.9003 B(  0-C ,  5-C ) :   0.9975 B(  0-C ,  6-H ) :   0.9318
B(  0-C ,  7-H ) :   0.9309 B(  1-S ,  2-F ) :   1.1357 B(  1-S ,  3-O ) :   1.9323
B(  1-S ,  4-O ) :   1.9843 B(  5-C ,  8-H ) :   0.9635 B(  5-C ,  9-H ) :   0.9635
B(  5-C , 10-H ) :   0.9517

Dispersion correction           -0.009161702
FINAL SINGLE POINT ENERGY      -727.326535786342

DIPOLE MOMENT
-------------
                                X             Y             Z
Electronic contribution:      5.72554      -1.77922      -6.43669
Nuclear contribution   :     -6.81251       2.87933       7.15058
                        -----------------------------------------
Total Dipole Moment    :     -1.08698       1.10011       0.71389
                        -----------------------------------------
Magnitude (a.u.)       :      1.70334
Magnitude (Debye)      :      4.32956

Rotational constants in cm-1:     0.152543     0.082494     0.078987
Rotational constants in MHz :  4573.135887  2473.116216  2367.980829

                             ****ORCA TERMINATED NORMALLY****
TOTAL RUN TIME: 0 days 0 hours 0 minutes 11 seconds 836 msec
