                         Program Version 5.0.0 -  RELEASE  -
|  1> !PBE D3BJ RIJCOSX def2-TZVP def2/J TightSCF
|  2> *xyz 0 1
|  3> C         -2.16038       -1.36949       -3.46710
|  4> C         -3.03011       -1.91086       -4.54107
|  5> C         -2.04772        0.14658       -3.51177
|  6> H         -3.47744       -2.79151       -4.25710
|  7> H         -2.53801       -2.01786       -5.43808
|  8> H         -3.89159       -1.37604       -4.71437
|  9> H         -1.18444       -1.84400       -3.56639
| 10> H         -2.59819       -1.70838       -2.52848
| 11> H         -1.61525        0.44478       -4.44395
| 12> H         -1.42718        0.48198       -2.70720
| 13> H         -3.02145        0.57958       -3.41560
| 14> *
| 15> %MaxCore 64000
| 16>
| 17> %pal nprocs 4
| 18> end
| 19>
| 20> %scf
| 21>   MaxIter 150
| 22> end
| 23>
| 24>
| 25>                          ****END OF INPUT****

CARTESIAN COORDINATES (ANGSTROEM)
---------------------------------
  C     -2.160380   -1.369490   -3.467100
  C     -3.030110   -1.910860   -4.541070
  C     -2.047720    0.146580   -3.511770
  H     -3.477440   -2.791510   -4.257100
  H     -2.538010   -2.017860   -5.438080
  H     -3.891590   -1.376040   -4.714370
  H     -1.184440   -1.844000   -3.566390
  H     -2.598190   -1.708380   -2.528480
  H     -1.615250    0.444780   -4.443950
  H     -1.427180    0.481980   -2.707200
  H     -3.021450    0.579580   -3.415600

 Total Charge           Charge          ....    0
 Multiplicity           Mult            ....    1
 Number of Electrons    NEL             ....   26
 Basis Dimension        Dim             ....  141

ORBITAL ENERGIES
----------------

  NO   OCC          E(Eh)            E(eV)
   0   2.0000      -9.867891      -268.5190
   1   2.0000      -9.857098      -268.2253
   2   2.0000      -9.839081      -267.7350
   3   2.0000      -0.717754       -19.5311
   4   2.0000      -0.624516       -16.9940
   5   2.0000      -0.528258       -14.3746
   6   2.0000      -0.419947       -11.4273
   7   2.0000      -0.391720       -10.6592
   8   2.0000      -0.356436        -9.6991
   9   2.0000      -0.348060        -9.4712
  10   2.0000      -0.297920        -8.1068
  11   2.0000      -0.286253        -7.7893
  12   2.0000      -0.284906        -7.7527
  13   0.0000       0.021949         0.5973
  14   0.0000       0.064485         1.7547
  15   0.0000       0.069871         1.9013
  16   0.0000       0.071929         1.9573
  17   0.0000       0.095769         2.6060

MULLIKEN ATOMIC CHARGES
-----------------------
   0 C :   -0.150328
   1 C :   -0.353993
   2 C :   -0.329695
   3 H :    0.116525
   4 H :    0.110939
   5 H :    0.108280
   6 H :    0.088903
   7 H :    0.086703
   8 H :    0.104663
   9 H :    0.111493
  10 H :    0.106509
Sum of atomic charges:   -0.0000000

LOEWDIN ATOMIC CHARGES
----------------------
   0 C :   -0.326052
   1 C :   -0.315522
   2 C :   -0.310368
   3 H :    0.113255
   4 H :    0.109394
   5 H :    0.111402
   6 H :    0.134202
   7 H :    0.134219
   8 H :    0.117115
   9 H :    0.115931
  10 H :    0.116423

  Mayer bond orders larger than 0.100000
B(  0-C ,  1-C ) :   1.0056 B(  0-C ,  2-C ) :   1.0074 B(  0-C ,  6-H ) :   0.9614
B(  0-C ,  7-H ) :   0.9616 B(  1-C ,  3-H ) :   0.9730 B(  1-C ,  4-H ) :   0.9725
B(  1-C ,  5-H ) :   0.9730 B(  2-C ,  8-H ) :   0.9719 B(  2-C ,  9-H ) :   0.9703
B(  2-C , 10-H ) :   0.9721

Dispersion correction           -0.006124422
FINAL SINGLE POINT ENERGY      -118.987848888279

DIPOLE MOMENT
-------------
                                X             Y             Z
Electronic contribution:      0.31586      -0.13365       0.27630
Nuclear contribution   :     -0.34625       0.09603      -0.26933
                        -----------------------------------------
Total Dipole Moment    :     -0.03038      -0.03762       0.00696
                        -----------------------------------------
Magnitude (a.u.)       :      0.04885
Magnitude (Debye)      :      0.12418

Rotational constants in cm-1:     1.028617     0.291238     0.258956
Rotational constants in MHz : 30837.159054  8731.095379  7763.318586

                             ****ORCA TERMINATED NORMALLY****
TOTAL RUN TIME: 0 days 0 hours 0 minutes 7 seconds 609 msec
