                         Program Version 5.0.0 -  RELEASE  -
|  1> !PBE D3BJ RIJCOSX def2-TZVP def2/J TightSCF
|  2> *xyz 0 1
|  3> C         -7.33044       -2.67899       -3.20681
|  4> S         -6.01966       -2.92697       -4.41913
|  5> O         -5.64583       -1.58838       -4.91931
|  6> F         -4.88196       -3.50370       -3.66724
|  7> O         -6.54927       -3.80515       -5.42507
|  8> C         -7.46900       -1.24615       -2.71383
|  9> H         -7.11825       -3.37982       -2.39805
| 10> H         -8.24184       -3.00474       -3.70651
| 11> H         -7.67580       -0.60214       -3.54292
| 12> H         -6.55749       -0.94096       -2.24382
| 13> H         -8.27114       -1.18777       -2.00810
| 14> *
| 15> %MaxCore 64000
| 16>
| 17> %pal nprocs 4
| 18> end
| 19>
| 20> %scf
| 21>   MaxIter 150
| 22> end
| 23>
| 24>
| 25>                          ****END OF INPUT****

CARTESIAN COORDINATES (ANGSTROEM)
---------------------------------
  C     -7.330440   -2.678990   -3.206810
  S     -6.019660   -2.926970   -4.419130
  O     -5.645830   -1.588380   -4.919310
  F     -4.881960   -3.503700   -3.667240
  O     -6.549270   -3.805150   -5.425070
  C     -7.469000   -1.246150   -2.713830
  H     -7.118250   -3.379820   -2.398050
  H     -8.241840   -3.004740   -3.706510
  H     -7.675800   -0.602140   -3.542920
  H     -6.557490   -0.940960   -2.243820
  H     -8.271140   -1.187770   -2.008100

 Total Charge           Charge          ....    0
 Multiplicity           Mult            ....    1
 Number of Electrons    NEL             ....   58
 Basis Dimension        Dim             ....  222

ORBITAL ENERGIES
----------------

  NO   OCC          E(Eh)            E(eV)
   0   2.0000     -88.264276     -2401.7931
   1   2.0000     -24.352251      -662.6584
   2   2.0000     -18.761175      -510.5175
   3   2.0000     -18.750679      -510.2319
   4   2.0000      -9.941089      -270.5108
   5   2.0000      -9.896392      -269.2945
   6   2.0000      -7.859908      -213.8790
   7   2.0000      -5.884326      -160.1206
   8   2.0000      -5.877837      -159.9441
   9   2.0000      -5.877387      -159.9318
  10   2.0000      -1.244012       -33.8513
  11   2.0000      -1.015515       -27.6336
  12   2.0000      -0.923053       -25.1176
  13   2.0000      -0.749870       -20.4050
  14   2.0000      -0.655925       -17.8486
  15   2.0000      -0.604226       -16.4418
  16   2.0000      -0.513709       -13.9787
  17   2.0000      -0.495565       -13.4850
  18   2.0000      -0.489900       -13.3309
  19   2.0000      -0.442461       -12.0400
  20   2.0000      -0.426414       -11.6033
  21   2.0000      -0.401049       -10.9131
  22   2.0000      -0.380420       -10.3517
  23   2.0000      -0.358698        -9.7607
  24   2.0000      -0.351072        -9.5532
  25   2.0000      -0.335091        -9.1183
  26   2.0000      -0.289696        -7.8830
  27   2.0000      -0.281419        -7.6578
  28   2.0000      -0.264581        -7.1996
  29   0.0000      -0.012817        -0.3488
  30   0.0000       0.000825         0.0225
  31   0.0000       0.025720         0.6999
  32   0.0000       0.043356         1.1798
  33   0.0000       0.049360         1.3431

MULLIKEN ATOMIC CHARGES
-----------------------
   0 C :   -0.259055
   1 S :    0.720515
   2 O :   -0.389685
   3 F :   -0.086173
   4 O :   -0.350580
   5 C :   -0.319305
   6 H :    0.133449
   7 H :    0.157187
   8 H :    0.145525
   9 H :    0.123475
  10 H :    0.124647
Sum of atomic charges:    0.0000000

LOEWDIN ATOMIC CHARGES
----------------------
   0 C :   -0.402064
   1 S :    0.489772
   2 O :   -0.269797
   3 F :    0.066968
   4 O :   -0.230644
   5 C :   -0.316068
   6 H :    0.136059
   7 H :    0.147691
   8 H :    0.128807
   9 H :    0.124290
  10 H :    0.124987

  Mayer bond orders larger than 0.100000
B(  0-C ,  1-S ) :   0.8918 B(  0-C ,  5-C ) :   1.0024 B(  0-C ,  6-H ) :   0.9353
B(  0-C ,  7-H ) :   0.9321 B(  1-S ,  2-O ) :   1.9231 B(  1-S ,  3-F ) :   1.1369
B(  1-S ,  4-O ) :   1.9840 B(  5-C ,  8-H ) :   0.9619 B(  5-C ,  9-H ) :   0.9648
B(  5-C , 10-H ) :   0.9449

Dispersion correction           -0.009206325
FINAL SINGLE POINT ENERGY      -727.329717687488

DIPOLE MOMENT
-------------
                                X             Y             Z
Electronic contribution:      7.04012      -4.97905      -4.37199
Nuclear contribution   :     -7.60849       4.87515       5.84588
                        -----------------------------------------
Total Dipole Moment    :     -0.56837      -0.10389       1.47389
                        -----------------------------------------
Magnitude (a.u.)       :      1.58310
Magnitude (Debye)      :      4.02391

Rotational constants in cm-1:     0.153704     0.080342     0.079431
Rotational constants in MHz :  4607.928650  2408.599360  2381.267225

                             ****ORCA TERMINATED NORMALLY****
TOTAL RUN TIME: 0 days 0 hours 0 minutes 12 seconds 21 msec
