                         Program Version 5.0.0 -  RELEASE  -
|  1> !PBE D3BJ RIJCOSX def2-TZVP def2/J TightSCF
|  2> *xyz 0 1
|  3> C         -7.33044       -2.67899       -3.20681
|  4> S         -6.01966       -2.92697       -4.41913
|  5> O         -5.64583       -1.58838       -4.91931
|  6> O         -4.88196       -3.50370       -3.66724
|  7> F         -6.54927       -3.80515       -5.42507
|  8> C         -7.46900       -1.24615       -2.71383
|  9> H         -7.11825       -3.37982       -2.39805
| 10> H         -8.24184       -3.00474       -3.70651
| 11> H         -7.67580       -0.60214       -3.54292
| 12> H         -6.55749       -0.94096       -2.24382
| 13> H         -8.27114       -1.18777       -2.00810
| 14> *
| 15> %MaxCore 64000
| 16>
| 17> %pal nprocs 4
| 18> end
| 19>
| 20> %scf
| 21>   MaxIter 150
| 22> end
| 23>
| 24>
| 25>                          ****END OF INPUT****

CARTESIAN COORDINATES (ANGSTROEM)
---------------------------------
  C     -7.330440   -2.678990   -3.206810
  S     -6.019660   -2.926970   -4.419130
  O     -5.645830   -1.588380   -4.919310
  O     -4.881960   -3.503700   -3.667240
  F     -6.549270   -3.805150   -5.425070
  C     -7.469000   -1.246150   -2.713830
  H     -7.118250   -3.379820   -2.398050
  H     -8.241840   -3.004740   -3.706510
  H     -7.675800   -0.602140   -3.542920
  H     -6.557490   -0.940960   -2.243820
  H     -8.271140   -1.187770   -2.008100

 Total Charge           Charge          ....    0
 Multiplicity           Mult            ....    1
 Number of Electrons    NEL             ....   58
 Basis Dimension        Dim             ....  222

ORBITAL ENERGIES
----------------

  NO   OCC          E(Eh)            E(eV)
   0   2.0000     -88.266719     -2401.8595
   1   2.0000     -24.373966      -663.2493
   2   2.0000     -18.750753      -510.2339
   3   2.0000     -18.747573      -510.1474
   4   2.0000      -9.941693      -270.5272
   5   2.0000      -9.896625      -269.3009
   6   2.0000      -7.862189      -213.9410
   7   2.0000      -5.886544      -160.1810
   8   2.0000      -5.880015      -160.0033
   9   2.0000      -5.879734      -159.9957
  10   2.0000      -1.279686       -34.8220
  11   2.0000      -1.000142       -27.2152
  12   2.0000      -0.906662       -24.6715
  13   2.0000      -0.750039       -20.4096
  14   2.0000      -0.669133       -18.2080
  15   2.0000      -0.611196       -16.6315
  16   2.0000      -0.525714       -14.3054
  17   2.0000      -0.521061       -14.1788
  18   2.0000      -0.496282       -13.5045
  19   2.0000      -0.443974       -12.0812
  20   2.0000      -0.426085       -11.5944
  21   2.0000      -0.393391       -10.7047
  22   2.0000      -0.377753       -10.2792
  23   2.0000      -0.360552        -9.8111
  24   2.0000      -0.345108        -9.3909
  25   2.0000      -0.328758        -8.9460
  26   2.0000      -0.281813        -7.6685
  27   2.0000      -0.272760        -7.4222
  28   2.0000      -0.251015        -6.8305
  29   0.0000      -0.011430        -0.3110
  30   0.0000      -0.001633        -0.0444
  31   0.0000       0.020945         0.5700
  32   0.0000       0.041212         1.1214
  33   0.0000       0.048105         1.3090

MULLIKEN ATOMIC CHARGES
-----------------------
   0 C :   -0.250177
   1 S :    0.715490
   2 O :   -0.381923
   3 O :   -0.387446
   4 F :   -0.053552
   5 C :   -0.322767
   6 H :    0.154560
   7 H :    0.124991
   8 H :    0.134729
   9 H :    0.140088
  10 H :    0.126007
Sum of atomic charges:   -0.0000000

LOEWDIN ATOMIC CHARGES
----------------------
   0 C :   -0.404427
   1 S :    0.480551
   2 O :   -0.266643
   3 O :   -0.279525
   4 F :    0.120580
   5 C :   -0.310369
   6 H :    0.144531
   7 H :    0.133193
   8 H :    0.126757
   9 H :    0.129358
  10 H :    0.125993

  Mayer bond orders larger than 0.100000
B(  0-C ,  1-S ) :   0.8955 B(  0-C ,  5-C ) :   1.0088 B(  0-C ,  6-H ) :   0.9305
B(  0-C ,  7-H ) :   0.9292 B(  1-S ,  2-O ) :   1.9254 B(  1-S ,  3-O ) :   1.9346
B(  1-S ,  4-F ) :   1.1815 B(  5-C ,  8-H ) :   0.9608 B(  5-C ,  9-H ) :   0.9643
B(  5-C , 10-H ) :   0.9445

Dispersion correction           -0.009220362
FINAL SINGLE POINT ENERGY      -727.311967751350

DIPOLE MOMENT
-------------
                                X             Y             Z
Electronic contribution:      4.25452      -5.46692      -7.31268
Nuclear contribution   :     -5.87110       5.18927       7.67759
                        -----------------------------------------
Total Dipole Moment    :     -1.61658      -0.27764       0.36491
                        -----------------------------------------
Magnitude (a.u.)       :      1.68035
Magnitude (Debye)      :      4.27111

Rotational constants in cm-1:     0.155988     0.080452     0.078187
Rotational constants in MHz :  4676.405251  2411.902056  2343.983816

                             ****ORCA TERMINATED NORMALLY****
TOTAL RUN TIME: 0 days 0 hours 0 minutes 11 seconds 796 msec
