                         Program Version 5.0.0 -  RELEASE  -
|  1> !PBE D3BJ RIJCOSX def2-TZVP def2/J TightSCF xyzfile
|  2>
|  3> *xyzfile 0 1 D1.xyz
|  4>
|  5> %MaxCore 64000
|  6>
|  7> %pal nprocs 18
|  8> end
|  9>
| 10> %scf
| 11>   MaxIter 150
| 12> end
| 13>
| 14>
| 15>                          ****END OF INPUT****

CARTESIAN COORDINATES (ANGSTROEM)
---------------------------------
  C     -2.160376   -1.369486   -3.467104
  C     -3.030108   -1.910857   -4.541074
  C     -2.047717    0.146583   -3.511774
  C     -7.330440   -2.678991   -3.206811
  S     -6.019659   -2.926965   -4.419128
  H     -3.477443   -2.791513   -4.257096
  H     -2.538013   -2.017860   -5.438075
  H     -3.891589   -1.376039   -4.714365
  F     -5.645830   -1.588384   -4.919307
  O     -4.881961   -3.503697   -3.667235
  H     -1.184438   -1.843997   -3.566393
  H     -2.598195   -1.708376   -2.528477
  O     -6.549267   -3.805150   -5.425071
  C     -3.328755    0.875037   -3.103669
  H     -1.740034    0.452343   -4.517126
  H     -1.232611    0.434938   -2.842208
  C     -3.628487    0.771601   -1.609363
  H     -4.175106    0.490791   -3.682203
  H     -3.237812    1.928663   -3.381480
  C     -4.975718    1.361432   -1.190644
  H     -2.830700    1.276234   -1.054766
  H     -3.594312   -0.275838   -1.294603
  C     -6.184720    0.784347   -1.926464
  H     -4.956292    2.445725   -1.342200
  H     -5.097256    1.205252   -0.114136
  C     -6.286921   -0.735882   -1.893531
  H     -6.163994    1.100199   -2.974250
  H     -7.094530    1.223459   -1.504509
  C     -7.468999   -1.246153   -2.713833
  H     -6.360641   -1.090347   -0.859176
  H     -5.369848   -1.171853   -2.295982
  H     -7.601914   -0.601349   -3.585329
  H     -8.389791   -1.173436   -2.126922
  H     -7.118254   -3.379818   -2.398055
  H     -8.241838   -3.004745   -3.706513

 Total Charge           Charge          ....    0
 Multiplicity           Mult            ....    1
 Number of Electrons    NEL             ....  122
 Basis Dimension        Dim             ....  566

ORBITAL ENERGIES
----------------

  NO   OCC          E(Eh)            E(eV)
   0   2.0000     -88.269947     -2401.9474
   1   2.0000     -24.360975      -662.8958
   2   2.0000     -18.766744      -510.6691
   3   2.0000     -18.753752      -510.3155
   4   2.0000      -9.940709      -270.5005
   5   2.0000      -9.912774      -269.7403
   6   2.0000      -9.892530      -269.1894
   7   2.0000      -9.885653      -269.0023
   8   2.0000      -9.879230      -268.8275
   9   2.0000      -9.872592      -268.6469
  10   2.0000      -9.870311      -268.5848
  11   2.0000      -9.863095      -268.3885
  12   2.0000      -9.853454      -268.1261
  13   2.0000      -9.805991      -266.8346
  14   2.0000      -7.865898      -214.0420
  15   2.0000      -5.890326      -160.2839
  16   2.0000      -5.883604      -160.1010
  17   2.0000      -5.883478      -160.0976
  18   2.0000      -1.256693       -34.1964
  19   2.0000      -1.021901       -27.8073
  20   2.0000      -0.930313       -25.3151
  21   2.0000      -0.771321       -20.9887
  22   2.0000      -0.741917       -20.1886
  23   2.0000      -0.715316       -19.4647
  24   2.0000      -0.689714       -18.7681
  25   2.0000      -0.653421       -17.7805
  26   2.0000      -0.639523       -17.4023
  27   2.0000      -0.605982       -16.4896
  28   2.0000      -0.574229       -15.6256
  29   2.0000      -0.558676       -15.2023
  30   2.0000      -0.528384       -14.3781
  31   2.0000      -0.518701       -14.1146
  32   2.0000      -0.505870       -13.7654
  33   2.0000      -0.493061       -13.4169
  34   2.0000      -0.488648       -13.2968
  35   2.0000      -0.445757       -12.1297
  36   2.0000      -0.439485       -11.9590
  37   2.0000      -0.425509       -11.5787
  38   2.0000      -0.418917       -11.3993
  39   2.0000      -0.411560       -11.1991
  40   2.0000      -0.401607       -10.9283
  41   2.0000      -0.390751       -10.6329
  42   2.0000      -0.384852       -10.4724
  43   2.0000      -0.380576       -10.3560
  44   2.0000      -0.364207        -9.9106
  45   2.0000      -0.351031        -9.5520
  46   2.0000      -0.346788        -9.4366
  47   2.0000      -0.340721        -9.2715
  48   2.0000      -0.332309        -9.0426
  49   2.0000      -0.323920        -8.8143
  50   2.0000      -0.313539        -8.5318
  51   2.0000      -0.308972        -8.4075
  52   2.0000      -0.297570        -8.0973
  53   2.0000      -0.293154        -7.9771
  54   2.0000      -0.288823        -7.8593
  55   2.0000      -0.282878        -7.6975
  56   2.0000      -0.274957        -7.4820
  57   2.0000      -0.269398        -7.3307
  58   2.0000      -0.264740        -7.2040
  59   2.0000      -0.262361        -7.1392
  60   2.0000      -0.236557        -6.4370
  61   0.0000      -0.029751        -0.8096
  62   0.0000       0.008104         0.2205
  63   0.0000       0.018666         0.5079
  64   0.0000       0.020646         0.5618
  65   0.0000       0.024807         0.6750

MULLIKEN ATOMIC CHARGES
-----------------------
   0 C :   -0.157989
   1 C :   -0.425556
   2 C :   -0.073175
   3 C :   -0.220796
   4 S :    0.748404
   5 H :    0.169980
   6 H :    0.101072
   7 H :    0.083651
   8 F :   -0.080457
   9 O :   -0.389989
  10 H :    0.084665
  11 H :    0.085621
  12 O :   -0.354633
  13 C :   -0.231255
  14 H :    0.079155
  15 H :    0.072837
  16 C :   -0.228997
  17 H :    0.083454
  18 H :    0.087907
  19 C :   -0.108465
  20 H :    0.093637
  21 H :    0.107586
  22 C :   -0.197018
  23 H :    0.087746
  24 H :    0.089468
  25 C :   -0.295102
  26 H :    0.105974
  27 H :    0.094702
  28 C :   -0.181213
  29 H :    0.097911
  30 H :    0.133339
  31 H :    0.113222
  32 H :    0.115777
  33 H :    0.148212
  34 H :    0.160323
Sum of atomic charges:    0.0000000

LOEWDIN ATOMIC CHARGES
----------------------
   0 C :   -0.303293
   1 C :   -0.344112
   2 C :   -0.270112
   3 C :   -0.363914
   4 S :    0.508679
   5 H :    0.103235
   6 H :    0.104440
   7 H :    0.093210
   8 F :    0.094968
   9 O :   -0.246668
  10 H :    0.136383
  11 H :    0.133938
  12 O :   -0.223015
  13 C :   -0.270375
  14 H :    0.136816
  15 H :    0.135606
  16 C :   -0.273661
  17 H :    0.131295
  18 H :    0.136573
  19 C :   -0.270936
  20 H :    0.138677
  21 H :    0.135956
  22 C :   -0.276018
  23 H :    0.138795
  24 H :    0.137983
  25 C :   -0.274690
  26 H :    0.137056
  27 H :    0.138590
  28 C :   -0.293267
  29 H :    0.140565
  30 H :    0.140962
  31 H :    0.142421
  32 H :    0.146923
  33 H :    0.151685
  34 H :    0.145305

  Mayer bond orders larger than 0.100000
B(  0-C ,  1-C ) :   0.9865 B(  0-C ,  2-C ) :   0.9939 B(  0-C , 10-H ) :   0.9485
B(  0-C , 11-H ) :   0.9770 B(  1-C ,  5-H ) :   0.9484 B(  1-C ,  6-H ) :   0.9446
B(  1-C ,  7-H ) :   0.9898 B(  2-C , 13-C ) :   1.0184 B(  2-C , 14-H ) :   0.9420
B(  2-C , 15-H ) :   0.9428 B(  3-C ,  4-S ) :   0.9073 B(  3-C , 28-C ) :   0.9956
B(  3-C , 33-H ) :   0.9312 B(  3-C , 34-H ) :   0.9343 B(  4-S ,  8-F ) :   1.1101
B(  4-S ,  9-O ) :   1.8258 B(  4-S , 12-O ) :   2.0182 B( 13-C , 16-C ) :   1.0086
B( 13-C , 17-H ) :   0.9638 B( 13-C , 18-H ) :   0.9424 B( 16-C , 19-C ) :   0.9965
B( 16-C , 20-H ) :   0.9425 B( 16-C , 21-H ) :   0.9649 B( 19-C , 22-C ) :   1.0112
B( 19-C , 23-H ) :   0.9473 B( 19-C , 24-H ) :   0.9506 B( 22-C , 25-C ) :   0.9853
B( 22-C , 26-H ) :   0.9596 B( 22-C , 27-H ) :   0.9460 B( 25-C , 28-C ) :   0.9713
B( 25-C , 29-H ) :   0.9416 B( 25-C , 30-H ) :   0.9815 B( 28-C , 31-H ) :   0.9597
B( 28-C , 32-H ) :   0.9320

Dispersion correction           -0.041016868
FINAL SINGLE POINT ENERGY     -1041.459477333741

DIPOLE MOMENT
-------------
                                X             Y             Z
Electronic contribution:    -10.80335     -16.27030     -13.24057
Nuclear contribution   :      9.63012      17.20461      14.03552
                        -----------------------------------------
Total Dipole Moment    :     -1.17323       0.93431       0.79495
                        -----------------------------------------
Magnitude (a.u.)       :      1.69745
Magnitude (Debye)      :      4.31457

Rotational constants in cm-1:     0.025899     0.015189     0.010690
Rotational constants in MHz :   776.424978   455.369614   320.488876

                             ****ORCA TERMINATED NORMALLY****
TOTAL RUN TIME: 0 days 0 hours 0 minutes 20 seconds 125 msec
