                         Program Version 5.0.0 -  RELEASE  -
|  1> !PBE D3BJ RIJCOSX def2-TZVP def2/J TightSCF xyzfile
|  2>
|  3> *xyzfile 0 1 D3.xyz
|  4>
|  5> %MaxCore 64000
|  6>
|  7> %pal nprocs 18
|  8> end
|  9>
| 10> %scf
| 11>   MaxIter 150
| 12> end
| 13>
| 14>
| 15>                          ****END OF INPUT****

CARTESIAN COORDINATES (ANGSTROEM)
---------------------------------
  C     -2.160376   -1.369486   -3.467104
  C     -3.030108   -1.910857   -4.541074
  C     -2.047717    0.146583   -3.511774
  C     -7.330440   -2.678991   -3.206811
  S     -6.019659   -2.926965   -4.419128
  H     -3.477443   -2.791513   -4.257096
  H     -2.538013   -2.017860   -5.438075
  H     -3.891589   -1.376039   -4.714365
  O     -5.645830   -1.588384   -4.919307
  O     -4.881961   -3.503697   -3.667235
  H     -1.184438   -1.843997   -3.566393
  H     -2.598195   -1.708376   -2.528477
  F     -6.549267   -3.805150   -5.425071
  C     -3.328755    0.875037   -3.103669
  H     -1.740034    0.452343   -4.517126
  H     -1.232611    0.434938   -2.842208
  C     -3.628487    0.771601   -1.609363
  H     -4.175106    0.490791   -3.682203
  H     -3.237812    1.928663   -3.381480
  C     -4.975718    1.361432   -1.190644
  H     -2.830700    1.276234   -1.054766
  H     -3.594312   -0.275838   -1.294603
  C     -6.184720    0.784347   -1.926464
  H     -4.956292    2.445725   -1.342200
  H     -5.097256    1.205252   -0.114136
  C     -6.286921   -0.735882   -1.893531
  H     -6.163994    1.100199   -2.974250
  H     -7.094530    1.223459   -1.504509
  C     -7.468999   -1.246153   -2.713833
  H     -6.360641   -1.090347   -0.859176
  H     -5.369848   -1.171853   -2.295982
  H     -7.601914   -0.601349   -3.585329
  H     -8.389791   -1.173436   -2.126922
  H     -7.118254   -3.379818   -2.398055
  H     -8.241838   -3.004745   -3.706513

 Total Charge           Charge          ....    0
 Multiplicity           Mult            ....    1
 Number of Electrons    NEL             ....  122
 Basis Dimension        Dim             ....  566

ORBITAL ENERGIES
----------------

  NO   OCC          E(Eh)            E(eV)
   0   2.0000     -88.276062     -2402.1138
   1   2.0000     -24.381558      -663.4559
   2   2.0000     -18.761123      -510.5161
   3   2.0000     -18.758261      -510.4382
   4   2.0000      -9.942957      -270.5616
   5   2.0000      -9.906822      -269.5783
   6   2.0000      -9.882184      -268.9079
   7   2.0000      -9.875318      -268.7211
   8   2.0000      -9.869978      -268.5758
   9   2.0000      -9.862258      -268.3657
  10   2.0000      -9.856746      -268.2157
  11   2.0000      -9.851231      -268.0656
  12   2.0000      -9.840485      -267.7732
  13   2.0000      -9.785977      -266.2900
  14   2.0000      -7.871795      -214.2024
  15   2.0000      -5.896245      -160.4450
  16   2.0000      -5.889556      -160.2630
  17   2.0000      -5.889267      -160.2551
  18   2.0000      -1.287219       -35.0270
  19   2.0000      -1.015174       -27.6243
  20   2.0000      -0.921781       -25.0829
  21   2.0000      -0.765490       -20.8300
  22   2.0000      -0.733273       -19.9534
  23   2.0000      -0.706141       -19.2151
  24   2.0000      -0.687333       -18.7033
  25   2.0000      -0.656070       -17.8526
  26   2.0000      -0.631957       -17.1964
  27   2.0000      -0.598531       -16.2868
  28   2.0000      -0.565648       -15.3921
  29   2.0000      -0.547541       -14.8994
  30   2.0000      -0.531431       -14.4610
  31   2.0000      -0.525755       -14.3065
  32   2.0000      -0.507065       -13.7979
  33   2.0000      -0.501718       -13.6524
  34   2.0000      -0.476653       -12.9704
  35   2.0000      -0.446499       -12.1498
  36   2.0000      -0.436898       -11.8886
  37   2.0000      -0.420472       -11.4416
  38   2.0000      -0.416668       -11.3381
  39   2.0000      -0.410192       -11.1619
  40   2.0000      -0.396414       -10.7870
  41   2.0000      -0.385338       -10.4856
  42   2.0000      -0.374439       -10.1890
  43   2.0000      -0.370531       -10.0827
  44   2.0000      -0.356727        -9.7070
  45   2.0000      -0.342787        -9.3277
  46   2.0000      -0.336111        -9.1461
  47   2.0000      -0.333554        -9.0765
  48   2.0000      -0.321698        -8.7538
  49   2.0000      -0.309978        -8.4349
  50   2.0000      -0.304370        -8.2823
  51   2.0000      -0.295771        -8.0483
  52   2.0000      -0.290722        -7.9109
  53   2.0000      -0.286851        -7.8056
  54   2.0000      -0.279718        -7.6115
  55   2.0000      -0.271805        -7.3962
  56   2.0000      -0.267803        -7.2873
  57   2.0000      -0.263672        -7.1749
  58   2.0000      -0.250356        -6.8125
  59   2.0000      -0.240142        -6.5346
  60   2.0000      -0.225970        -6.1489
  61   0.0000      -0.021035        -0.5724
  62   0.0000      -0.006802        -0.1851
  63   0.0000       0.013706         0.3729
  64   0.0000       0.023794         0.6475
  65   0.0000       0.028254         0.7688

MULLIKEN ATOMIC CHARGES
-----------------------
   0 C :   -0.159192
   1 C :   -0.410343
   2 C :   -0.068659
   3 C :   -0.244668
   4 S :    0.746399
   5 H :    0.137492
   6 H :    0.085505
   7 H :    0.134126
   8 O :   -0.385412
   9 O :   -0.382370
  10 H :    0.075876
  11 H :    0.078003
  12 F :   -0.053705
  13 C :   -0.239812
  14 H :    0.074748
  15 H :    0.066339
  16 C :   -0.231083
  17 H :    0.118015
  18 H :    0.080008
  19 C :   -0.104430
  20 H :    0.088495
  21 H :    0.103806
  22 C :   -0.207868
  23 H :    0.084152
  24 H :    0.084748
  25 C :   -0.279198
  26 H :    0.114829
  27 H :    0.087214
  28 C :   -0.132463
  29 H :    0.090110
  30 H :    0.138422
  31 H :    0.111987
  32 H :    0.111766
  33 H :    0.145770
  34 H :    0.141391
Sum of atomic charges:    0.0000000

LOEWDIN ATOMIC CHARGES
----------------------
   0 C :   -0.307153
   1 C :   -0.343193
   2 C :   -0.270800
   3 C :   -0.375049
   4 S :    0.503115
   5 H :    0.100152
   6 H :    0.100468
   7 H :    0.102582
   8 O :   -0.238508
   9 O :   -0.244811
  10 H :    0.132976
  11 H :    0.131920
  12 F :    0.125520
  13 C :   -0.269927
  14 H :    0.136087
  15 H :    0.133222
  16 C :   -0.274412
  17 H :    0.139236
  18 H :    0.134767
  19 C :   -0.271810
  20 H :    0.136931
  21 H :    0.135031
  22 C :   -0.274861
  23 H :    0.137895
  24 H :    0.136298
  25 C :   -0.271397
  26 H :    0.140632
  27 H :    0.136410
  28 C :   -0.283026
  29 H :    0.137169
  30 H :    0.145345
  31 H :    0.148255
  32 H :    0.146604
  33 H :    0.147610
  34 H :    0.136719

  Mayer bond orders larger than 0.100000
B(  0-C ,  1-C ) :   0.9901 B(  0-C ,  2-C ) :   1.0004 B(  0-C , 10-H ) :   0.9473
B(  0-C , 11-H ) :   0.9755 B(  1-C ,  5-H ) :   0.9508 B(  1-C ,  6-H ) :   0.9479
B(  1-C ,  7-H ) :   0.9790 B(  2-C , 13-C ) :   1.0187 B(  2-C , 14-H ) :   0.9407
B(  2-C , 15-H ) :   0.9431 B(  3-C ,  4-S ) :   0.9003 B(  3-C , 28-C ) :   0.9924
B(  3-C , 33-H ) :   0.9280 B(  3-C , 34-H ) :   0.9306 B(  4-S ,  8-O ) :   1.8560
B(  4-S ,  9-O ) :   1.8518 B(  4-S , 12-F ) :   1.1907 B( 13-C , 16-C ) :   1.0118
B( 13-C , 17-H ) :   0.9616 B( 13-C , 18-H ) :   0.9407 B( 16-C , 19-C ) :   0.9980
B( 16-C , 20-H ) :   0.9426 B( 16-C , 21-H ) :   0.9644 B( 19-C , 22-C ) :   1.0121
B( 19-C , 23-H ) :   0.9465 B( 19-C , 24-H ) :   0.9505 B( 22-C , 25-C ) :   1.0013
B( 22-C , 26-H ) :   0.9598 B( 22-C , 27-H ) :   0.9450 B( 25-C , 28-C ) :   1.0002
B( 25-C , 29-H ) :   0.9427 B( 25-C , 30-H ) :   0.9708 B( 28-C , 31-H ) :   0.9447
B( 28-C , 32-H ) :   0.9284

Dispersion correction           -0.041394233
FINAL SINGLE POINT ENERGY     -1041.445942064923

DIPOLE MOMENT
-------------
                                X             Y             Z
Electronic contribution:    -12.55290     -20.27803     -14.35319
Nuclear contribution   :     10.70731      19.84772      14.63855
                        -----------------------------------------
Total Dipole Moment    :     -1.84559      -0.43031       0.28536
                        -----------------------------------------
Magnitude (a.u.)       :      1.91646
Magnitude (Debye)      :      4.87125

Rotational constants in cm-1:     0.026014     0.014812     0.010477
Rotational constants in MHz :   779.874765   444.063394   314.081855

                             ****ORCA TERMINATED NORMALLY****
TOTAL RUN TIME: 0 days 0 hours 0 minutes 22 seconds 766 msec
