                         Program Version 5.0.0 -  RELEASE  -
|  1> !DLPNO-CCSD(T) aug-cc-pVTZ aug-cc-pVTZ/C TightSCF TightPNO RIJCOSX def2/J
|  2> *xyz -1 1
|  3> C          0.70466        1.44313       -4.50363
|  4> C          1.72854        1.42432       -5.63944
|  5> H          2.64672        1.95379       -5.38105
|  6> H          1.29992        1.93061       -6.50361
|  7> S          2.25263       -0.18811       -6.27184
|  8> O          3.56261       -0.44446       -5.63155
|  9> O          2.34494       -0.03374       -7.69650
| 10> O          1.26606       -1.15918       -5.80536
| 11> H         -0.17385        0.91270       -4.80656
| 12> H          0.44778        2.45562       -4.27173
| 13> H          1.12367        0.97423       -3.63791
| 14> *
| 15>
| 16> %MaxCore 64000
| 17>
| 18> %pal nprocs 18
| 19> end
| 20>
| 21> %scf
| 22>   MaxIter 150
| 23> end
| 24>
| 25>
| 26>                          ****END OF INPUT****

CARTESIAN COORDINATES (ANGSTROEM)
---------------------------------
  C      0.704660    1.443130   -4.503630
  C      1.728540    1.424320   -5.639440
  H      2.646720    1.953790   -5.381050
  H      1.299920    1.930610   -6.503610
  S      2.252630   -0.188110   -6.271840
  O      3.562610   -0.444460   -5.631550
  O      2.344940   -0.033740   -7.696500
  O      1.266060   -1.159180   -5.805360
  H     -0.173850    0.912700   -4.806560
  H      0.447780    2.455620   -4.271730
  H      1.123670    0.974230   -3.637910

 Total Charge           Charge          ....   -1
 Multiplicity           Mult            ....    1
 Number of Electrons    NEL             ....   58
 Basis Dimension        Dim             ....  395

ORBITAL ENERGIES
----------------

  NO   OCC          E(Eh)            E(eV)
   0   2.0000     -91.982442     -2502.9695
   1   2.0000     -20.334871      -553.3400
   2   2.0000     -20.327040      -553.1269
   3   2.0000     -20.318442      -552.8929
   4   2.0000     -11.093682      -301.8744
   5   2.0000     -11.085994      -301.6652
   6   2.0000      -8.945714      -243.4253
   7   2.0000      -6.631865      -180.4622
   8   2.0000      -6.630600      -180.4278
   9   2.0000      -6.630455      -180.4238
  10   2.0000      -1.271348       -34.5951
  11   2.0000      -1.128852       -30.7176
  12   2.0000      -1.103083       -30.0164
  13   2.0000      -0.906250       -24.6603
  14   2.0000      -0.748209       -20.3598
  15   2.0000      -0.595838       -16.2136
  16   2.0000      -0.499589       -13.5945
  17   2.0000      -0.492682       -13.4066
  18   2.0000      -0.457356       -12.4453
  19   2.0000      -0.443507       -12.0684
  20   2.0000      -0.429048       -11.6750
  21   2.0000      -0.380435       -10.3522
  22   2.0000      -0.375294       -10.2123
  23   2.0000      -0.320223        -8.7137
  24   2.0000      -0.317529        -8.6404
  25   2.0000      -0.277210        -7.5433
  26   2.0000      -0.263822        -7.1790
  27   2.0000      -0.249345        -6.7850
  28   2.0000      -0.227231        -6.1833
  29   0.0000       0.112382         3.0581
  30   0.0000       0.132096         3.5945
  31   0.0000       0.134077         3.6484
  32   0.0000       0.145298         3.9538
  33   0.0000       0.155328         4.2267

MULLIKEN ATOMIC CHARGES
-----------------------
   0 C :   -0.948334
   1 C :   -0.560863
   2 H :    0.235517
   3 H :    0.254565
   4 S :    2.210674
   5 O :   -1.043081
   6 O :   -1.030785
   7 O :   -1.033819
   8 H :    0.311995
   9 H :    0.280610
  10 H :    0.323521
Sum of atomic charges:   -1.0000000

LOEWDIN ATOMIC CHARGES
----------------------
   0 C :    0.532792
   1 C :    0.124965
   2 H :   -0.216595
   3 H :   -0.230831
   4 S :   -0.393108
   5 O :   -0.088724
   6 O :   -0.052562
   7 O :   -0.061618
   8 H :   -0.209170
   9 H :   -0.206987
  10 H :   -0.198161

  Mayer bond orders larger than 0.100000
B(  0-C ,  1-C ) :   0.8522 B(  0-C ,  8-H ) :   0.9236 B(  0-C ,  9-H ) :   0.9752
B(  0-C , 10-H ) :   0.9030 B(  1-C ,  2-H ) :   0.9629 B(  1-C ,  3-H ) :   0.9600
B(  1-C ,  4-S ) :   0.7886 B(  4-S ,  5-O ) :   1.2965 B(  4-S ,  6-O ) :   1.3150
B(  4-S ,  7-O ) :   1.3257

E(0)                                       ...   -700.920604833
E(0)                                       ...   -700.920604833
E(CORR)(strong-pairs)                      ...     -1.302266491
E(CORR)(weak-pairs)                        ...     -0.001281220
E(CORR)(corrected)                         ...     -1.303547711
E(TOT)                                     ...   -702.224152544
E(CCSD(T))                                 ...   -702.279815915
FINAL SINGLE POINT ENERGY      -702.279815914836

DIPOLE MOMENT
-------------
                                X             Y             Z
Electronic contribution:      3.55795      -5.43265      -4.21939
Nuclear contribution   :     -4.50297       7.24642       5.01775
                        -----------------------------------------
Total Dipole Moment    :     -0.94502       1.81377       0.79836
                        -----------------------------------------
Magnitude (a.u.)       :      2.19549
Magnitude (Debye)      :      5.58050

Rotational constants in cm-1:     0.162459     0.081286     0.079601
Rotational constants in MHz :  4870.394399  2436.893583  2386.374948

                             ****ORCA TERMINATED NORMALLY****
TOTAL RUN TIME: 0 days 0 hours 6 minutes 11 seconds 304 msec
