                         Program Version 5.0.0 -  RELEASE  -
|  1> !DLPNO-CCSD(T) aug-cc-pVTZ aug-cc-pVTZ/C TightSCF TightPNO RIJCOSX def2/J
|  2> *xyz 1 1
|  3> C          2.91632       -1.24259       -1.54313
|  4> C          3.46659       -1.59097       -2.88908
|  5> N          4.65227       -1.14316       -3.25969
|  6> N          2.75226       -2.29204       -3.72803
|  7> H          1.77836       -2.48960       -3.51274
|  8> H          2.94861       -2.20854       -4.71681
|  9> H          5.14672       -0.51251       -2.63385
| 10> H          4.78303       -1.00720       -4.25350
| 11> C          2.80408        0.29070       -1.35924
| 12> H          1.94047       -1.71653       -1.44116
| 13> H          3.55857       -1.66343       -0.76637
| 14> H          2.17393        0.69633       -2.12297
| 15> H          3.77707        0.73043       -1.42880
| 16> H          2.38369        0.50492       -0.39889
| 17> *
| 18>
| 19> %MaxCore 64000
| 20>
| 21> %pal nprocs 18
| 22> end
| 23>
| 24> %scf
| 25>   MaxIter 150
| 26> end
| 27>
| 28>
| 29>                          ****END OF INPUT****

CARTESIAN COORDINATES (ANGSTROEM)
---------------------------------
  C      2.916320   -1.242590   -1.543130
  C      3.466590   -1.590970   -2.889080
  N      4.652270   -1.143160   -3.259690
  N      2.752260   -2.292040   -3.728030
  H      1.778360   -2.489600   -3.512740
  H      2.948610   -2.208540   -4.716810
  H      5.146720   -0.512510   -2.633850
  H      4.783030   -1.007200   -4.253500
  C      2.804080    0.290700   -1.359240
  H      1.940470   -1.716530   -1.441160
  H      3.558570   -1.663430   -0.766370
  H      2.173930    0.696330   -2.122970
  H      3.777070    0.730430   -1.428800
  H      2.383690    0.504920   -0.398890

 Total Charge           Charge          ....    1
 Multiplicity           Mult            ....    1
 Number of Electrons    NEL             ....   40
 Basis Dimension        Dim             ....  437

ORBITAL ENERGIES
----------------

  NO   OCC          E(Eh)            E(eV)
   0   2.0000     -15.810104      -430.2148
   1   2.0000     -15.803461      -430.0340
   2   2.0000     -11.571961      -314.8891
   3   2.0000     -11.429294      -311.0069
   4   2.0000     -11.387623      -309.8730
   5   2.0000      -1.530759       -41.6541
   6   2.0000      -1.407654       -38.3042
   7   2.0000      -1.242165       -33.8010
   8   2.0000      -1.097452       -29.8632
   9   2.0000      -1.028004       -27.9734
  10   2.0000      -0.952511       -25.9191
  11   2.0000      -0.942447       -25.6453
  12   2.0000      -0.867426       -23.6039
  13   2.0000      -0.830377       -22.5957
  14   2.0000      -0.791317       -21.5328
  15   2.0000      -0.756078       -20.5739
  16   2.0000      -0.703798       -19.1513
  17   2.0000      -0.690738       -18.7959
  18   2.0000      -0.679994       -18.5036
  19   2.0000      -0.636098       -17.3091
  20   0.0000      -0.099379        -2.7042
  21   0.0000      -0.076847        -2.0911
  22   0.0000      -0.075264        -2.0480
  23   0.0000      -0.064032        -1.7424
  24   0.0000      -0.056834        -1.5465

MULLIKEN ATOMIC CHARGES
-----------------------
   0 C :   -0.149308
   1 C :    0.724002
   2 N :   -0.390414
   3 N :   -0.400749
   4 H :    0.137390
   5 H :    0.164643
   6 H :    0.132127
   7 H :    0.163171
   8 C :   -0.917189
   9 H :    0.307101
  10 H :    0.294534
  11 H :    0.297552
  12 H :    0.322527
  13 H :    0.314613
Sum of atomic charges:    1.0000000

LOEWDIN ATOMIC CHARGES
----------------------
   0 C :    0.358486
   1 C :   -0.224180
   2 N :    0.949584
   3 N :    0.950989
   4 H :   -0.225573
   5 H :   -0.229635
   6 H :   -0.239416
   7 H :   -0.235209
   8 C :    0.658185
   9 H :   -0.141886
  10 H :   -0.119937
  11 H :   -0.164129
  12 H :   -0.182755
  13 H :   -0.154523

  Mayer bond orders larger than 0.100000
B(  0-C ,  1-C ) :   0.5309 B(  0-C ,  8-C ) :   0.8414 B(  0-C ,  9-H ) :   0.9198
B(  0-C , 10-H ) :   0.9569 B(  1-C ,  2-N ) :   0.9664 B(  1-C ,  3-N ) :   0.9295
B(  1-C ,  8-C ) :   0.1282 B(  2-N ,  6-H ) :   1.0786 B(  2-N ,  7-H ) :   1.0596
B(  3-N ,  4-H ) :   1.0780 B(  3-N ,  5-H ) :   1.0566 B(  8-C , 11-H ) :   0.9314
B(  8-C , 12-H ) :   0.9042 B(  8-C , 13-H ) :   0.9474

E(0)                                       ...   -227.637328310
E(0)                                       ...   -227.637328310
E(CORR)(strong-pairs)                      ...     -0.969510909
E(CORR)(weak-pairs)                        ...     -0.000943196
E(CORR)(corrected)                         ...     -0.970454105
E(TOT)                                     ...   -228.607782415
E(CCSD(T))                                 ...   -228.646330527
FINAL SINGLE POINT ENERGY      -228.646330526868

DIPOLE MOMENT
-------------
                                X             Y             Z
Electronic contribution:      1.26998      -2.81307      -2.71590
Nuclear contribution   :     -1.30215       2.77761       1.84194
                        -----------------------------------------
Total Dipole Moment    :     -0.03217      -0.03547      -0.87396
                        -----------------------------------------
Magnitude (a.u.)       :      0.87527
Magnitude (Debye)      :      2.22477

Rotational constants in cm-1:     0.267442     0.127541     0.099068
Rotational constants in MHz :  8017.703171  3823.592522  2969.992494

                             ****ORCA TERMINATED NORMALLY****
TOTAL RUN TIME: 0 days 0 hours 5 minutes 30 seconds 992 msec
