                         Program Version 5.0.0 -  RELEASE  -
|  1> !DLPNO-CCSD(T) aug-cc-pVTZ aug-cc-pVTZ/C TightSCF TightPNO RIJCOSX def2/J
|  2> *xyz 0 1
|  3> C          0.70466        1.44313       -4.50363
|  4> C          1.72854        1.42432       -5.63944
|  5> H          2.64672        1.95379       -5.38105
|  6> H          1.29992        1.93061       -6.50361
|  7> S          2.25263       -0.18811       -6.27184
|  8> F          3.56261       -0.44446       -5.63155
|  9> O          2.34494       -0.03374       -7.69650
| 10> O          1.26606       -1.15918       -5.80536
| 11> H         -0.17385        0.91270       -4.80656
| 12> H          0.44778        2.45562       -4.27173
| 13> H          1.12367        0.97423       -3.63791
| 14> *
| 15>
| 16> %MaxCore 64000
| 17>
| 18> %pal nprocs 18
| 19> end
| 20>
| 21> %scf
| 22>   MaxIter 150
| 23> end
| 24>
| 25>
| 26>                          ****END OF INPUT****

CARTESIAN COORDINATES (ANGSTROEM)
---------------------------------
  C      0.704660    1.443130   -4.503630
  C      1.728540    1.424320   -5.639440
  H      2.646720    1.953790   -5.381050
  H      1.299920    1.930610   -6.503610
  S      2.252630   -0.188110   -6.271840
  F      3.562610   -0.444460   -5.631550
  O      2.344940   -0.033740   -7.696500
  O      1.266060   -1.159180   -5.805360
  H     -0.173850    0.912700   -4.806560
  H      0.447780    2.455620   -4.271730
  H      1.123670    0.974230   -3.637910

 Total Charge           Charge          ....    0
 Multiplicity           Mult            ....    1
 Number of Electrons    NEL             ....   58
 Basis Dimension        Dim             ....  395

ORBITAL ENERGIES
----------------

  NO   OCC          E(Eh)            E(eV)
   0   2.0000     -92.250494     -2510.2636
   1   2.0000     -26.413275      -718.7418
   2   2.0000     -20.571844      -559.7883
   3   2.0000     -20.563411      -559.5589
   4   2.0000     -11.296728      -307.3996
   5   2.0000     -11.247448      -306.0586
   6   2.0000      -9.213601      -250.7148
   7   2.0000      -6.901207      -187.7914
   8   2.0000      -6.897380      -187.6873
   9   2.0000      -6.896289      -187.6576
  10   2.0000      -1.767433       -48.0943
  11   2.0000      -1.461815       -39.7780
  12   2.0000      -1.357264       -36.9330
  13   2.0000      -1.097708       -29.8701
  14   2.0000      -0.976804       -26.5802
  15   2.0000      -0.905670       -24.6445
  16   2.0000      -0.807184       -21.9646
  17   2.0000      -0.804102       -21.8807
  18   2.0000      -0.761611       -20.7245
  19   2.0000      -0.675819       -18.3900
  20   2.0000      -0.662474       -18.0268
  21   2.0000      -0.642898       -17.4942
  22   2.0000      -0.597657       -16.2631
  23   2.0000      -0.567504       -15.4426
  24   2.0000      -0.558610       -15.2005
  25   2.0000      -0.544242       -14.8096
  26   2.0000      -0.502992       -13.6871
  27   2.0000      -0.485769       -13.2184
  28   2.0000      -0.482670       -13.1341
  29   0.0000       0.022549         0.6136
  30   0.0000       0.036849         1.0027
  31   0.0000       0.039323         1.0700
  32   0.0000       0.048869         1.3298
  33   0.0000       0.062863         1.7106

MULLIKEN ATOMIC CHARGES
-----------------------
   0 C :   -0.913903
   1 C :   -0.521008
   2 H :    0.268142
   3 H :    0.301247
   4 S :    2.168159
   5 F :   -0.501225
   6 O :   -0.887110
   7 O :   -0.884880
   8 H :    0.330348
   9 H :    0.315062
  10 H :    0.325169
Sum of atomic charges:    0.0000000

LOEWDIN ATOMIC CHARGES
----------------------
   0 C :    0.574912
   1 C :    0.181554
   2 H :   -0.198361
   3 H :   -0.200884
   4 S :   -0.100020
   5 F :    0.252263
   6 O :    0.031383
   7 O :    0.021284
   8 H :   -0.193343
   9 H :   -0.180557
  10 H :   -0.188231

  Mayer bond orders larger than 0.100000
B(  0-C ,  1-C ) :   0.8760 B(  0-C ,  8-H ) :   0.9151 B(  0-C ,  9-H ) :   0.9412
B(  0-C , 10-H ) :   0.9033 B(  1-C ,  2-H ) :   0.9239 B(  1-C ,  3-H ) :   0.9170
B(  1-C ,  4-S ) :   0.8636 B(  4-S ,  5-F ) :   0.5735 B(  4-S ,  6-O ) :   1.5123
B(  4-S ,  7-O ) :   1.5241

E(0)                                       ...   -725.435205539
E(0)                                       ...   -725.435205539
E(CORR)(strong-pairs)                      ...     -1.306478578
E(CORR)(weak-pairs)                        ...     -0.001259016
E(CORR)(corrected)                         ...     -1.307737594
E(TOT)                                     ...   -726.742943132
E(CCSD(T))                                 ...   -726.795987185
FINAL SINGLE POINT ENERGY      -726.795987185070

DIPOLE MOMENT
-------------
                                X             Y             Z
Electronic contribution:      6.33027      -6.32908      -3.58937
Nuclear contribution   :     -6.09914       7.80989       4.64238
                        -----------------------------------------
Total Dipole Moment    :      0.23114       1.48081       1.05301
                        -----------------------------------------
Magnitude (a.u.)       :      1.83168
Magnitude (Debye)      :      4.65576

Rotational constants in cm-1:     0.154372     0.078826     0.078033
Rotational constants in MHz :  4627.943144  2363.154585  2339.382767

                             ****ORCA TERMINATED NORMALLY****
TOTAL RUN TIME: 0 days 0 hours 6 minutes 30 seconds 987 msec
