                         Program Version 5.0.0 -  RELEASE  -
|  1> !DLPNO-CCSD(T) aug-cc-pVTZ aug-cc-pVTZ/C TightSCF TightPNO RIJCOSX def2/J
|  2> *xyz 0 1
|  3> C          2.91632       -1.24259       -1.54313
|  4> C          3.46659       -1.59097       -2.88908
|  5> C          4.65227       -1.14316       -3.25969
|  6> N          2.75226       -2.29204       -3.72803
|  7> H          1.77836       -2.48960       -3.51274
|  8> H          2.94861       -2.20854       -4.71681
|  9> H          5.14672       -0.51251       -2.63385
| 10> H          4.78303       -1.00720       -4.25350
| 11> C          2.80408        0.29070       -1.35924
| 12> H          1.94047       -1.71653       -1.44116
| 13> H          3.55857       -1.66343       -0.76637
| 14> H          2.17393        0.69633       -2.12297
| 15> H          3.77707        0.73043       -1.42880
| 16> H          2.38369        0.50492       -0.39889
| 17> *
| 18>
| 19> %MaxCore 64000
| 20>
| 21> %pal nprocs 18
| 22> end
| 23>
| 24> %scf
| 25>   MaxIter 150
| 26> end
| 27>
| 28>
| 29>                          ****END OF INPUT****

CARTESIAN COORDINATES (ANGSTROEM)
---------------------------------
  C      2.916320   -1.242590   -1.543130
  C      3.466590   -1.590970   -2.889080
  C      4.652270   -1.143160   -3.259690
  N      2.752260   -2.292040   -3.728030
  H      1.778360   -2.489600   -3.512740
  H      2.948610   -2.208540   -4.716810
  H      5.146720   -0.512510   -2.633850
  H      4.783030   -1.007200   -4.253500
  C      2.804080    0.290700   -1.359240
  H      1.940470   -1.716530   -1.441160
  H      3.558570   -1.663430   -0.766370
  H      2.173930    0.696330   -2.122970
  H      3.777070    0.730430   -1.428800
  H      2.383690    0.504920   -0.398890

 Total Charge           Charge          ....    0
 Multiplicity           Mult            ....    1
 Number of Electrons    NEL             ....   40
 Basis Dimension        Dim             ....  437

ORBITAL ENERGIES
----------------

  NO   OCC          E(Eh)            E(eV)
   0   2.0000     -15.563816      -423.5130
   1   2.0000     -11.256088      -306.2937
   2   2.0000     -11.229206      -305.5622
   3   2.0000     -11.211818      -305.0891
   4   2.0000     -11.145660      -303.2888
   5   2.0000      -1.248632       -33.9770
   6   2.0000      -1.055671       -28.7263
   7   2.0000      -0.973010       -26.4769
   8   2.0000      -0.877664       -23.8824
   9   2.0000      -0.765227       -20.8229
  10   2.0000      -0.700874       -19.0717
  11   2.0000      -0.656208       -17.8563
  12   2.0000      -0.615161       -16.7394
  13   2.0000      -0.573762       -15.6128
  14   2.0000      -0.547427       -14.8962
  15   2.0000      -0.530135       -14.4257
  16   2.0000      -0.503182       -13.6923
  17   2.0000      -0.491788       -13.3822
  18   2.0000      -0.474083       -12.9005
  19   2.0000      -0.290739        -7.9114
  20   0.0000       0.026290         0.7154
  21   0.0000       0.036064         0.9814
  22   0.0000       0.040151         1.0926
  23   0.0000       0.044877         1.2212
  24   0.0000       0.056462         1.5364

MULLIKEN ATOMIC CHARGES
-----------------------
   0 C :   -0.165873
   1 C :    0.774195
   2 C :   -1.263260
   3 N :   -0.611822
   4 H :    0.082612
   5 H :    0.049263
   6 H :    0.277473
   7 H :    0.441454
   8 C :   -0.985406
   9 H :    0.259851
  10 H :    0.253440
  11 H :    0.298539
  12 H :    0.338041
  13 H :    0.251494
Sum of atomic charges:    0.0000000

LOEWDIN ATOMIC CHARGES
----------------------
   0 C :    0.295322
   1 C :   -0.319229
   2 C :    0.558664
   3 N :    0.839613
   4 H :   -0.273729
   5 H :   -0.268778
   6 H :   -0.299192
   7 H :   -0.296001
   8 C :    0.619532
   9 H :   -0.163448
  10 H :   -0.138429
  11 H :   -0.176051
  12 H :   -0.195232
  13 H :   -0.183044

  Mayer bond orders larger than 0.100000
B(  0-C ,  1-C ) :   0.7119 B(  0-C ,  8-C ) :   0.8042 B(  0-C ,  9-H ) :   0.9595
B(  0-C , 10-H ) :   1.0082 B(  1-C ,  2-C ) :   1.1403 B(  1-C ,  3-N ) :   0.6885
B(  1-C ,  6-H ) :  -0.1006 B(  1-C ,  8-C ) :   0.1487 B(  2-C ,  3-N ) :  -0.1632
B(  2-C ,  6-H ) :   1.1180 B(  2-C ,  7-H ) :   0.8240 B(  3-N ,  4-H ) :   1.1045
B(  3-N ,  5-H ) :   1.1760 B(  8-C , 11-H ) :   0.9487 B(  8-C , 12-H ) :   0.9010
B(  8-C , 13-H ) :   0.9962

E(0)                                       ...   -211.194342005
E(0)                                       ...   -211.194342005
E(CORR)(strong-pairs)                      ...     -0.951542667
E(CORR)(weak-pairs)                        ...     -0.000934053
E(CORR)(corrected)                         ...     -0.952476719
E(TOT)                                     ...   -212.146818724
E(CCSD(T))                                 ...   -212.185749442
FINAL SINGLE POINT ENERGY      -212.185749441588

DIPOLE MOMENT
-------------
                                X             Y             Z
Electronic contribution:      0.03403      -2.68155      -1.76576
Nuclear contribution   :     -0.99366       2.78648       1.68526
                        -----------------------------------------
Total Dipole Moment    :     -0.95962       0.10492      -0.08050
                        -----------------------------------------
Magnitude (a.u.)       :      0.96869
Magnitude (Debye)      :      2.46222

Rotational constants in cm-1:     0.282898     0.128664     0.101801
Rotational constants in MHz :  8481.061354  3857.240210  3051.924245

                             ****ORCA TERMINATED NORMALLY****
TOTAL RUN TIME: 0 days 0 hours 7 minutes 36 seconds 473 msec
