                         Program Version 5.0.0 -  RELEASE  -
|  1> !DLPNO-CCSD(T) aug-cc-pVTZ aug-cc-pVTZ/C TightSCF TightPNO RIJCOSX def2/J
|  2> *xyz 0 1
|  3> C          0.70466        1.44313       -4.50363
|  4> C          1.72854        1.42432       -5.63944
|  5> H          2.64672        1.95379       -5.38105
|  6> H          1.29992        1.93061       -6.50361
|  7> S          2.25263       -0.18811       -6.27184
|  8> O          3.56261       -0.44446       -5.63155
|  9> F          2.34494       -0.03374       -7.69650
| 10> O          1.26606       -1.15918       -5.80536
| 11> H         -0.17385        0.91270       -4.80656
| 12> H          0.44778        2.45562       -4.27173
| 13> H          1.12367        0.97423       -3.63791
| 14> *
| 15>
| 16> %MaxCore 64000
| 17>
| 18> %pal nprocs 18
| 19> end
| 20>
| 21> %scf
| 22>   MaxIter 150
| 23> end
| 24>
| 25>
| 26>                          ****END OF INPUT****

CARTESIAN COORDINATES (ANGSTROEM)
---------------------------------
  C      0.704660    1.443130   -4.503630
  C      1.728540    1.424320   -5.639440
  H      2.646720    1.953790   -5.381050
  H      1.299920    1.930610   -6.503610
  S      2.252630   -0.188110   -6.271840
  O      3.562610   -0.444460   -5.631550
  F      2.344940   -0.033740   -7.696500
  O      1.266060   -1.159180   -5.805360
  H     -0.173850    0.912700   -4.806560
  H      0.447780    2.455620   -4.271730
  H      1.123670    0.974230   -3.637910

 Total Charge           Charge          ....    0
 Multiplicity           Mult            ....    1
 Number of Electrons    NEL             ....   58
 Basis Dimension        Dim             ....  395

ORBITAL ENERGIES
----------------

  NO   OCC          E(Eh)            E(eV)
   0   2.0000     -92.251686     -2510.2960
   1   2.0000     -26.437925      -719.4125
   2   2.0000     -20.563938      -559.5732
   3   2.0000     -20.555439      -559.3419
   4   2.0000     -11.297912      -307.4318
   5   2.0000     -11.247924      -306.0716
   6   2.0000      -9.215101      -250.7556
   7   2.0000      -6.902544      -187.8278
   8   2.0000      -6.898714      -187.7235
   9   2.0000      -6.897817      -187.6991
  10   2.0000      -1.808935       -49.2236
  11   2.0000      -1.444412       -39.3044
  12   2.0000      -1.334842       -36.3229
  13   2.0000      -1.098827       -29.9006
  14   2.0000      -0.995541       -27.0900
  15   2.0000      -0.916090       -24.9281
  16   2.0000      -0.835087       -22.7239
  17   2.0000      -0.827366       -22.5138
  18   2.0000      -0.763773       -20.7833
  19   2.0000      -0.669990       -18.2313
  20   2.0000      -0.668006       -18.1774
  21   2.0000      -0.623313       -16.9612
  22   2.0000      -0.594141       -16.1674
  23   2.0000      -0.563575       -15.3357
  24   2.0000      -0.550757       -14.9869
  25   2.0000      -0.544433       -14.8148
  26   2.0000      -0.494161       -13.4468
  27   2.0000      -0.474451       -12.9105
  28   2.0000      -0.469973       -12.7886
  29   0.0000       0.021915         0.5963
  30   0.0000       0.036165         0.9841
  31   0.0000       0.039985         1.0881
  32   0.0000       0.049144         1.3373
  33   0.0000       0.063767         1.7352

MULLIKEN ATOMIC CHARGES
-----------------------
   0 C :   -0.905982
   1 C :   -0.525966
   2 H :    0.275148
   3 H :    0.290678
   4 S :    2.133691
   5 O :   -0.884452
   6 F :   -0.486047
   7 O :   -0.877135
   8 H :    0.322593
   9 H :    0.314520
  10 H :    0.342951
Sum of atomic charges:   -0.0000000

LOEWDIN ATOMIC CHARGES
----------------------
   0 C :    0.581045
   1 C :    0.178988
   2 H :   -0.196318
   3 H :   -0.212007
   4 S :   -0.104708
   5 O :   -0.000764
   6 F :    0.289690
   7 O :    0.020587
   8 H :   -0.194785
   9 H :   -0.179357
  10 H :   -0.182371

  Mayer bond orders larger than 0.100000
B(  0-C ,  1-C ) :   0.8663 B(  0-C ,  8-H ) :   0.9145 B(  0-C ,  9-H ) :   0.9409
B(  0-C , 10-H ) :   0.8912 B(  1-C ,  2-H ) :   0.9388 B(  1-C ,  3-H ) :   0.9112
B(  1-C ,  4-S ) :   0.8636 B(  4-S ,  5-O ) :   1.4910 B(  4-S ,  6-F ) :   0.5547
B(  4-S ,  7-O ) :   1.5297

E(0)                                       ...   -725.415056013
E(0)                                       ...   -725.415056013
E(CORR)(strong-pairs)                      ...     -1.307560695
E(CORR)(weak-pairs)                        ...     -0.001263456
E(CORR)(corrected)                         ...     -1.308824151
E(TOT)                                     ...   -726.723880164
E(CCSD(T))                                 ...   -726.777232449
FINAL SINGLE POINT ENERGY      -726.777232449152

DIPOLE MOMENT
-------------
                                X             Y             Z
Electronic contribution:      4.13590      -5.60040      -7.26032
Nuclear contribution   :     -4.83029       7.38191       6.79413
                        -----------------------------------------
Total Dipole Moment    :     -0.69438       1.78151      -0.46619
                        -----------------------------------------
Magnitude (a.u.)       :      1.96806
Magnitude (Debye)      :      5.00242

Rotational constants in cm-1:     0.156575     0.079070     0.076729
Rotational constants in MHz :  4694.010604  2370.444114  2300.280155

                             ****ORCA TERMINATED NORMALLY****
TOTAL RUN TIME: 0 days 0 hours 6 minutes 20 seconds 494 msec
