                         Program Version 5.0.0 -  RELEASE  -
|  1> !DLPNO-CCSD(T) aug-cc-pVTZ aug-cc-pVTZ/C TightSCF TightPNO RIJCOSX def2/J
|  2> *xyz 0 1
|  3> C          2.91632       -1.24259       -1.54313
|  4> C          3.46659       -1.59097       -2.88908
|  5> N          4.65227       -1.14316       -3.25969
|  6> C          2.75226       -2.29204       -3.72803
|  7> H          1.77836       -2.48960       -3.51274
|  8> H          2.94861       -2.20854       -4.71681
|  9> H          5.14672       -0.51251       -2.63385
| 10> H          4.78303       -1.00720       -4.25350
| 11> C          2.80408        0.29070       -1.35924
| 12> H          1.94047       -1.71653       -1.44116
| 13> H          3.55857       -1.66343       -0.76637
| 14> H          2.17393        0.69633       -2.12297
| 15> H          3.77707        0.73043       -1.42880
| 16> H          2.38369        0.50492       -0.39889
| 17> *
| 18>
| 19> %MaxCore 64000
| 20>
| 21> %pal nprocs 18
| 22> end
| 23>
| 24> %scf
| 25>   MaxIter 150
| 26> end
| 27>
| 28>
| 29>                          ****END OF INPUT****

CARTESIAN COORDINATES (ANGSTROEM)
---------------------------------
  C      2.916320   -1.242590   -1.543130
  C      3.466590   -1.590970   -2.889080
  N      4.652270   -1.143160   -3.259690
  C      2.752260   -2.292040   -3.728030
  H      1.778360   -2.489600   -3.512740
  H      2.948610   -2.208540   -4.716810
  H      5.146720   -0.512510   -2.633850
  H      4.783030   -1.007200   -4.253500
  C      2.804080    0.290700   -1.359240
  H      1.940470   -1.716530   -1.441160
  H      3.558570   -1.663430   -0.766370
  H      2.173930    0.696330   -2.122970
  H      3.777070    0.730430   -1.428800
  H      2.383690    0.504920   -0.398890

 Total Charge           Charge          ....    0
 Multiplicity           Mult            ....    1
 Number of Electrons    NEL             ....   40
 Basis Dimension        Dim             ....  437

ORBITAL ENERGIES
----------------

  NO   OCC          E(Eh)            E(eV)
   0   2.0000     -15.558944      -423.3804
   1   2.0000     -11.253267      -306.2170
   2   2.0000     -11.227548      -305.5171
   3   2.0000     -11.216453      -305.2152
   4   2.0000     -11.150930      -303.4322
   5   2.0000      -1.242131       -33.8001
   6   2.0000      -1.052486       -28.6396
   7   2.0000      -0.986332       -26.8394
   8   2.0000      -0.869590       -23.6628
   9   2.0000      -0.764312       -20.7980
  10   2.0000      -0.705536       -19.1986
  11   2.0000      -0.651738       -17.7347
  12   2.0000      -0.601126       -16.3575
  13   2.0000      -0.598612       -16.2891
  14   2.0000      -0.548425       -14.9234
  15   2.0000      -0.532552       -14.4915
  16   2.0000      -0.506350       -13.7785
  17   2.0000      -0.487777       -13.2731
  18   2.0000      -0.468230       -12.7412
  19   2.0000      -0.299550        -8.1512
  20   0.0000       0.027548         0.7496
  21   0.0000       0.035969         0.9788
  22   0.0000       0.039935         1.0867
  23   0.0000       0.043361         1.1799
  24   0.0000       0.055744         1.5169

MULLIKEN ATOMIC CHARGES
-----------------------
   0 C :   -0.120649
   1 C :    0.985322
   2 N :   -0.627026
   3 C :   -1.462993
   4 H :    0.201560
   5 H :    0.448770
   6 H :    0.083310
   7 H :    0.040075
   8 C :   -0.964792
   9 H :    0.235067
  10 H :    0.281870
  11 H :    0.298629
  12 H :    0.305089
  13 H :    0.295766
Sum of atomic charges:    0.0000000

LOEWDIN ATOMIC CHARGES
----------------------
   0 C :    0.290722
   1 C :   -0.318143
   2 N :    0.842245
   3 C :    0.559073
   4 H :   -0.290865
   5 H :   -0.289740
   6 H :   -0.283750
   7 H :   -0.273187
   8 C :    0.619473
   9 H :   -0.159071
  10 H :   -0.142550
  11 H :   -0.175479
  12 H :   -0.197284
  13 H :   -0.181444

  Mayer bond orders larger than 0.100000
B(  0-C ,  1-C ) :   0.5803 B(  0-C ,  8-C ) :   0.8379 B(  0-C ,  9-H ) :   0.9642
B(  0-C , 10-H ) :   0.9899 B(  1-C ,  2-N ) :   0.6393 B(  1-C ,  3-C ) :   0.9406
B(  2-N ,  3-C ) :  -0.1508 B(  2-N ,  6-H ) :   1.0952 B(  2-N ,  7-H ) :   1.1779
B(  3-C ,  4-H ) :   1.2835 B(  3-C ,  5-H ) :   0.7293 B(  8-C , 11-H ) :   0.9339
B(  8-C , 12-H ) :   0.9203 B(  8-C , 13-H ) :   0.9707

E(0)                                       ...   -211.199433009
E(0)                                       ...   -211.199433009
E(CORR)(strong-pairs)                      ...     -0.950607241
E(CORR)(weak-pairs)                        ...     -0.000932225
E(CORR)(corrected)                         ...     -0.951539466
E(TOT)                                     ...   -212.150972475
E(CCSD(T))                                 ...   -212.189666778
FINAL SINGLE POINT ENERGY      -212.189666777841

DIPOLE MOMENT
-------------
                                X             Y             Z
Electronic contribution:      1.70380      -1.67725      -1.36229
Nuclear contribution   :     -1.43372       2.52039       1.57679
                        -----------------------------------------
Total Dipole Moment    :      0.27009       0.84314       0.21450
                        -----------------------------------------
Magnitude (a.u.)       :      0.91095
Magnitude (Debye)      :      2.31546

Rotational constants in cm-1:     0.274962     0.131786     0.102554
Rotational constants in MHz :  8243.150005  3950.846092  3074.493018

                             ****ORCA TERMINATED NORMALLY****
TOTAL RUN TIME: 0 days 0 hours 7 minutes 11 seconds 747 msec
