                         Program Version 5.0.0 -  RELEASE  -
|  1> !DLPNO-CCSD(T) aug-cc-pVTZ aug-cc-pVTZ/C TightSCF TightPNO RIJCOSX def2/J
|  2> *xyz 0 1
|  3> C          0.70466        1.44313       -4.50363
|  4> C          1.72854        1.42432       -5.63944
|  5> H          2.64672        1.95379       -5.38105
|  6> H          1.29992        1.93061       -6.50361
|  7> S          2.25263       -0.18811       -6.27184
|  8> O          3.56261       -0.44446       -5.63155
|  9> O          2.34494       -0.03374       -7.69650
| 10> F          1.26606       -1.15918       -5.80536
| 11> H         -0.17385        0.91270       -4.80656
| 12> H          0.44778        2.45562       -4.27173
| 13> H          1.12367        0.97423       -3.63791
| 14> *
| 15>
| 16> %MaxCore 64000
| 17>
| 18> %pal nprocs 18
| 19> end
| 20>
| 21> %scf
| 22>   MaxIter 150
| 23> end
| 24>
| 25>
| 26>                          ****END OF INPUT****

CARTESIAN COORDINATES (ANGSTROEM)
---------------------------------
  C      0.704660    1.443130   -4.503630
  C      1.728540    1.424320   -5.639440
  H      2.646720    1.953790   -5.381050
  H      1.299920    1.930610   -6.503610
  S      2.252630   -0.188110   -6.271840
  O      3.562610   -0.444460   -5.631550
  O      2.344940   -0.033740   -7.696500
  F      1.266060   -1.159180   -5.805360
  H     -0.173850    0.912700   -4.806560
  H      0.447780    2.455620   -4.271730
  H      1.123670    0.974230   -3.637910

 Total Charge           Charge          ....    0
 Multiplicity           Mult            ....    1
 Number of Electrons    NEL             ....   58
 Basis Dimension        Dim             ....  395

ORBITAL ENERGIES
----------------

  NO   OCC          E(Eh)            E(eV)
   0   2.0000     -92.250519     -2510.2642
   1   2.0000     -26.424217      -719.0395
   2   2.0000     -20.571976      -559.7919
   3   2.0000     -20.554801      -559.3246
   4   2.0000     -11.296729      -307.3996
   5   2.0000     -11.256035      -306.2923
   6   2.0000      -9.213858      -250.7218
   7   2.0000      -6.901541      -187.8005
   8   2.0000      -6.897320      -187.6856
   9   2.0000      -6.896621      -187.6666
  10   2.0000      -1.785441       -48.5843
  11   2.0000      -1.456614       -39.6365
  12   2.0000      -1.343954       -36.5709
  13   2.0000      -1.102467       -29.9997
  14   2.0000      -0.982016       -26.7220
  15   2.0000      -0.915710       -24.9177
  16   2.0000      -0.824574       -22.4378
  17   2.0000      -0.818169       -22.2635
  18   2.0000      -0.754944       -20.5431
  19   2.0000      -0.675297       -18.3758
  20   2.0000      -0.662936       -18.0394
  21   2.0000      -0.629242       -17.1225
  22   2.0000      -0.614249       -16.7146
  23   2.0000      -0.574378       -15.6296
  24   2.0000      -0.554447       -15.0873
  25   2.0000      -0.549969       -14.9654
  26   2.0000      -0.496771       -13.5178
  27   2.0000      -0.479372       -13.0444
  28   2.0000      -0.474810       -12.9202
  29   0.0000       0.021656         0.5893
  30   0.0000       0.035780         0.9736
  31   0.0000       0.038926         1.0592
  32   0.0000       0.047174         1.2837
  33   0.0000       0.061277         1.6674

MULLIKEN ATOMIC CHARGES
-----------------------
   0 C :   -0.929858
   1 C :   -0.501092
   2 H :    0.289989
   3 H :    0.297186
   4 S :    2.172270
   5 O :   -0.890201
   6 O :   -0.880563
   7 F :   -0.510829
   8 H :    0.307876
   9 H :    0.316556
  10 H :    0.328667
Sum of atomic charges:   -0.0000000

LOEWDIN ATOMIC CHARGES
----------------------
   0 C :    0.575009
   1 C :    0.181317
   2 H :   -0.185042
   3 H :   -0.207697
   4 S :   -0.104282
   5 O :   -0.001730
   6 O :    0.031494
   7 F :    0.271873
   8 H :   -0.195177
   9 H :   -0.178039
  10 H :   -0.187726

  Mayer bond orders larger than 0.100000
B(  0-C ,  1-C ) :   0.8614 B(  0-C ,  8-H ) :   0.9247 B(  0-C ,  9-H ) :   0.9525
B(  0-C , 10-H ) :   0.8959 B(  1-C ,  2-H ) :   0.9216 B(  1-C ,  3-H ) :   0.9273
B(  1-C ,  4-S ) :   0.8519 B(  4-S ,  5-O ) :   1.4878 B(  4-S ,  6-O ) :   1.5169
B(  4-S ,  7-F ) :   0.5794

E(0)                                       ...   -725.425466196
E(0)                                       ...   -725.425466196
E(CORR)(strong-pairs)                      ...     -1.306627808
E(CORR)(weak-pairs)                        ...     -0.001260642
E(CORR)(corrected)                         ...     -1.307888450
E(TOT)                                     ...   -726.733354646
E(CCSD(T))                                 ...   -726.786435288
FINAL SINGLE POINT ENERGY      -726.786435288500

DIPOLE MOMENT
-------------
                                X             Y             Z
Electronic contribution:      2.22043      -7.55905      -3.89767
Nuclear contribution   :     -3.70606       8.55465       4.82350
                        -----------------------------------------
Total Dipole Moment    :     -1.48563       0.99560       0.92583
                        -----------------------------------------
Magnitude (a.u.)       :      2.01382
Magnitude (Debye)      :      5.11873

Rotational constants in cm-1:     0.153201     0.080978     0.077494
Rotational constants in MHz :  4592.852844  2427.650814  2323.207507

                             ****ORCA TERMINATED NORMALLY****
TOTAL RUN TIME: 0 days 0 hours 5 minutes 34 seconds 980 msec
