                         Program Version 5.0.0 -  RELEASE  -
|  1> !DLPNO-CCSD(T) aug-cc-pVTZ aug-cc-pVTZ/C TightSCF TightPNO RIJCOSX def2/J
|  2>
|  3> *xyzfile 0 1 D5.xyz
|  4>
|  5> %MaxCore 64000
|  6>
|  7> %pal nprocs 18
|  8> end
|  9>
| 10> %scf
| 11>   MaxIter 150
| 12> end
| 13>
| 14>
| 15>                          ****END OF INPUT****

CARTESIAN COORDINATES (ANGSTROEM)
---------------------------------
  C      2.916324   -1.242589   -1.543125
  C      0.704661    1.443129   -4.503630
  C      1.728539    1.424320   -5.639443
  H      2.646718    1.953794   -5.381054
  H      1.299916    1.930613   -6.503614
  S      2.252625   -0.188115   -6.271840
  C      3.466585   -1.590971   -2.889082
  C      4.652275   -1.143164   -3.259692
  N      2.752264   -2.292043   -3.728029
  H      1.778364   -2.489604   -3.512738
  H      2.948612   -2.208544   -4.716813
  H      5.146723   -0.512508   -2.633852
  H      4.783030   -1.007203   -4.253498
  O      3.562607   -0.444464   -5.631552
  O      2.344944   -0.033742   -7.696501
  C      2.804084    0.290698   -1.359243
  C      1.052550    0.695659   -3.214915
  H     -0.232483    1.032925   -4.884449
  H      0.511700    2.495794   -4.267966
  C      2.388380    1.093669   -2.597108
  H      3.763425    0.674718   -0.999889
  H      2.094788    0.461222   -0.545756
  F      1.266058   -1.159177   -5.805365
  H      3.167316    1.013242   -3.359430
  H      2.357690    2.149375   -2.310997
  H      1.039284   -0.368429   -3.449329
  H      0.250787    0.865605   -2.488283
  H      1.940472   -1.716529   -1.441161
  H      3.558569   -1.663433   -0.766371

 Total Charge           Charge          ....    0
 Multiplicity           Mult            ....    1
 Number of Electrons    NEL             ....  112
 Basis Dimension        Dim             ....  970

ORBITAL ENERGIES
----------------

  NO   OCC          E(Eh)            E(eV)
   0   2.0000     -92.259123     -2510.4984
   1   2.0000     -26.435385      -719.3434
   2   2.0000     -20.579705      -560.0023
   3   2.0000     -20.562905      -559.5451
   4   2.0000     -15.546573      -423.0438
   5   2.0000     -11.299407      -307.4725
   6   2.0000     -11.265061      -306.5379
   7   2.0000     -11.240117      -305.8591
   8   2.0000     -11.238503      -305.8152
   9   2.0000     -11.226382      -305.4854
  10   2.0000     -11.224157      -305.4248
  11   2.0000     -11.223212      -305.3991
  12   2.0000     -11.124807      -302.7214
  13   2.0000      -9.222738      -250.9635
  14   2.0000      -6.910399      -188.0415
  15   2.0000      -6.905991      -187.9216
  16   2.0000      -6.905478      -187.9076
  17   2.0000      -1.798882       -48.9501
  18   2.0000      -1.466952       -39.9178
  19   2.0000      -1.358176       -36.9578
  20   2.0000      -1.236208       -33.6389
  21   2.0000      -1.129032       -30.7225
  22   2.0000      -1.078104       -29.3367
  23   2.0000      -1.029287       -28.0083
  24   2.0000      -0.985205       -26.8088
  25   2.0000      -0.957681       -26.0598
  26   2.0000      -0.924367       -25.1533
  27   2.0000      -0.868218       -23.6254
  28   2.0000      -0.835560       -22.7367
  29   2.0000      -0.834120       -22.6976
  30   2.0000      -0.797403       -21.6984
  31   2.0000      -0.766128       -20.8474
  32   2.0000      -0.743689       -20.2368
  33   2.0000      -0.690302       -18.7841
  34   2.0000      -0.679770       -18.4975
  35   2.0000      -0.673475       -18.3262
  36   2.0000      -0.660108       -17.9624
  37   2.0000      -0.648101       -17.6357
  38   2.0000      -0.634283       -17.2597
  39   2.0000      -0.613671       -16.6988
  40   2.0000      -0.596352       -16.2276
  41   2.0000      -0.578655       -15.7460
  42   2.0000      -0.572299       -15.5730
  43   2.0000      -0.547468       -14.8974
  44   2.0000      -0.541207       -14.7270
  45   2.0000      -0.532449       -14.4887
  46   2.0000      -0.525557       -14.3011
  47   2.0000      -0.506774       -13.7900
  48   2.0000      -0.504715       -13.7340
  49   2.0000      -0.491923       -13.3859
  50   2.0000      -0.484714       -13.1897
  51   2.0000      -0.477136       -12.9835
  52   2.0000      -0.462823       -12.5941
  53   2.0000      -0.455371       -12.3913
  54   2.0000      -0.451841       -12.2952
  55   2.0000      -0.273586        -7.4446
  56   0.0000       0.018252         0.4967
  57   0.0000       0.027469         0.7475
  58   0.0000       0.029757         0.8097
  59   0.0000       0.038000         1.0340
  60   0.0000       0.043783         1.1914

MULLIKEN ATOMIC CHARGES
-----------------------
   0 C :   -0.226250
   1 C :   -0.526243
   2 C :   -0.595519
   3 H :    0.193236
   4 H :    0.265697
   5 S :    2.599515
   6 C :    1.381453
   7 C :   -1.505356
   8 N :   -0.862270
   9 H :   -0.065655
  10 H :   -0.005684
  11 H :    0.217376
  12 H :    0.502962
  13 O :   -0.945231
  14 O :   -1.024010
  15 C :   -0.641378
  16 C :   -0.456445
  17 H :    0.203518
  18 H :    0.216368
  19 C :   -0.494094
  20 H :    0.092482
  21 H :    0.321519
  22 F :   -0.559292
  23 H :    0.259270
  24 H :    0.433398
  25 H :    0.330506
  26 H :    0.300887
  27 H :    0.096199
  28 H :    0.493040
Sum of atomic charges:    0.0000000

LOEWDIN ATOMIC CHARGES
----------------------
   0 C :    0.314534
   1 C :    0.268027
   2 C :    0.220195
   3 H :   -0.179623
   4 H :   -0.195248
   5 S :    0.008917
   6 C :   -0.331338
   7 C :    0.541828
   8 N :    0.823958
   9 H :   -0.280895
  10 H :   -0.414098
  11 H :   -0.277530
  12 H :   -0.433646
  13 O :    0.186927
  14 O :    0.051872
  15 C :    0.316398
  16 C :    0.283845
  17 H :   -0.153478
  18 H :   -0.134581
  19 C :    0.287561
  20 H :   -0.141833
  21 H :   -0.145570
  22 F :    0.322996
  23 H :   -0.189297
  24 H :   -0.131847
  25 H :   -0.203602
  26 H :   -0.125304
  27 H :   -0.158142
  28 H :   -0.131025

  Mayer bond orders larger than 0.100000
B(  0-C ,  6-C ) :   0.5956 B(  0-C ,  7-C ) :  -0.1001 B(  0-C ,  8-N ) :  -0.1576
B(  0-C , 15-C ) :   0.9275 B(  0-C , 27-H ) :   1.1381 B(  0-C , 28-H ) :   0.8890
B(  1-C ,  2-C ) :   0.8863 B(  1-C , 16-C ) :   0.8979 B(  1-C , 17-H ) :   1.0504
B(  1-C , 18-H ) :   0.9991 B(  2-C ,  3-H ) :   1.0524 B(  2-C ,  4-H ) :   0.8934
B(  2-C ,  5-S ) :   0.8881 B(  2-C , 14-O ) :   0.1275 B(  2-C , 22-F ) :   0.1025
B(  4-H , 14-O ) :   0.1328 B(  5-S , 13-O ) :   1.4863 B(  5-S , 14-O ) :   0.9734
B(  5-S , 22-F ) :   0.5032 B(  6-C ,  7-C ) :   1.1787 B(  6-C ,  8-N ) :   0.2157
B(  6-C ,  9-H ) :  -0.2409 B(  6-C , 10-H ) :  -0.1076 B(  6-C , 11-H ) :  -0.1567
B(  6-C , 12-H ) :  -0.1075 B(  6-C , 15-C ) :   0.1532 B(  6-C , 28-H ) :  -0.2350
B(  7-C ,  8-N ) :  -0.1366 B(  7-C , 11-H ) :   1.3119 B(  7-C , 12-H ) :   0.7063
B(  7-C , 13-O ) :  -0.1210 B(  7-C , 19-C ) :   0.1066 B(  8-N ,  9-H ) :   1.3370
B(  8-N , 10-H ) :   1.1757 B( 15-C , 19-C ) :   0.8497 B( 15-C , 20-H ) :   1.1179
B( 15-C , 21-H ) :   0.8983 B( 15-C , 27-H ) :   0.1037 B( 16-C , 19-C ) :   0.8470
B( 16-C , 25-H ) :   0.9268 B( 16-C , 26-H ) :   0.9635 B( 17-H , 18-H ) :   0.1001
B( 19-C , 23-H ) :   1.0088 B( 19-C , 24-H ) :   0.8316

E(0)                                       ...  -1013.516673276
E(0)                                       ...  -1013.516673276
E(CORR)(strong-pairs)                      ...     -2.619132486
E(CORR)(weak-pairs)                        ...     -0.004224261
E(CORR)(corrected)                         ...     -2.623356747
E(TOT)                                     ...  -1016.140030023
E(CCSD(T))                                 ...  -1016.251716629
FINAL SINGLE POINT ENERGY     -1016.251716628944

DIPOLE MOMENT
-------------
                                X             Y             Z
Electronic contribution:     -1.91834      -5.91812     -18.89753
Nuclear contribution   :     -0.26930       7.11259      19.56706
                        -----------------------------------------
Total Dipole Moment    :     -2.18764       1.19447       0.66954
                        -----------------------------------------
Magnitude (a.u.)       :      2.58085
Magnitude (Debye)      :      6.56001

Rotational constants in cm-1:     0.036519     0.018683     0.015073
Rotational constants in MHz :  1094.801738   560.111127   451.890222

                             ****ORCA TERMINATED NORMALLY****
TOTAL RUN TIME: 0 days 4 hours 50 minutes 8 seconds 778 msec
