                         Program Version 5.0.0 -  RELEASE  -
|  1> !TPSS D3BJ RIJCOSX def2-TZVP def2/J TightSCF
|  2> *xyz -1 1
|  3> C          3.80351        1.37472       -3.26081
|  4> C          3.93993        0.32036       -4.36773
|  5> H          4.10504       -0.65508       -3.90773
|  6> H          3.02280        0.28052       -4.95712
|  7> C          5.10585        0.66802       -5.30546
|  8> O          4.80913        1.15019       -6.41436
|  9> O          6.26737        0.56500       -4.81948
| 10> H          3.64113        2.33595       -3.70189
| 11> H          4.69995        1.39701       -2.67703
| 12> H          2.97435        1.12625       -2.63180
| 13> *
| 14>
| 15> %MaxCore 64000
| 16>
| 17> %pal nprocs 4
| 18> end
| 19>
| 20> %scf
| 21>   MaxIter 150
| 22> end
| 23>
| 24>
| 25>                          ****END OF INPUT****

CARTESIAN COORDINATES (ANGSTROEM)
---------------------------------
  C      3.803510    1.374720   -3.260810
  C      3.939930    0.320360   -4.367730
  H      4.105040   -0.655080   -3.907730
  H      3.022800    0.280520   -4.957120
  C      5.105850    0.668020   -5.305460
  O      4.809130    1.150190   -6.414360
  O      6.267370    0.565000   -4.819480
  H      3.641130    2.335950   -3.701890
  H      4.699950    1.397010   -2.677030
  H      2.974350    1.126250   -2.631800

 Total Charge           Charge          ....   -1
 Multiplicity           Mult            ....    1
 Number of Electrons    NEL             ....   40
 Basis Dimension        Dim             ....  185

ORBITAL ENERGIES
----------------

  NO   OCC          E(Eh)            E(eV)
   0   2.0000     -18.607567      -506.3377
   1   2.0000     -18.604378      -506.2509
   2   2.0000      -9.846022      -267.9239
   3   2.0000      -9.817064      -267.1359
   4   2.0000      -9.801256      -266.7057
   5   2.0000      -0.739214       -20.1150
   6   2.0000      -0.651465       -17.7273
   7   2.0000      -0.542174       -14.7533
   8   2.0000      -0.415221       -11.2987
   9   2.0000      -0.267475        -7.2784
  10   2.0000      -0.244277        -6.6471
  11   2.0000      -0.208535        -5.6745
  12   2.0000      -0.178603        -4.8600
  13   2.0000      -0.164488        -4.4760
  14   2.0000      -0.156293        -4.2530
  15   2.0000      -0.125352        -3.4110
  16   2.0000      -0.113667        -3.0930
  17   2.0000      -0.001451        -0.0395
  18   2.0000       0.013009         0.3540
  19   2.0000       0.026131         0.7111
  20   0.0000       0.177151         4.8205
  21   0.0000       0.217300         5.9130
  22   0.0000       0.224973         6.1218
  23   0.0000       0.240094         6.5333
  24   0.0000       0.249044         6.7768

MULLIKEN ATOMIC CHARGES
-----------------------
   0 C :   -0.327904
   1 C :   -0.106102
   2 H :    0.016927
   3 H :    0.020421
   4 C :    0.195729
   5 O :   -0.499981
   6 O :   -0.529254
   7 H :    0.087771
   8 H :    0.089250
   9 H :    0.053143
Sum of atomic charges:   -1.0000000

LOEWDIN ATOMIC CHARGES
----------------------
   0 C :   -0.318133
   1 C :   -0.291059
   2 H :    0.110990
   3 H :    0.111165
   4 C :   -0.718996
   5 O :   -0.083507
   6 O :   -0.113110
   7 H :    0.106096
   8 H :    0.107103
   9 H :    0.089451

  Mayer bond orders larger than 0.100000
B(  0-C ,  1-C ) :   0.9960 B(  0-C ,  7-H ) :   0.9806 B(  0-C ,  8-H ) :   0.9661
B(  0-C ,  9-H ) :   0.9625 B(  1-C ,  2-H ) :   0.9322 B(  1-C ,  3-H ) :   0.9326
B(  1-C ,  4-C ) :   0.9393 B(  4-C ,  5-O ) :   1.8822 B(  4-C ,  6-O ) :   1.8313

Dispersion correction           -0.008096576
FINAL SINGLE POINT ENERGY      -267.983045729370

DIPOLE MOMENT
-------------
                                X             Y             Z
Electronic contribution:      3.85713      -0.45372      -4.60916
Nuclear contribution   :     -5.15232       0.33441       5.87398
                        -----------------------------------------
Total Dipole Moment    :     -1.29519      -0.11931       1.26481
                        -----------------------------------------
Magnitude (a.u.)       :      1.81425
Magnitude (Debye)      :      4.61146

Rotational constants in cm-1:     0.295355     0.137164     0.110193
Rotational constants in MHz :  8854.523706  4112.077980  3303.490503

                             ****ORCA TERMINATED NORMALLY****
TOTAL RUN TIME: 0 days 0 hours 0 minutes 8 seconds 697 msec
