                         Program Version 5.0.0 -  RELEASE  -
|  1> !TPSS D3BJ RIJCOSX def2-TZVP def2/J TightSCF
|  2> *xyz 1 1
|  3> C          3.90595        2.81985       -3.75292
|  4> N          5.29562        3.13151       -4.10533
|  5> C          3.80351        1.37472       -3.26081
|  6> C          5.70862        3.46889       -5.32419
|  7> N          6.90470        3.03895       -5.71708
|  8> N          4.98188        4.29357       -6.09746
|  9> H          5.00055        4.10131       -7.08776
| 10> H          4.08469        4.59690       -5.73965
| 11> H          5.96336        2.52611       -3.64239
| 12> H          7.04716        2.06686       -5.47360
| 13> H          7.19815        3.30799       -6.64523
| 14> H          3.28202        2.94919       -4.64026
| 15> H          3.56525        3.51457       -2.98252
| 16> H          4.14157        0.71142       -4.02935
| 17> H          2.78528        1.15146       -3.01944
| 18> H          4.41205        1.25066       -2.38949
| 19> *
| 20>
| 21> %MaxCore 64000
| 22>
| 23> %pal nprocs 4
| 24> end
| 25>
| 26> %scf
| 27>   MaxIter 150
| 28> end
| 29>
| 30>
| 31>                          ****END OF INPUT****

CARTESIAN COORDINATES (ANGSTROEM)
---------------------------------
  C      3.905950    2.819850   -3.752920
  N      5.295620    3.131510   -4.105330
  C      3.803510    1.374720   -3.260810
  C      5.708620    3.468890   -5.324190
  N      6.904700    3.038950   -5.717080
  N      4.981880    4.293570   -6.097460
  H      5.000550    4.101310   -7.087760
  H      4.084690    4.596900   -5.739650
  H      5.963360    2.526110   -3.642390
  H      7.047160    2.066860   -5.473600
  H      7.198150    3.307990   -6.645230
  H      3.282020    2.949190   -4.640260
  H      3.565250    3.514570   -2.982520
  H      4.141570    0.711420   -4.029350
  H      2.785280    1.151460   -3.019440
  H      4.412050    1.250660   -2.389490

 Total Charge           Charge          ....    1
 Multiplicity           Mult            ....    1
 Number of Electrons    NEL             ....   48
 Basis Dimension        Dim             ....  246

ORBITAL ENERGIES
----------------

  NO   OCC          E(Eh)            E(eV)
   0   2.0000     -14.327262      -389.8646
   1   2.0000     -14.325998      -389.8302
   2   2.0000     -14.325918      -389.8280
   3   2.0000     -10.308355      -280.5046
   4   2.0000     -10.195950      -277.4459
   5   2.0000     -10.130348      -275.6608
   6   2.0000      -1.152831       -31.3701
   7   2.0000      -1.046822       -28.4855
   8   2.0000      -1.039996       -28.2997
   9   2.0000      -0.879178       -23.9237
  10   2.0000      -0.785180       -21.3658
  11   2.0000      -0.759911       -20.6782
  12   2.0000      -0.728405       -19.8209
  13   2.0000      -0.699274       -19.0282
  14   2.0000      -0.656412       -17.8619
  15   2.0000      -0.643734       -17.5169
  16   2.0000      -0.607404       -16.5283
  17   2.0000      -0.587131       -15.9766
  18   2.0000      -0.553865       -15.0714
  19   2.0000      -0.521373       -14.1873
  20   2.0000      -0.500640       -13.6231
  21   2.0000      -0.486954       -13.2507
  22   2.0000      -0.450758       -12.2658
  23   2.0000      -0.424035       -11.5386
  24   0.0000      -0.217349        -5.9144
  25   0.0000      -0.166330        -4.5261
  26   0.0000      -0.131566        -3.5801
  27   0.0000      -0.118564        -3.2263
  28   0.0000      -0.100985        -2.7479

MULLIKEN ATOMIC CHARGES
-----------------------
   0 C :   -0.091915
   1 N :   -0.212022
   2 C :   -0.385490
   3 C :    0.340336
   4 N :   -0.367243
   5 N :   -0.385354
   6 H :    0.283628
   7 H :    0.287713
   8 H :    0.244810
   9 H :    0.281420
  10 H :    0.278719
  11 H :    0.112159
  12 H :    0.166276
  13 H :    0.131189
  14 H :    0.164577
  15 H :    0.151199
Sum of atomic charges:    1.0000000

LOEWDIN ATOMIC CHARGES
----------------------
   0 C :   -0.272858
   1 N :    0.176292
   2 C :   -0.274083
   3 C :   -0.429063
   4 N :    0.069126
   5 N :    0.072015
   6 H :    0.195167
   7 H :    0.195334
   8 H :    0.209840
   9 H :    0.199676
  10 H :    0.196330
  11 H :    0.134325
  12 H :    0.144100
  13 H :    0.120172
  14 H :    0.137428
  15 H :    0.126200

  Mayer bond orders larger than 0.100000
B(  0-C ,  1-N ) :   0.8868 B(  0-C ,  2-C ) :   1.0193 B(  0-C , 11-H ) :   0.9567
B(  0-C , 12-H ) :   0.9373 B(  1-N ,  3-C ) :   1.3979 B(  1-N ,  8-H ) :   0.8967
B(  2-C , 13-H ) :   0.9652 B(  2-C , 14-H ) :   0.9524 B(  2-C , 15-H ) :   0.9605
B(  3-C ,  4-N ) :   1.3222 B(  3-C ,  5-N ) :   1.3312 B(  4-N ,  9-H ) :   0.8851
B(  4-N , 10-H ) :   0.8904 B(  5-N ,  6-H ) :   0.8830 B(  5-N ,  7-H ) :   0.8888

Dispersion correction           -0.015036237
FINAL SINGLE POINT ENERGY      -284.550036355067

DIPOLE MOMENT
-------------
                                X             Y             Z
Electronic contribution:      3.51464       3.40629      -2.64898
Nuclear contribution   :     -3.31456      -3.64300       1.57303
                        -----------------------------------------
Total Dipole Moment    :      0.20007      -0.23671      -1.07595
                        -----------------------------------------
Magnitude (a.u.)       :      1.11970
Magnitude (Debye)      :      2.84605

Rotational constants in cm-1:     0.229487     0.071000     0.059428
Rotational constants in MHz :  6879.840828  2128.520047  1781.605314

                             ****ORCA TERMINATED NORMALLY****
TOTAL RUN TIME: 0 days 0 hours 0 minutes 14 seconds 782 msec
