                         Program Version 5.0.0 -  RELEASE  -
|  1> !TPSS D3BJ RIJCOSX def2-TZVP def2/J TightSCF xyzfile
|  2>
|  3> *xyzfile 0 1 B.xyz
|  4>
|  5> %MaxCore 64000
|  6>
|  7> %pal nprocs 18
|  8> end
|  9>
| 10> %scf
| 11>   MaxIter 150
| 12> end
| 13>
| 14>
| 15>                          ****END OF INPUT****

CARTESIAN COORDINATES (ANGSTROEM)
---------------------------------
  C      3.905947    2.819855   -3.752920
  N      5.295615    3.131515   -4.105334
  C      3.803511    1.374716   -3.260807
  C      3.939934    0.320362   -4.367729
  H      4.105043   -0.655085   -3.907733
  H      3.022801    0.280517   -4.957117
  C      5.105846    0.668022   -5.305463
  C      5.708619    3.468885   -5.324190
  N      6.904696    3.038954   -5.717084
  N      4.981884    4.293570   -6.097457
  H      5.000546    4.101311   -7.087761
  H      4.084693    4.596899   -5.739652
  H      5.963358    2.526112   -3.642391
  H      7.047164    2.066861   -5.473604
  H      7.198145    3.307994   -6.645225
  H      3.282025    2.949187   -4.640259
  H      3.565254    3.514574   -2.982523
  H      4.574833    1.215157   -2.500443
  H      2.843514    1.260845   -2.751465
  O      4.809132    1.150187   -6.414361
  O      6.267366    0.564999   -4.819481

 Total Charge           Charge          ....    0
 Multiplicity           Mult            ....    1
 Number of Electrons    NEL             ....   78
 Basis Dimension        Dim             ....  376

ORBITAL ENERGIES
----------------

  NO   OCC          E(Eh)            E(eV)
   0   2.0000     -18.798716      -511.5391
   1   2.0000     -18.793699      -511.4025
   2   2.0000     -14.163041      -385.3960
   3   2.0000     -14.154327      -385.1588
   4   2.0000     -14.132996      -384.5784
   5   2.0000     -10.135935      -275.8128
   6   2.0000     -10.045301      -273.3465
   7   2.0000     -10.030280      -272.9378
   8   2.0000      -9.995583      -271.9936
   9   2.0000      -9.961761      -271.0733
  10   2.0000      -0.980329       -26.6761
  11   2.0000      -0.930241       -25.3131
  12   2.0000      -0.879801       -23.9406
  13   2.0000      -0.862063       -23.4579
  14   2.0000      -0.842666       -22.9301
  15   2.0000      -0.737296       -20.0628
  16   2.0000      -0.658420       -17.9165
  17   2.0000      -0.606688       -16.5088
  18   2.0000      -0.573118       -15.5953
  19   2.0000      -0.557195       -15.1620
  20   2.0000      -0.526938       -14.3387
  21   2.0000      -0.488282       -13.2868
  22   2.0000      -0.469636       -12.7794
  23   2.0000      -0.451823       -12.2947
  24   2.0000      -0.435841       -11.8598
  25   2.0000      -0.426812       -11.6141
  26   2.0000      -0.386231       -10.5099
  27   2.0000      -0.378533       -10.3004
  28   2.0000      -0.366351        -9.9689
  29   2.0000      -0.344682        -9.3793
  30   2.0000      -0.336834        -9.1657
  31   2.0000      -0.329911        -8.9773
  32   2.0000      -0.300054        -8.1649
  33   2.0000      -0.295607        -8.0439
  34   2.0000      -0.276030        -7.5112
  35   2.0000      -0.254249        -6.9185
  36   2.0000      -0.194318        -5.2877
  37   2.0000      -0.173954        -4.7335
  38   2.0000      -0.161614        -4.3977
  39   0.0000      -0.043642        -1.1876
  40   0.0000      -0.006636        -0.1806
  41   0.0000       0.018382         0.5002
  42   0.0000       0.031966         0.8698
  43   0.0000       0.040825         1.1109

MULLIKEN ATOMIC CHARGES
-----------------------
   0 C :   -0.071762
   1 N :   -0.230529
   2 C :   -0.260263
   3 C :   -0.104878
   4 H :    0.084964
   5 H :    0.070068
   6 C :    0.224608
   7 C :    0.287470
   8 N :   -0.326423
   9 N :   -0.423421
  10 H :    0.272788
  11 H :    0.255076
  12 H :    0.253540
  13 H :    0.271254
  14 H :    0.230159
  15 H :    0.098077
  16 H :    0.119981
  17 H :    0.111544
  18 H :    0.099412
  19 O :   -0.438095
  20 O :   -0.523569
Sum of atomic charges:   -0.0000000

LOEWDIN ATOMIC CHARGES
----------------------
   0 C :   -0.262028
   1 N :    0.168386
   2 C :   -0.261071
   3 C :   -0.239764
   4 H :    0.137391
   5 H :    0.133343
   6 C :   -0.687332
   7 C :   -0.445996
   8 N :    0.061508
   9 N :    0.038450
  10 H :    0.185730
  11 H :    0.178618
  12 H :    0.206263
  13 H :    0.170103
  14 H :    0.174779
  15 H :    0.136396
  16 H :    0.127349
  17 H :    0.138837
  18 H :    0.136925
  19 O :   -0.027721
  20 O :   -0.070166

  Mayer bond orders larger than 0.100000
B(  0-C ,  1-N ) :   0.9426 B(  0-C ,  2-C ) :   1.0191 B(  0-C , 15-H ) :   0.9521
B(  0-C , 16-H ) :   0.9460 B(  1-N ,  7-C ) :   1.3658 B(  1-N , 12-H ) :   0.8785
B(  2-C ,  3-C ) :   1.0232 B(  2-C , 17-H ) :   0.9519 B(  2-C , 18-H ) :   0.9362
B(  3-C ,  4-H ) :   0.9217 B(  3-C ,  5-H ) :   0.9403 B(  3-C ,  6-C ) :   0.9722
B(  6-C , 19-O ) :   1.8233 B(  6-C , 20-O ) :   1.6563 B(  7-C ,  8-N ) :   1.4030
B(  7-C ,  9-N ) :   1.2635 B(  7-C , 19-O ) :   0.1643 B(  8-N , 13-H ) :   0.7907
B(  8-N , 14-H ) :   0.9112 B(  9-N , 10-H ) :   0.8991 B(  9-N , 11-H ) :   0.9065
B( 13-H , 20-O ) :   0.1717

Dispersion correction           -0.028578635
FINAL SINGLE POINT ENERGY      -512.175551839408

DIPOLE MOMENT
-------------
                                X             Y             Z
Electronic contribution:      4.23088       0.36981      -3.49245
Nuclear contribution   :     -4.94498       2.03334       3.78956
                        -----------------------------------------
Total Dipole Moment    :     -0.71410       2.40315       0.29711
                        -----------------------------------------
Magnitude (a.u.)       :      2.52455
Magnitude (Debye)      :      6.41689

Rotational constants in cm-1:     0.062533     0.042832     0.033687
Rotational constants in MHz :  1874.701390  1284.063603  1009.911042

                             ****ORCA TERMINATED NORMALLY****
TOTAL RUN TIME: 0 days 0 hours 0 minutes 16 seconds 175 msec
