                         Program Version 5.0.0 -  RELEASE  -
|  1> !TPSS D3BJ RIJCOSX def2-TZVP def2/J TightSCF
|  2> *xyz 0 1
|  3> C          3.80351        1.37472       -3.26081
|  4> C          3.93993        0.32036       -4.36773
|  5> H          4.10504       -0.65508       -3.90773
|  6> H          3.02280        0.28052       -4.95712
|  7> C          5.10585        0.66802       -5.30546
|  8> F          4.80913        1.15019       -6.41436
|  9> O          6.26737        0.56500       -4.81948
| 10> H          3.64113        2.33595       -3.70189
| 11> H          4.69995        1.39701       -2.67703
| 12> H          2.97435        1.12625       -2.63180
| 13> *
| 14>
| 15> %MaxCore 64000
| 16>
| 17> %pal nprocs 4
| 18> end
| 19>
| 20> %scf
| 21>   MaxIter 150
| 22> end
| 23>
| 24>
| 25>                          ****END OF INPUT****

CARTESIAN COORDINATES (ANGSTROEM)
---------------------------------
  C      3.803510    1.374720   -3.260810
  C      3.939930    0.320360   -4.367730
  H      4.105040   -0.655080   -3.907730
  H      3.022800    0.280520   -4.957120
  C      5.105850    0.668020   -5.305460
  F      4.809130    1.150190   -6.414360
  O      6.267370    0.565000   -4.819480
  H      3.641130    2.335950   -3.701890
  H      4.699950    1.397010   -2.677030
  H      2.974350    1.126250   -2.631800

 Total Charge           Charge          ....    0
 Multiplicity           Mult            ....    1
 Number of Electrons    NEL             ....   40
 Basis Dimension        Dim             ....  185

ORBITAL ENERGIES
----------------

  NO   OCC          E(Eh)            E(eV)
   0   2.0000     -24.480080      -666.1369
   1   2.0000     -18.883471      -513.8454
   2   2.0000     -10.149802      -276.1902
   3   2.0000     -10.014629      -272.5119
   4   2.0000      -9.991586      -271.8849
   5   2.0000      -1.244922       -33.8761
   6   2.0000      -0.956567       -26.0295
   7   2.0000      -0.742253       -20.1977
   8   2.0000      -0.633841       -17.2477
   9   2.0000      -0.586547       -15.9607
  10   2.0000      -0.496289       -13.5047
  11   2.0000      -0.481800       -13.1105
  12   2.0000      -0.456274       -12.4159
  13   2.0000      -0.421925       -11.4812
  14   2.0000      -0.390140       -10.6163
  15   2.0000      -0.357385        -9.7249
  16   2.0000      -0.339095        -9.2272
  17   2.0000      -0.333051        -9.0628
  18   2.0000      -0.305442        -8.3115
  19   2.0000      -0.243080        -6.6145
  20   0.0000      -0.060319        -1.6414
  21   0.0000       0.024119         0.6563
  22   0.0000       0.063848         1.7374
  23   0.0000       0.075790         2.0624
  24   0.0000       0.088725         2.4143

MULLIKEN ATOMIC CHARGES
-----------------------
   0 C :   -0.351680
   1 C :   -0.173829
   2 H :    0.119583
   3 H :    0.096369
   4 C :    0.319365
   5 F :   -0.067507
   6 O :   -0.318022
   7 H :    0.115137
   8 H :    0.137591
   9 H :    0.122993
Sum of atomic charges:    0.0000000

LOEWDIN ATOMIC CHARGES
----------------------
   0 C :   -0.279203
   1 C :   -0.255040
   2 H :    0.148148
   3 H :    0.133873
   4 C :   -0.521887
   5 F :    0.351674
   6 O :    0.065564
   7 H :    0.116936
   8 H :    0.122550
   9 H :    0.117385

  Mayer bond orders larger than 0.100000
B(  0-C ,  1-C ) :   1.0027 B(  0-C ,  7-H ) :   0.9701 B(  0-C ,  8-H ) :   0.9663
B(  0-C ,  9-H ) :   0.9619 B(  1-C ,  2-H ) :   0.9377 B(  1-C ,  3-H ) :   0.9406
B(  1-C ,  4-C ) :   1.0077 B(  4-C ,  5-F ) :   1.1869 B(  4-C ,  6-O ) :   2.0453

Dispersion correction           -0.007667177
FINAL SINGLE POINT ENERGY      -292.553657465308

DIPOLE MOMENT
-------------
                                X             Y             Z
Electronic contribution:      4.05157       0.00302      -7.45336
Nuclear contribution   :     -5.17129      -0.01923       7.59895
                        -----------------------------------------
Total Dipole Moment    :     -1.11973      -0.01621       0.14558
                        -----------------------------------------
Magnitude (a.u.)       :      1.12927
Magnitude (Debye)      :      2.87037

Rotational constants in cm-1:     0.282073     0.131822     0.105134
Rotational constants in MHz :  8456.328792  3951.925810  3151.840112

                             ****ORCA TERMINATED NORMALLY****
TOTAL RUN TIME: 0 days 0 hours 0 minutes 10 seconds 583 msec
