                         Program Version 5.0.0 -  RELEASE  -
|  1> !TPSS D3BJ RIJCOSX def2-TZVP def2/J TightSCF
|  2> *xyz 0 1
|  3> C          3.90595        2.81985       -3.75292
|  4> C          5.29562        3.13151       -4.10533
|  5> C          3.80351        1.37472       -3.26081
|  6> C          5.70862        3.46889       -5.32419
|  7> N          6.90470        3.03895       -5.71708
|  8> N          4.98188        4.29357       -6.09746
|  9> H          5.00055        4.10131       -7.08776
| 10> H          4.08469        4.59690       -5.73965
| 11> H          5.96336        2.52611       -3.64239
| 12> H          7.04716        2.06686       -5.47360
| 13> H          7.19815        3.30799       -6.64523
| 14> H          3.28202        2.94919       -4.64026
| 15> H          3.56525        3.51457       -2.98252
| 16> H          4.14157        0.71142       -4.02935
| 17> H          2.78528        1.15146       -3.01944
| 18> H          4.41205        1.25066       -2.38949
| 19> *
| 20>
| 21> %MaxCore 64000
| 22>
| 23> %pal nprocs 4
| 24> end
| 25>
| 26> %scf
| 27>   MaxIter 150
| 28> end
| 29>
| 30>
| 31>                          ****END OF INPUT****

CARTESIAN COORDINATES (ANGSTROEM)
---------------------------------
  C      3.905950    2.819850   -3.752920
  C      5.295620    3.131510   -4.105330
  C      3.803510    1.374720   -3.260810
  C      5.708620    3.468890   -5.324190
  N      6.904700    3.038950   -5.717080
  N      4.981880    4.293570   -6.097460
  H      5.000550    4.101310   -7.087760
  H      4.084690    4.596900   -5.739650
  H      5.963360    2.526110   -3.642390
  H      7.047160    2.066860   -5.473600
  H      7.198150    3.307990   -6.645230
  H      3.282020    2.949190   -4.640260
  H      3.565250    3.514570   -2.982520
  H      4.141570    0.711420   -4.029350
  H      2.785280    1.151460   -3.019440
  H      4.412050    1.250660   -2.389490

 Total Charge           Charge          ....    0
 Multiplicity           Mult            ....    1
 Number of Electrons    NEL             ....   48
 Basis Dimension        Dim             ....  246

ORBITAL ENERGIES
----------------

  NO   OCC          E(Eh)            E(eV)
   0   2.0000     -14.103731      -383.7820
   1   2.0000     -14.100975      -383.7070
   2   2.0000     -10.018250      -272.6104
   3   2.0000      -9.961643      -271.0701
   4   2.0000      -9.954993      -270.8891
   5   2.0000      -9.907841      -269.6061
   6   2.0000      -0.899434       -24.4749
   7   2.0000      -0.817071       -22.2336
   8   2.0000      -0.718012       -19.5381
   9   2.0000      -0.640476       -17.4283
  10   2.0000      -0.563490       -15.3333
  11   2.0000      -0.527594       -14.3565
  12   2.0000      -0.488414       -13.2904
  13   2.0000      -0.465445       -12.6654
  14   2.0000      -0.432800       -11.7771
  15   2.0000      -0.403154       -10.9704
  16   2.0000      -0.378758       -10.3065
  17   2.0000      -0.347548        -9.4573
  18   2.0000      -0.328266        -8.9326
  19   2.0000      -0.311375        -8.4729
  20   2.0000      -0.290150        -7.8954
  21   2.0000      -0.285346        -7.7647
  22   2.0000      -0.233295        -6.3483
  23   2.0000      -0.139514        -3.7964
  24   0.0000       0.005026         0.1368
  25   0.0000       0.032747         0.8911
  26   0.0000       0.047239         1.2854
  27   0.0000       0.049668         1.3515
  28   0.0000       0.069330         1.8866

MULLIKEN ATOMIC CHARGES
-----------------------
   0 C :   -0.100569
   1 C :   -0.298212
   2 C :   -0.352013
   3 C :    0.272238
   4 N :   -0.463618
   5 N :   -0.466678
   6 H :    0.206848
   7 H :    0.243143
   8 H :    0.066698
   9 H :    0.249180
  10 H :    0.210635
  11 H :    0.038277
  12 H :    0.083045
  13 H :    0.097170
  14 H :    0.102692
  15 H :    0.111165
Sum of atomic charges:    0.0000000

LOEWDIN ATOMIC CHARGES
----------------------
   0 C :   -0.302358
   1 C :   -0.269808
   2 C :   -0.294525
   3 C :   -0.478640
   4 N :   -0.008940
   5 N :   -0.012209
   6 H :    0.152428
   7 H :    0.173250
   8 H :    0.123917
   9 H :    0.179071
  10 H :    0.158145
  11 H :    0.121753
  12 H :    0.126413
  13 H :    0.109569
  14 H :    0.108395
  15 H :    0.113537

  Mayer bond orders larger than 0.100000
B(  0-C ,  1-C ) :   1.0096 B(  0-C ,  2-C ) :   0.9964 B(  0-C , 11-H ) :   0.9451
B(  0-C , 12-H ) :   0.9480 B(  1-C ,  3-C ) :   1.6809 B(  1-C ,  8-H ) :   1.0158
B(  2-C , 13-H ) :   0.9761 B(  2-C , 14-H ) :   0.9668 B(  2-C , 15-H ) :   0.9746
B(  3-C ,  4-N ) :   1.1214 B(  3-C ,  5-N ) :   1.1498 B(  4-N ,  9-H ) :   0.9109
B(  4-N , 10-H ) :   0.9225 B(  5-N ,  6-H ) :   0.9053 B(  5-N ,  7-H ) :   0.9150

Dispersion correction           -0.015654278
FINAL SINGLE POINT ENERGY      -268.060900435987

DIPOLE MOMENT
-------------
                                X             Y             Z
Electronic contribution:      3.21704       3.27736      -2.87124
Nuclear contribution   :     -3.27358      -3.61654       1.70633
                        -----------------------------------------
Total Dipole Moment    :     -0.05654      -0.33919      -1.16491
                        -----------------------------------------
Magnitude (a.u.)       :      1.21460
Magnitude (Debye)      :      3.08727

Rotational constants in cm-1:     0.231961     0.071249     0.059473
Rotational constants in MHz :  6954.024434  2135.976855  1782.962814

                             ****ORCA TERMINATED NORMALLY****
TOTAL RUN TIME: 0 days 0 hours 0 minutes 17 seconds 538 msec
