                         Program Version 5.0.0 -  RELEASE  -
|  1> !TPSS D3BJ RIJCOSX def2-TZVP def2/J TightSCF
|  2> *xyz 0 1
|  3> C          3.80351        1.37472       -3.26081
|  4> C          3.93993        0.32036       -4.36773
|  5> H          4.10504       -0.65508       -3.90773
|  6> H          3.02280        0.28052       -4.95712
|  7> C          5.10585        0.66802       -5.30546
|  8> O          4.80913        1.15019       -6.41436
|  9> F          6.26737        0.56500       -4.81948
| 10> H          3.64113        2.33595       -3.70189
| 11> H          4.69995        1.39701       -2.67703
| 12> H          2.97435        1.12625       -2.63180
| 13> *
| 14>
| 15> %MaxCore 64000
| 16>
| 17> %pal nprocs 4
| 18> end
| 19>
| 20> %scf
| 21>   MaxIter 150
| 22> end
| 23>
| 24>
| 25>                          ****END OF INPUT****

CARTESIAN COORDINATES (ANGSTROEM)
---------------------------------
  C      3.803510    1.374720   -3.260810
  C      3.939930    0.320360   -4.367730
  H      4.105040   -0.655080   -3.907730
  H      3.022800    0.280520   -4.957120
  C      5.105850    0.668020   -5.305460
  O      4.809130    1.150190   -6.414360
  F      6.267370    0.565000   -4.819480
  H      3.641130    2.335950   -3.701890
  H      4.699950    1.397010   -2.677030
  H      2.974350    1.126250   -2.631800

 Total Charge           Charge          ....    0
 Multiplicity           Mult            ....    1
 Number of Electrons    NEL             ....   40
 Basis Dimension        Dim             ....  185

ORBITAL ENERGIES
----------------

  NO   OCC          E(Eh)            E(eV)
   0   2.0000     -24.473312      -665.9527
   1   2.0000     -18.885998      -513.9141
   2   2.0000     -10.147919      -276.1389
   3   2.0000     -10.014256      -272.5018
   4   2.0000      -9.994174      -271.9553
   5   2.0000      -1.231696       -33.5162
   6   2.0000      -0.967080       -26.3156
   7   2.0000      -0.744123       -20.2486
   8   2.0000      -0.629459       -17.1285
   9   2.0000      -0.584325       -15.9003
  10   2.0000      -0.491657       -13.3787
  11   2.0000      -0.477171       -12.9845
  12   2.0000      -0.452973       -12.3260
  13   2.0000      -0.421126       -11.4594
  14   2.0000      -0.391451       -10.6519
  15   2.0000      -0.359414        -9.7802
  16   2.0000      -0.342845        -9.3293
  17   2.0000      -0.335227        -9.1220
  18   2.0000      -0.313778        -8.5383
  19   2.0000      -0.244128        -6.6431
  20   0.0000      -0.056519        -1.5380
  21   0.0000       0.021922         0.5965
  22   0.0000       0.063226         1.7205
  23   0.0000       0.078046         2.1237
  24   0.0000       0.094218         2.5638

MULLIKEN ATOMIC CHARGES
-----------------------
   0 C :   -0.356472
   1 C :   -0.172455
   2 H :    0.102420
   3 H :    0.122082
   4 C :    0.310350
   5 O :   -0.295240
   6 F :   -0.085439
   7 H :    0.128534
   8 H :    0.120313
   9 H :    0.125908
Sum of atomic charges:    0.0000000

LOEWDIN ATOMIC CHARGES
----------------------
   0 C :   -0.283093
   1 C :   -0.252114
   2 H :    0.138420
   3 H :    0.147253
   4 C :   -0.519421
   5 O :    0.089832
   6 F :    0.323167
   7 H :    0.120261
   8 H :    0.117075
   9 H :    0.118620

  Mayer bond orders larger than 0.100000
B(  0-C ,  1-C ) :   0.9941 B(  0-C ,  7-H ) :   0.9693 B(  0-C ,  8-H ) :   0.9691
B(  0-C ,  9-H ) :   0.9615 B(  1-C ,  2-H ) :   0.9295 B(  1-C ,  3-H ) :   0.9496
B(  1-C ,  4-C ) :   1.0222 B(  4-C ,  5-O ) :   2.0780 B(  4-C ,  6-F ) :   1.1595

Dispersion correction           -0.007641660
FINAL SINGLE POINT ENERGY      -292.558831279288

DIPOLE MOMENT
-------------
                                X             Y             Z
Electronic contribution:      6.43929      -0.96529      -4.81239
Nuclear contribution   :     -6.76123       0.61881       5.86003
                        -----------------------------------------
Total Dipole Moment    :     -0.32194      -0.34648       1.04764
                        -----------------------------------------
Magnitude (a.u.)       :      1.14945
Magnitude (Debye)      :      2.92167

Rotational constants in cm-1:     0.275298     0.134631     0.105723
Rotational constants in MHz :  8253.224169  4036.137572  3169.487264

                             ****ORCA TERMINATED NORMALLY****
TOTAL RUN TIME: 0 days 0 hours 0 minutes 10 seconds 461 msec
