                         Program Version 5.0.0 -  RELEASE  -
|  1> !TPSS D3BJ RIJCOSX def2-TZVP def2/J TightSCF
|  2> *xyz 0 1
|  3> C          3.90595        2.81985       -3.75292
|  4> N          5.29562        3.13151       -4.10533
|  5> C          3.80351        1.37472       -3.26081
|  6> C          5.70862        3.46889       -5.32419
|  7> C          6.90470        3.03895       -5.71708
|  8> N          4.98188        4.29357       -6.09746
|  9> H          5.00055        4.10131       -7.08776
| 10> H          4.08469        4.59690       -5.73965
| 11> H          5.96336        2.52611       -3.64239
| 12> H          7.04716        2.06686       -5.47360
| 13> H          7.19815        3.30799       -6.64523
| 14> H          3.28202        2.94919       -4.64026
| 15> H          3.56525        3.51457       -2.98252
| 16> H          4.14157        0.71142       -4.02935
| 17> H          2.78528        1.15146       -3.01944
| 18> H          4.41205        1.25066       -2.38949
| 19> *
| 20>
| 21> %MaxCore 64000
| 22>
| 23> %pal nprocs 4
| 24> end
| 25>
| 26> %scf
| 27>   MaxIter 150
| 28> end
| 29>
| 30>
| 31>                          ****END OF INPUT****

CARTESIAN COORDINATES (ANGSTROEM)
---------------------------------
  C      3.905950    2.819850   -3.752920
  N      5.295620    3.131510   -4.105330
  C      3.803510    1.374720   -3.260810
  C      5.708620    3.468890   -5.324190
  C      6.904700    3.038950   -5.717080
  N      4.981880    4.293570   -6.097460
  H      5.000550    4.101310   -7.087760
  H      4.084690    4.596900   -5.739650
  H      5.963360    2.526110   -3.642390
  H      7.047160    2.066860   -5.473600
  H      7.198150    3.307990   -6.645230
  H      3.282020    2.949190   -4.640260
  H      3.565250    3.514570   -2.982520
  H      4.141570    0.711420   -4.029350
  H      2.785280    1.151460   -3.019440
  H      4.412050    1.250660   -2.389490

 Total Charge           Charge          ....    0
 Multiplicity           Mult            ....    1
 Number of Electrons    NEL             ....   48
 Basis Dimension        Dim             ....  246

ORBITAL ENERGIES
----------------

  NO   OCC          E(Eh)            E(eV)
   0   2.0000     -14.103747      -383.7825
   1   2.0000     -14.101754      -383.7282
   2   2.0000     -10.024716      -272.7864
   3   2.0000     -10.022272      -272.7199
   4   2.0000      -9.984804      -271.7003
   5   2.0000      -9.895287      -269.2644
   6   2.0000      -0.903769       -24.5928
   7   2.0000      -0.827462       -22.5164
   8   2.0000      -0.717631       -19.5277
   9   2.0000      -0.651663       -17.7326
  10   2.0000      -0.582052       -15.8384
  11   2.0000      -0.547438       -14.8966
  12   2.0000      -0.487090       -13.2544
  13   2.0000      -0.451152       -12.2765
  14   2.0000      -0.440897       -11.9974
  15   2.0000      -0.411409       -11.1950
  16   2.0000      -0.382667       -10.4129
  17   2.0000      -0.360487        -9.8094
  18   2.0000      -0.341857        -9.3024
  19   2.0000      -0.336285        -9.1508
  20   2.0000      -0.333058        -9.0630
  21   2.0000      -0.298568        -8.1244
  22   2.0000      -0.222115        -6.0441
  23   2.0000      -0.143013        -3.8916
  24   0.0000       0.010833         0.2948
  25   0.0000       0.027414         0.7460
  26   0.0000       0.039812         1.0833
  27   0.0000       0.052418         1.4264
  28   0.0000       0.069627         1.8946

MULLIKEN ATOMIC CHARGES
-----------------------
   0 C :   -0.051371
   1 N :   -0.268085
   2 C :   -0.382237
   3 C :    0.288615
   4 C :   -0.500224
   5 N :   -0.467485
   6 H :    0.248067
   7 H :    0.218539
   8 H :    0.213252
   9 H :    0.088064
  10 H :    0.070761
  11 H :    0.074278
  12 H :    0.106248
  13 H :    0.127667
  14 H :    0.114269
  15 H :    0.119642
Sum of atomic charges:   -0.0000000

LOEWDIN ATOMIC CHARGES
----------------------
   0 C :   -0.302639
   1 N :    0.119554
   2 C :   -0.299746
   3 C :   -0.478088
   4 C :   -0.347625
   5 N :   -0.004218
   6 H :    0.173347
   7 H :    0.157920
   8 H :    0.194706
   9 H :    0.101176
  10 H :    0.094475
  11 H :    0.121979
  12 H :    0.121228
  13 H :    0.116924
  14 H :    0.116357
  15 H :    0.114652

  Mayer bond orders larger than 0.100000
B(  0-C ,  1-N ) :   0.9545 B(  0-C ,  2-C ) :   1.0170 B(  0-C , 11-H ) :   0.9533
B(  0-C , 12-H ) :   0.9523 B(  1-N ,  3-C ) :   1.2361 B(  1-N ,  8-H ) :   0.9160
B(  2-C , 13-H ) :   0.9721 B(  2-C , 14-H ) :   0.9636 B(  2-C , 15-H ) :   0.9692
B(  3-C ,  4-C ) :   1.6598 B(  3-C ,  5-N ) :   1.1166 B(  4-C ,  9-H ) :   0.9784
B(  4-C , 10-H ) :   1.0072 B(  5-N ,  6-H ) :   0.9122 B(  5-N ,  7-H ) :   0.9216

Dispersion correction           -0.015520045
FINAL SINGLE POINT ENERGY      -268.052428538733

DIPOLE MOMENT
-------------
                                X             Y             Z
Electronic contribution:      1.52067       3.27181      -1.27748
Nuclear contribution   :     -2.93222      -3.63618       1.36440
                        -----------------------------------------
Total Dipole Moment    :     -1.41154      -0.36437       0.08693
                        -----------------------------------------
Magnitude (a.u.)       :      1.46040
Magnitude (Debye)      :      3.71205

Rotational constants in cm-1:     0.237993     0.072843     0.061284
Rotational constants in MHz :  7134.860770  2183.763760  1837.240960

                             ****ORCA TERMINATED NORMALLY****
TOTAL RUN TIME: 0 days 0 hours 0 minutes 17 seconds 542 msec
