                         Program Version 5.0.0 -  RELEASE  -
|  1> !TPSS D3BJ RIJCOSX def2-TZVP def2/J TightSCF
|  2> *xyz 0 1
|  3> C          3.90595        2.81985       -3.75292
|  4> N          5.29562        3.13151       -4.10533
|  5> C          3.80351        1.37472       -3.26081
|  6> C          5.70862        3.46889       -5.32419
|  7> N          6.90470        3.03895       -5.71708
|  8> C          4.98188        4.29357       -6.09746
|  9> H          5.00055        4.10131       -7.08776
| 10> H          4.08469        4.59690       -5.73965
| 11> H          5.96336        2.52611       -3.64239
| 12> H          7.04716        2.06686       -5.47360
| 13> H          7.19815        3.30799       -6.64523
| 14> H          3.28202        2.94919       -4.64026
| 15> H          3.56525        3.51457       -2.98252
| 16> H          4.14157        0.71142       -4.02935
| 17> H          2.78528        1.15146       -3.01944
| 18> H          4.41205        1.25066       -2.38949
| 19> *
| 20>
| 21> %MaxCore 64000
| 22>
| 23> %pal nprocs 4
| 24> end
| 25>
| 26> %scf
| 27>   MaxIter 150
| 28> end
| 29>
| 30>
| 31>                          ****END OF INPUT****

CARTESIAN COORDINATES (ANGSTROEM)
---------------------------------
  C      3.905950    2.819850   -3.752920
  N      5.295620    3.131510   -4.105330
  C      3.803510    1.374720   -3.260810
  C      5.708620    3.468890   -5.324190
  N      6.904700    3.038950   -5.717080
  C      4.981880    4.293570   -6.097460
  H      5.000550    4.101310   -7.087760
  H      4.084690    4.596900   -5.739650
  H      5.963360    2.526110   -3.642390
  H      7.047160    2.066860   -5.473600
  H      7.198150    3.307990   -6.645230
  H      3.282020    2.949190   -4.640260
  H      3.565250    3.514570   -2.982520
  H      4.141570    0.711420   -4.029350
  H      2.785280    1.151460   -3.019440
  H      4.412050    1.250660   -2.389490

 Total Charge           Charge          ....    0
 Multiplicity           Mult            ....    1
 Number of Electrons    NEL             ....   48
 Basis Dimension        Dim             ....  246

ORBITAL ENERGIES
----------------

  NO   OCC          E(Eh)            E(eV)
   0   2.0000     -14.103908      -383.7868
   1   2.0000     -14.102590      -383.7510
   2   2.0000     -10.021381      -272.6957
   3   2.0000     -10.019458      -272.6433
   4   2.0000      -9.982762      -271.6448
   5   2.0000      -9.900692      -269.4115
   6   2.0000      -0.908570       -24.7234
   7   2.0000      -0.828933       -22.5564
   8   2.0000      -0.707832       -19.2611
   9   2.0000      -0.652332       -17.7509
  10   2.0000      -0.594570       -16.1791
  11   2.0000      -0.520171       -14.1546
  12   2.0000      -0.489127       -13.3098
  13   2.0000      -0.472786       -12.8652
  14   2.0000      -0.428732       -11.6664
  15   2.0000      -0.416045       -11.3212
  16   2.0000      -0.364910        -9.9297
  17   2.0000      -0.362454        -9.8629
  18   2.0000      -0.351075        -9.5532
  19   2.0000      -0.336332        -9.1521
  20   2.0000      -0.325961        -8.8698
  21   2.0000      -0.300270        -8.1708
  22   2.0000      -0.219842        -5.9822
  23   2.0000      -0.146761        -3.9936
  24   0.0000       0.008396         0.2285
  25   0.0000       0.032544         0.8856
  26   0.0000       0.041213         1.1215
  27   0.0000       0.054917         1.4944
  28   0.0000       0.070218         1.9107

MULLIKEN ATOMIC CHARGES
-----------------------
   0 C :   -0.027933
   1 N :   -0.285076
   2 C :   -0.380653
   3 C :    0.289191
   4 N :   -0.457932
   5 C :   -0.498544
   6 H :    0.096973
   7 H :    0.083153
   8 H :    0.177860
   9 H :    0.206086
  10 H :    0.241150
  11 H :    0.101965
  12 H :    0.103827
  13 H :    0.117795
  14 H :    0.116203
  15 H :    0.115935
Sum of atomic charges:    0.0000000

LOEWDIN ATOMIC CHARGES
----------------------
   0 C :   -0.287048
   1 N :    0.121798
   2 C :   -0.302879
   3 C :   -0.487387
   4 N :   -0.010129
   5 C :   -0.333511
   6 H :    0.096013
   7 H :    0.095926
   8 H :    0.176241
   9 H :    0.156481
  10 H :    0.175012
  11 H :    0.132909
  12 H :    0.123497
  13 H :    0.113308
  14 H :    0.117296
  15 H :    0.112473

  Mayer bond orders larger than 0.100000
B(  0-C ,  1-N ) :   0.9525 B(  0-C ,  2-C ) :   1.0115 B(  0-C , 11-H ) :   0.9492
B(  0-C , 12-H ) :   0.9549 B(  1-N ,  3-C ) :   1.1806 B(  1-N ,  8-H ) :   0.9253
B(  2-C , 13-H ) :   0.9734 B(  2-C , 14-H ) :   0.9639 B(  2-C , 15-H ) :   0.9694
B(  3-C ,  4-N ) :   1.1468 B(  3-C ,  5-C ) :   1.6183 B(  4-N ,  9-H ) :   0.9076
B(  4-N , 10-H ) :   0.9146 B(  5-C ,  6-H ) :   0.9670 B(  5-C ,  7-H ) :   0.9972

Dispersion correction           -0.015559525
FINAL SINGLE POINT ENERGY      -268.056788969080

DIPOLE MOMENT
-------------
                                X             Y             Z
Electronic contribution:      3.41643       2.07990      -0.97532
Nuclear contribution   :     -3.34013      -3.37002       1.28371
                        -----------------------------------------
Total Dipole Moment    :      0.07630      -1.29012       0.30839
                        -----------------------------------------
Magnitude (a.u.)       :      1.32866
Magnitude (Debye)      :      3.37718

Rotational constants in cm-1:     0.239537     0.072280     0.060961
Rotational constants in MHz :  7181.153552  2166.902802  1827.551447

                             ****ORCA TERMINATED NORMALLY****
TOTAL RUN TIME: 0 days 0 hours 0 minutes 17 seconds 421 msec
