                         Program Version 5.0.0 -  RELEASE  -
|  1> !TPSS D3BJ RIJCOSX def2-TZVP def2/J TightSCF xyzfile
|  2>
|  3> *xyzfile 0 1 D1.xyz
|  4>
|  5> %MaxCore 64000
|  6>
|  7> %pal nprocs 18
|  8> end
|  9>
| 10> %scf
| 11>   MaxIter 150
| 12> end
| 13>
| 14>
| 15>                          ****END OF INPUT****

CARTESIAN COORDINATES (ANGSTROEM)
---------------------------------
  C      3.905947    2.819855   -3.752920
  C      5.295615    3.131515   -4.105334
  C      3.803511    1.374716   -3.260807
  C      3.939934    0.320362   -4.367729
  H      4.105043   -0.655085   -3.907733
  H      3.022801    0.280517   -4.957117
  C      5.105846    0.668022   -5.305463
  C      5.708619    3.468885   -5.324190
  N      6.904696    3.038954   -5.717084
  N      4.981884    4.293570   -6.097457
  H      5.000546    4.101311   -7.087761
  H      4.084693    4.596899   -5.739652
  H      5.963358    2.526112   -3.642391
  H      7.047164    2.066861   -5.473604
  H      7.198145    3.307994   -6.645225
  H      3.282025    2.949187   -4.640259
  H      3.565254    3.514574   -2.982523
  H      4.574833    1.215157   -2.500443
  H      2.843514    1.260845   -2.751465
  F      4.809132    1.150187   -6.414361
  O      6.267366    0.564999   -4.819481

 Total Charge           Charge          ....    0
 Multiplicity           Mult            ....    1
 Number of Electrons    NEL             ....   78
 Basis Dimension        Dim             ....  376

ORBITAL ENERGIES
----------------

  NO   OCC          E(Eh)            E(eV)
   0   2.0000     -24.481869      -666.1855
   1   2.0000     -18.884835      -513.8825
   2   2.0000     -14.104344      -383.7987
   3   2.0000     -14.083775      -383.2390
   4   2.0000     -10.153526      -276.2915
   5   2.0000     -10.018889      -272.6278
   6   2.0000     -10.010464      -272.3986
   7   2.0000      -9.990703      -271.8608
   8   2.0000      -9.974147      -271.4103
   9   2.0000      -9.911460      -269.7045
  10   2.0000      -1.247798       -33.9543
  11   2.0000      -0.965016       -26.2594
  12   2.0000      -0.895177       -24.3590
  13   2.0000      -0.811348       -22.0779
  14   2.0000      -0.756933       -20.5972
  15   2.0000      -0.693944       -18.8832
  16   2.0000      -0.637950       -17.3595
  17   2.0000      -0.602322       -16.3900
  18   2.0000      -0.557322       -15.1655
  19   2.0000      -0.529619       -14.4117
  20   2.0000      -0.500743       -13.6259
  21   2.0000      -0.490405       -13.3446
  22   2.0000      -0.479082       -13.0365
  23   2.0000      -0.471960       -12.8427
  24   2.0000      -0.453504       -12.3405
  25   2.0000      -0.422734       -11.5032
  26   2.0000      -0.416708       -11.3392
  27   2.0000      -0.395683       -10.7671
  28   2.0000      -0.388670       -10.5762
  29   2.0000      -0.348407        -9.4806
  30   2.0000      -0.344177        -9.3655
  31   2.0000      -0.329857        -8.9759
  32   2.0000      -0.320078        -8.7098
  33   2.0000      -0.308396        -8.3919
  34   2.0000      -0.297473        -8.0946
  35   2.0000      -0.284284        -7.7358
  36   2.0000      -0.252438        -6.8692
  37   2.0000      -0.224915        -6.1202
  38   2.0000      -0.142960        -3.8901
  39   0.0000      -0.062970        -1.7135
  40   0.0000       0.012516         0.3406
  41   0.0000       0.033785         0.9193
  42   0.0000       0.035787         0.9738
  43   0.0000       0.051157         1.3920

MULLIKEN ATOMIC CHARGES
-----------------------
   0 C :   -0.122736
   1 C :   -0.315793
   2 C :   -0.198117
   3 C :   -0.161813
   4 H :    0.117709
   5 H :    0.088411
   6 C :    0.356514
   7 C :    0.150383
   8 N :   -0.403162
   9 N :   -0.457016
  10 H :    0.209308
  11 H :    0.239895
  12 H :    0.119635
  13 H :    0.255160
  14 H :    0.203771
  15 H :    0.045510
  16 H :    0.091679
  17 H :    0.116501
  18 H :    0.091494
  19 F :   -0.070281
  20 O :   -0.357052
Sum of atomic charges:   -0.0000000

LOEWDIN ATOMIC CHARGES
----------------------
   0 C :   -0.281255
   1 C :   -0.256679
   2 C :   -0.242398
   3 C :   -0.222921
   4 H :    0.151243
   5 H :    0.137075
   6 C :   -0.524686
   7 C :   -0.492068
   8 N :    0.005472
   9 N :   -0.008148
  10 H :    0.152700
  11 H :    0.170931
  12 H :    0.131417
  13 H :    0.163620
  14 H :    0.156055
  15 H :    0.127950
  16 H :    0.132463
  17 H :    0.143814
  18 H :    0.133286
  19 F :    0.362795
  20 O :    0.059337

  Mayer bond orders larger than 0.100000
B(  0-C ,  1-C ) :   1.0316 B(  0-C ,  2-C ) :   1.0085 B(  0-C , 15-H ) :   0.9394
B(  0-C , 16-H ) :   0.9286 B(  1-C ,  7-C ) :   1.6158 B(  1-C , 12-H ) :   1.0178
B(  2-C ,  3-C ) :   1.0211 B(  2-C , 17-H ) :   0.9539 B(  2-C , 18-H ) :   0.9357
B(  3-C ,  4-H ) :   0.9245 B(  3-C ,  5-H ) :   0.9294 B(  3-C ,  6-C ) :   1.0398
B(  6-C , 19-F ) :   1.1738 B(  6-C , 20-O ) :   1.9177 B(  7-C ,  8-N ) :   1.2017
B(  7-C ,  9-N ) :   1.1654 B(  8-N , 13-H ) :   0.8510 B(  8-N , 14-H ) :   0.9220
B(  9-N , 10-H ) :   0.9092 B(  9-N , 11-H ) :   0.9159 B( 13-H , 20-O ) :   0.1003

Dispersion correction           -0.028462458
FINAL SINGLE POINT ENERGY      -520.077976520089

DIPOLE MOMENT
-------------
                                X             Y             Z
Electronic contribution:      3.50087      -3.53490      -6.50242
Nuclear contribution   :     -4.60158       3.22721       5.56005
                        -----------------------------------------
Total Dipole Moment    :     -1.10071      -0.30768      -0.94236
                        -----------------------------------------
Magnitude (a.u.)       :      1.48131
Magnitude (Debye)      :      3.76520

Rotational constants in cm-1:     0.061224     0.042534     0.033552
Rotational constants in MHz :  1835.464095  1275.135177  1005.856966

                             ****ORCA TERMINATED NORMALLY****
TOTAL RUN TIME: 0 days 0 hours 0 minutes 16 seconds 791 msec
