                         Program Version 5.0.0 -  RELEASE  -
|  1> !TPSS D3BJ RIJCOSX def2-TZVP def2/J TightSCF xyzfile
|  2>
|  3> *xyzfile 0 1 D5.xyz
|  4>
|  5> %MaxCore 64000
|  6>
|  7> %pal nprocs 18
|  8> end
|  9>
| 10> %scf
| 11>   MaxIter 150
| 12> end
| 13>
| 14>
| 15>                          ****END OF INPUT****

CARTESIAN COORDINATES (ANGSTROEM)
---------------------------------
  C      3.905947    2.819855   -3.752920
  N      5.295615    3.131515   -4.105334
  C      3.803511    1.374716   -3.260807
  C      3.939934    0.320362   -4.367729
  H      4.105043   -0.655085   -3.907733
  H      3.022801    0.280517   -4.957117
  C      5.105846    0.668022   -5.305463
  C      5.708619    3.468885   -5.324190
  C      6.904696    3.038954   -5.717084
  N      4.981884    4.293570   -6.097457
  H      5.000546    4.101311   -7.087761
  H      4.084693    4.596899   -5.739652
  H      5.963358    2.526112   -3.642391
  H      7.047164    2.066861   -5.473604
  H      7.198145    3.307994   -6.645225
  H      3.282025    2.949187   -4.640259
  H      3.565254    3.514574   -2.982523
  H      4.574833    1.215157   -2.500443
  H      2.843514    1.260845   -2.751465
  O      4.809132    1.150187   -6.414361
  F      6.267366    0.564999   -4.819481

 Total Charge           Charge          ....    0
 Multiplicity           Mult            ....    1
 Number of Electrons    NEL             ....   78
 Basis Dimension        Dim             ....  376

ORBITAL ENERGIES
----------------

  NO   OCC          E(Eh)            E(eV)
   0   2.0000     -24.476518      -666.0399
   1   2.0000     -18.886770      -513.9351
   2   2.0000     -14.108033      -383.8991
   3   2.0000     -14.097220      -383.6049
   4   2.0000     -10.150253      -276.2024
   5   2.0000     -10.032166      -272.9891
   6   2.0000     -10.020921      -272.6831
   7   2.0000     -10.016477      -272.5622
   8   2.0000     -10.016185      -272.5542
   9   2.0000      -9.885592      -269.0006
  10   2.0000      -1.238468       -33.7004
  11   2.0000      -0.970127       -26.3985
  12   2.0000      -0.905235       -24.6327
  13   2.0000      -0.827935       -22.5293
  14   2.0000      -0.760584       -20.6965
  15   2.0000      -0.687393       -18.7049
  16   2.0000      -0.645080       -17.5535
  17   2.0000      -0.602084       -16.3835
  18   2.0000      -0.573155       -15.5963
  19   2.0000      -0.549395       -14.9498
  20   2.0000      -0.500982       -13.6324
  21   2.0000      -0.497852       -13.5472
  22   2.0000      -0.472312       -12.8523
  23   2.0000      -0.457711       -12.4550
  24   2.0000      -0.452628       -12.3166
  25   2.0000      -0.440926       -11.9982
  26   2.0000      -0.423533       -11.5249
  27   2.0000      -0.400090       -10.8870
  28   2.0000      -0.377142       -10.2626
  29   2.0000      -0.363517        -9.8918
  30   2.0000      -0.350631        -9.5411
  31   2.0000      -0.340200        -9.2573
  32   2.0000      -0.335762        -9.1366
  33   2.0000      -0.325547        -8.8586
  34   2.0000      -0.319971        -8.7068
  35   2.0000      -0.285611        -7.7719
  36   2.0000      -0.246160        -6.6983
  37   2.0000      -0.223412        -6.0793
  38   2.0000      -0.136707        -3.7200
  39   0.0000      -0.060357        -1.6424
  40   0.0000       0.009727         0.2647
  41   0.0000       0.023785         0.6472
  42   0.0000       0.037530         1.0213
  43   0.0000       0.046040         1.2528

MULLIKEN ATOMIC CHARGES
-----------------------
   0 C :   -0.077193
   1 N :   -0.280176
   2 C :   -0.263866
   3 C :   -0.139155
   4 H :    0.114254
   5 H :    0.112113
   6 C :    0.292051
   7 C :    0.239600
   8 C :   -0.427823
   9 N :   -0.477413
  10 H :    0.255900
  11 H :    0.214111
  12 H :    0.219308
  13 H :    0.094682
  14 H :    0.067946
  15 H :    0.093856
  16 H :    0.115547
  17 H :    0.121244
  18 H :    0.104070
  19 O :   -0.281300
  20 F :   -0.097756
Sum of atomic charges:   -0.0000000

LOEWDIN ATOMIC CHARGES
----------------------
   0 C :   -0.279261
   1 N :    0.130349
   2 C :   -0.261311
   3 C :   -0.225028
   4 H :    0.143584
   5 H :    0.150680
   6 C :   -0.532629
   7 C :   -0.493727
   8 C :   -0.330773
   9 N :    0.001426
  10 H :    0.176459
  11 H :    0.156095
  12 H :    0.192460
  13 H :    0.095269
  14 H :    0.094722
  15 H :    0.132799
  16 H :    0.126037
  17 H :    0.138466
  18 H :    0.139352
  19 O :    0.113700
  20 F :    0.331332

  Mayer bond orders larger than 0.100000
B(  0-C ,  1-N ) :   0.9650 B(  0-C ,  2-C ) :   1.0096 B(  0-C , 15-H ) :   0.9521
B(  0-C , 16-H ) :   0.9483 B(  1-N ,  7-C ) :   1.1831 B(  1-N , 12-H ) :   0.9128
B(  2-C ,  3-C ) :   1.0007 B(  2-C , 17-H ) :   0.9590 B(  2-C , 18-H ) :   0.9328
B(  3-C ,  4-H ) :   0.9271 B(  3-C ,  5-H ) :   0.9435 B(  3-C ,  6-C ) :   1.0333
B(  6-C , 19-O ) :   2.0522 B(  6-C , 20-F ) :   1.1255 B(  7-C ,  8-C ) :   1.6690
B(  7-C ,  9-N ) :   1.0817 B(  8-C , 13-H ) :   0.9607 B(  8-C , 14-H ) :   1.0001
B(  9-N , 10-H ) :   0.9150 B(  9-N , 11-H ) :   0.9264

Dispersion correction           -0.028366584
FINAL SINGLE POINT ENERGY      -520.055803867202

DIPOLE MOMENT
-------------
                                X             Y             Z
Electronic contribution:      4.46999      -4.56866      -2.65417
Nuclear contribution   :     -6.05797       3.87976       3.55209
                        -----------------------------------------
Total Dipole Moment    :     -1.58797      -0.68890       0.89792
                        -----------------------------------------
Magnitude (a.u.)       :      1.95000
Magnitude (Debye)      :      4.95651

Rotational constants in cm-1:     0.061282     0.043164     0.033679
Rotational constants in MHz :  1837.191639  1294.028651  1009.659886

                             ****ORCA TERMINATED NORMALLY****
TOTAL RUN TIME: 0 days 0 hours 0 minutes 15 seconds 144 msec
