                         Program Version 5.0.0 -  RELEASE  -
|  1> !TPSS D3BJ RIJCOSX def2-TZVP def2/J TightSCF
|  2> *xyz -1 1
|  3> C         -0.91495        0.61511        2.50554
|  4> C         -0.05915        1.50352        3.41058
|  5> H          0.36536        2.34431        2.86116
|  6> H         -0.69226        1.92021        4.19898
|  7> C          1.08303        0.74964        4.08571
|  8> O          2.22817        1.26348        4.01983
|  9> O          0.81003       -0.34541        4.63627
| 10> H         -0.30401        0.20228        1.73015
| 11> H         -1.69811        1.19946        2.06954
| 12> H         -1.34124       -0.17772        3.08397
| 13> *
| 14>
| 15> %MaxCore 64000
| 16>
| 17> %pal nprocs 4
| 18> end
| 19>
| 20> %scf
| 21>   MaxIter 150
| 22> end
| 23>
| 24>
| 25>                          ****END OF INPUT****

CARTESIAN COORDINATES (ANGSTROEM)
---------------------------------
  C     -0.914950    0.615110    2.505540
  C     -0.059150    1.503520    3.410580
  H      0.365360    2.344310    2.861160
  H     -0.692260    1.920210    4.198980
  C      1.083030    0.749640    4.085710
  O      2.228170    1.263480    4.019830
  O      0.810030   -0.345410    4.636270
  H     -0.304010    0.202280    1.730150
  H     -1.698110    1.199460    2.069540
  H     -1.341240   -0.177720    3.083970

 Total Charge           Charge          ....   -1
 Multiplicity           Mult            ....    1
 Number of Electrons    NEL             ....   40
 Basis Dimension        Dim             ....  185

ORBITAL ENERGIES
----------------

  NO   OCC          E(Eh)            E(eV)
   0   2.0000     -18.606398      -506.3058
   1   2.0000     -18.604918      -506.2656
   2   2.0000      -9.845879      -267.9200
   3   2.0000      -9.815631      -267.0969
   4   2.0000      -9.802413      -266.7372
   5   2.0000      -0.738327       -20.0909
   6   2.0000      -0.649779       -17.6814
   7   2.0000      -0.542864       -14.7721
   8   2.0000      -0.417952       -11.3731
   9   2.0000      -0.266989        -7.2652
  10   2.0000      -0.245845        -6.6898
  11   2.0000      -0.208837        -5.6828
  12   2.0000      -0.179321        -4.8796
  13   2.0000      -0.167037        -4.5453
  14   2.0000      -0.154429        -4.2022
  15   2.0000      -0.124947        -3.4000
  16   2.0000      -0.111677        -3.0389
  17   2.0000      -0.000814        -0.0221
  18   2.0000       0.011111         0.3023
  19   2.0000       0.027461         0.7473
  20   0.0000       0.175314         4.7705
  21   0.0000       0.216744         5.8979
  22   0.0000       0.225207         6.1282
  23   0.0000       0.239412         6.5147
  24   0.0000       0.246346         6.7034

MULLIKEN ATOMIC CHARGES
-----------------------
   0 C :   -0.302079
   1 C :   -0.118804
   2 H :    0.029786
   3 H :    0.023187
   4 C :    0.175593
   5 O :   -0.511632
   6 O :   -0.510741
   7 H :    0.079339
   8 H :    0.047624
   9 H :    0.087728
Sum of atomic charges:   -1.0000000

LOEWDIN ATOMIC CHARGES
----------------------
   0 C :   -0.322008
   1 C :   -0.293138
   2 H :    0.114063
   3 H :    0.117594
   4 C :   -0.717259
   5 O :   -0.101575
   6 O :   -0.097611
   7 H :    0.104441
   8 H :    0.088476
   9 H :    0.107017

  Mayer bond orders larger than 0.100000
B(  0-C ,  1-C ) :   0.9831 B(  0-C ,  7-H ) :   0.9770 B(  0-C ,  8-H ) :   0.9581
B(  0-C ,  9-H ) :   0.9632 B(  1-C ,  2-H ) :   0.9363 B(  1-C ,  3-H ) :   0.9371
B(  1-C ,  4-C ) :   0.9570 B(  4-C ,  5-O ) :   1.8791 B(  4-C ,  6-O ) :   1.8413

Dispersion correction           -0.008050693
FINAL SINGLE POINT ENERGY      -267.983781596273

DIPOLE MOMENT
-------------
                                X             Y             Z
Electronic contribution:      4.89311      -1.07350       3.45713
Nuclear contribution   :     -6.38408       1.63097      -4.40540
                        -----------------------------------------
Total Dipole Moment    :     -1.49097       0.55746      -0.94827
                        -----------------------------------------
Magnitude (a.u.)       :      1.85283
Magnitude (Debye)      :      4.70951

Rotational constants in cm-1:     0.319732     0.134414     0.104753
Rotational constants in MHz :  9585.336550  4029.633034  3140.404334

                             ****ORCA TERMINATED NORMALLY****
TOTAL RUN TIME: 0 days 0 hours 0 minutes 8 seconds 786 msec
