                         Program Version 5.0.0 -  RELEASE  -
|  1> !TPSS D3BJ RIJCOSX def2-TZVP def2/J TightSCF
|  2> *xyz 1 1
|  3> C          4.60295       -2.44010        2.63478
|  4> C          3.86085       -1.59157        3.62289
|  5> N          2.75650       -2.04616        4.16633
|  6> N          4.25433       -0.36291        3.86046
|  7> H          3.56526        0.31099        4.16898
|  8> H          5.05429       -0.01606        3.33784
|  9> H          2.43970       -2.97389        3.89740
| 10> H          2.06687       -1.41253        4.54981
| 11> C          3.74469       -2.58056        1.36188
| 12> H          5.56156       -1.97135        2.40708
| 13> H          4.81050       -3.42255        3.06310
| 14> H          4.26314       -3.18477        0.64702
| 15> H          3.56325       -1.61180        0.94535
| 16> H          2.81197       -3.04259        1.60980
| 17> *
| 18>
| 19> %MaxCore 64000
| 20>
| 21> %pal nprocs 4
| 22> end
| 23>
| 24> %scf
| 25>   MaxIter 150
| 26> end
| 27>
| 28>
| 29>                          ****END OF INPUT****

CARTESIAN COORDINATES (ANGSTROEM)
---------------------------------
  C      4.602950   -2.440100    2.634780
  C      3.860850   -1.591570    3.622890
  N      2.756500   -2.046160    4.166330
  N      4.254330   -0.362910    3.860460
  H      3.565260    0.310990    4.168980
  H      5.054290   -0.016060    3.337840
  H      2.439700   -2.973890    3.897400
  H      2.066870   -1.412530    4.549810
  C      3.744690   -2.580560    1.361880
  H      5.561560   -1.971350    2.407080
  H      4.810500   -3.422550    3.063100
  H      4.263140   -3.184770    0.647020
  H      3.563250   -1.611800    0.945350
  H      2.811970   -3.042590    1.609800

 Total Charge           Charge          ....    1
 Multiplicity           Mult            ....    1
 Number of Electrons    NEL             ....   40
 Basis Dimension        Dim             ....  209

ORBITAL ENERGIES
----------------

  NO   OCC          E(Eh)            E(eV)
   0   2.0000     -14.346514      -390.3885
   1   2.0000     -14.345680      -390.3658
   2   2.0000     -10.296462      -280.1810
   3   2.0000     -10.187553      -277.2174
   4   2.0000     -10.147319      -276.1226
   5   2.0000      -1.142680       -31.0939
   6   2.0000      -1.051590       -28.6152
   7   2.0000      -0.915640       -24.9158
   8   2.0000      -0.811447       -22.0806
   9   2.0000      -0.768183       -20.9033
  10   2.0000      -0.725513       -19.7422
  11   2.0000      -0.709066       -19.2947
  12   2.0000      -0.655153       -17.8276
  13   2.0000      -0.620264       -16.8782
  14   2.0000      -0.586595       -15.9621
  15   2.0000      -0.560313       -15.2469
  16   2.0000      -0.512788       -13.9537
  17   2.0000      -0.507635       -13.8134
  18   2.0000      -0.496800       -13.5186
  19   2.0000      -0.458761       -12.4835
  20   0.0000      -0.242541        -6.5999
  21   0.0000      -0.173268        -4.7149
  22   0.0000      -0.129233        -3.5166
  23   0.0000      -0.127360        -3.4656
  24   0.0000      -0.097937        -2.6650

MULLIKEN ATOMIC CHARGES
-----------------------
   0 C :   -0.215400
   1 C :    0.266147
   2 N :   -0.322766
   3 N :   -0.311397
   4 H :    0.279804
   5 H :    0.298032
   6 H :    0.299671
   7 H :    0.282653
   8 C :   -0.325967
   9 H :    0.139003
  10 H :    0.172025
  11 H :    0.174997
  12 H :    0.138543
  13 H :    0.124654
Sum of atomic charges:    1.0000000

LOEWDIN ATOMIC CHARGES
----------------------
   0 C :   -0.211582
   1 C :   -0.307877
   2 N :    0.123531
   3 N :    0.122335
   4 H :    0.199054
   5 H :    0.209614
   6 H :    0.209551
   7 H :    0.198651
   8 C :   -0.248563
   9 H :    0.155885
  10 H :    0.164295
  11 H :    0.138168
  12 H :    0.126954
  13 H :    0.119984

  Mayer bond orders larger than 0.100000
B(  0-C ,  1-C ) :   1.0347 B(  0-C ,  8-C ) :   0.9881 B(  0-C ,  9-H ) :   0.9411
B(  0-C , 10-H ) :   0.9285 B(  1-C ,  2-N ) :   1.4495 B(  1-C ,  3-N ) :   1.4679
B(  2-N ,  6-H ) :   0.8832 B(  2-N ,  7-H ) :   0.8837 B(  3-N ,  4-H ) :   0.8838
B(  3-N ,  5-H ) :   0.8790 B(  8-C , 11-H ) :   0.9517 B(  8-C , 12-H ) :   0.9556
B(  8-C , 13-H ) :   0.9662

Dispersion correction           -0.012633791
FINAL SINGLE POINT ENERGY      -229.159051121100

DIPOLE MOMENT
-------------
                                X             Y             Z
Electronic contribution:     -0.24814       1.79981       3.73305
Nuclear contribution   :     -0.22400      -1.16268      -3.30447
                        -----------------------------------------
Total Dipole Moment    :     -0.47214       0.63713       0.42858
                        -----------------------------------------
Magnitude (a.u.)       :      0.90141
Magnitude (Debye)      :      2.29119

Rotational constants in cm-1:     0.258103     0.130571     0.102508
Rotational constants in MHz :  7737.732062  3914.431392  3073.119154

                             ****ORCA TERMINATED NORMALLY****
TOTAL RUN TIME: 0 days 0 hours 0 minutes 11 seconds 938 msec
