                         Program Version 5.0.0 -  RELEASE  -
|  1> !TPSS D3BJ RIJCOSX def2-TZVP def2/J TightSCF xyzfile
|  2>
|  3> *xyzfile 0 1 B.xyz
|  4>
|  5> %MaxCore 64000
|  6>
|  7> %pal nprocs 18
|  8> end
|  9>
| 10> %scf
| 11>   MaxIter 150
| 12> end
| 13>
| 14>
| 15>                          ****END OF INPUT****

CARTESIAN COORDINATES (ANGSTROEM)
---------------------------------
  C      4.602954   -2.440100    2.634780
  C     -0.914947    0.615112    2.505538
  C     -0.059146    1.503524    3.410578
  H      0.365364    2.344315    2.861161
  H     -0.692261    1.920207    4.198985
  C      1.083027    0.749640    4.085705
  C      3.860851   -1.591565    3.622893
  N      2.756502   -2.046159    4.166333
  N      4.254325   -0.362905    3.860455
  H      3.565256    0.310994    4.168983
  H      5.054292   -0.016059    3.337838
  H      2.439696   -2.973894    3.897395
  H      2.066869   -1.412532    4.549813
  O      2.228167    1.263475    4.019826
  O      0.810034   -0.345411    4.636269
  C      3.744685   -2.580557    1.361882
  C      0.772139    0.636882    0.562129
  C     -0.130740   -0.193985    1.470763
  H     -0.840563   -0.760165    0.856377
  H      0.466691   -0.938942    2.006959
  H     -1.647961    1.245963    1.991076
  H     -1.478180   -0.081046    3.130424
  C      3.203721   -1.256004    0.826211
  H      2.898939   -3.239289    1.583074
  H      4.334962   -3.095523    0.600188
  C      2.107815   -1.442385   -0.216865
  H      2.786775   -0.672760    1.650711
  H      4.021008   -0.652993    0.414046
  C      1.390662   -0.145912   -0.602422
  H      1.372179   -2.152184    0.176151
  H      2.523302   -1.906787   -1.117115
  H      1.561361    1.100094    1.161831
  H      0.195516    1.468325    0.142758
  H      0.602893   -0.398214   -1.319716
  H      2.087247    0.508272   -1.137335
  H      5.561557   -1.971347    2.407084
  H      4.810498   -3.422552    3.063099

 Total Charge           Charge          ....    0
 Multiplicity           Mult            ....    1
 Number of Electrons    NEL             ....  118
 Basis Dimension        Dim             ....  597

ORBITAL ENERGIES
----------------

  NO   OCC          E(Eh)            E(eV)
   0   2.0000     -18.804915      -511.7078
   1   2.0000     -18.803197      -511.6610
   2   2.0000     -14.141051      -384.7976
   3   2.0000     -14.141001      -384.7962
   4   2.0000     -10.109093      -275.0824
   5   2.0000     -10.035740      -273.0864
   6   2.0000     -10.034511      -273.0529
   7   2.0000     -10.016380      -272.5596
   8   2.0000      -9.993331      -271.9324
   9   2.0000      -9.984705      -271.6976
  10   2.0000      -9.976804      -271.4826
  11   2.0000      -9.966278      -271.1962
  12   2.0000      -9.962834      -271.1025
  13   2.0000      -9.958687      -270.9896
  14   2.0000      -9.949665      -270.7441
  15   2.0000      -0.952452       -25.9175
  16   2.0000      -0.936020       -25.4704
  17   2.0000      -0.861913       -23.4539
  18   2.0000      -0.845481       -23.0067
  19   2.0000      -0.778242       -21.1770
  20   2.0000      -0.744759       -20.2659
  21   2.0000      -0.715769       -19.4771
  22   2.0000      -0.678211       -18.4551
  23   2.0000      -0.641832       -17.4651
  24   2.0000      -0.607915       -16.5422
  25   2.0000      -0.591457       -16.0944
  26   2.0000      -0.570255       -15.5174
  27   2.0000      -0.537062       -14.6142
  28   2.0000      -0.530180       -14.4269
  29   2.0000      -0.522668       -14.2225
  30   2.0000      -0.499818       -13.6007
  31   2.0000      -0.467415       -12.7190
  32   2.0000      -0.463409       -12.6100
  33   2.0000      -0.441943       -12.0259
  34   2.0000      -0.428394       -11.6572
  35   2.0000      -0.419458       -11.4140
  36   2.0000      -0.413178       -11.2431
  37   2.0000      -0.399128       -10.8608
  38   2.0000      -0.389039       -10.5863
  39   2.0000      -0.379096       -10.3157
  40   2.0000      -0.368744       -10.0340
  41   2.0000      -0.363309        -9.8861
  42   2.0000      -0.356086        -9.6896
  43   2.0000      -0.351367        -9.5612
  44   2.0000      -0.334288        -9.0964
  45   2.0000      -0.333472        -9.0742
  46   2.0000      -0.327895        -8.9225
  47   2.0000      -0.320941        -8.7333
  48   2.0000      -0.313159        -8.5215
  49   2.0000      -0.297126        -8.0852
  50   2.0000      -0.294800        -8.0219
  51   2.0000      -0.286057        -7.7840
  52   2.0000      -0.272917        -7.4265
  53   2.0000      -0.267148        -7.2695
  54   2.0000      -0.265175        -7.2158
  55   2.0000      -0.259782        -7.0690
  56   2.0000      -0.197345        -5.3700
  57   2.0000      -0.184112        -5.0099
  58   2.0000      -0.174073        -4.7368
  59   0.0000      -0.059292        -1.6134
  60   0.0000      -0.010566        -0.2875
  61   0.0000       0.011297         0.3074
  62   0.0000       0.026388         0.7181
  63   0.0000       0.034979         0.9518

MULLIKEN ATOMIC CHARGES
-----------------------
   0 C :   -0.141700
   1 C :   -0.110427
   2 C :   -0.132818
   3 H :    0.089189
   4 H :    0.085815
   5 C :    0.284406
   6 C :    0.137628
   7 N :   -0.281585
   8 N :   -0.281545
   9 H :    0.264985
  10 H :    0.240849
  11 H :    0.241919
  12 H :    0.265963
  13 O :   -0.521778
  14 O :   -0.507546
  15 C :   -0.203909
  16 C :   -0.270356
  17 C :   -0.202444
  18 H :    0.070535
  19 H :    0.098519
  20 H :    0.071283
  21 H :    0.080795
  22 C :   -0.270304
  23 H :    0.104951
  24 H :    0.105346
  25 C :   -0.158582
  26 H :    0.167489
  27 H :    0.074272
  28 C :   -0.088538
  29 H :    0.096264
  30 H :    0.081918
  31 H :    0.136560
  32 H :    0.080187
  33 H :    0.084508
  34 H :    0.073159
  35 H :    0.101603
  36 H :    0.133387
Sum of atomic charges:   -0.0000000

LOEWDIN ATOMIC CHARGES
----------------------
   0 C :   -0.209593
   1 C :   -0.260993
   2 C :   -0.238216
   3 H :    0.134534
   4 H :    0.141645
   5 C :   -0.647674
   6 C :   -0.349402
   7 N :    0.114113
   8 N :    0.108895
   9 H :    0.152081
  10 H :    0.183164
  11 H :    0.184617
  12 H :    0.152832
  13 O :   -0.042028
  14 O :   -0.036137
  15 C :   -0.246003
  16 C :   -0.266729
  17 C :   -0.268246
  18 H :    0.130521
  19 H :    0.132047
  20 H :    0.129101
  21 H :    0.136757
  22 C :   -0.259980
  23 H :    0.135417
  24 H :    0.138570
  25 C :   -0.263843
  26 H :    0.146222
  27 H :    0.133089
  28 C :   -0.261474
  29 H :    0.135175
  30 H :    0.131273
  31 H :    0.137592
  32 H :    0.134309
  33 H :    0.133806
  34 H :    0.131478
  35 H :    0.143968
  36 H :    0.149114

  Mayer bond orders larger than 0.100000
B(  0-C ,  6-C ) :   1.0270 B(  0-C , 15-C ) :   0.9784 B(  0-C , 35-H ) :   0.9442
B(  0-C , 36-H ) :   0.9436 B(  1-C ,  2-C ) :   1.0062 B(  1-C , 17-C ) :   1.0409
B(  1-C , 20-H ) :   0.9410 B(  1-C , 21-H ) :   0.9340 B(  2-C ,  3-H ) :   0.9521
B(  2-C ,  4-H ) :   0.9212 B(  2-C ,  5-C ) :   0.9946 B(  5-C , 13-O ) :   1.6404
B(  5-C , 14-O ) :   1.6629 B(  6-C ,  7-N ) :   1.4960 B(  6-C ,  8-N ) :   1.4985
B(  7-N , 11-H ) :   0.9080 B(  7-N , 12-H ) :   0.7475 B(  8-N ,  9-H ) :   0.7540
B(  8-N , 10-H ) :   0.9043 B(  9-H , 13-O ) :   0.2119 B( 12-H , 14-O ) :   0.2181
B( 15-C , 22-C ) :   0.9825 B( 15-C , 23-H ) :   0.9641 B( 15-C , 24-H ) :   0.9409
B( 16-C , 17-C ) :   1.0139 B( 16-C , 28-C ) :   1.0211 B( 16-C , 31-H ) :   0.9553
B( 16-C , 32-H ) :   0.9407 B( 17-C , 18-H ) :   0.9413 B( 17-C , 19-H ) :   0.9491
B( 22-C , 25-C ) :   1.0394 B( 22-C , 26-H ) :   0.9424 B( 22-C , 27-H ) :   0.9398
B( 25-C , 28-C ) :   1.0197 B( 25-C , 29-H ) :   0.9464 B( 25-C , 30-H ) :   0.9429
B( 28-C , 33-H ) :   0.9444 B( 28-C , 34-H ) :   0.9469

Dispersion correction           -0.053741461
FINAL SINGLE POINT ENERGY      -692.827434981638

DIPOLE MOMENT
-------------
                                X             Y             Z
Electronic contribution:      3.41567       1.65733      13.08091
Nuclear contribution   :     -1.50655      -3.48027     -14.35034
                        -----------------------------------------
Total Dipole Moment    :      1.90912      -1.82295      -1.26943
                        -----------------------------------------
Magnitude (a.u.)       :      2.92905
Magnitude (Debye)      :      7.44505

Rotational constants in cm-1:     0.021781     0.017296     0.011403
Rotational constants in MHz :   652.971749   518.510612   341.853154

                             ****ORCA TERMINATED NORMALLY****
TOTAL RUN TIME: 0 days 0 hours 0 minutes 32 seconds 374 msec
