                         Program Version 5.0.0 -  RELEASE  -
|  1> !TPSS D3BJ RIJCOSX def2-TZVP def2/J TightSCF
|  2> *xyz 0 1
|  3> C         -0.91495        0.61511        2.50554
|  4> C         -0.05915        1.50352        3.41058
|  5> H          0.36536        2.34431        2.86116
|  6> H         -0.69226        1.92021        4.19898
|  7> C          1.08303        0.74964        4.08571
|  8> F          2.22817        1.26348        4.01983
|  9> O          0.81003       -0.34541        4.63627
| 10> H         -0.30401        0.20228        1.73015
| 11> H         -1.69811        1.19946        2.06954
| 12> H         -1.34124       -0.17772        3.08397
| 13> *
| 14>
| 15> %MaxCore 64000
| 16>
| 17> %pal nprocs 4
| 18> end
| 19>
| 20> %scf
| 21>   MaxIter 150
| 22> end
| 23>
| 24>
| 25>                          ****END OF INPUT****

CARTESIAN COORDINATES (ANGSTROEM)
---------------------------------
  C     -0.914950    0.615110    2.505540
  C     -0.059150    1.503520    3.410580
  H      0.365360    2.344310    2.861160
  H     -0.692260    1.920210    4.198980
  C      1.083030    0.749640    4.085710
  F      2.228170    1.263480    4.019830
  O      0.810030   -0.345410    4.636270
  H     -0.304010    0.202280    1.730150
  H     -1.698110    1.199460    2.069540
  H     -1.341240   -0.177720    3.083970

 Total Charge           Charge          ....    0
 Multiplicity           Mult            ....    1
 Number of Electrons    NEL             ....   40
 Basis Dimension        Dim             ....  185

ORBITAL ENERGIES
----------------

  NO   OCC          E(Eh)            E(eV)
   0   2.0000     -24.474887      -665.9955
   1   2.0000     -18.884516      -513.8738
   2   2.0000     -10.148827      -276.1636
   3   2.0000     -10.015667      -272.5402
   4   2.0000      -9.988331      -271.7963
   5   2.0000      -1.235692       -33.6249
   6   2.0000      -0.961175       -26.1549
   7   2.0000      -0.742397       -20.2016
   8   2.0000      -0.635091       -17.2817
   9   2.0000      -0.581190       -15.8150
  10   2.0000      -0.491237       -13.3672
  11   2.0000      -0.478405       -13.0180
  12   2.0000      -0.455701       -12.4002
  13   2.0000      -0.422522       -11.4974
  14   2.0000      -0.388339       -10.5672
  15   2.0000      -0.356138        -9.6910
  16   2.0000      -0.338623        -9.2144
  17   2.0000      -0.333115        -9.0645
  18   2.0000      -0.307619        -8.3707
  19   2.0000      -0.246480        -6.7071
  20   0.0000      -0.059156        -1.6097
  21   0.0000       0.024186         0.6581
  22   0.0000       0.062355         1.6968
  23   0.0000       0.075949         2.0667
  24   0.0000       0.085965         2.3392

MULLIKEN ATOMIC CHARGES
-----------------------
   0 C :   -0.335114
   1 C :   -0.184561
   2 H :    0.103211
   3 H :    0.118810
   4 C :    0.310183
   5 F :   -0.076104
   6 O :   -0.307898
   7 H :    0.114123
   8 H :    0.119549
   9 H :    0.137800
Sum of atomic charges:    0.0000000

LOEWDIN ATOMIC CHARGES
----------------------
   0 C :   -0.279547
   1 C :   -0.258412
   2 H :    0.135720
   3 H :    0.153099
   4 C :   -0.518149
   5 F :    0.332629
   6 O :    0.077132
   7 H :    0.117641
   8 H :    0.116615
   9 H :    0.123272

  Mayer bond orders larger than 0.100000
B(  0-C ,  1-C ) :   1.0121 B(  0-C ,  7-H ) :   0.9718 B(  0-C ,  8-H ) :   0.9610
B(  0-C ,  9-H ) :   0.9636 B(  1-C ,  2-H ) :   0.9439 B(  1-C ,  3-H ) :   0.9229
B(  1-C ,  4-C ) :   1.0187 B(  4-C ,  5-F ) :   1.1795 B(  4-C ,  6-O ) :   2.0515

Dispersion correction           -0.007641491
FINAL SINGLE POINT ENERGY      -292.558462817257

DIPOLE MOMENT
-------------
                                X             Y             Z
Electronic contribution:      7.76137      -0.20888       4.12257
Nuclear contribution   :     -8.12386       1.06915      -4.71960
                        -----------------------------------------
Total Dipole Moment    :     -0.36249       0.86026      -0.59703
                        -----------------------------------------
Magnitude (a.u.)       :      1.10811
Magnitude (Debye)      :      2.81658

Rotational constants in cm-1:     0.309513     0.127560     0.099675
Rotational constants in MHz :  9278.979128  3824.146597  2988.174827

                             ****ORCA TERMINATED NORMALLY****
TOTAL RUN TIME: 0 days 0 hours 0 minutes 8 seconds 401 msec
