                         Program Version 5.0.0 -  RELEASE  -
|  1> !TPSS D3BJ RIJCOSX def2-TZVP def2/J TightSCF
|  2> *xyz 0 1
|  3> C          4.60295       -2.44010        2.63478
|  4> C          3.86085       -1.59157        3.62289
|  5> C          2.75650       -2.04616        4.16633
|  6> N          4.25433       -0.36291        3.86046
|  7> H          3.56526        0.31099        4.16898
|  8> H          5.05429       -0.01606        3.33784
|  9> H          2.43970       -2.97389        3.89740
| 10> H          2.06687       -1.41253        4.54981
| 11> C          3.74469       -2.58056        1.36188
| 12> H          5.56156       -1.97135        2.40708
| 13> H          4.81050       -3.42255        3.06310
| 14> H          4.26314       -3.18477        0.64702
| 15> H          3.56325       -1.61180        0.94535
| 16> H          2.81197       -3.04259        1.60980
| 17> *
| 18>
| 19> %MaxCore 64000
| 20>
| 21> %pal nprocs 4
| 22> end
| 23>
| 24> %scf
| 25>   MaxIter 150
| 26> end
| 27>
| 28>
| 29>                          ****END OF INPUT****

CARTESIAN COORDINATES (ANGSTROEM)
---------------------------------
  C      4.602950   -2.440100    2.634780
  C      3.860850   -1.591570    3.622890
  C      2.756500   -2.046160    4.166330
  N      4.254330   -0.362910    3.860460
  H      3.565260    0.310990    4.168980
  H      5.054290   -0.016060    3.337840
  H      2.439700   -2.973890    3.897400
  H      2.066870   -1.412530    4.549810
  C      3.744690   -2.580560    1.361880
  H      5.561560   -1.971350    2.407080
  H      4.810500   -3.422550    3.063100
  H      4.263140   -3.184770    0.647020
  H      3.563250   -1.611800    0.945350
  H      2.811970   -3.042590    1.609800

 Total Charge           Charge          ....    0
 Multiplicity           Mult            ....    1
 Number of Electrons    NEL             ....   40
 Basis Dimension        Dim             ....  209

ORBITAL ENERGIES
----------------

  NO   OCC          E(Eh)            E(eV)
   0   2.0000     -14.101545      -383.7226
   1   2.0000      -9.994880      -271.9745
   2   2.0000      -9.986765      -271.7537
   3   2.0000      -9.970184      -271.3025
   4   2.0000      -9.911218      -269.6980
   5   2.0000      -0.869634       -23.6639
   6   2.0000      -0.724500       -19.7146
   7   2.0000      -0.656723       -17.8703
   8   2.0000      -0.589642       -16.0450
   9   2.0000      -0.514732       -14.0066
  10   2.0000      -0.480172       -13.0662
  11   2.0000      -0.437886       -11.9155
  12   2.0000      -0.406159       -11.0521
  13   2.0000      -0.370869       -10.0919
  14   2.0000      -0.348106        -9.4725
  15   2.0000      -0.339136        -9.2284
  16   2.0000      -0.316663        -8.6168
  17   2.0000      -0.304752        -8.2927
  18   2.0000      -0.288053        -7.8383
  19   2.0000      -0.157878        -4.2961
  20   0.0000       0.013237         0.3602
  21   0.0000       0.019013         0.5174
  22   0.0000       0.059092         1.6080
  23   0.0000       0.062166         1.6916
  24   0.0000       0.078280         2.1301

MULLIKEN ATOMIC CHARGES
-----------------------
   0 C :   -0.165367
   1 C :    0.179654
   2 C :   -0.405249
   3 N :   -0.443775
   4 H :    0.232110
   5 H :    0.224844
   6 H :    0.094786
   7 H :    0.082767
   8 C :   -0.309169
   9 H :    0.072480
  10 H :    0.109890
  11 H :    0.105880
  12 H :    0.103277
  13 H :    0.117872
Sum of atomic charges:   -0.0000000

LOEWDIN ATOMIC CHARGES
----------------------
   0 C :   -0.231116
   1 C :   -0.378333
   2 C :   -0.271616
   3 N :    0.009235
   4 H :    0.172362
   5 H :    0.166908
   6 H :    0.105566
   7 H :    0.096232
   8 C :   -0.280354
   9 H :    0.127844
  10 H :    0.143402
  11 H :    0.109220
  12 H :    0.114029
  13 H :    0.116620

  Mayer bond orders larger than 0.100000
B(  0-C ,  1-C ) :   0.9944 B(  0-C ,  8-C ) :   0.9985 B(  0-C ,  9-H ) :   0.9501
B(  0-C , 10-H ) :   0.9644 B(  1-C ,  2-C ) :   1.7845 B(  1-C ,  3-N ) :   1.1767
B(  2-C ,  6-H ) :   0.9848 B(  2-C ,  7-H ) :   0.9739 B(  3-N ,  4-H ) :   0.9095
B(  3-N ,  5-H ) :   0.9177 B(  8-C , 11-H ) :   0.9611 B(  8-C , 12-H ) :   0.9710
B(  8-C , 13-H ) :   0.9703

Dispersion correction           -0.013156218
FINAL SINGLE POINT ENERGY      -212.680324863960

DIPOLE MOMENT
-------------
                                X             Y             Z
Electronic contribution:      0.81955       1.81333       2.56065
Nuclear contribution   :     -0.47010      -1.22282      -3.06417
                        -----------------------------------------
Total Dipole Moment    :      0.34945       0.59051      -0.50352
                        -----------------------------------------
Magnitude (a.u.)       :      0.85109
Magnitude (Debye)      :      2.16329

Rotational constants in cm-1:     0.271862     0.131962     0.105499
Rotational constants in MHz :  8150.219120  3956.123671  3162.785522

                             ****ORCA TERMINATED NORMALLY****
TOTAL RUN TIME: 0 days 0 hours 0 minutes 10 seconds 839 msec
