                         Program Version 5.0.0 -  RELEASE  -
|  1> !TPSS D3BJ RIJCOSX def2-TZVP def2/J TightSCF
|  2> *xyz 0 1
|  3> C         -0.91495        0.61511        2.50554
|  4> C         -0.05915        1.50352        3.41058
|  5> H          0.36536        2.34431        2.86116
|  6> H         -0.69226        1.92021        4.19898
|  7> C          1.08303        0.74964        4.08571
|  8> O          2.22817        1.26348        4.01983
|  9> F          0.81003       -0.34541        4.63627
| 10> H         -0.30401        0.20228        1.73015
| 11> H         -1.69811        1.19946        2.06954
| 12> H         -1.34124       -0.17772        3.08397
| 13> *
| 14>
| 15> %MaxCore 64000
| 16>
| 17> %pal nprocs 4
| 18> end
| 19>
| 20> %scf
| 21>   MaxIter 150
| 22> end
| 23>
| 24>
| 25>                          ****END OF INPUT****

CARTESIAN COORDINATES (ANGSTROEM)
---------------------------------
  C     -0.914950    0.615110    2.505540
  C     -0.059150    1.503520    3.410580
  H      0.365360    2.344310    2.861160
  H     -0.692260    1.920210    4.198980
  C      1.083030    0.749640    4.085710
  O      2.228170    1.263480    4.019830
  F      0.810030   -0.345410    4.636270
  H     -0.304010    0.202280    1.730150
  H     -1.698110    1.199460    2.069540
  H     -1.341240   -0.177720    3.083970

 Total Charge           Charge          ....    0
 Multiplicity           Mult            ....    1
 Number of Electrons    NEL             ....   40
 Basis Dimension        Dim             ....  185

ORBITAL ENERGIES
----------------

  NO   OCC          E(Eh)            E(eV)
   0   2.0000     -24.475952      -666.0245
   1   2.0000     -18.883231      -513.8388
   2   2.0000     -10.148175      -276.1459
   3   2.0000     -10.015134      -272.5257
   4   2.0000      -9.993366      -271.9333
   5   2.0000      -1.237150       -33.6646
   6   2.0000      -0.959064       -26.0975
   7   2.0000      -0.746365       -20.3096
   8   2.0000      -0.631546       -17.1852
   9   2.0000      -0.587756       -15.9937
  10   2.0000      -0.493976       -13.4418
  11   2.0000      -0.483535       -13.1577
  12   2.0000      -0.448550       -12.2057
  13   2.0000      -0.422817       -11.5054
  14   2.0000      -0.390826       -10.6349
  15   2.0000      -0.359380        -9.7792
  16   2.0000      -0.343665        -9.3516
  17   2.0000      -0.337328        -9.1792
  18   2.0000      -0.309136        -8.4120
  19   2.0000      -0.241292        -6.5659
  20   0.0000      -0.056659        -1.5418
  21   0.0000       0.019351         0.5266
  22   0.0000       0.062243         1.6937
  23   0.0000       0.078756         2.1430
  24   0.0000       0.088727         2.4144

MULLIKEN ATOMIC CHARGES
-----------------------
   0 C :   -0.341976
   1 C :   -0.179385
   2 H :    0.129309
   3 H :    0.109317
   4 C :    0.301079
   5 O :   -0.305699
   6 F :   -0.078646
   7 H :    0.122488
   8 H :    0.124260
   9 H :    0.119254
Sum of atomic charges:    0.0000000

LOEWDIN ATOMIC CHARGES
----------------------
   0 C :   -0.288192
   1 C :   -0.253473
   2 H :    0.149258
   3 H :    0.147763
   4 C :   -0.519747
   5 O :    0.073254
   6 F :    0.336930
   7 H :    0.118677
   8 H :    0.118410
   9 H :    0.117120

  Mayer bond orders larger than 0.100000
B(  0-C ,  1-C ) :   0.9958 B(  0-C ,  7-H ) :   0.9707 B(  0-C ,  8-H ) :   0.9617
B(  0-C ,  9-H ) :   0.9660 B(  1-C ,  2-H ) :   0.9498 B(  1-C ,  3-H ) :   0.9215
B(  1-C ,  4-C ) :   1.0365 B(  4-C ,  5-O ) :   2.0671 B(  4-C ,  6-F ) :   1.1688

Dispersion correction           -0.007585793
FINAL SINGLE POINT ENERGY      -292.557408590876

DIPOLE MOMENT
-------------
                                X             Y             Z
Electronic contribution:      5.40063      -2.84772       5.12185
Nuclear contribution   :     -6.57765       2.82334      -5.39171
                        -----------------------------------------
Total Dipole Moment    :     -1.17702      -0.02438      -0.26986
                        -----------------------------------------
Magnitude (a.u.)       :      1.20780
Magnitude (Debye)      :      3.06999

Rotational constants in cm-1:     0.294245     0.132994     0.101060
Rotational constants in MHz :  8821.228602  3987.049251  3029.696815

                             ****ORCA TERMINATED NORMALLY****
TOTAL RUN TIME: 0 days 0 hours 0 minutes 8 seconds 109 msec
