                         Program Version 5.0.0 -  RELEASE  -
|  1> !TPSS D3BJ RIJCOSX def2-TZVP def2/J TightSCF
|  2> *xyz 0 1
|  3> C          4.60295       -2.44010        2.63478
|  4> C          3.86085       -1.59157        3.62289
|  5> N          2.75650       -2.04616        4.16633
|  6> C          4.25433       -0.36291        3.86046
|  7> H          3.56526        0.31099        4.16898
|  8> H          5.05429       -0.01606        3.33784
|  9> H          2.43970       -2.97389        3.89740
| 10> H          2.06687       -1.41253        4.54981
| 11> C          3.74469       -2.58056        1.36188
| 12> H          5.56156       -1.97135        2.40708
| 13> H          4.81050       -3.42255        3.06310
| 14> H          4.26314       -3.18477        0.64702
| 15> H          3.56325       -1.61180        0.94535
| 16> H          2.81197       -3.04259        1.60980
| 17> *
| 18>
| 19> %MaxCore 64000
| 20>
| 21> %pal nprocs 4
| 22> end
| 23>
| 24> %scf
| 25>   MaxIter 150
| 26> end
| 27>
| 28>
| 29>                          ****END OF INPUT****

CARTESIAN COORDINATES (ANGSTROEM)
---------------------------------
  C      4.602950   -2.440100    2.634780
  C      3.860850   -1.591570    3.622890
  N      2.756500   -2.046160    4.166330
  C      4.254330   -0.362910    3.860460
  H      3.565260    0.310990    4.168980
  H      5.054290   -0.016060    3.337840
  H      2.439700   -2.973890    3.897400
  H      2.066870   -1.412530    4.549810
  C      3.744690   -2.580560    1.361880
  H      5.561560   -1.971350    2.407080
  H      4.810500   -3.422550    3.063100
  H      4.263140   -3.184770    0.647020
  H      3.563250   -1.611800    0.945350
  H      2.811970   -3.042590    1.609800

 Total Charge           Charge          ....    0
 Multiplicity           Mult            ....    1
 Number of Electrons    NEL             ....   40
 Basis Dimension        Dim             ....  209

ORBITAL ENERGIES
----------------

  NO   OCC          E(Eh)            E(eV)
   0   2.0000     -14.101689      -383.7265
   1   2.0000      -9.995908      -272.0025
   2   2.0000      -9.986202      -271.7384
   3   2.0000      -9.974043      -271.4075
   4   2.0000      -9.912499      -269.7328
   5   2.0000      -0.869460       -23.6592
   6   2.0000      -0.723014       -19.6742
   7   2.0000      -0.664281       -18.0760
   8   2.0000      -0.585303       -15.9269
   9   2.0000      -0.521409       -14.1883
  10   2.0000      -0.481404       -13.0997
  11   2.0000      -0.433201       -11.7880
  12   2.0000      -0.398448       -10.8423
  13   2.0000      -0.386864       -10.5271
  14   2.0000      -0.347385        -9.4528
  15   2.0000      -0.341502        -9.2927
  16   2.0000      -0.320790        -8.7291
  17   2.0000      -0.300983        -8.1902
  18   2.0000      -0.285469        -7.7680
  19   2.0000      -0.160619        -4.3707
  20   0.0000       0.012248         0.3333
  21   0.0000       0.019670         0.5353
  22   0.0000       0.060976         1.6592
  23   0.0000       0.064317         1.7502
  24   0.0000       0.074140         2.0174

MULLIKEN ATOMIC CHARGES
-----------------------
   0 C :   -0.163654
   1 C :    0.177117
   2 N :   -0.452284
   3 C :   -0.387379
   4 H :    0.079466
   5 H :    0.091113
   6 H :    0.228132
   7 H :    0.231455
   8 C :   -0.319702
   9 H :    0.101593
  10 H :    0.089197
  11 H :    0.114300
  12 H :    0.118301
  13 H :    0.092344
Sum of atomic charges:    0.0000000

LOEWDIN ATOMIC CHARGES
----------------------
   0 C :   -0.231400
   1 C :   -0.378376
   2 N :    0.012814
   3 C :   -0.272826
   4 H :    0.097191
   5 H :    0.104891
   6 H :    0.168423
   7 H :    0.171443
   8 C :   -0.284450
   9 H :    0.143173
  10 H :    0.131059
  11 H :    0.112513
  12 H :    0.117803
  13 H :    0.107742

  Mayer bond orders larger than 0.100000
B(  0-C ,  1-C ) :   1.0195 B(  0-C ,  8-C ) :   0.9889 B(  0-C ,  9-H ) :   0.9546
B(  0-C , 10-H ) :   0.9511 B(  1-C ,  2-N ) :   1.1719 B(  1-C ,  3-C ) :   1.8013
B(  2-N ,  6-H ) :   0.9231 B(  2-N ,  7-H ) :   0.9100 B(  3-C ,  4-H ) :   0.9772
B(  3-C ,  5-H ) :   0.9778 B(  8-C , 11-H ) :   0.9637 B(  8-C , 12-H ) :   0.9714
B(  8-C , 13-H ) :   0.9706

Dispersion correction           -0.013135348
FINAL SINGLE POINT ENERGY      -212.680805642699

DIPOLE MOMENT
-------------
                                X             Y             Z
Electronic contribution:     -0.51995       0.30436       2.84866
Nuclear contribution   :     -0.12319      -0.83296      -3.13501
                        -----------------------------------------
Total Dipole Moment    :     -0.64314      -0.52860      -0.28634
                        -----------------------------------------
Magnitude (a.u.)       :      0.88036
Magnitude (Debye)      :      2.23771

Rotational constants in cm-1:     0.266453     0.134423     0.106086
Rotational constants in MHz :  7988.053142  4029.892766  3180.375228

                             ****ORCA TERMINATED NORMALLY****
TOTAL RUN TIME: 0 days 0 hours 0 minutes 12 seconds 173 msec
