                         Program Version 5.0.0 -  RELEASE  -
|  1> !TPSS D3BJ RIJCOSX def2-TZVP def2/J TightSCF xyzfile
|  2>
|  3> *xyzfile 0 1 D2.xyz
|  4>
|  5> %MaxCore 64000
|  6>
|  7> %pal nprocs 18
|  8> end
|  9>
| 10> %scf
| 11>   MaxIter 150
| 12> end
| 13>
| 14>
| 15>                          ****END OF INPUT****

CARTESIAN COORDINATES (ANGSTROEM)
---------------------------------
  C      4.602954   -2.440100    2.634780
  C     -0.914947    0.615112    2.505538
  C     -0.059146    1.503524    3.410578
  H      0.365364    2.344315    2.861161
  H     -0.692261    1.920207    4.198985
  C      1.083027    0.749640    4.085705
  C      3.860851   -1.591565    3.622893
  N      2.756502   -2.046159    4.166333
  C      4.254325   -0.362905    3.860455
  H      3.565256    0.310994    4.168983
  H      5.054292   -0.016059    3.337838
  H      2.439696   -2.973894    3.897395
  H      2.066869   -1.412532    4.549813
  F      2.228167    1.263475    4.019826
  O      0.810034   -0.345411    4.636269
  C      3.744685   -2.580557    1.361882
  C      0.772139    0.636882    0.562129
  C     -0.130740   -0.193985    1.470763
  H     -0.840563   -0.760165    0.856377
  H      0.466691   -0.938942    2.006959
  H     -1.647961    1.245963    1.991076
  H     -1.478180   -0.081046    3.130424
  C      3.203721   -1.256004    0.826211
  H      2.898939   -3.239289    1.583074
  H      4.334962   -3.095523    0.600188
  C      2.107815   -1.442385   -0.216865
  H      2.786775   -0.672760    1.650711
  H      4.021008   -0.652993    0.414046
  C      1.390662   -0.145912   -0.602422
  H      1.372179   -2.152184    0.176151
  H      2.523302   -1.906787   -1.117115
  H      1.561361    1.100094    1.161831
  H      0.195516    1.468325    0.142758
  H      0.602893   -0.398214   -1.319716
  H      2.087247    0.508272   -1.137335
  H      5.561557   -1.971347    2.407084
  H      4.810498   -3.422552    3.063099

 Total Charge           Charge          ....    0
 Multiplicity           Mult            ....    1
 Number of Electrons    NEL             ....  118
 Basis Dimension        Dim             ....  597

ORBITAL ENERGIES
----------------

  NO   OCC          E(Eh)            E(eV)
   0   2.0000     -24.491621      -666.4509
   1   2.0000     -18.910087      -514.5696
   2   2.0000     -14.067661      -382.8005
   3   2.0000     -10.171388      -276.7775
   4   2.0000     -10.024288      -272.7748
   5   2.0000     -10.004117      -272.2259
   6   2.0000      -9.988989      -271.8142
   7   2.0000      -9.986105      -271.7357
   8   2.0000      -9.980840      -271.5925
   9   2.0000      -9.976757      -271.4814
  10   2.0000      -9.975417      -271.4449
  11   2.0000      -9.974584      -271.4222
  12   2.0000      -9.971059      -271.3263
  13   2.0000      -9.968497      -271.2566
  14   2.0000      -9.888960      -269.0923
  15   2.0000      -1.256827       -34.2000
  16   2.0000      -0.991735       -26.9865
  17   2.0000      -0.845088       -22.9960
  18   2.0000      -0.774173       -21.0663
  19   2.0000      -0.747925       -20.3521
  20   2.0000      -0.722692       -19.6654
  21   2.0000      -0.689749       -18.7690
  22   2.0000      -0.660242       -17.9661
  23   2.0000      -0.646276       -17.5861
  24   2.0000      -0.614383       -16.7182
  25   2.0000      -0.597053       -16.2466
  26   2.0000      -0.561294       -15.2736
  27   2.0000      -0.538405       -14.6507
  28   2.0000      -0.516140       -14.0449
  29   2.0000      -0.511089       -13.9075
  30   2.0000      -0.503612       -13.7040
  31   2.0000      -0.494967       -13.4687
  32   2.0000      -0.480424       -13.0730
  33   2.0000      -0.454435       -12.3658
  34   2.0000      -0.441736       -12.0203
  35   2.0000      -0.435845       -11.8599
  36   2.0000      -0.419617       -11.4184
  37   2.0000      -0.410588       -11.1727
  38   2.0000      -0.398670       -10.8484
  39   2.0000      -0.392926       -10.6921
  40   2.0000      -0.381710       -10.3869
  41   2.0000      -0.371206       -10.1010
  42   2.0000      -0.363037        -9.8788
  43   2.0000      -0.354626        -9.6499
  44   2.0000      -0.342985        -9.3331
  45   2.0000      -0.336897        -9.1674
  46   2.0000      -0.329530        -8.9670
  47   2.0000      -0.327689        -8.9169
  48   2.0000      -0.315336        -8.5807
  49   2.0000      -0.312648        -8.5076
  50   2.0000      -0.306321        -8.3354
  51   2.0000      -0.290245        -7.8980
  52   2.0000      -0.287818        -7.8319
  53   2.0000      -0.285101        -7.7580
  54   2.0000      -0.279175        -7.5967
  55   2.0000      -0.274596        -7.4721
  56   2.0000      -0.264983        -7.2105
  57   2.0000      -0.254519        -6.9258
  58   2.0000      -0.140584        -3.8255
  59   0.0000      -0.081555        -2.2192
  60   0.0000       0.012824         0.3490
  61   0.0000       0.024768         0.6740
  62   0.0000       0.033418         0.9094
  63   0.0000       0.037723         1.0265

MULLIKEN ATOMIC CHARGES
-----------------------
   0 C :   -0.114170
   1 C :   -0.120070
   2 C :   -0.187297
   3 H :    0.123040
   4 H :    0.131272
   5 C :    0.360661
   6 C :    0.053168
   7 N :   -0.410968
   8 C :   -0.360007
   9 H :    0.082631
  10 H :    0.076025
  11 H :    0.210245
  12 H :    0.237825
  13 F :   -0.069571
  14 O :   -0.345728
  15 C :   -0.188349
  16 C :   -0.253088
  17 C :   -0.255900
  18 H :    0.088448
  19 H :    0.134572
  20 H :    0.096457
  21 H :    0.105713
  22 C :   -0.223666
  23 H :    0.082483
  24 H :    0.085681
  25 C :   -0.146143
  26 H :    0.117783
  27 H :    0.067112
  28 C :   -0.088629
  29 H :    0.089518
  30 H :    0.080931
  31 H :    0.114527
  32 H :    0.084369
  33 H :    0.084906
  34 H :    0.077256
  35 H :    0.087277
  36 H :    0.091687
Sum of atomic charges:   -0.0000000

LOEWDIN ATOMIC CHARGES
----------------------
   0 C :   -0.210440
   1 C :   -0.250191
   2 C :   -0.226932
   3 H :    0.143054
   4 H :    0.158273
   5 C :   -0.491854
   6 C :   -0.392262
   7 N :    0.018903
   8 C :   -0.290692
   9 H :    0.086505
  10 H :    0.100118
  11 H :    0.162669
  12 H :    0.145038
  13 F :    0.361951
  14 O :    0.094831
  15 C :   -0.253167
  16 C :   -0.268629
  17 C :   -0.265911
  18 H :    0.137991
  19 H :    0.138503
  20 H :    0.138833
  21 H :    0.142574
  22 C :   -0.257701
  23 H :    0.128632
  24 H :    0.131039
  25 C :   -0.266414
  26 H :    0.140401
  27 H :    0.132749
  28 C :   -0.260151
  29 H :    0.132657
  30 H :    0.131541
  31 H :    0.131635
  32 H :    0.133493
  33 H :    0.133265
  34 H :    0.133494
  35 H :    0.143257
  36 H :    0.132937

  Mayer bond orders larger than 0.100000
B(  0-C ,  6-C ) :   1.0078 B(  0-C , 15-C ) :   0.9904 B(  0-C , 35-H ) :   0.9460
B(  0-C , 36-H ) :   0.9485 B(  1-C ,  2-C ) :   1.0038 B(  1-C , 17-C ) :   1.0279
B(  1-C , 20-H ) :   0.9407 B(  1-C , 21-H ) :   0.9395 B(  2-C ,  3-H ) :   0.9461
B(  2-C ,  4-H ) :   0.9123 B(  2-C ,  5-C ) :   1.0292 B(  5-C , 13-F ) :   1.1521
B(  5-C , 14-O ) :   1.9118 B(  6-C ,  7-N ) :   1.2110 B(  6-C ,  8-C ) :   1.7892
B(  7-N , 11-H ) :   0.9284 B(  7-N , 12-H ) :   0.8444 B(  8-C ,  9-H ) :   0.9682
B(  8-C , 10-H ) :   0.9731 B( 12-H , 14-O ) :   0.1194 B( 15-C , 22-C ) :   1.0153
B( 15-C , 23-H ) :   0.9641 B( 15-C , 24-H ) :   0.9393 B( 16-C , 17-C ) :   1.0138
B( 16-C , 28-C ) :   1.0323 B( 16-C , 31-H ) :   0.9521 B( 16-C , 32-H ) :   0.9403
B( 17-C , 18-H ) :   0.9427 B( 17-C , 19-H ) :   0.9516 B( 22-C , 25-C ) :   1.0268
B( 22-C , 26-H ) :   0.9676 B( 22-C , 27-H ) :   0.9429 B( 25-C , 28-C ) :   1.0133
B( 25-C , 29-H ) :   0.9465 B( 25-C , 30-H ) :   0.9453 B( 28-C , 33-H ) :   0.9464
B( 28-C , 34-H ) :   0.9455

Dispersion correction           -0.053601129
FINAL SINGLE POINT ENERGY      -700.703254165051

DIPOLE MOMENT
-------------
                                X             Y             Z
Electronic contribution:      0.08240       6.21257      15.19517
Nuclear contribution   :     -1.39991      -5.60370     -16.00470
                        -----------------------------------------
Total Dipole Moment    :     -1.31751       0.60887      -0.80952
                        -----------------------------------------
Magnitude (a.u.)       :      1.66189
Magnitude (Debye)      :      4.22419

Rotational constants in cm-1:     0.021622     0.017313     0.011402
Rotational constants in MHz :   648.226014   519.043632   341.814105

                             ****ORCA TERMINATED NORMALLY****
TOTAL RUN TIME: 0 days 0 hours 0 minutes 30 seconds 614 msec
