                         Program Version 5.0.0 -  RELEASE  -
|  1> !TPSS D3BJ RIJCOSX def2-TZVP def2/J TightSCF xyzfile
|  2>
|  3> *xyzfile 0 1 D3.xyz
|  4>
|  5> %MaxCore 64000
|  6>
|  7> %pal nprocs 18
|  8> end
|  9>
| 10> %scf
| 11>   MaxIter 150
| 12> end
| 13>
| 14>
| 15>                          ****END OF INPUT****

CARTESIAN COORDINATES (ANGSTROEM)
---------------------------------
  C      4.602954   -2.440100    2.634780
  C     -0.914947    0.615112    2.505538
  C     -0.059146    1.503524    3.410578
  H      0.365364    2.344315    2.861161
  H     -0.692261    1.920207    4.198985
  C      1.083027    0.749640    4.085705
  C      3.860851   -1.591565    3.622893
  C      2.756502   -2.046159    4.166333
  N      4.254325   -0.362905    3.860455
  H      3.565256    0.310994    4.168983
  H      5.054292   -0.016059    3.337838
  H      2.439696   -2.973894    3.897395
  H      2.066869   -1.412532    4.549813
  O      2.228167    1.263475    4.019826
  F      0.810034   -0.345411    4.636269
  C      3.744685   -2.580557    1.361882
  C      0.772139    0.636882    0.562129
  C     -0.130740   -0.193985    1.470763
  H     -0.840563   -0.760165    0.856377
  H      0.466691   -0.938942    2.006959
  H     -1.647961    1.245963    1.991076
  H     -1.478180   -0.081046    3.130424
  C      3.203721   -1.256004    0.826211
  H      2.898939   -3.239289    1.583074
  H      4.334962   -3.095523    0.600188
  C      2.107815   -1.442385   -0.216865
  H      2.786775   -0.672760    1.650711
  H      4.021008   -0.652993    0.414046
  C      1.390662   -0.145912   -0.602422
  H      1.372179   -2.152184    0.176151
  H      2.523302   -1.906787   -1.117115
  H      1.561361    1.100094    1.161831
  H      0.195516    1.468325    0.142758
  H      0.602893   -0.398214   -1.319716
  H      2.087247    0.508272   -1.137335
  H      5.561557   -1.971347    2.407084
  H      4.810498   -3.422552    3.063099

 Total Charge           Charge          ....    0
 Multiplicity           Mult            ....    1
 Number of Electrons    NEL             ....  118
 Basis Dimension        Dim             ....  597

ORBITAL ENERGIES
----------------

  NO   OCC          E(Eh)            E(eV)
   0   2.0000     -24.490387      -666.4173
   1   2.0000     -18.907757      -514.5062
   2   2.0000     -14.066083      -382.7576
   3   2.0000     -10.169118      -276.7158
   4   2.0000     -10.022174      -272.7172
   5   2.0000     -10.004744      -272.2429
   6   2.0000      -9.989148      -271.8185
   7   2.0000      -9.983237      -271.6577
   8   2.0000      -9.979132      -271.5460
   9   2.0000      -9.977069      -271.4899
  10   2.0000      -9.973227      -271.3853
  11   2.0000      -9.971815      -271.3469
  12   2.0000      -9.971575      -271.3404
  13   2.0000      -9.967772      -271.2369
  14   2.0000      -9.889266      -269.1006
  15   2.0000      -1.256069       -34.1794
  16   2.0000      -0.988151       -26.8890
  17   2.0000      -0.844251       -22.9732
  18   2.0000      -0.774618       -21.0784
  19   2.0000      -0.747151       -20.3310
  20   2.0000      -0.721979       -19.6460
  21   2.0000      -0.688576       -18.7371
  22   2.0000      -0.657568       -17.8933
  23   2.0000      -0.639509       -17.4019
  24   2.0000      -0.613738       -16.7007
  25   2.0000      -0.597424       -16.2567
  26   2.0000      -0.563676       -15.3384
  27   2.0000      -0.541229       -14.7276
  28   2.0000      -0.514916       -14.0116
  29   2.0000      -0.511717       -13.9245
  30   2.0000      -0.501590       -13.6490
  31   2.0000      -0.494340       -13.4517
  32   2.0000      -0.474826       -12.9207
  33   2.0000      -0.447837       -12.1863
  34   2.0000      -0.440265       -11.9802
  35   2.0000      -0.435318       -11.8456
  36   2.0000      -0.424338       -11.5468
  37   2.0000      -0.405855       -11.0439
  38   2.0000      -0.401032       -10.9126
  39   2.0000      -0.386159       -10.5079
  40   2.0000      -0.381716       -10.3870
  41   2.0000      -0.368736       -10.0338
  42   2.0000      -0.364470        -9.9177
  43   2.0000      -0.351650        -9.5689
  44   2.0000      -0.345122        -9.3913
  45   2.0000      -0.336895        -9.1674
  46   2.0000      -0.332311        -9.0426
  47   2.0000      -0.327175        -8.9029
  48   2.0000      -0.316116        -8.6020
  49   2.0000      -0.306653        -8.3444
  50   2.0000      -0.302047        -8.2191
  51   2.0000      -0.295545        -8.0422
  52   2.0000      -0.286151        -7.7866
  53   2.0000      -0.283322        -7.7096
  54   2.0000      -0.278001        -7.5648
  55   2.0000      -0.272669        -7.4197
  56   2.0000      -0.261608        -7.1187
  57   2.0000      -0.253482        -6.8976
  58   2.0000      -0.139728        -3.8022
  59   0.0000      -0.076927        -2.0933
  60   0.0000       0.011591         0.3154
  61   0.0000       0.029467         0.8018
  62   0.0000       0.034535         0.9397
  63   0.0000       0.037462         1.0194

MULLIKEN ATOMIC CHARGES
-----------------------
   0 C :   -0.108491
   1 C :   -0.149006
   2 C :   -0.176772
   3 H :    0.136658
   4 H :    0.125811
   5 C :    0.351861
   6 C :    0.051646
   7 C :   -0.394800
   8 N :   -0.392937
   9 H :    0.235486
  10 H :    0.208225
  11 H :    0.081169
  12 H :    0.096697
  13 O :   -0.353490
  14 F :   -0.070004
  15 C :   -0.153151
  16 C :   -0.265112
  17 C :   -0.240013
  18 H :    0.087963
  19 H :    0.141889
  20 H :    0.098083
  21 H :    0.102916
  22 C :   -0.252666
  23 H :    0.088451
  24 H :    0.074980
  25 C :   -0.152464
  26 H :    0.134296
  27 H :    0.063445
  28 C :   -0.088272
  29 H :    0.091001
  30 H :    0.080871
  31 H :    0.132833
  32 H :    0.082884
  33 H :    0.083808
  34 H :    0.075914
  35 H :    0.067491
  36 H :    0.102800
Sum of atomic charges:   -0.0000000

LOEWDIN ATOMIC CHARGES
----------------------
   0 C :   -0.209460
   1 C :   -0.258374
   2 C :   -0.223545
   3 H :    0.153443
   4 H :    0.153559
   5 C :   -0.493654
   6 C :   -0.390138
   7 C :   -0.293273
   8 N :    0.019049
   9 H :    0.144546
  10 H :    0.160518
  11 H :    0.101747
  12 H :    0.087002
  13 O :    0.090210
  14 F :    0.364011
  15 C :   -0.247249
  16 C :   -0.268035
  17 C :   -0.266048
  18 H :    0.137985
  19 H :    0.139691
  20 H :    0.139201
  21 H :    0.138408
  22 C :   -0.261102
  23 H :    0.135061
  24 H :    0.127469
  25 C :   -0.265075
  26 H :    0.141399
  27 H :    0.129295
  28 C :   -0.260620
  29 H :    0.133762
  30 H :    0.131582
  31 H :    0.135870
  32 H :    0.133102
  33 H :    0.132760
  34 H :    0.133152
  35 H :    0.129805
  36 H :    0.143947

  Mayer bond orders larger than 0.100000
B(  0-C ,  6-C ) :   0.9799 B(  0-C , 15-C ) :   1.0053 B(  0-C , 35-H ) :   0.9431
B(  0-C , 36-H ) :   0.9503 B(  1-C ,  2-C ) :   0.9867 B(  1-C , 17-C ) :   1.0129
B(  1-C , 20-H ) :   0.9394 B(  1-C , 21-H ) :   0.9498 B(  2-C ,  3-H ) :   0.9501
B(  2-C ,  4-H ) :   0.9154 B(  2-C ,  5-C ) :   1.0398 B(  5-C , 13-O ) :   1.8974
B(  5-C , 14-F ) :   1.1494 B(  6-C ,  7-C ) :   1.7701 B(  6-C ,  8-N ) :   1.2231
B(  7-C , 11-H ) :   0.9793 B(  7-C , 12-H ) :   0.9686 B(  8-N ,  9-H ) :   0.8520
B(  8-N , 10-H ) :   0.9242 B(  9-H , 13-O ) :   0.1201 B( 15-C , 22-C ) :   1.0268
B( 15-C , 23-H ) :   0.9505 B( 15-C , 24-H ) :   0.9374 B( 16-C , 17-C ) :   1.0098
B( 16-C , 28-C ) :   1.0299 B( 16-C , 31-H ) :   0.9521 B( 16-C , 32-H ) :   0.9399
B( 17-C , 18-H ) :   0.9415 B( 17-C , 19-H ) :   0.9539 B( 22-C , 25-C ) :   1.0340
B( 22-C , 26-H ) :   0.9549 B( 22-C , 27-H ) :   0.9439 B( 25-C , 28-C ) :   1.0126
B( 25-C , 29-H ) :   0.9483 B( 25-C , 30-H ) :   0.9444 B( 28-C , 33-H ) :   0.9469
B( 28-C , 34-H ) :   0.9452

Dispersion correction           -0.053664287
FINAL SINGLE POINT ENERGY      -700.704288437833

DIPOLE MOMENT
-------------
                                X             Y             Z
Electronic contribution:     -1.14719       4.75599      16.02179
Nuclear contribution   :      0.05905      -3.94566     -16.70013
                        -----------------------------------------
Total Dipole Moment    :     -1.08814       0.81033      -0.67835
                        -----------------------------------------
Magnitude (a.u.)       :      1.51686
Magnitude (Debye)      :      3.85554

Rotational constants in cm-1:     0.021602     0.017295     0.011353
Rotational constants in MHz :   647.614981   518.478934   340.359556

                             ****ORCA TERMINATED NORMALLY****
TOTAL RUN TIME: 0 days 0 hours 0 minutes 32 seconds 813 msec
