                         Program Version 5.0.0 -  RELEASE  -
|  1> !DLPNO-CCSD(T) aug-cc-pVTZ aug-cc-pVTZ/C TightSCF TightPNO RIJCOSX def2/J
|  2> *xyz -1 1
|  3> C         -0.46129        2.23469       -4.98962
|  4> C          0.84888        2.66797       -4.30235
|  5> C          2.09343        1.86104       -4.65684
|  6> H          2.44481        2.04157       -5.67499
|  7> H          2.90175        2.13786       -3.98034
|  8> S          1.87964        0.07859       -4.46297
|  9> O          3.20757       -0.46611       -4.42026
| 10> O          1.07506       -0.05616       -3.26876
| 11> O          1.13166       -0.31996       -5.67903
| 12> H          0.66843        2.55943       -3.23285
| 13> H          1.03407        3.72943       -4.49708
| 14> H         -0.35183        2.31783       -6.05075
| 15> H         -1.26108        2.86600       -4.66300
| 16> H         -0.68032        1.21949       -4.73211
| 17> *
| 18>
| 19> %MaxCore 64000
| 20>
| 21> %pal nprocs 2
| 22> end
| 23>
| 24> %scf
| 25>   MaxIter 150
| 26> end
| 27>
| 28>
| 29>                          ****END OF INPUT****

CARTESIAN COORDINATES (ANGSTROEM)
---------------------------------
  C     -0.461290    2.234690   -4.989620
  C      0.848880    2.667970   -4.302350
  C      2.093430    1.861040   -4.656840
  H      2.444810    2.041570   -5.674990
  H      2.901750    2.137860   -3.980340
  S      1.879640    0.078590   -4.462970
  O      3.207570   -0.466110   -4.420260
  O      1.075060   -0.056160   -3.268760
  O      1.131660   -0.319960   -5.679030
  H      0.668430    2.559430   -3.232850
  H      1.034070    3.729430   -4.497080
  H     -0.351830    2.317830   -6.050750
  H     -1.261080    2.866000   -4.663000
  H     -0.680320    1.219490   -4.732110

 Total Charge           Charge          ....   -1
 Multiplicity           Mult            ....    1
 Number of Electrons    NEL             ....   66
 Basis Dimension        Dim             ....  487

ORBITAL ENERGIES
----------------

  NO   OCC          E(Eh)            E(eV)
   0   2.0000     -91.984498     -2503.0255
   1   2.0000     -20.337840      -553.4208
   2   2.0000     -20.335013      -553.3438
   3   2.0000     -20.321116      -552.9657
   4   2.0000     -11.092307      -301.8370
   5   2.0000     -11.089766      -301.7679
   6   2.0000     -11.068359      -301.1854
   7   2.0000      -8.947955      -243.4862
   8   2.0000      -6.634164      -180.5248
   9   2.0000      -6.632886      -180.4900
  10   2.0000      -6.632714      -180.4853
  11   2.0000      -1.278583       -34.7920
  12   2.0000      -1.138389       -30.9771
  13   2.0000      -1.109685       -30.1961
  14   2.0000      -0.927269       -25.2323
  15   2.0000      -0.814698       -22.1691
  16   2.0000      -0.690796       -18.7975
  17   2.0000      -0.594080       -16.1657
  18   2.0000      -0.512775       -13.9533
  19   2.0000      -0.486335       -13.2338
  20   2.0000      -0.470673       -12.8077
  21   2.0000      -0.456724       -12.4281
  22   2.0000      -0.443567       -12.0701
  23   2.0000      -0.415611       -11.3094
  24   2.0000      -0.374784       -10.1984
  25   2.0000      -0.356742        -9.7075
  26   2.0000      -0.339689        -9.2434
  27   2.0000      -0.326083        -8.8732
  28   2.0000      -0.321661        -8.7529
  29   2.0000      -0.284786        -7.7494
  30   2.0000      -0.269978        -7.3465
  31   2.0000      -0.245153        -6.6710
  32   2.0000      -0.234438        -6.3794
  33   0.0000       0.110245         2.9999
  34   0.0000       0.120429         3.2771
  35   0.0000       0.129916         3.5352
  36   0.0000       0.140895         3.8339
  37   0.0000       0.146596         3.9891

MULLIKEN ATOMIC CHARGES
-----------------------
   0 C :   -1.004916
   1 C :   -0.458573
   2 C :   -0.544333
   3 H :    0.267525
   4 H :    0.194787
   5 S :    2.250939
   6 O :   -1.052651
   7 O :   -1.068143
   8 O :   -1.061363
   9 H :    0.267260
  10 H :    0.284880
  11 H :    0.271543
  12 H :    0.263647
  13 H :    0.389398
Sum of atomic charges:   -1.0000000

LOEWDIN ATOMIC CHARGES
----------------------
   0 C :    0.561330
   1 C :    0.202213
   2 C :    0.136465
   3 H :   -0.200560
   4 H :   -0.215358
   5 S :   -0.388746
   6 O :   -0.044486
   7 O :   -0.022402
   8 O :   -0.053198
   9 H :   -0.183203
  10 H :   -0.165066
  11 H :   -0.192658
  12 H :   -0.200046
  13 H :   -0.234284

  Mayer bond orders larger than 0.100000
B(  0-C ,  1-C ) :   0.8263 B(  0-C , 11-H ) :   0.9578 B(  0-C , 12-H ) :   0.9834
B(  0-C , 13-H ) :   0.8991 B(  1-C ,  2-C ) :   0.9029 B(  1-C ,  5-S ) :   0.1070
B(  1-C ,  9-H ) :   0.9488 B(  1-C , 10-H ) :   0.9365 B(  2-C ,  3-H ) :   0.9302
B(  2-C ,  4-H ) :   0.9793 B(  2-C ,  5-S ) :   0.7698 B(  5-S ,  6-O ) :   1.2485
B(  5-S ,  7-O ) :   1.3520 B(  5-S ,  8-O ) :   1.3358

E(0)                                       ...   -739.969879128
E(0)                                       ...   -739.969879128
E(CORR)(strong-pairs)                      ...     -1.490820228
E(CORR)(weak-pairs)                        ...     -0.001599563
E(CORR)(corrected)                         ...     -1.492419791
E(TOT)                                     ...   -741.462298919
E(CCSD(T))                                 ...   -741.525747509
FINAL SINGLE POINT ENERGY      -741.525747508670

DIPOLE MOMENT
-------------
                                X             Y             Z
Electronic contribution:      4.87120      -8.91876       1.03459
Nuclear contribution   :     -5.21326      11.14780      -1.06438
                        -----------------------------------------
Total Dipole Moment    :     -0.34206       2.22905      -0.02979
                        -----------------------------------------
Magnitude (a.u.)       :      2.25533
Magnitude (Debye)      :      5.73261

Rotational constants in cm-1:     0.135673     0.057896     0.054396
Rotational constants in MHz :  4067.361083  1735.682437  1630.763840

                             ****ORCA TERMINATED NORMALLY****
TOTAL RUN TIME: 0 days 1 hours 26 minutes 42 seconds 484 msec
