                         Program Version 5.0.0 -  RELEASE  -
|  1> !DLPNO-CCSD(T) aug-cc-pVTZ aug-cc-pVTZ/C TightSCF TightPNO RIJCOSX def2/J
|  2> *xyz 1 1
|  3> C         -0.46129        2.23469       -4.98962
|  4> C          0.84888        2.66797       -4.30235
|  5> C          2.09343        1.86104       -4.65684
|  6> C         -0.42384        2.39877       -6.47432
|  7> N         -0.95947        3.49265       -7.00740
|  8> N          0.14558        1.48689       -7.20399
|  9> H          0.56537        0.69681       -6.72386
| 10> H          0.22068        1.58177       -8.20752
| 11> H         -1.40624        4.18151       -6.40326
| 12> H         -0.93421        3.68160       -7.99947
| 13> H          0.66843        2.55943       -3.23285
| 14> H          1.03407        3.72943       -4.49708
| 15> H         -1.28888        2.82674       -4.59500
| 16> H         -0.65170        1.18634       -4.75655
| 17> H          2.29129        1.95234       -5.70442
| 18> H          1.93270        0.83176       -4.41261
| 19> H          2.92953        2.23285       -4.10223
| 20> *
| 21>
| 22> %MaxCore 64000
| 23>
| 24> %pal nprocs 8
| 25> end
| 26>
| 27> %scf
| 28>   MaxIter 150
| 29> end
| 30>
| 31>
| 32>                          ****END OF INPUT****

CARTESIAN COORDINATES (ANGSTROEM)
---------------------------------
  C     -0.461290    2.234690   -4.989620
  C      0.848880    2.667970   -4.302350
  C      2.093430    1.861040   -4.656840
  C     -0.423840    2.398770   -6.474320
  N     -0.959470    3.492650   -7.007400
  N      0.145580    1.486890   -7.203990
  H      0.565370    0.696810   -6.723860
  H      0.220680    1.581770   -8.207520
  H     -1.406240    4.181510   -6.403260
  H     -0.934210    3.681600   -7.999470
  H      0.668430    2.559430   -3.232850
  H      1.034070    3.729430   -4.497080
  H     -1.288880    2.826740   -4.595000
  H     -0.651700    1.186340   -4.756550
  H      2.291290    1.952340   -5.704420
  H      1.932700    0.831760   -4.412610
  H      2.929530    2.232850   -4.102230

 Total Charge           Charge          ....    1
 Multiplicity           Mult            ....    1
 Number of Electrons    NEL             ....   48
 Basis Dimension        Dim             ....  529

ORBITAL ENERGIES
----------------

  NO   OCC          E(Eh)            E(eV)
   0   2.0000     -15.804701      -430.0678
   1   2.0000     -15.800712      -429.9592
   2   2.0000     -11.565030      -314.7005
   3   2.0000     -11.420143      -310.7579
   4   2.0000     -11.385313      -309.8101
   5   2.0000     -11.350726      -308.8690
   6   2.0000      -1.519812       -41.3562
   7   2.0000      -1.401464       -38.1358
   8   2.0000      -1.246765       -33.9262
   9   2.0000      -1.141859       -31.0716
  10   2.0000      -1.046917       -28.4881
  11   2.0000      -0.991559       -26.9817
  12   2.0000      -0.956281       -26.0217
  13   2.0000      -0.926202       -25.2032
  14   2.0000      -0.866188       -23.5702
  15   2.0000      -0.816736       -22.2245
  16   2.0000      -0.784489       -21.3470
  17   2.0000      -0.765657       -20.8346
  18   2.0000      -0.731058       -19.8931
  19   2.0000      -0.714547       -19.4438
  20   2.0000      -0.649189       -17.6653
  21   2.0000      -0.641306       -17.4508
  22   2.0000      -0.638648       -17.3785
  23   2.0000      -0.620522       -16.8852
  24   0.0000      -0.094699        -2.5769
  25   0.0000      -0.073165        -1.9909
  26   0.0000      -0.072294        -1.9672
  27   0.0000      -0.059660        -1.6234
  28   0.0000      -0.049104        -1.3362

MULLIKEN ATOMIC CHARGES
-----------------------
   0 C :    0.003412
   1 C :   -0.480888
   2 C :   -0.917431
   3 C :    0.756604
   4 N :   -0.470592
   5 N :   -0.332546
   6 H :    0.126295
   7 H :    0.140564
   8 H :    0.108162
   9 H :    0.143323
  10 H :    0.300693
  11 H :    0.232928
  12 H :    0.261007
  13 H :    0.256656
  14 H :    0.264235
  15 H :    0.292369
  16 H :    0.315210
Sum of atomic charges:    1.0000000

LOEWDIN ATOMIC CHARGES
----------------------
   0 C :    0.355936
   1 C :    0.308615
   2 C :    0.620171
   3 C :   -0.222948
   4 N :    0.949483
   5 N :    0.944666
   6 H :   -0.235618
   7 H :   -0.214312
   8 H :   -0.228009
   9 H :   -0.231870
  10 H :   -0.133296
  11 H :   -0.131023
  12 H :   -0.131034
  13 H :   -0.125215
  14 H :   -0.196491
  15 H :   -0.170665
  16 H :   -0.158391

  Mayer bond orders larger than 0.100000
B(  0-C ,  1-C ) :   0.8598 B(  0-C ,  3-C ) :   0.3705 B(  0-C ,  5-N ) :  -0.1074
B(  0-C , 12-H ) :   0.9952 B(  0-C , 13-H ) :   0.9532 B(  1-C ,  2-C ) :   0.8027
B(  1-C ,  3-C ) :   0.1497 B(  1-C , 10-H ) :   0.9465 B(  1-C , 11-H ) :   0.9409
B(  2-C , 14-H ) :   0.9642 B(  2-C , 15-H ) :   0.9342 B(  2-C , 16-H ) :   0.9553
B(  3-C ,  4-N ) :   0.8319 B(  3-C ,  5-N ) :   0.9950 B(  4-N ,  8-H ) :   1.1293
B(  4-N ,  9-H ) :   1.0811 B(  5-N ,  6-H ) :   1.1089 B(  5-N ,  7-H ) :   1.0655

E(0)                                       ...   -266.692605313
E(0)                                       ...   -266.692605313
E(CORR)(strong-pairs)                      ...     -1.156870574
E(CORR)(weak-pairs)                        ...     -0.001207151
E(CORR)(corrected)                         ...     -1.158077725
E(TOT)                                     ...   -267.850683038
E(CCSD(T))                                 ...   -267.896775274
FINAL SINGLE POINT ENERGY      -267.896775274193

DIPOLE MOMENT
-------------
                                X             Y             Z
Electronic contribution:     -3.55331       0.60997      -4.24987
Nuclear contribution   :      2.80679      -0.44323       2.95915
                        -----------------------------------------
Total Dipole Moment    :     -0.74652       0.16673      -1.29071
                        -----------------------------------------
Magnitude (a.u.)       :      1.50035
Magnitude (Debye)      :      3.81357

Rotational constants in cm-1:     0.187834     0.079484     0.065778
Rotational constants in MHz :  5631.136036  2382.861517  1971.985559

                             ****ORCA TERMINATED NORMALLY****
TOTAL RUN TIME: 0 days 0 hours 21 minutes 42 seconds 832 msec
