                         Program Version 5.0.0 -  RELEASE  -
|  1> !DLPNO-CCSD(T) aug-cc-pVTZ aug-cc-pVTZ/C TightSCF TightPNO RIJCOSX def2/J
|  2> *xyz 0 1
|  3> C         -0.46129        2.23469       -4.98962
|  4> C          0.84888        2.66797       -4.30235
|  5> C          2.09343        1.86104       -4.65684
|  6> H          2.44481        2.04157       -5.67499
|  7> H          2.90175        2.13786       -3.98034
|  8> S          1.87964        0.07859       -4.46297
|  9> F          3.20757       -0.46611       -4.42026
| 10> O          1.07506       -0.05616       -3.26876
| 11> O          1.13166       -0.31996       -5.67903
| 12> H          0.66843        2.55943       -3.23285
| 13> H          1.03407        3.72943       -4.49708
| 14> H         -0.35183        2.31783       -6.05075
| 15> H         -1.26108        2.86600       -4.66300
| 16> H         -0.68032        1.21949       -4.73211
| 17> *
| 18>
| 19> %MaxCore 64000
| 20>
| 21> %pal nprocs 2
| 22> end
| 23>
| 24> %scf
| 25>   MaxIter 150
| 26> end
| 27>
| 28>
| 29>                          ****END OF INPUT****

CARTESIAN COORDINATES (ANGSTROEM)
---------------------------------
  C     -0.461290    2.234690   -4.989620
  C      0.848880    2.667970   -4.302350
  C      2.093430    1.861040   -4.656840
  H      2.444810    2.041570   -5.674990
  H      2.901750    2.137860   -3.980340
  S      1.879640    0.078590   -4.462970
  F      3.207570   -0.466110   -4.420260
  O      1.075060   -0.056160   -3.268760
  O      1.131660   -0.319960   -5.679030
  H      0.668430    2.559430   -3.232850
  H      1.034070    3.729430   -4.497080
  H     -0.351830    2.317830   -6.050750
  H     -1.261080    2.866000   -4.663000
  H     -0.680320    1.219490   -4.732110

 Total Charge           Charge          ....    0
 Multiplicity           Mult            ....    1
 Number of Electrons    NEL             ....   66
 Basis Dimension        Dim             ....  487

ORBITAL ENERGIES
----------------

  NO   OCC          E(Eh)            E(eV)
   0   2.0000     -92.250950     -2510.2760
   1   2.0000     -26.438467      -719.4273
   2   2.0000     -20.569239      -559.7175
   3   2.0000     -20.555501      -559.3436
   4   2.0000     -11.290838      -307.2393
   5   2.0000     -11.250434      -306.1399
   6   2.0000     -11.208964      -305.0114
   7   2.0000      -9.214610      -250.7423
   8   2.0000      -6.901991      -187.8127
   9   2.0000      -6.898304      -187.7124
  10   2.0000      -6.897418      -187.6883
  11   2.0000      -1.809276       -49.2329
  12   2.0000      -1.452930       -39.5362
  13   2.0000      -1.341241       -36.4970
  14   2.0000      -1.103951       -30.0400
  15   2.0000      -1.014448       -27.6045
  16   2.0000      -0.954634       -25.9769
  17   2.0000      -0.863563       -23.4987
  18   2.0000      -0.835744       -22.7418
  19   2.0000      -0.813111       -22.1259
  20   2.0000      -0.761824       -20.7303
  21   2.0000      -0.674985       -18.3673
  22   2.0000      -0.658560       -17.9203
  23   2.0000      -0.627304       -17.0698
  24   2.0000      -0.621489       -16.9116
  25   2.0000      -0.583156       -15.8685
  26   2.0000      -0.555256       -15.1093
  27   2.0000      -0.520473       -14.1628
  28   2.0000      -0.516403       -14.0520
  29   2.0000      -0.500000       -13.6057
  30   2.0000      -0.493070       -13.4171
  31   2.0000      -0.475515       -12.9394
  32   2.0000      -0.464932       -12.6514
  33   0.0000       0.023473         0.6387
  34   0.0000       0.035867         0.9760
  35   0.0000       0.039253         1.0681
  36   0.0000       0.046158         1.2560
  37   0.0000       0.059100         1.6082

MULLIKEN ATOMIC CHARGES
-----------------------
   0 C :   -0.984121
   1 C :   -0.442164
   2 C :   -0.497231
   3 H :    0.308997
   4 H :    0.249649
   5 S :    2.140490
   6 F :   -0.488440
   7 O :   -0.916020
   8 O :   -0.908713
   9 H :    0.278157
  10 H :    0.311324
  11 H :    0.283774
  12 H :    0.287389
  13 H :    0.376910
Sum of atomic charges:   -0.0000000

LOEWDIN ATOMIC CHARGES
----------------------
   0 C :    0.586124
   1 C :    0.238239
   2 C :    0.188168
   3 H :   -0.184640
   4 H :   -0.200177
   5 S :   -0.100860
   6 F :    0.294952
   7 O :    0.054117
   8 O :    0.027356
   9 H :   -0.171293
  10 H :   -0.141238
  11 H :   -0.183200
  12 H :   -0.179926
  13 H :   -0.227622

  Mayer bond orders larger than 0.100000
B(  0-C ,  1-C ) :   0.8422 B(  0-C , 11-H ) :   0.9447 B(  0-C , 12-H ) :   0.9670
B(  0-C , 13-H ) :   0.9136 B(  1-C ,  2-C ) :   0.9112 B(  1-C ,  5-S ) :   0.1116
B(  1-C ,  9-H ) :   0.9393 B(  1-C , 10-H ) :   0.9101 B(  2-C ,  3-H ) :   0.9026
B(  2-C ,  4-H ) :   0.9279 B(  2-C ,  5-S ) :   0.8466 B(  5-S ,  6-F ) :   0.4815
B(  5-S ,  7-O ) :   1.5713 B(  5-S ,  8-O ) :   1.5506

E(0)                                       ...   -764.462413968
E(0)                                       ...   -764.462413968
E(CORR)(strong-pairs)                      ...     -1.496091623
E(CORR)(weak-pairs)                        ...     -0.001624257
E(CORR)(corrected)                         ...     -1.497715879
E(TOT)                                     ...   -765.960129848
E(CCSD(T))                                 ...   -766.021229825
FINAL SINGLE POINT ENERGY      -766.021229825147

DIPOLE MOMENT
-------------
                                X             Y             Z
Electronic contribution:      8.20803     -11.13956       1.23552
Nuclear contribution   :     -7.07796      12.41139      -1.18012
                        -----------------------------------------
Total Dipole Moment    :      1.13007       1.27183       0.05539
                        -----------------------------------------
Magnitude (a.u.)       :      1.70226
Magnitude (Debye)      :      4.32679

Rotational constants in cm-1:     0.134396     0.055628     0.052255
Rotational constants in MHz :  4029.100214  1667.685325  1566.551712

                             ****ORCA TERMINATED NORMALLY****
TOTAL RUN TIME: 0 days 1 hours 22 minutes 28 seconds 361 msec
