                         Program Version 5.0.0 -  RELEASE  -
|  1> !DLPNO-CCSD(T) aug-cc-pVTZ aug-cc-pVTZ/C TightSCF TightPNO RIJCOSX def2/J
|  2> *xyz 0 1
|  3> C         -0.46129        2.23469       -4.98962
|  4> C          0.84888        2.66797       -4.30235
|  5> C          2.09343        1.86104       -4.65684
|  6> C         -0.42384        2.39877       -6.47432
|  7> C         -0.95947        3.49265       -7.00740
|  8> N          0.14558        1.48689       -7.20399
|  9> H          0.56537        0.69681       -6.72386
| 10> H          0.22068        1.58177       -8.20752
| 11> H         -1.40624        4.18151       -6.40326
| 12> H         -0.93421        3.68160       -7.99947
| 13> H          0.66843        2.55943       -3.23285
| 14> H          1.03407        3.72943       -4.49708
| 15> H         -1.28888        2.82674       -4.59500
| 16> H         -0.65170        1.18634       -4.75655
| 17> H          2.29129        1.95234       -5.70442
| 18> H          1.93270        0.83176       -4.41261
| 19> H          2.92953        2.23285       -4.10223
| 20> *
| 21>
| 22> %MaxCore 64000
| 23>
| 24> %pal nprocs 2
| 25> end
| 26>
| 27> %scf
| 28>   MaxIter 150
| 29> end
| 30>
| 31>
| 32>                          ****END OF INPUT****

CARTESIAN COORDINATES (ANGSTROEM)
---------------------------------
  C     -0.461290    2.234690   -4.989620
  C      0.848880    2.667970   -4.302350
  C      2.093430    1.861040   -4.656840
  C     -0.423840    2.398770   -6.474320
  C     -0.959470    3.492650   -7.007400
  N      0.145580    1.486890   -7.203990
  H      0.565370    0.696810   -6.723860
  H      0.220680    1.581770   -8.207520
  H     -1.406240    4.181510   -6.403260
  H     -0.934210    3.681600   -7.999470
  H      0.668430    2.559430   -3.232850
  H      1.034070    3.729430   -4.497080
  H     -1.288880    2.826740   -4.595000
  H     -0.651700    1.186340   -4.756550
  H      2.291290    1.952340   -5.704420
  H      1.932700    0.831760   -4.412610
  H      2.929530    2.232850   -4.102230

 Total Charge           Charge          ....    0
 Multiplicity           Mult            ....    1
 Number of Electrons    NEL             ....   48
 Basis Dimension        Dim             ....  529

ORBITAL ENERGIES
----------------

  NO   OCC          E(Eh)            E(eV)
   0   2.0000     -15.561045      -423.4376
   1   2.0000     -11.253272      -306.2171
   2   2.0000     -11.223518      -305.4075
   3   2.0000     -11.220151      -305.3158
   4   2.0000     -11.206405      -304.9418
   5   2.0000     -11.149362      -303.3896
   6   2.0000      -1.246698       -33.9244
   7   2.0000      -1.069004       -29.0891
   8   2.0000      -0.999863       -27.2077
   9   2.0000      -0.929051       -25.2808
  10   2.0000      -0.825213       -22.4552
  11   2.0000      -0.764869       -20.8131
  12   2.0000      -0.706572       -19.2268
  13   2.0000      -0.662022       -18.0145
  14   2.0000      -0.615657       -16.7529
  15   2.0000      -0.598531       -16.2869
  16   2.0000      -0.565338       -15.3836
  17   2.0000      -0.550868       -14.9899
  18   2.0000      -0.527221       -14.3464
  19   2.0000      -0.511627       -13.9221
  20   2.0000      -0.478822       -13.0294
  21   2.0000      -0.467781       -12.7290
  22   2.0000      -0.465555       -12.6684
  23   2.0000      -0.285489        -7.7685
  24   0.0000       0.027823         0.7571
  25   0.0000       0.034904         0.9498
  26   0.0000       0.038630         1.0512
  27   0.0000       0.040036         1.0894
  28   0.0000       0.053143         1.4461

MULLIKEN ATOMIC CHARGES
-----------------------
   0 C :    0.019622
   1 C :   -0.492289
   2 C :   -0.963016
   3 C :    0.956047
   4 C :   -1.599932
   5 N :   -0.570948
   6 H :    0.068025
   7 H :    0.005413
   8 H :    0.233487
   9 H :    0.483122
  10 H :    0.270693
  11 H :    0.239402
  12 H :    0.284115
  13 H :    0.213311
  14 H :    0.290844
  15 H :    0.276933
  16 H :    0.285171
Sum of atomic charges:    0.0000000

LOEWDIN ATOMIC CHARGES
----------------------
   0 C :    0.292797
   1 C :    0.283924
   2 C :    0.597254
   3 C :   -0.318850
   4 C :    0.563568
   5 N :    0.838332
   6 H :   -0.278600
   7 H :   -0.251729
   8 H :   -0.291527
   9 H :   -0.291556
  10 H :   -0.154522
  11 H :   -0.139310
  12 H :   -0.147321
  13 H :   -0.144873
  14 H :   -0.198796
  15 H :   -0.180732
  16 H :   -0.178060

  Mayer bond orders larger than 0.100000
B(  0-C ,  1-C ) :   0.8418 B(  0-C ,  3-C ) :   0.4769 B(  0-C ,  5-N ) :  -0.1251
B(  0-C , 12-H ) :   1.0308 B(  0-C , 13-H ) :   0.9745 B(  1-C ,  2-C ) :   0.7761
B(  1-C ,  3-C ) :   0.1530 B(  1-C , 10-H ) :   0.9694 B(  1-C , 11-H ) :   0.9351
B(  2-C , 14-H ) :   0.9509 B(  2-C , 15-H ) :   0.9500 B(  2-C , 16-H ) :   0.9742
B(  3-C ,  4-C ) :   0.8610 B(  3-C ,  5-N ) :   0.6753 B(  3-C , 12-H ) :  -0.1063
B(  4-C ,  5-N ) :  -0.1304 B(  4-C ,  8-H ) :   1.3291 B(  4-C ,  9-H ) :   0.6626
B(  5-N ,  6-H ) :   1.1682 B(  5-N ,  7-H ) :   1.1891

E(0)                                       ...   -250.251815583
E(0)                                       ...   -250.251815583
E(CORR)(strong-pairs)                      ...     -1.137652790
E(CORR)(weak-pairs)                        ...     -0.001204394
E(CORR)(corrected)                         ...     -1.138857184
E(TOT)                                     ...   -251.390672767
E(CCSD(T))                                 ...   -251.437043818
FINAL SINGLE POINT ENERGY      -251.437043817577

DIPOLE MOMENT
-------------
                                X             Y             Z
Electronic contribution:     -2.05523      -0.47239      -2.58018
Nuclear contribution   :      2.52905      -0.17478       2.67366
                        -----------------------------------------
Total Dipole Moment    :      0.47383      -0.64717       0.09348
                        -----------------------------------------
Magnitude (a.u.)       :      0.80751
Magnitude (Debye)      :      2.05254

Rotational constants in cm-1:     0.190920     0.082419     0.067855
Rotational constants in MHz :  5723.626725  2470.870287  2034.242308

                             ****ORCA TERMINATED NORMALLY****
TOTAL RUN TIME: 0 days 1 hours 10 minutes 46 seconds 307 msec
