                         Program Version 5.0.0 -  RELEASE  -
|  1> !DLPNO-CCSD(T) aug-cc-pVTZ aug-cc-pVTZ/C TightSCF TightPNO RIJCOSX def2/J
|  2> *xyz 0 1
|  3> C         -0.46129        2.23469       -4.98962
|  4> C          0.84888        2.66797       -4.30235
|  5> C          2.09343        1.86104       -4.65684
|  6> H          2.44481        2.04157       -5.67499
|  7> H          2.90175        2.13786       -3.98034
|  8> S          1.87964        0.07859       -4.46297
|  9> O          3.20757       -0.46611       -4.42026
| 10> F          1.07506       -0.05616       -3.26876
| 11> O          1.13166       -0.31996       -5.67903
| 12> H          0.66843        2.55943       -3.23285
| 13> H          1.03407        3.72943       -4.49708
| 14> H         -0.35183        2.31783       -6.05075
| 15> H         -1.26108        2.86600       -4.66300
| 16> H         -0.68032        1.21949       -4.73211
| 17> *
| 18>
| 19> %MaxCore 64000
| 20>
| 21> %pal nprocs 2
| 22> end
| 23>
| 24> %scf
| 25>   MaxIter 150
| 26> end
| 27>
| 28>
| 29>                          ****END OF INPUT****

CARTESIAN COORDINATES (ANGSTROEM)
---------------------------------
  C     -0.461290    2.234690   -4.989620
  C      0.848880    2.667970   -4.302350
  C      2.093430    1.861040   -4.656840
  H      2.444810    2.041570   -5.674990
  H      2.901750    2.137860   -3.980340
  S      1.879640    0.078590   -4.462970
  O      3.207570   -0.466110   -4.420260
  F      1.075060   -0.056160   -3.268760
  O      1.131660   -0.319960   -5.679030
  H      0.668430    2.559430   -3.232850
  H      1.034070    3.729430   -4.497080
  H     -0.351830    2.317830   -6.050750
  H     -1.261080    2.866000   -4.663000
  H     -0.680320    1.219490   -4.732110

 Total Charge           Charge          ....    0
 Multiplicity           Mult            ....    1
 Number of Electrons    NEL             ....   66
 Basis Dimension        Dim             ....  487

ORBITAL ENERGIES
----------------

  NO   OCC          E(Eh)            E(eV)
   0   2.0000     -92.249910     -2510.2477
   1   2.0000     -26.432420      -719.2627
   2   2.0000     -20.572303      -559.8008
   3   2.0000     -20.553961      -559.3017
   4   2.0000     -11.290505      -307.2303
   5   2.0000     -11.258238      -306.3522
   6   2.0000     -11.222491      -305.3795
   7   2.0000      -9.213482      -250.7116
   8   2.0000      -6.901207      -187.7914
   9   2.0000      -6.896993      -187.6767
  10   2.0000      -6.896176      -187.6545
  11   2.0000      -1.800022       -48.9811
  12   2.0000      -1.456406       -39.6308
  13   2.0000      -1.343639       -36.5623
  14   2.0000      -1.112177       -30.2639
  15   2.0000      -1.011516       -27.5248
  16   2.0000      -0.957398       -26.0521
  17   2.0000      -0.862618       -23.4730
  18   2.0000      -0.830053       -22.5869
  19   2.0000      -0.825716       -22.4689
  20   2.0000      -0.753306       -20.4985
  21   2.0000      -0.669907       -18.2291
  22   2.0000      -0.662446       -18.0261
  23   2.0000      -0.635983       -17.3060
  24   2.0000      -0.622509       -16.9393
  25   2.0000      -0.595495       -16.2042
  26   2.0000      -0.560794       -15.2600
  27   2.0000      -0.541611       -14.7380
  28   2.0000      -0.522410       -14.2155
  29   2.0000      -0.508305       -13.8317
  30   2.0000      -0.492680       -13.4065
  31   2.0000      -0.477906       -13.0045
  32   2.0000      -0.464146       -12.6301
  33   0.0000       0.022800         0.6204
  34   0.0000       0.034315         0.9338
  35   0.0000       0.036015         0.9800
  36   0.0000       0.044776         1.2184
  37   0.0000       0.056899         1.5483

MULLIKEN ATOMIC CHARGES
-----------------------
   0 C :   -0.970331
   1 C :   -0.468882
   2 C :   -0.473973
   3 H :    0.317499
   4 H :    0.243934
   5 S :    2.213907
   6 O :   -0.905554
   7 F :   -0.531801
   8 O :   -0.913944
   9 H :    0.271875
  10 H :    0.296801
  11 H :    0.293605
  12 H :    0.288127
  13 H :    0.338738
Sum of atomic charges:   -0.0000000

LOEWDIN ATOMIC CHARGES
----------------------
   0 C :    0.584719
   1 C :    0.230730
   2 C :    0.191574
   3 H :   -0.168187
   4 H :   -0.197348
   5 S :   -0.108917
   6 O :    0.037303
   7 F :    0.301533
   8 O :    0.028044
   9 H :   -0.171832
  10 H :   -0.141059
  11 H :   -0.179408
  12 H :   -0.180013
  13 H :   -0.227138

  Mayer bond orders larger than 0.100000
B(  0-C ,  1-C ) :   0.8381 B(  0-C , 11-H ) :   0.9372 B(  0-C , 12-H ) :   0.9659
B(  0-C , 13-H ) :   0.9377 B(  1-C ,  2-C ) :   0.9065 B(  1-C ,  5-S ) :   0.1087
B(  1-C ,  9-H ) :   0.9529 B(  1-C , 10-H ) :   0.9305 B(  2-C ,  3-H ) :   0.8995
B(  2-C ,  4-H ) :   0.9459 B(  2-C ,  5-S ) :   0.8644 B(  2-C ,  7-F ) :   0.1018
B(  5-S ,  6-O ) :   1.4449 B(  5-S ,  7-F ) :   0.5689 B(  5-S ,  8-O ) :   1.5269

E(0)                                       ...   -764.466666957
E(0)                                       ...   -764.466666957
E(CORR)(strong-pairs)                      ...     -1.495315795
E(CORR)(weak-pairs)                        ...     -0.001571641
E(CORR)(corrected)                         ...     -1.496887435
E(TOT)                                     ...   -765.963554392
E(CCSD(T))                                 ...   -766.024429577
FINAL SINGLE POINT ENERGY      -766.024429576934

DIPOLE MOMENT
-------------
                                X             Y             Z
Electronic contribution:      4.36029     -10.33290       3.25451
Nuclear contribution   :     -4.78457      11.97051      -2.41849
                        -----------------------------------------
Total Dipole Moment    :     -0.42428       1.63761       0.83601
                        -----------------------------------------
Magnitude (a.u.)       :      1.88698
Magnitude (Debye)      :      4.79633

Rotational constants in cm-1:     0.129206     0.056639     0.054229
Rotational constants in MHz :  3873.509495  1697.990779  1625.734877

                             ****ORCA TERMINATED NORMALLY****
TOTAL RUN TIME: 0 days 1 hours 22 minutes 3 seconds 508 msec
