                         Program Version 5.0.0 -  RELEASE  -
|  1> !DLPNO-CCSD(T) aug-cc-pVTZ aug-cc-pVTZ/C TightSCF TightPNO RIJCOSX def2/J
|  2> *xyz 0 1
|  3> C         -0.46129        2.23469       -4.98962
|  4> C          0.84888        2.66797       -4.30235
|  5> C          2.09343        1.86104       -4.65684
|  6> C         -0.42384        2.39877       -6.47432
|  7> N         -0.95947        3.49265       -7.00740
|  8> C          0.14558        1.48689       -7.20399
|  9> H          0.56537        0.69681       -6.72386
| 10> H          0.22068        1.58177       -8.20752
| 11> H         -1.40624        4.18151       -6.40326
| 12> H         -0.93421        3.68160       -7.99947
| 13> H          0.66843        2.55943       -3.23285
| 14> H          1.03407        3.72943       -4.49708
| 15> H         -1.28888        2.82674       -4.59500
| 16> H         -0.65170        1.18634       -4.75655
| 17> H          2.29129        1.95234       -5.70442
| 18> H          1.93270        0.83176       -4.41261
| 19> H          2.92953        2.23285       -4.10223
| 20> *
| 21>
| 22> %MaxCore 64000
| 23>
| 24> %pal nprocs 8
| 25> end
| 26>
| 27> %scf
| 28>   MaxIter 150
| 29> end
| 30>
| 31>
| 32>                          ****END OF INPUT****

CARTESIAN COORDINATES (ANGSTROEM)
---------------------------------
  C     -0.461290    2.234690   -4.989620
  C      0.848880    2.667970   -4.302350
  C      2.093430    1.861040   -4.656840
  C     -0.423840    2.398770   -6.474320
  N     -0.959470    3.492650   -7.007400
  C      0.145580    1.486890   -7.203990
  H      0.565370    0.696810   -6.723860
  H      0.220680    1.581770   -8.207520
  H     -1.406240    4.181510   -6.403260
  H     -0.934210    3.681600   -7.999470
  H      0.668430    2.559430   -3.232850
  H      1.034070    3.729430   -4.497080
  H     -1.288880    2.826740   -4.595000
  H     -0.651700    1.186340   -4.756550
  H      2.291290    1.952340   -5.704420
  H      1.932700    0.831760   -4.412610
  H      2.929530    2.232850   -4.102230

 Total Charge           Charge          ....    0
 Multiplicity           Mult            ....    1
 Number of Electrons    NEL             ....   48
 Basis Dimension        Dim             ....  529

ORBITAL ENERGIES
----------------

  NO   OCC          E(Eh)            E(eV)
   0   2.0000     -15.558063      -423.3564
   1   2.0000     -11.249149      -306.1049
   2   2.0000     -11.222654      -305.3839
   3   2.0000     -11.218720      -305.2769
   4   2.0000     -11.195987      -304.6583
   5   2.0000     -11.147376      -303.3355
   6   2.0000      -1.230998       -33.4972
   7   2.0000      -1.069353       -29.0986
   8   2.0000      -0.997857       -27.1531
   9   2.0000      -0.934697       -25.4344
  10   2.0000      -0.816383       -22.2149
  11   2.0000      -0.761054       -20.7093
  12   2.0000      -0.696959       -18.9652
  13   2.0000      -0.655407       -17.8345
  14   2.0000      -0.618810       -16.8387
  15   2.0000      -0.596448       -16.2302
  16   2.0000      -0.553860       -15.0713
  17   2.0000      -0.549290       -14.9469
  18   2.0000      -0.527620       -14.3573
  19   2.0000      -0.510043       -13.8790
  20   2.0000      -0.475715       -12.9449
  21   2.0000      -0.465759       -12.6739
  22   2.0000      -0.457720       -12.4552
  23   2.0000      -0.292943        -7.9714
  24   0.0000       0.026986         0.7343
  25   0.0000       0.035235         0.9588
  26   0.0000       0.038425         1.0456
  27   0.0000       0.041866         1.1392
  28   0.0000       0.054252         1.4763

MULLIKEN ATOMIC CHARGES
-----------------------
   0 C :   -0.018023
   1 C :   -0.521442
   2 C :   -0.929736
   3 C :    0.922906
   4 N :   -0.696895
   5 C :   -1.475491
   6 H :    0.265296
   7 H :    0.489971
   8 H :    0.046835
   9 H :    0.033484
  10 H :    0.243788
  11 H :    0.227387
  12 H :    0.231377
  13 H :    0.307918
  14 H :    0.269258
  15 H :    0.263261
  16 H :    0.340107
Sum of atomic charges:    0.0000000

LOEWDIN ATOMIC CHARGES
----------------------
   0 C :    0.295856
   1 C :    0.283894
   2 C :    0.596683
   3 C :   -0.308366
   4 N :    0.843243
   5 C :    0.545756
   6 H :   -0.289108
   7 H :   -0.273757
   8 H :   -0.275374
   9 H :   -0.269356
  10 H :   -0.155458
  11 H :   -0.140183
  12 H :   -0.151000
  13 H :   -0.141429
  14 H :   -0.203768
  15 H :   -0.177061
  16 H :   -0.180573

  Mayer bond orders larger than 0.100000
B(  0-C ,  1-C ) :   0.8403 B(  0-C ,  3-C ) :   0.5494 B(  0-C ,  4-N ) :  -0.1057
B(  0-C , 12-H ) :   1.0058 B(  0-C , 13-H ) :   0.9820 B(  1-C ,  2-C ) :   0.7861
B(  1-C ,  3-C ) :   0.1602 B(  1-C , 10-H ) :   0.9778 B(  1-C , 11-H ) :   0.9774
B(  2-C , 14-H ) :   0.9844 B(  2-C , 15-H ) :   0.9700 B(  2-C , 16-H ) :   0.9055
B(  3-C ,  4-N ) :   0.6597 B(  3-C ,  5-C ) :   1.0251 B(  4-N ,  5-C ) :  -0.2460
B(  4-N ,  8-H ) :   1.1918 B(  4-N ,  9-H ) :   1.1908 B(  5-C ,  6-H ) :   1.3125
B(  5-C ,  7-H ) :   0.6733

E(0)                                       ...   -250.251625570
E(0)                                       ...   -250.251625570
E(CORR)(strong-pairs)                      ...     -1.137916177
E(CORR)(weak-pairs)                        ...     -0.001213536
E(CORR)(corrected)                         ...     -1.139129713
E(TOT)                                     ...   -251.390755284
E(CCSD(T))                                 ...   -251.437051632
FINAL SINGLE POINT ENERGY      -251.437051632313

DIPOLE MOMENT
-------------
                                X             Y             Z
Electronic contribution:     -3.04868       1.27424      -2.44675
Nuclear contribution   :      2.79043      -0.64920       2.62716
                        -----------------------------------------
Total Dipole Moment    :     -0.25824       0.62504       0.18041
                        -----------------------------------------
Magnitude (a.u.)       :      0.69993
Magnitude (Debye)      :      1.77909

Rotational constants in cm-1:     0.196182     0.080190     0.067215
Rotational constants in MHz :  5881.393438  2404.041106  2015.067205

                             ****ORCA TERMINATED NORMALLY****
TOTAL RUN TIME: 0 days 0 hours 24 minutes 49 seconds 52 msec
