                         Program Version 5.0.0 -  RELEASE  -
|  1> !DLPNO-CCSD(T) aug-cc-pVTZ aug-cc-pVTZ/C TightSCF TightPNO RIJCOSX def2/J
|  2> *xyz 0 1
|  3> C         -0.46129        2.23469       -4.98962
|  4> C          0.84888        2.66797       -4.30235
|  5> C          2.09343        1.86104       -4.65684
|  6> H          2.44481        2.04157       -5.67499
|  7> H          2.90175        2.13786       -3.98034
|  8> S          1.87964        0.07859       -4.46297
|  9> O          3.20757       -0.46611       -4.42026
| 10> O          1.07506       -0.05616       -3.26876
| 11> F          1.13166       -0.31996       -5.67903
| 12> H          0.66843        2.55943       -3.23285
| 13> H          1.03407        3.72943       -4.49708
| 14> H         -0.35183        2.31783       -6.05075
| 15> H         -1.26108        2.86600       -4.66300
| 16> H         -0.68032        1.21949       -4.73211
| 17> *
| 18>
| 19> %MaxCore 64000
| 20>
| 21> %pal nprocs 2
| 22> end
| 23>
| 24> %scf
| 25>   MaxIter 150
| 26> end
| 27>
| 28>
| 29>                          ****END OF INPUT****

CARTESIAN COORDINATES (ANGSTROEM)
---------------------------------
  C     -0.461290    2.234690   -4.989620
  C      0.848880    2.667970   -4.302350
  C      2.093430    1.861040   -4.656840
  H      2.444810    2.041570   -5.674990
  H      2.901750    2.137860   -3.980340
  S      1.879640    0.078590   -4.462970
  O      3.207570   -0.466110   -4.420260
  O      1.075060   -0.056160   -3.268760
  F      1.131660   -0.319960   -5.679030
  H      0.668430    2.559430   -3.232850
  H      1.034070    3.729430   -4.497080
  H     -0.351830    2.317830   -6.050750
  H     -1.261080    2.866000   -4.663000
  H     -0.680320    1.219490   -4.732110

 Total Charge           Charge          ....    0
 Multiplicity           Mult            ....    1
 Number of Electrons    NEL             ....   66
 Basis Dimension        Dim             ....  487

ORBITAL ENERGIES
----------------

  NO   OCC          E(Eh)            E(eV)
   0   2.0000     -92.249229     -2510.2291
   1   2.0000     -26.412309      -718.7155
   2   2.0000     -20.572000      -559.7926
   3   2.0000     -20.567757      -559.6771
   4   2.0000     -11.289919      -307.2143
   5   2.0000     -11.252765      -306.2033
   6   2.0000     -11.225115      -305.4509
   7   2.0000      -9.212509      -250.6851
   8   2.0000      -6.900178      -187.7634
   9   2.0000      -6.896289      -187.6576
  10   2.0000      -6.895246      -187.6292
  11   2.0000      -1.766400       -48.0662
  12   2.0000      -1.467058       -39.9207
  13   2.0000      -1.365488       -37.1568
  14   2.0000      -1.108639       -30.1676
  15   2.0000      -1.006689       -27.3934
  16   2.0000      -0.943571       -25.6759
  17   2.0000      -0.859596       -23.3908
  18   2.0000      -0.806003       -21.9325
  19   2.0000      -0.798290       -21.7226
  20   2.0000      -0.758391       -20.6369
  21   2.0000      -0.684318       -18.6212
  22   2.0000      -0.652519       -17.7559
  23   2.0000      -0.642806       -17.4917
  24   2.0000      -0.625308       -17.0155
  25   2.0000      -0.597862       -16.2687
  26   2.0000      -0.566568       -15.4171
  27   2.0000      -0.540408       -14.7052
  28   2.0000      -0.522928       -14.2296
  29   2.0000      -0.507999       -13.8234
  30   2.0000      -0.498129       -13.5548
  31   2.0000      -0.490413       -13.3448
  32   2.0000      -0.474922       -12.9233
  33   0.0000       0.023880         0.6498
  34   0.0000       0.035625         0.9694
  35   0.0000       0.035850         0.9755
  36   0.0000       0.045658         1.2424
  37   0.0000       0.057462         1.5636

MULLIKEN ATOMIC CHARGES
-----------------------
   0 C :   -0.996064
   1 C :   -0.459255
   2 C :   -0.503955
   3 H :    0.293765
   4 H :    0.258189
   5 S :    2.241580
   6 O :   -0.913068
   7 O :   -0.921973
   8 F :   -0.528112
   9 H :    0.289325
  10 H :    0.312629
  11 H :    0.281556
  12 H :    0.278285
  13 H :    0.367098
Sum of atomic charges:    0.0000000

LOEWDIN ATOMIC CHARGES
----------------------
   0 C :    0.587290
   1 C :    0.230904
   2 C :    0.192360
   3 H :   -0.184503
   4 H :   -0.183389
   5 S :   -0.105386
   6 O :    0.037514
   7 O :    0.055739
   8 F :    0.269699
   9 H :   -0.170529
  10 H :   -0.142957
  11 H :   -0.186400
  12 H :   -0.176148
  13 H :   -0.224195

  Mayer bond orders larger than 0.100000
B(  0-C ,  1-C ) :   0.8355 B(  0-C , 11-H ) :   0.9461 B(  0-C , 12-H ) :   0.9900
B(  0-C , 13-H ) :   0.9037 B(  1-C ,  2-C ) :   0.9269 B(  1-C ,  5-S ) :   0.1101
B(  1-C ,  9-H ) :   0.9369 B(  1-C , 10-H ) :   0.9133 B(  2-C ,  3-H ) :   0.9035
B(  2-C ,  4-H ) :   0.9381 B(  2-C ,  5-S ) :   0.8450 B(  5-S ,  6-O ) :   1.4454
B(  5-S ,  7-O ) :   1.5392 B(  5-S ,  8-F ) :   0.5896

E(0)                                       ...   -764.483430394
E(0)                                       ...   -764.483430394
E(CORR)(strong-pairs)                      ...     -1.494623642
E(CORR)(weak-pairs)                        ...     -0.001574454
E(CORR)(corrected)                         ...     -1.496198096
E(TOT)                                     ...   -765.979628490
E(CCSD(T))                                 ...   -766.040313318
FINAL SINGLE POINT ENERGY      -766.040313317869

DIPOLE MOMENT
-------------
                                X             Y             Z
Electronic contribution:      4.44603     -10.81675      -1.02809
Nuclear contribution   :     -4.84544      12.25421       0.17361
                        -----------------------------------------
Total Dipole Moment    :     -0.39941       1.43746      -0.85447
                        -----------------------------------------
Magnitude (a.u.)       :      1.71929
Magnitude (Debye)      :      4.37008

Rotational constants in cm-1:     0.128954     0.057447     0.053381
Rotational constants in MHz :  3865.954571  1722.226669  1600.330369

                             ****ORCA TERMINATED NORMALLY****
TOTAL RUN TIME: 0 days 1 hours 22 minutes 24 seconds 373 msec
