                         Program Version 5.0.0 -  RELEASE  -
|  1> !DLPNO-CCSD(T) aug-cc-pVTZ aug-cc-pVTZ/C TightSCF TightPNO RIJCOSX def2/J
|  2>
|  3> *xyzfile 0 1 D3.xyz
|  4>
|  5> %MaxCore 64000
|  6>
|  7> %pal nprocs 18
|  8> end
|  9>
| 10> %scf
| 11>   MaxIter 150
| 12> end
| 13>
| 14>
| 15>                          ****END OF INPUT****

CARTESIAN COORDINATES (ANGSTROEM)
---------------------------------
  C     -0.461293    2.234686   -4.989619
  C      0.848883    2.667967   -4.302351
  C      2.093434    1.861037   -4.656845
  H      2.444814    2.041567   -5.674990
  H      2.901748    2.137864   -3.980338
  S      1.879644    0.078594   -4.462965
  C     -0.423841    2.398772   -6.474317
  C     -0.959467    3.492647   -7.007401
  N      0.145585    1.486891   -7.203987
  H      0.565371    0.696807   -6.723858
  H      0.220682    1.581768   -8.207520
  H     -1.406243    4.181507   -6.403261
  H     -0.934215    3.681601   -7.999468
  O      3.207574   -0.466111   -4.420259
  F      1.075064   -0.056160   -3.268758
  O      1.131661   -0.319960   -5.679031
  H      0.668432    2.559427   -3.232850
  H      1.034074    3.729426   -4.497081
  H     -1.288884    2.826737   -4.594997
  H     -0.651696    1.186343   -4.756552

 Total Charge           Charge          ....    0
 Multiplicity           Mult            ....    1
 Number of Electrons    NEL             ....   88
 Basis Dimension        Dim             ....  694

ORBITAL ENERGIES
----------------

  NO   OCC          E(Eh)            E(eV)
   0   2.0000     -92.270526     -2510.8087
   1   2.0000     -26.448341      -719.6959
   2   2.0000     -20.589355      -560.2648
   3   2.0000     -20.579348      -559.9925
   4   2.0000     -15.533351      -422.6840
   5   2.0000     -11.300047      -307.4899
   6   2.0000     -11.263770      -306.5028
   7   2.0000     -11.253793      -306.2313
   8   2.0000     -11.240365      -305.8659
   9   2.0000     -11.148417      -303.3638
  10   2.0000      -9.234053      -251.2714
  11   2.0000      -6.921692      -188.3488
  12   2.0000      -6.917621      -188.2380
  13   2.0000      -6.916820      -188.2162
  14   2.0000      -1.815756       -49.4092
  15   2.0000      -1.478646       -40.2360
  16   2.0000      -1.373798       -37.3829
  17   2.0000      -1.234812       -33.6009
  18   2.0000      -1.123088       -30.5608
  19   2.0000      -1.036624       -28.2080
  20   2.0000      -0.995512       -27.0893
  21   2.0000      -0.950828       -25.8733
  22   2.0000      -0.878150       -23.8957
  23   2.0000      -0.846910       -23.0456
  24   2.0000      -0.843010       -22.9395
  25   2.0000      -0.785067       -21.3628
  26   2.0000      -0.766273       -20.8513
  27   2.0000      -0.707736       -19.2585
  28   2.0000      -0.683009       -18.5856
  29   2.0000      -0.679468       -18.4893
  30   2.0000      -0.658044       -17.9063
  31   2.0000      -0.636025       -17.3071
  32   2.0000      -0.621046       -16.8995
  33   2.0000      -0.592024       -16.1098
  34   2.0000      -0.570828       -15.5330
  35   2.0000      -0.556029       -15.1303
  36   2.0000      -0.544911       -14.8278
  37   2.0000      -0.534479       -14.5439
  38   2.0000      -0.513636       -13.9767
  39   2.0000      -0.500361       -13.6155
  40   2.0000      -0.493395       -13.4259
  41   2.0000      -0.480282       -13.0691
  42   2.0000      -0.469170       -12.7668
  43   2.0000      -0.280711        -7.6385
  44   0.0000       0.022838         0.6215
  45   0.0000       0.032672         0.8890
  46   0.0000       0.036592         0.9957
  47   0.0000       0.039975         1.0878
  48   0.0000       0.050708         1.3798

MULLIKEN ATOMIC CHARGES
-----------------------
   0 C :    0.073355
   1 C :   -0.426372
   2 C :   -0.481146
   3 H :    0.261395
   4 H :    0.256927
   5 S :    2.204425
   6 C :    0.895382
   7 C :   -1.680318
   8 N :   -0.730099
   9 H :    0.272454
  10 H :   -0.022887
  11 H :    0.178290
  12 H :    0.485352
  13 O :   -0.938498
  14 F :   -0.520732
  15 O :   -0.838657
  16 H :    0.242965
  17 H :    0.243751
  18 H :    0.376587
  19 H :    0.147828
Sum of atomic charges:    0.0000000

LOEWDIN ATOMIC CHARGES
----------------------
   0 C :    0.280690
   1 C :    0.264851
   2 C :    0.216647
   3 H :   -0.166064
   4 H :   -0.188286
   5 S :    0.009585
   6 C :   -0.309232
   7 C :    0.560000
   8 N :    0.847229
   9 H :   -0.667895
  10 H :   -0.243866
  11 H :   -0.297108
  12 H :   -0.291196
  13 O :    0.054046
  14 F :    0.315284
  15 O :    0.234371
  16 H :   -0.164094
  17 H :   -0.129791
  18 H :   -0.141265
  19 H :   -0.183906

  Mayer bond orders larger than 0.100000
B(  0-C ,  1-C ) :   0.7651 B(  0-C ,  6-C ) :   0.3919 B(  0-C , 18-H ) :   0.9679
B(  0-C , 19-H ) :   1.0577 B(  1-C ,  2-C ) :   0.8596 B(  1-C ,  5-S ) :   0.1046
B(  1-C ,  6-C ) :   0.1843 B(  1-C , 16-H ) :   1.0153 B(  1-C , 17-H ) :   0.9274
B(  2-C ,  3-H ) :   0.9657 B(  2-C ,  4-H ) :   0.9169 B(  2-C ,  5-S ) :   0.8496
B(  2-C , 14-F ) :   0.1369 B(  5-S , 13-O ) :   1.3742 B(  5-S , 14-F ) :   0.5728
B(  5-S , 15-O ) :   1.5147 B(  6-C ,  7-C ) :   0.6980 B(  6-C ,  8-N ) :   0.5212
B(  6-C , 10-H ) :  -0.1680 B(  6-C , 11-H ) :  -0.1303 B(  6-C , 18-H ) :  -0.1495
B(  6-C , 19-H ) :   0.1371 B(  7-C ,  8-N ) :  -0.1309 B(  7-C , 11-H ) :   1.4611
B(  7-C , 12-H ) :   0.6420 B(  8-N ,  9-H ) :   0.9414 B(  8-N , 10-H ) :   1.2810

E(0)                                       ...   -896.405407213
E(0)                                       ...   -896.405407213
E(CORR)(strong-pairs)                      ...     -2.046401977
E(CORR)(weak-pairs)                        ...     -0.002846961
E(CORR)(corrected)                         ...     -2.049248937
E(TOT)                                     ...   -898.454656150
E(CCSD(T))                                 ...   -898.541787190
FINAL SINGLE POINT ENERGY      -898.541787190432

DIPOLE MOMENT
-------------
                                X             Y             Z
Electronic contribution:      6.43860     -13.04452       7.51266
Nuclear contribution   :     -6.19944      13.70770      -6.43483
                        -----------------------------------------
Total Dipole Moment    :      0.23917       0.66318       1.07783
                        -----------------------------------------
Magnitude (a.u.)       :      1.28792
Magnitude (Debye)      :      3.27363

Rotational constants in cm-1:     0.079903     0.025241     0.022805
Rotational constants in MHz :  2395.439281   756.708181   683.680583

                             ****ORCA TERMINATED NORMALLY****
TOTAL RUN TIME: 0 days 1 hours 39 minutes 7 seconds 765 msec
