                         Program Version 5.0.0 -  RELEASE  -
|  1> !DLPNO-CCSD(T) aug-cc-pVTZ aug-cc-pVTZ/C TightSCF TightPNO RIJCOSX def2/J
|  2>
|  3> *xyzfile 0 1 D5.xyz
|  4>
|  5> %MaxCore 64000
|  6>
|  7> %pal nprocs 18
|  8> end
|  9>
| 10> %scf
| 11>   MaxIter 150
| 12> end
| 13>
| 14>
| 15>                          ****END OF INPUT****

CARTESIAN COORDINATES (ANGSTROEM)
---------------------------------
  C     -0.461293    2.234686   -4.989619
  C      0.848883    2.667967   -4.302351
  C      2.093434    1.861037   -4.656845
  H      2.444814    2.041567   -5.674990
  H      2.901748    2.137864   -3.980338
  S      1.879644    0.078594   -4.462965
  C     -0.423841    2.398772   -6.474317
  C     -0.959467    3.492647   -7.007401
  N      0.145585    1.486891   -7.203987
  H      0.565371    0.696807   -6.723858
  H      0.220682    1.581768   -8.207520
  H     -1.406243    4.181507   -6.403261
  H     -0.934215    3.681601   -7.999468
  O      3.207574   -0.466111   -4.420259
  O      1.075064   -0.056160   -3.268758
  F      1.131661   -0.319960   -5.679031
  H      0.668432    2.559427   -3.232850
  H      1.034074    3.729426   -4.497081
  H     -1.288884    2.826737   -4.594997
  H     -0.651696    1.186343   -4.756552

 Total Charge           Charge          ....    0
 Multiplicity           Mult            ....    1
 Number of Electrons    NEL             ....   88
 Basis Dimension        Dim             ....  694

ORBITAL ENERGIES
----------------

  NO   OCC          E(Eh)            E(eV)
   0   2.0000     -92.262212     -2510.5824
   1   2.0000     -26.438418      -719.4259
   2   2.0000     -20.584312      -560.1276
   3   2.0000     -20.579679      -560.0015
   4   2.0000     -15.564902      -423.5425
   5   2.0000     -11.296854      -307.4030
   6   2.0000     -11.266070      -306.5653
   7   2.0000     -11.257946      -306.3443
   8   2.0000     -11.243357      -305.9473
   9   2.0000     -11.161983      -303.7330
  10   2.0000      -9.225893      -251.0493
  11   2.0000      -6.913737      -188.1324
  12   2.0000      -6.909370      -188.0135
  13   2.0000      -6.908454      -187.9886
  14   2.0000      -1.799186       -48.9583
  15   2.0000      -1.480412       -40.2840
  16   2.0000      -1.377253       -37.4769
  17   2.0000      -1.259606       -34.2756
  18   2.0000      -1.118772       -30.4433
  19   2.0000      -1.040690       -28.3186
  20   2.0000      -1.003269       -27.3003
  21   2.0000      -0.950771       -25.8718
  22   2.0000      -0.889573       -24.2065
  23   2.0000      -0.837189       -22.7811
  24   2.0000      -0.834625       -22.7113
  25   2.0000      -0.784560       -21.3490
  26   2.0000      -0.762241       -20.7416
  27   2.0000      -0.722168       -19.6512
  28   2.0000      -0.690238       -18.7823
  29   2.0000      -0.661575       -18.0024
  30   2.0000      -0.661104       -17.9895
  31   2.0000      -0.654703       -17.8154
  32   2.0000      -0.617643       -16.8069
  33   2.0000      -0.592175       -16.1139
  34   2.0000      -0.569709       -15.5026
  35   2.0000      -0.557640       -15.1741
  36   2.0000      -0.549320       -14.9477
  37   2.0000      -0.536180       -14.5902
  38   2.0000      -0.516648       -14.0587
  39   2.0000      -0.507995       -13.8232
  40   2.0000      -0.496146       -13.5008
  41   2.0000      -0.489099       -13.3091
  42   2.0000      -0.479374       -13.0444
  43   2.0000      -0.297656        -8.0996
  44   0.0000       0.024704         0.6722
  45   0.0000       0.031485         0.8567
  46   0.0000       0.036353         0.9892
  47   0.0000       0.038373         1.0442
  48   0.0000       0.051705         1.4070

MULLIKEN ATOMIC CHARGES
-----------------------
   0 C :    0.088361
   1 C :   -0.446134
   2 C :   -0.519926
   3 H :    0.226689
   4 H :    0.274044
   5 S :    2.275651
   6 C :    0.924724
   7 C :   -1.671677
   8 N :   -0.760337
   9 H :    0.354928
  10 H :   -0.043571
  11 H :    0.183952
  12 H :    0.491040
  13 O :   -0.944178
  14 O :   -0.942130
  15 F :   -0.543931
  16 H :    0.258321
  17 H :    0.260445
  18 H :    0.381913
  19 H :    0.151815
Sum of atomic charges:    0.0000000

LOEWDIN ATOMIC CHARGES
----------------------
   0 C :    0.283410
   1 C :    0.265395
   2 C :    0.209877
   3 H :   -0.184025
   4 H :   -0.175321
   5 S :   -0.031096
   6 C :   -0.311292
   7 C :    0.568709
   8 N :    0.844911
   9 H :   -0.591445
  10 H :   -0.242357
  11 H :   -0.290464
  12 H :   -0.288526
  13 O :    0.050083
  14 O :    0.069584
  15 F :    0.436402
  16 H :   -0.162495
  17 H :   -0.131840
  18 H :   -0.137068
  19 H :   -0.182444

  Mayer bond orders larger than 0.100000
B(  0-C ,  1-C ) :   0.7910 B(  0-C ,  6-C ) :   0.4116 B(  0-C , 18-H ) :   0.9752
B(  0-C , 19-H ) :   1.0337 B(  1-C ,  2-C ) :   0.8926 B(  1-C ,  5-S ) :   0.1221
B(  1-C ,  6-C ) :   0.1803 B(  1-C , 16-H ) :   1.0056 B(  1-C , 17-H ) :   0.9140
B(  2-C ,  3-H ) :   0.9744 B(  2-C ,  4-H ) :   0.8983 B(  2-C ,  5-S ) :   0.8300
B(  2-C , 14-O ) :   0.1114 B(  5-S , 13-O ) :   1.3572 B(  5-S , 14-O ) :   1.5454
B(  5-S , 15-F ) :   0.6409 B(  6-C ,  7-C ) :   0.7419 B(  6-C ,  8-N ) :   0.4962
B(  6-C , 10-H ) :  -0.1786 B(  6-C , 11-H ) :  -0.1260 B(  6-C , 18-H ) :  -0.1457
B(  6-C , 19-H ) :   0.1260 B(  7-C ,  8-N ) :  -0.1287 B(  7-C , 11-H ) :   1.4651
B(  7-C , 12-H ) :   0.6245 B(  7-C , 18-H ) :  -0.1012 B(  8-N ,  9-H ) :   0.9233
B(  8-N , 10-H ) :   1.3394 B(  9-H , 15-F ) :  -0.1947

E(0)                                       ...   -896.409400530
E(0)                                       ...   -896.409400530
E(CORR)(strong-pairs)                      ...     -2.046027458
E(CORR)(weak-pairs)                        ...     -0.002751761
E(CORR)(corrected)                         ...     -2.048779218
E(TOT)                                     ...   -898.458179748
E(CCSD(T))                                 ...   -898.545106757
FINAL SINGLE POINT ENERGY      -898.545106756757

DIPOLE MOMENT
-------------
                                X             Y             Z
Electronic contribution:      6.38714     -13.31460       3.10320
Nuclear contribution   :     -6.26130      13.99605      -3.80018
                        -----------------------------------------
Total Dipole Moment    :      0.12584       0.68146      -0.69698
                        -----------------------------------------
Magnitude (a.u.)       :      0.98285
Magnitude (Debye)      :      2.49821

Rotational constants in cm-1:     0.079895     0.025630     0.022948
Rotational constants in MHz :  2395.188639   768.373696   687.955250

                             ****ORCA TERMINATED NORMALLY****
TOTAL RUN TIME: 0 days 1 hours 35 minutes 55 seconds 535 msec
