                         Program Version 5.0.0 -  RELEASE  -
|  1> !PBE0 D3BJ RIJCOSX def2-SVPD def2/J TightSCF
|  2> *xyz -1 1
|  3> C         -0.60249       -0.63071        0.49224
|  4> O         -1.71206       -1.37684        0.20253
|  5> H          0.27695       -1.19720        0.26733
|  6> H         -0.60598       -0.37494        1.53122
|  7> H         -0.61066        0.26355       -0.09525
|  8> *
|  9> %MaxCore 64000
| 10>
| 11> %pal nprocs 4
| 12> end
| 13> %scf
| 14>   MaxIter 150
| 15> end
| 16>
| 17>                          ****END OF INPUT****

CARTESIAN COORDINATES (ANGSTROEM)
---------------------------------
  C     -0.602490   -0.630710    0.492240
  O     -1.712060   -1.376840    0.202530
  H      0.276950   -1.197200    0.267330
  H     -0.605980   -0.374940    1.531220
  H     -0.610660    0.263550   -0.095250

 Total Charge           Charge          ....   -1
 Multiplicity           Mult            ....    1
 Number of Electrons    NEL             ....   18
 Basis Dimension        Dim             ....   67

ORBITAL ENERGIES
----------------

  NO   OCC          E(Eh)            E(eV)
   0   2.0000     -18.860705      -513.2259
   1   2.0000     -10.015057      -272.5235
   2   2.0000      -0.674029       -18.3413
   3   2.0000      -0.407896       -11.0994
   4   2.0000      -0.207707        -5.6520
   5   2.0000      -0.207688        -5.6515
   6   2.0000      -0.111393        -3.0312
   7   2.0000       0.041272         1.1231
   8   2.0000       0.041282         1.1233
   9   0.0000       0.205321         5.5871
  10   0.0000       0.277316         7.5462
  11   0.0000       0.277319         7.5462
  12   0.0000       0.285529         7.7696
  13   0.0000       0.321282         8.7425

MULLIKEN ATOMIC CHARGES
-----------------------
   0 C :    0.703519
   1 O :   -1.057487
   2 H :   -0.215201
   3 H :   -0.215645
   4 H :   -0.215185
Sum of atomic charges:   -1.0000000

LOEWDIN ATOMIC CHARGES
----------------------
   0 C :   -0.117190
   1 O :   -0.651143
   2 H :   -0.077197
   3 H :   -0.077253
   4 H :   -0.077217

  Mayer bond orders larger than 0.100000
B(  0-C ,  1-O ) :   1.1269 B(  0-C ,  2-H ) :   0.9378 B(  0-C ,  3-H ) :   0.9376
B(  0-C ,  4-H ) :   0.9378

Dispersion correction           -0.001163303
FINAL SINGLE POINT ENERGY      -114.883594037839

DIPOLE MOMENT
-------------
                                X             Y             Z
Electronic contribution:     -1.51828      -1.02092      -0.39626
Nuclear contribution   :      2.33640       1.57111       0.61004
                        -----------------------------------------
Total Dipole Moment    :      0.81811       0.55019       0.21378
                        -----------------------------------------
Magnitude (a.u.)       :      1.00882
Magnitude (Debye)      :      2.56422

Rotational constants in cm-1:     5.477665     0.940945     0.940944
Rotational constants in MHz : 164216.266994 28208.811441 28208.799857

                             ****ORCA TERMINATED NORMALLY****
TOTAL RUN TIME: 0 days 0 hours 0 minutes 3 seconds 548 msec
