                         Program Version 5.0.0 -  RELEASE  -
|  1> !PBE0 D3BJ RIJCOSX def2-SVPD def2/J TightSCF
|  2> *xyz 1 1
|  3> C         -2.12050        0.88520        1.78951
|  4> N         -3.17690       -0.15948        1.61070
|  5> H         -4.06474        0.23127        1.28675
|  6> H         -3.34407       -0.67151        2.48493
|  7> H         -2.71686       -0.78189        0.93588
|  8> H         -1.96853        1.40078        0.86432
|  9> H         -1.20609        0.41954        2.09270
| 10> H         -2.43151        1.58226        2.53937
| 11> *
| 12> %MaxCore 64000
| 13>
| 14> %pal nprocs 4
| 15> end
| 16>
| 17> %scf
| 18>   MaxIter 150
| 19> end
| 20>
| 21>
| 22>                          ****END OF INPUT****

CARTESIAN COORDINATES (ANGSTROEM)
---------------------------------
  C     -2.120500    0.885200    1.789510
  N     -3.176900   -0.159480    1.610700
  H     -4.064740    0.231270    1.286750
  H     -3.344070   -0.671510    2.484930
  H     -2.716860   -0.781890    0.935880
  H     -1.968530    1.400780    0.864320
  H     -1.206090    0.419540    2.092700
  H     -2.431510    1.582260    2.539370

 Total Charge           Charge          ....    1
 Multiplicity           Mult            ....    1
 Number of Electrons    NEL             ....   18
 Basis Dimension        Dim             ....   88

ORBITAL ENERGIES
----------------

  NO   OCC          E(Eh)            E(eV)
   0   2.0000     -14.745972      -401.2583
   1   2.0000     -10.492019      -285.5024
   2   2.0000      -1.245115       -33.8813
   3   2.0000      -0.952711       -25.9246
   4   2.0000      -0.837325       -22.7848
   5   2.0000      -0.824909       -22.4469
   6   2.0000      -0.725468       -19.7410
   7   2.0000      -0.642722       -17.4894
   8   2.0000      -0.639228       -17.3943
   9   0.0000      -0.195665        -5.3243
  10   0.0000      -0.130096        -3.5401
  11   0.0000      -0.123381        -3.3574
  12   0.0000      -0.117377        -3.1940
  13   0.0000      -0.079774        -2.1708

MULLIKEN ATOMIC CHARGES
-----------------------
   0 C :    0.735166
   1 N :   -0.791101
   2 H :    0.351012
   3 H :    0.366222
   4 H :    0.408814
   5 H :   -0.015823
   6 H :   -0.008829
   7 H :   -0.045461
Sum of atomic charges:    1.0000000

LOEWDIN ATOMIC CHARGES
----------------------
   0 C :    0.279466
   1 N :    0.317614
   2 H :    0.109031
   3 H :    0.109938
   4 H :    0.104771
   5 H :    0.027520
   6 H :    0.027804
   7 H :    0.023856

  Mayer bond orders larger than 0.100000
B(  0-C ,  1-N ) :   0.8382 B(  0-C ,  5-H ) :   0.9156 B(  0-C ,  6-H ) :   0.9076
B(  0-C ,  7-H ) :   0.9516 B(  1-N ,  2-H ) :   0.8085 B(  1-N ,  3-H ) :   0.7920
B(  1-N ,  4-H ) :   0.7361

Dispersion correction           -0.002679429
FINAL SINGLE POINT ENERGY       -96.031917310805

DIPOLE MOMENT
-------------
                                X             Y             Z
Electronic contribution:     -0.84052      -0.77000      -0.13073
Nuclear contribution   :      0.30442       0.18283       0.03339
                        -----------------------------------------
Total Dipole Moment    :     -0.53610      -0.58717      -0.09734
                        -----------------------------------------
Magnitude (a.u.)       :      0.80103
Magnitude (Debye)      :      2.03605

Rotational constants in cm-1:     2.844840     0.686092     0.683099
Rotational constants in MHz : 85286.171795 20568.516729 20478.789944

                             ****ORCA TERMINATED NORMALLY****
TOTAL RUN TIME: 0 days 0 hours 0 minutes 4 seconds 594 msec
