                         Program Version 5.0.0 -  RELEASE  -
|  1> !PBE0 D3BJ RIJCOSX def2-SVPD def2/J TightSCF
|  2> *xyz 0 1
|  3> C         -0.60249       -0.63071        0.49224
|  4> F         -1.71206       -1.37684        0.20253
|  5> H          0.27695       -1.19720        0.26733
|  6> H         -0.60598       -0.37494        1.53122
|  7> H         -0.61066        0.26355       -0.09525
|  8> *
|  9> %MaxCore 64000
| 10>
| 11> %pal nprocs 4
| 12> end
| 13> %scf
| 14>   MaxIter 150
| 15> end
| 16>
| 17>                          ****END OF INPUT****

CARTESIAN COORDINATES (ANGSTROEM)
---------------------------------
  C     -0.602490   -0.630710    0.492240
  F     -1.712060   -1.376840    0.202530
  H      0.276950   -1.197200    0.267330
  H     -0.605980   -0.374940    1.531220
  H     -0.610660    0.263550   -0.095250

 Total Charge           Charge          ....    0
 Multiplicity           Mult            ....    1
 Number of Electrons    NEL             ....   18
 Basis Dimension        Dim             ....   67

ORBITAL ENERGIES
----------------

  NO   OCC          E(Eh)            E(eV)
   0   2.0000     -24.768825      -673.9940
   1   2.0000     -10.302256      -280.3386
   2   2.0000      -1.214968       -33.0610
   3   2.0000      -0.723119       -19.6771
   4   2.0000      -0.516458       -14.0535
   5   2.0000      -0.508202       -13.8289
   6   2.0000      -0.508187       -13.8285
   7   2.0000      -0.366243        -9.9660
   8   2.0000      -0.366230        -9.9656
   9   0.0000       0.033687         0.9167
  10   0.0000       0.070061         1.9064
  11   0.0000       0.110313         3.0018
  12   0.0000       0.110316         3.0018
  13   0.0000       0.154194         4.1958

MULLIKEN ATOMIC CHARGES
-----------------------
   0 C :    0.776124
   1 F :   -0.504430
   2 H :   -0.090378
   3 H :   -0.090668
   4 H :   -0.090648
Sum of atomic charges:    0.0000000

LOEWDIN ATOMIC CHARGES
----------------------
   0 C :    0.268607
   1 F :   -0.256260
   2 H :   -0.004090
   3 H :   -0.004132
   4 H :   -0.004125

  Mayer bond orders larger than 0.100000
B(  0-C ,  1-F ) :   0.8112 B(  0-C ,  2-H ) :   0.9566 B(  0-C ,  3-H ) :   0.9563
B(  0-C ,  4-H ) :   0.9567

Dispersion correction           -0.001017829
FINAL SINGLE POINT ENERGY      -139.497362493501

DIPOLE MOMENT
-------------
                                X             Y             Z
Electronic contribution:     -2.37855      -1.59928      -0.62098
Nuclear contribution   :      2.96306       1.99251       0.77366
                        -----------------------------------------
Total Dipole Moment    :      0.58451       0.39323       0.15268
                        -----------------------------------------
Magnitude (a.u.)       :      0.72083
Magnitude (Debye)      :      1.83220

Rotational constants in cm-1:     5.477665     0.875886     0.875886
Rotational constants in MHz : 164216.266994 26258.396768 26258.386731

                             ****ORCA TERMINATED NORMALLY****
TOTAL RUN TIME: 0 days 0 hours 0 minutes 3 seconds 230 msec
