                         Program Version 5.0.0 -  RELEASE  -
|  1> !PBE0 D3BJ RIJCOSX def2-SVPD def2/J TightSCF
|  2> *xyz 0 1
|  3> C         -2.12050        0.88520        1.78951
|  4> C         -3.17690       -0.15948        1.61070
|  5> H         -4.06474        0.23127        1.28675
|  6> H         -3.34407       -0.67151        2.48493
|  7> H         -2.71686       -0.78189        0.93588
|  8> H         -1.96853        1.40078        0.86432
|  9> H         -1.20609        0.41954        2.09270
| 10> H         -2.43151        1.58226        2.53937
| 11> *
| 12> %MaxCore 64000
| 13>
| 14> %pal nprocs 4
| 15> end
| 16>
| 17> %scf
| 18>   MaxIter 150
| 19> end
| 20>
| 21>
| 22>                          ****END OF INPUT****

CARTESIAN COORDINATES (ANGSTROEM)
---------------------------------
  C     -2.120500    0.885200    1.789510
  C     -3.176900   -0.159480    1.610700
  H     -4.064740    0.231270    1.286750
  H     -3.344070   -0.671510    2.484930
  H     -2.716860   -0.781890    0.935880
  H     -1.968530    1.400780    0.864320
  H     -1.206090    0.419540    2.092700
  H     -2.431510    1.582260    2.539370

 Total Charge           Charge          ....    0
 Multiplicity           Mult            ....    1
 Number of Electrons    NEL             ....   18
 Basis Dimension        Dim             ....   88

ORBITAL ENERGIES
----------------

  NO   OCC          E(Eh)            E(eV)
   0   2.0000     -10.209194      -277.8063
   1   2.0000     -10.195832      -277.4427
   2   2.0000      -0.786641       -21.4056
   3   2.0000      -0.631887       -17.1945
   4   2.0000      -0.469803       -12.7840
   5   2.0000      -0.460861       -12.5407
   6   2.0000      -0.379887       -10.3373
   7   2.0000      -0.359826        -9.7914
   8   2.0000      -0.350947        -9.5498
   9   0.0000       0.035777         0.9735
  10   0.0000       0.068776         1.8715
  11   0.0000       0.110603         3.0097
  12   0.0000       0.112268         3.0550
  13   0.0000       0.129427         3.5219

MULLIKEN ATOMIC CHARGES
-----------------------
   0 C :    0.030574
   1 C :    0.431377
   2 H :   -0.163080
   3 H :   -0.125856
   4 H :   -0.080351
   5 H :   -0.027684
   6 H :   -0.021076
   7 H :   -0.043904
Sum of atomic charges:   -0.0000000

LOEWDIN ATOMIC CHARGES
----------------------
   0 C :    0.066573
   1 C :    0.082297
   2 H :   -0.033094
   3 H :   -0.032632
   4 H :   -0.034427
   5 H :   -0.014794
   6 H :   -0.014032
   7 H :   -0.019891

  Mayer bond orders larger than 0.100000
B(  0-C ,  1-C ) :   1.4671 B(  0-C ,  2-H ) :   0.1388 B(  0-C ,  3-H ) :   0.1366
B(  0-C ,  4-H ) :   0.1854 B(  0-C ,  5-H ) :   0.8917 B(  0-C ,  6-H ) :   0.8844
B(  0-C ,  7-H ) :   0.9332 B(  1-C ,  2-H ) :   0.8518 B(  1-C ,  3-H ) :   0.8374
B(  1-C ,  4-H ) :   0.8245 B(  1-C ,  5-H ) :   0.1285 B(  1-C ,  6-H ) :   0.1323
B(  1-C ,  7-H ) :   0.1092

Dispersion correction           -0.002689660
FINAL SINGLE POINT ENERGY       -79.652597140965

DIPOLE MOMENT
-------------
                                X             Y             Z
Electronic contribution:     -0.12341      -0.01906      -0.00303
Nuclear contribution   :      0.12022       0.00247       0.00249
                        -----------------------------------------
Total Dipole Moment    :     -0.00319      -0.01659      -0.00054
                        -----------------------------------------
Magnitude (a.u.)       :      0.01690
Magnitude (Debye)      :      0.04297

Rotational constants in cm-1:     2.844858     0.716988     0.713720
Rotational constants in MHz : 85286.697487 21494.771942 21396.773512

                             ****ORCA TERMINATED NORMALLY****
TOTAL RUN TIME: 0 days 0 hours 0 minutes 4 seconds 462 msec
