                         Program Version 5.0.0 -  RELEASE  -
|  1> !M062X D3Zero RIJCOSX def2-SVPD def2/J TightSCF
|  2> *xyz -1 1
|  3> C         -7.33044       -2.67899       -3.20681
|  4> S         -6.01966       -2.92697       -4.41913
|  5> O         -5.64583       -1.58838       -4.91931
|  6> O         -4.88196       -3.50370       -3.66724
|  7> O         -6.54927       -3.80515       -5.42507
|  8> C         -7.46900       -1.24615       -2.71383
|  9> H         -7.11825       -3.37982       -2.39805
| 10> H         -8.24184       -3.00474       -3.70651
| 11> H         -7.67580       -0.60214       -3.54292
| 12> H         -6.55749       -0.94096       -2.24382
| 13> H         -8.27114       -1.18777       -2.00810
| 14> *
| 15> %MaxCore 64000
| 16>
| 17> %pal nprocs 4
| 18> end
| 19>
| 20> %scf
| 21>   MaxIter 150
| 22> end
| 23>
| 24>
| 25>                          ****END OF INPUT****

CARTESIAN COORDINATES (ANGSTROEM)
---------------------------------
  C     -7.330440   -2.678990   -3.206810
  S     -6.019660   -2.926970   -4.419130
  O     -5.645830   -1.588380   -4.919310
  O     -4.881960   -3.503700   -3.667240
  O     -6.549270   -3.805150   -5.425070
  C     -7.469000   -1.246150   -2.713830
  H     -7.118250   -3.379820   -2.398050
  H     -8.241840   -3.004740   -3.706510
  H     -7.675800   -0.602140   -3.542920
  H     -6.557490   -0.940960   -2.243820
  H     -8.271140   -1.187770   -2.008100

 Total Charge           Charge          ....   -1
 Multiplicity           Mult            ....    1
 Number of Electrons    NEL             ....   58
 Basis Dimension        Dim             ....  176

ORBITAL ENERGIES
----------------

  NO   OCC          E(Eh)            E(eV)
   0   2.0000     -89.935836     -2447.2785
   1   2.0000     -19.419913      -528.4427
   2   2.0000     -19.409062      -528.1474
   3   2.0000     -19.405557      -528.0521
   4   2.0000     -10.416369      -283.4438
   5   2.0000     -10.410629      -283.2876
   6   2.0000      -8.259297      -224.7469
   7   2.0000      -6.184552      -168.2902
   8   2.0000      -6.184447      -168.2874
   9   2.0000      -6.184088      -168.2776
  10   2.0000      -1.044644       -28.4262
  11   2.0000      -0.899851       -24.4862
  12   2.0000      -0.876008       -23.8374
  13   2.0000      -0.727670       -19.8009
  14   2.0000      -0.593559       -16.1516
  15   2.0000      -0.464762       -12.6468
  16   2.0000      -0.395611       -10.7651
  17   2.0000      -0.394577       -10.7370
  18   2.0000      -0.353810        -9.6276
  19   2.0000      -0.338736        -9.2175
  20   2.0000      -0.331701        -9.0260
  21   2.0000      -0.296543        -8.0693
  22   2.0000      -0.286810        -7.8045
  23   2.0000      -0.222053        -6.0424
  24   2.0000      -0.221306        -6.0220
  25   2.0000      -0.183275        -4.9872
  26   2.0000      -0.172753        -4.7009
  27   2.0000      -0.168240        -4.5781
  28   2.0000      -0.133609        -3.6357
  29   0.0000       0.154406         4.2016
  30   0.0000       0.178261         4.8507
  31   0.0000       0.182101         4.9552
  32   0.0000       0.190769         5.1911
  33   0.0000       0.209325         5.6960

MULLIKEN ATOMIC CHARGES
-----------------------
   0 C :   -0.369890
   1 S :    1.435091
   2 O :   -0.869031
   3 O :   -0.863208
   4 O :   -0.824521
   5 C :    0.751117
   6 H :   -0.045164
   7 H :   -0.023920
   8 H :   -0.006598
   9 H :   -0.032769
  10 H :   -0.151107
Sum of atomic charges:   -1.0000000

LOEWDIN ATOMIC CHARGES
----------------------
   0 C :   -0.124231
   1 S :    0.909287
   2 O :   -0.603679
   3 O :   -0.617449
   4 O :   -0.592033
   5 C :    0.096198
   6 H :    0.002013
   7 H :   -0.004383
   8 H :   -0.020318
   9 H :   -0.011664
  10 H :   -0.033741

  Mayer bond orders larger than 0.100000
B(  0-C ,  1-S ) :   0.8652 B(  0-C ,  5-C ) :   1.2794 B(  0-C ,  6-H ) :   0.9983
B(  0-C ,  7-H ) :   0.9957 B(  0-C ,  8-H ) :   0.2007 B(  0-C ,  9-H ) :   0.1944
B(  0-C , 10-H ) :   0.2031 B(  1-S ,  2-O ) :   1.2569 B(  1-S ,  3-O ) :   1.2489
B(  1-S ,  4-O ) :   1.3027 B(  5-C ,  8-H ) :   0.8055 B(  5-C ,  9-H ) :   0.8068
B(  5-C , 10-H ) :   0.7947

Dispersion correction           -0.000149823
FINAL SINGLE POINT ENERGY      -702.623469431603

DIPOLE MOMENT
-------------
                                X             Y             Z
Electronic contribution:      4.61021      -3.48972      -5.04139
Nuclear contribution   :     -6.18165       4.01759       6.33106
                        -----------------------------------------
Total Dipole Moment    :     -1.57144       0.52787       1.28967
                        -----------------------------------------
Magnitude (a.u.)       :      2.10031
Magnitude (Debye)      :      5.33857

Rotational constants in cm-1:     0.161711     0.082788     0.081165
Rotational constants in MHz :  4847.971521  2481.906910  2433.276832

                             ****ORCA TERMINATED NORMALLY****
TOTAL RUN TIME: 0 days 0 hours 0 minutes 26 seconds 354 msec
