                         Program Version 5.0.0 -  RELEASE  -
|  1> !M062X D3Zero RIJCOSX def2-SVPD def2/J TightSCF
|  2> *xyz 1 1
|  3> C         -2.16038       -1.36949       -3.46710
|  4> N         -3.03011       -1.91086       -4.54107
|  5> C         -2.04772        0.14658       -3.51177
|  6> H         -3.47744       -2.79151       -4.25710
|  7> H         -2.53801       -2.01786       -5.43808
|  8> H         -3.89159       -1.37604       -4.71437
|  9> H         -1.18444       -1.84400       -3.56639
| 10> H         -2.59819       -1.70838       -2.52848
| 11> H         -1.61525        0.44478       -4.44395
| 12> H         -1.42718        0.48198       -2.70720
| 13> H         -3.02145        0.57958       -3.41560
| 14> *
| 15> %MaxCore 64000
| 16>
| 17> %pal nprocs 4
| 18> end
| 19>
| 20> %scf
| 21>   MaxIter 150
| 22> end
| 23>
| 24>
| 25>                          ****END OF INPUT****

CARTESIAN COORDINATES (ANGSTROEM)
---------------------------------
  C     -2.160380   -1.369490   -3.467100
  N     -3.030110   -1.910860   -4.541070
  C     -2.047720    0.146580   -3.511770
  H     -3.477440   -2.791510   -4.257100
  H     -2.538010   -2.017860   -5.438080
  H     -3.891590   -1.376040   -4.714370
  H     -1.184440   -1.844000   -3.566390
  H     -2.598190   -1.708380   -2.528480
  H     -1.615250    0.444780   -4.443950
  H     -1.427180    0.481980   -2.707200
  H     -3.021450    0.579580   -3.415600

 Total Charge           Charge          ....    1
 Multiplicity           Mult            ....    1
 Number of Electrons    NEL             ....   26
 Basis Dimension        Dim             ....  124

ORBITAL ENERGIES
----------------

  NO   OCC          E(Eh)            E(eV)
   0   2.0000     -15.097379      -410.8206
   1   2.0000     -10.806341      -294.0555
   2   2.0000     -10.725300      -291.8502
   3   2.0000      -1.314836       -35.7785
   4   2.0000      -1.056156       -28.7395
   5   2.0000      -0.927958       -25.2510
   6   2.0000      -0.885500       -24.0957
   7   2.0000      -0.844406       -22.9774
   8   2.0000      -0.770450       -20.9650
   9   2.0000      -0.711996       -19.3744
  10   2.0000      -0.646229       -17.5848
  11   2.0000      -0.631000       -17.1704
  12   2.0000      -0.613111       -16.6836
  13   0.0000      -0.169398        -4.6096
  14   0.0000      -0.110129        -2.9968
  15   0.0000      -0.107898        -2.9360
  16   0.0000      -0.099284        -2.7017
  17   0.0000      -0.069400        -1.8885

MULLIKEN ATOMIC CHARGES
-----------------------
   0 C :    0.181206
   1 N :   -0.947133
   2 C :    0.534923
   3 H :    0.390628
   4 H :    0.439006
   5 H :    0.402461
   6 H :   -0.058549
   7 H :   -0.017814
   8 H :    0.049554
   9 H :    0.032966
  10 H :   -0.007248
Sum of atomic charges:    1.0000000

LOEWDIN ATOMIC CHARGES
----------------------
   0 C :    0.057633
   1 N :    0.314303
   2 C :    0.173678
   3 H :    0.107157
   4 H :    0.115040
   5 H :    0.106780
   6 H :    0.054616
   7 H :    0.052389
   8 H :    0.002556
   9 H :    0.015619
  10 H :    0.000229

  Mayer bond orders larger than 0.100000
B(  0-C ,  1-N ) :   0.6847 B(  0-C ,  2-C ) :   1.3278 B(  0-C ,  6-H ) :   0.9414
B(  0-C ,  7-H ) :   0.9353 B(  0-C ,  8-H ) :   0.1489 B(  0-C ,  9-H ) :   0.1731
B(  0-C , 10-H ) :   0.1635 B(  1-N ,  3-H ) :   0.7263 B(  1-N ,  4-H ) :   0.6579
B(  1-N ,  5-H ) :   0.7169 B(  1-N ,  6-H ) :   0.1165 B(  2-C ,  8-H ) :   0.8217
B(  2-C ,  9-H ) :   0.8420 B(  2-C , 10-H ) :   0.8537

Dispersion correction           -0.000055695
FINAL SINGLE POINT ENERGY      -135.356283702212

DIPOLE MOMENT
-------------
                                X             Y             Z
Electronic contribution:     -0.64538      -1.48639      -0.76852
Nuclear contribution   :     -0.15215       0.37393      -0.04773
                        -----------------------------------------
Total Dipole Moment    :     -0.79752      -1.11246      -0.81625
                        -----------------------------------------
Magnitude (a.u.)       :      1.59370
Magnitude (Debye)      :      4.05086

Rotational constants in cm-1:     1.020762     0.277172     0.247319
Rotational constants in MHz : 30601.664035  8309.399682  7414.438136

                             ****ORCA TERMINATED NORMALLY****
TOTAL RUN TIME: 0 days 0 hours 0 minutes 12 seconds 679 msec
