                         Program Version 5.0.0 -  RELEASE  -
|  1> !M062X D3Zero RIJCOSX def2-SVPD def2/J TightSCF
|  2> *xyz 0 1
|  3> C         -7.33044       -2.67899       -3.20681
|  4> S         -6.01966       -2.92697       -4.41913
|  5> F         -5.64583       -1.58838       -4.91931
|  6> O         -4.88196       -3.50370       -3.66724
|  7> O         -6.54927       -3.80515       -5.42507
|  8> C         -7.46900       -1.24615       -2.71383
|  9> H         -7.11825       -3.37982       -2.39805
| 10> H         -8.24184       -3.00474       -3.70651
| 11> H         -7.67580       -0.60214       -3.54292
| 12> H         -6.55749       -0.94096       -2.24382
| 13> H         -8.27114       -1.18777       -2.00810
| 14> *
| 15> %MaxCore 64000
| 16>
| 17> %pal nprocs 4
| 18> end
| 19>
| 20> %scf
| 21>   MaxIter 150
| 22> end
| 23>
| 24>
| 25>                          ****END OF INPUT****

CARTESIAN COORDINATES (ANGSTROEM)
---------------------------------
  C     -7.330440   -2.678990   -3.206810
  S     -6.019660   -2.926970   -4.419130
  F     -5.645830   -1.588380   -4.919310
  O     -4.881960   -3.503700   -3.667240
  O     -6.549270   -3.805150   -5.425070
  C     -7.469000   -1.246150   -2.713830
  H     -7.118250   -3.379820   -2.398050
  H     -8.241840   -3.004740   -3.706510
  H     -7.675800   -0.602140   -3.542920
  H     -6.557490   -0.940960   -2.243820
  H     -8.271140   -1.187770   -2.008100

 Total Charge           Charge          ....    0
 Multiplicity           Mult            ....    1
 Number of Electrons    NEL             ....   58
 Basis Dimension        Dim             ....  176

ORBITAL ENERGIES
----------------

  NO   OCC          E(Eh)            E(eV)
   0   2.0000     -90.196431     -2454.3697
   1   2.0000     -25.364538      -690.2042
   2   2.0000     -19.656524      -534.8812
   3   2.0000     -19.641421      -534.4702
   4   2.0000     -10.620100      -288.9876
   5   2.0000     -10.582882      -287.9749
   6   2.0000      -8.520838      -231.8638
   7   2.0000      -6.449127      -175.4897
   8   2.0000      -6.443980      -175.3496
   9   2.0000      -6.442937      -175.3212
  10   2.0000      -1.489524       -40.5320
  11   2.0000      -1.230793       -33.4916
  12   2.0000      -1.122660       -30.5491
  13   2.0000      -0.926184       -25.2028
  14   2.0000      -0.822355       -22.3774
  15   2.0000      -0.768444       -20.9104
  16   2.0000      -0.683679       -18.6039
  17   2.0000      -0.670630       -18.2488
  18   2.0000      -0.631616       -17.1872
  19   2.0000      -0.577022       -15.7016
  20   2.0000      -0.558439       -15.1959
  21   2.0000      -0.528968       -14.3940
  22   2.0000      -0.521361       -14.1869
  23   2.0000      -0.486045       -13.2259
  24   2.0000      -0.467674       -12.7260
  25   2.0000      -0.461785       -12.5658
  26   2.0000      -0.408225       -11.1084
  27   2.0000      -0.394369       -10.7313
  28   2.0000      -0.385464       -10.4890
  29   0.0000       0.007463         0.2031
  30   0.0000       0.038895         1.0584
  31   0.0000       0.041980         1.1423
  32   0.0000       0.044955         1.2233
  33   0.0000       0.071436         1.9439

MULLIKEN ATOMIC CHARGES
-----------------------
   0 C :   -0.401837
   1 S :    1.567120
   2 F :   -0.454778
   3 O :   -0.730243
   4 O :   -0.687605
   5 C :    0.708588
   6 H :    0.027157
   7 H :    0.046294
   8 H :    0.016725
   9 H :   -0.005362
  10 H :   -0.086060
Sum of atomic charges:    0.0000000

LOEWDIN ATOMIC CHARGES
----------------------
   0 C :   -0.074099
   1 S :    1.166006
   2 F :   -0.284374
   3 O :   -0.501778
   4 O :   -0.476973
   5 C :    0.127953
   6 H :    0.032730
   7 H :    0.021340
   8 H :   -0.007586
   9 H :    0.000074
  10 H :   -0.003292

  Mayer bond orders larger than 0.100000
B(  0-C ,  1-S ) :   0.9411 B(  0-C ,  5-C ) :   1.3013 B(  0-C ,  6-H ) :   0.9932
B(  0-C ,  7-H ) :   0.9998 B(  0-C ,  8-H ) :   0.1782 B(  0-C ,  9-H ) :   0.1731
B(  0-C , 10-H ) :   0.1976 B(  1-S ,  2-F ) :   0.6033 B(  1-S ,  3-O ) :   1.4746
B(  1-S ,  4-O ) :   1.5291 B(  5-C ,  8-H ) :   0.8153 B(  5-C ,  9-H ) :   0.8198
B(  5-C , 10-H ) :   0.8103

Dispersion correction           -0.000156820
FINAL SINGLE POINT ENERGY      -727.117959217304

DIPOLE MOMENT
-------------
                                X             Y             Z
Electronic contribution:      5.57194      -1.67874      -6.32344
Nuclear contribution   :     -6.81251       2.87933       7.15058
                        -----------------------------------------
Total Dipole Moment    :     -1.24057       1.20059       0.82713
                        -----------------------------------------
Magnitude (a.u.)       :      1.91431
Magnitude (Debye)      :      4.86579

Rotational constants in cm-1:     0.152543     0.082494     0.078987
Rotational constants in MHz :  4573.135887  2473.116216  2367.980829

                             ****ORCA TERMINATED NORMALLY****
TOTAL RUN TIME: 0 days 0 hours 0 minutes 25 seconds 814 msec
