                         Program Version 5.0.0 -  RELEASE  -
|  1> !M062X D3Zero RIJCOSX def2-SVPD def2/J TightSCF
|  2> *xyz 0 1
|  3> C         -2.16038       -1.36949       -3.46710
|  4> C         -3.03011       -1.91086       -4.54107
|  5> C         -2.04772        0.14658       -3.51177
|  6> H         -3.47744       -2.79151       -4.25710
|  7> H         -2.53801       -2.01786       -5.43808
|  8> H         -3.89159       -1.37604       -4.71437
|  9> H         -1.18444       -1.84400       -3.56639
| 10> H         -2.59819       -1.70838       -2.52848
| 11> H         -1.61525        0.44478       -4.44395
| 12> H         -1.42718        0.48198       -2.70720
| 13> H         -3.02145        0.57958       -3.41560
| 14> *
| 15> %MaxCore 64000
| 16>
| 17> %pal nprocs 4
| 18> end
| 19>
| 20> %scf
| 21>   MaxIter 150
| 22> end
| 23>
| 24>
| 25>                          ****END OF INPUT****

CARTESIAN COORDINATES (ANGSTROEM)
---------------------------------
  C     -2.160380   -1.369490   -3.467100
  C     -3.030110   -1.910860   -4.541070
  C     -2.047720    0.146580   -3.511770
  H     -3.477440   -2.791510   -4.257100
  H     -2.538010   -2.017860   -5.438080
  H     -3.891590   -1.376040   -4.714370
  H     -1.184440   -1.844000   -3.566390
  H     -2.598190   -1.708380   -2.528480
  H     -1.615250    0.444780   -4.443950
  H     -1.427180    0.481980   -2.707200
  H     -3.021450    0.579580   -3.415600

 Total Charge           Charge          ....    0
 Multiplicity           Mult            ....    1
 Number of Electrons    NEL             ....   26
 Basis Dimension        Dim             ....  124

ORBITAL ENERGIES
----------------

  NO   OCC          E(Eh)            E(eV)
   0   2.0000     -10.536854      -286.7224
   1   2.0000     -10.528555      -286.4965
   2   2.0000     -10.511269      -286.0262
   3   2.0000      -0.882018       -24.0009
   4   2.0000      -0.776104       -21.1189
   5   2.0000      -0.665565       -18.1109
   6   2.0000      -0.540670       -14.7124
   7   2.0000      -0.508351       -13.8329
   8   2.0000      -0.467551       -12.7227
   9   2.0000      -0.459011       -12.4903
  10   2.0000      -0.400523       -10.8988
  11   2.0000      -0.388357       -10.5677
  12   2.0000      -0.387208       -10.5365
  13   0.0000       0.045097         1.2272
  14   0.0000       0.070698         1.9238
  15   0.0000       0.078958         2.1486
  16   0.0000       0.111063         3.0222
  17   0.0000       0.130110         3.5405

MULLIKEN ATOMIC CHARGES
-----------------------
   0 C :   -0.604639
   1 C :    0.858308
   2 C :    0.596270
   3 H :   -0.170350
   4 H :   -0.168409
   5 H :   -0.237120
   6 H :   -0.113768
   7 H :   -0.048236
   8 H :   -0.038378
   9 H :   -0.057497
  10 H :   -0.016181
Sum of atomic charges:   -0.0000000

LOEWDIN ATOMIC CHARGES
----------------------
   0 C :   -0.117276
   1 C :    0.109379
   2 C :    0.116219
   3 H :   -0.036301
   4 H :   -0.026641
   5 H :   -0.034692
   6 H :    0.021829
   7 H :    0.020351
   8 H :   -0.014820
   9 H :   -0.021713
  10 H :   -0.016336

  Mayer bond orders larger than 0.100000
B(  0-C ,  1-C ) :   1.3051 B(  0-C ,  2-C ) :   1.2585 B(  0-C ,  3-H ) :   0.2017
B(  0-C ,  4-H ) :   0.2260 B(  0-C ,  5-H ) :   0.1893 B(  0-C ,  6-H ) :   0.9750
B(  0-C ,  7-H ) :   0.9366 B(  0-C ,  8-H ) :   0.1819 B(  0-C ,  9-H ) :   0.1855
B(  0-C , 10-H ) :   0.1507 B(  1-C ,  3-H ) :   0.6893 B(  1-C ,  4-H ) :   0.7288
B(  1-C ,  5-H ) :   0.6982 B(  1-C ,  6-H ) :   0.1119 B(  2-C ,  8-H ) :   0.8367
B(  2-C ,  9-H ) :   0.8341 B(  2-C , 10-H ) :   0.8459 B(  3-H ,  5-H ) :   0.1938
B(  4-H ,  5-H ) :   0.1149

Dispersion correction           -0.000054268
FINAL SINGLE POINT ENERGY      -118.960810993611

DIPOLE MOMENT
-------------
                                X             Y             Z
Electronic contribution:      0.31625      -0.13130       0.27508
Nuclear contribution   :     -0.34625       0.09603      -0.26933
                        -----------------------------------------
Total Dipole Moment    :     -0.02999      -0.03526       0.00575
                        -----------------------------------------
Magnitude (a.u.)       :      0.04665
Magnitude (Debye)      :      0.11857

Rotational constants in cm-1:     1.028617     0.291238     0.258956
Rotational constants in MHz : 30837.159054  8731.095379  7763.318586

                             ****ORCA TERMINATED NORMALLY****
TOTAL RUN TIME: 0 days 0 hours 0 minutes 13 seconds 267 msec
