                         Program Version 5.0.0 -  RELEASE  -
|  1> !M062X D3Zero RIJCOSX def2-SVPD def2/J TightSCF
|  2> *xyz 0 1
|  3> C         -7.33044       -2.67899       -3.20681
|  4> S         -6.01966       -2.92697       -4.41913
|  5> O         -5.64583       -1.58838       -4.91931
|  6> F         -4.88196       -3.50370       -3.66724
|  7> O         -6.54927       -3.80515       -5.42507
|  8> C         -7.46900       -1.24615       -2.71383
|  9> H         -7.11825       -3.37982       -2.39805
| 10> H         -8.24184       -3.00474       -3.70651
| 11> H         -7.67580       -0.60214       -3.54292
| 12> H         -6.55749       -0.94096       -2.24382
| 13> H         -8.27114       -1.18777       -2.00810
| 14> *
| 15> %MaxCore 64000
| 16>
| 17> %pal nprocs 4
| 18> end
| 19>
| 20> %scf
| 21>   MaxIter 150
| 22> end
| 23>
| 24>
| 25>                          ****END OF INPUT****

CARTESIAN COORDINATES (ANGSTROEM)
---------------------------------
  C     -7.330440   -2.678990   -3.206810
  S     -6.019660   -2.926970   -4.419130
  O     -5.645830   -1.588380   -4.919310
  F     -4.881960   -3.503700   -3.667240
  O     -6.549270   -3.805150   -5.425070
  C     -7.469000   -1.246150   -2.713830
  H     -7.118250   -3.379820   -2.398050
  H     -8.241840   -3.004740   -3.706510
  H     -7.675800   -0.602140   -3.542920
  H     -6.557490   -0.940960   -2.243820
  H     -8.271140   -1.187770   -2.008100

 Total Charge           Charge          ....    0
 Multiplicity           Mult            ....    1
 Number of Electrons    NEL             ....   58
 Basis Dimension        Dim             ....  176

ORBITAL ENERGIES
----------------

  NO   OCC          E(Eh)            E(eV)
   0   2.0000     -90.196569     -2454.3734
   1   2.0000     -25.361469      -690.1207
   2   2.0000     -19.656442      -534.8790
   3   2.0000     -19.644910      -534.5652
   4   2.0000     -10.620423      -288.9964
   5   2.0000     -10.573898      -287.7304
   6   2.0000      -8.520942      -231.8666
   7   2.0000      -6.449161      -175.4906
   8   2.0000      -6.444093      -175.3527
   9   2.0000      -6.443162      -175.3274
  10   2.0000      -1.485716       -40.4284
  11   2.0000      -1.231770       -33.5182
  12   2.0000      -1.126129       -30.6435
  13   2.0000      -0.921681       -25.0802
  14   2.0000      -0.823137       -22.3987
  15   2.0000      -0.762040       -20.7362
  16   2.0000      -0.673218       -18.3192
  17   2.0000      -0.666626       -18.1398
  18   2.0000      -0.640030       -17.4161
  19   2.0000      -0.572535       -15.5795
  20   2.0000      -0.563918       -15.3450
  21   2.0000      -0.537191       -14.6177
  22   2.0000      -0.503432       -13.6991
  23   2.0000      -0.473852       -12.8942
  24   2.0000      -0.471854       -12.8398
  25   2.0000      -0.456100       -12.4111
  26   2.0000      -0.408495       -11.1157
  27   2.0000      -0.399382       -10.8677
  28   2.0000      -0.388595       -10.5742
  29   0.0000       0.009800         0.2667
  30   0.0000       0.035008         0.9526
  31   0.0000       0.042248         1.1496
  32   0.0000       0.045152         1.2287
  33   0.0000       0.067285         1.8309

MULLIKEN ATOMIC CHARGES
-----------------------
   0 C :   -0.434514
   1 S :    1.584832
   2 O :   -0.742151
   3 F :   -0.443316
   4 O :   -0.693637
   5 C :    0.743413
   6 H :    0.023675
   7 H :    0.041948
   8 H :    0.032438
   9 H :   -0.016003
  10 H :   -0.096684
Sum of atomic charges:    0.0000000

LOEWDIN ATOMIC CHARGES
----------------------
   0 C :   -0.080521
   1 S :    1.169001
   2 O :   -0.492275
   3 F :   -0.289149
   4 O :   -0.477880
   5 C :    0.132724
   6 H :    0.020082
   7 H :    0.025782
   8 H :   -0.002606
   9 H :   -0.000869
  10 H :   -0.004289

  Mayer bond orders larger than 0.100000
B(  0-C ,  1-S ) :   0.9355 B(  0-C ,  5-C ) :   1.3267 B(  0-C ,  6-H ) :   0.9728
B(  0-C ,  7-H ) :   1.0011 B(  0-C ,  8-H ) :   0.1917 B(  0-C ,  9-H ) :   0.1880
B(  0-C , 10-H ) :   0.1972 B(  1-S ,  2-O ) :   1.4830 B(  1-S ,  3-F ) :   0.5933
B(  1-S ,  4-O ) :   1.5265 B(  5-C ,  8-H ) :   0.8132 B(  5-C ,  9-H ) :   0.8098
B(  5-C , 10-H ) :   0.8051

Dispersion correction           -0.000152665
FINAL SINGLE POINT ENERGY      -727.121131918557

DIPOLE MOMENT
-------------
                                X             Y             Z
Electronic contribution:      6.91839      -4.95715      -4.20319
Nuclear contribution   :     -7.60849       4.87515       5.84588
                        -----------------------------------------
Total Dipole Moment    :     -0.69009      -0.08200       1.64269
                        -----------------------------------------
Magnitude (a.u.)       :      1.78365
Magnitude (Debye)      :      4.53367

Rotational constants in cm-1:     0.153704     0.080342     0.079431
Rotational constants in MHz :  4607.928650  2408.599360  2381.267225

                             ****ORCA TERMINATED NORMALLY****
TOTAL RUN TIME: 0 days 0 hours 0 minutes 25 seconds 245 msec
