                         Program Version 5.0.0 -  RELEASE  -
|  1> !M062X D3Zero RIJCOSX def2-SVPD def2/J TightSCF
|  2> *xyz 0 1
|  3> C         -7.33044       -2.67899       -3.20681
|  4> S         -6.01966       -2.92697       -4.41913
|  5> O         -5.64583       -1.58838       -4.91931
|  6> O         -4.88196       -3.50370       -3.66724
|  7> F         -6.54927       -3.80515       -5.42507
|  8> C         -7.46900       -1.24615       -2.71383
|  9> H         -7.11825       -3.37982       -2.39805
| 10> H         -8.24184       -3.00474       -3.70651
| 11> H         -7.67580       -0.60214       -3.54292
| 12> H         -6.55749       -0.94096       -2.24382
| 13> H         -8.27114       -1.18777       -2.00810
| 14> *
| 15> %MaxCore 64000
| 16>
| 17> %pal nprocs 4
| 18> end
| 19>
| 20> %scf
| 21>   MaxIter 150
| 22> end
| 23>
| 24>
| 25>                          ****END OF INPUT****

CARTESIAN COORDINATES (ANGSTROEM)
---------------------------------
  C     -7.330440   -2.678990   -3.206810
  S     -6.019660   -2.926970   -4.419130
  O     -5.645830   -1.588380   -4.919310
  O     -4.881960   -3.503700   -3.667240
  F     -6.549270   -3.805150   -5.425070
  C     -7.469000   -1.246150   -2.713830
  H     -7.118250   -3.379820   -2.398050
  H     -8.241840   -3.004740   -3.706510
  H     -7.675800   -0.602140   -3.542920
  H     -6.557490   -0.940960   -2.243820
  H     -8.271140   -1.187770   -2.008100

 Total Charge           Charge          ....    0
 Multiplicity           Mult            ....    1
 Number of Electrons    NEL             ....   58
 Basis Dimension        Dim             ....  176

ORBITAL ENERGIES
----------------

  NO   OCC          E(Eh)            E(eV)
   0   2.0000     -90.198292     -2454.4203
   1   2.0000     -25.383546      -690.7214
   2   2.0000     -19.645344      -534.5770
   3   2.0000     -19.642205      -534.4916
   4   2.0000     -10.621226      -289.0183
   5   2.0000     -10.574090      -287.7356
   6   2.0000      -8.522894      -231.9197
   7   2.0000      -6.451289      -175.5485
   8   2.0000      -6.445819      -175.3996
   9   2.0000      -6.444884      -175.3742
  10   2.0000      -1.524275       -41.4776
  11   2.0000      -1.215059       -33.0634
  12   2.0000      -1.108215       -30.1561
  13   2.0000      -0.922411       -25.1001
  14   2.0000      -0.840196       -22.8629
  15   2.0000      -0.769750       -20.9460
  16   2.0000      -0.694867       -18.9083
  17   2.0000      -0.688899       -18.7459
  18   2.0000      -0.642989       -17.4966
  19   2.0000      -0.572152       -15.5691
  20   2.0000      -0.563953       -15.3459
  21   2.0000      -0.523231       -14.2378
  22   2.0000      -0.500302       -13.6139
  23   2.0000      -0.476604       -12.9691
  24   2.0000      -0.459177       -12.4949
  25   2.0000      -0.455466       -12.3939
  26   2.0000      -0.400187       -10.8896
  27   2.0000      -0.392384       -10.6773
  28   2.0000      -0.375137       -10.2080
  29   0.0000       0.008715         0.2372
  30   0.0000       0.032029         0.8716
  31   0.0000       0.041710         1.1350
  32   0.0000       0.046359         1.2615
  33   0.0000       0.069357         1.8873

MULLIKEN ATOMIC CHARGES
-----------------------
   0 C :   -0.434285
   1 S :    1.582476
   2 O :   -0.731499
   3 O :   -0.722508
   4 F :   -0.419690
   5 C :    0.717560
   6 H :    0.019474
   7 H :    0.044977
   8 H :    0.029971
   9 H :    0.009283
  10 H :   -0.095757
Sum of atomic charges:    0.0000000

LOEWDIN ATOMIC CHARGES
----------------------
   0 C :   -0.086072
   1 S :    1.172868
   2 O :   -0.493100
   3 O :   -0.500786
   4 F :   -0.269815
   5 C :    0.139636
   6 H :    0.025398
   7 H :    0.013771
   8 H :   -0.004417
   9 H :    0.005409
  10 H :   -0.002892

  Mayer bond orders larger than 0.100000
B(  0-C ,  1-S ) :   0.9254 B(  0-C ,  5-C ) :   1.3405 B(  0-C ,  6-H ) :   1.0051
B(  0-C ,  7-H ) :   0.9587 B(  0-C ,  8-H ) :   0.1960 B(  0-C ,  9-H ) :   0.1805
B(  0-C , 10-H ) :   0.1966 B(  1-S ,  2-O ) :   1.4776 B(  1-S ,  3-O ) :   1.4740
B(  1-S ,  4-F ) :   0.6444 B(  5-C ,  8-H ) :   0.8071 B(  5-C ,  9-H ) :   0.8162
B(  5-C , 10-H ) :   0.8067

Dispersion correction           -0.000148182
FINAL SINGLE POINT ENERGY      -727.102307593358

DIPOLE MOMENT
-------------
                                X             Y             Z
Electronic contribution:      4.06433      -5.45241      -7.21191
Nuclear contribution   :     -5.87110       5.18927       7.67759
                        -----------------------------------------
Total Dipole Moment    :     -1.80677      -0.26313       0.46568
                        -----------------------------------------
Magnitude (a.u.)       :      1.88428
Magnitude (Debye)      :      4.78946

Rotational constants in cm-1:     0.155988     0.080452     0.078187
Rotational constants in MHz :  4676.405251  2411.902056  2343.983816

                             ****ORCA TERMINATED NORMALLY****
TOTAL RUN TIME: 0 days 0 hours 0 minutes 23 seconds 60 msec
