                         Program Version 5.0.0 -  RELEASE  -
|  1> !M062X D3Zero RIJCOSX def2-SVPD def2/J TightSCF xyzfile
|  2>
|  3> *xyzfile 0 1 D1.xyz
|  4>
|  5> %MaxCore 64000
|  6>
|  7> %pal nprocs 4
|  8> end
|  9>
| 10> %scf
| 11>   MaxIter 150
| 12> end
| 13>
| 14>
| 15>                          ****END OF INPUT****

CARTESIAN COORDINATES (ANGSTROEM)
---------------------------------
  C     -2.160376   -1.369486   -3.467104
  C     -3.030108   -1.910857   -4.541074
  C     -2.047717    0.146583   -3.511774
  C     -7.330440   -2.678991   -3.206811
  S     -6.019659   -2.926965   -4.419128
  H     -3.477443   -2.791513   -4.257096
  H     -2.538013   -2.017860   -5.438075
  H     -3.891589   -1.376039   -4.714365
  F     -5.645830   -1.588384   -4.919307
  O     -4.881961   -3.503697   -3.667235
  H     -1.184438   -1.843997   -3.566393
  H     -2.598195   -1.708376   -2.528477
  O     -6.549267   -3.805150   -5.425071
  C     -3.328755    0.875037   -3.103669
  H     -1.740034    0.452343   -4.517126
  H     -1.232611    0.434938   -2.842208
  C     -3.628487    0.771601   -1.609363
  H     -4.175106    0.490791   -3.682203
  H     -3.237812    1.928663   -3.381480
  C     -4.975718    1.361432   -1.190644
  H     -2.830700    1.276234   -1.054766
  H     -3.594312   -0.275838   -1.294603
  C     -6.184720    0.784347   -1.926464
  H     -4.956292    2.445725   -1.342200
  H     -5.097256    1.205252   -0.114136
  C     -6.286921   -0.735882   -1.893531
  H     -6.163994    1.100199   -2.974250
  H     -7.094530    1.223459   -1.504509
  C     -7.468999   -1.246153   -2.713833
  H     -6.360641   -1.090347   -0.859176
  H     -5.369848   -1.171853   -2.295982
  H     -7.601914   -0.601349   -3.585329
  H     -8.389791   -1.173436   -2.126922
  H     -7.118254   -3.379818   -2.398055
  H     -8.241838   -3.004745   -3.706513

 Total Charge           Charge          ....    0
 Multiplicity           Mult            ....    1
 Number of Electrons    NEL             ....  122
 Basis Dimension        Dim             ....  464

ORBITAL ENERGIES
----------------

  NO   OCC          E(Eh)            E(eV)
   0   2.0000     -90.202987     -2454.5481
   1   2.0000     -25.369418      -690.3370
   2   2.0000     -19.661324      -535.0118
   3   2.0000     -19.645197      -534.5730
   4   2.0000     -10.618785      -288.9518
   5   2.0000     -10.587282      -288.0946
   6   2.0000     -10.565610      -287.5049
   7   2.0000     -10.556938      -287.2689
   8   2.0000     -10.549549      -287.0678
   9   2.0000     -10.542479      -286.8754
  10   2.0000     -10.539997      -286.8079
  11   2.0000     -10.532093      -286.5928
  12   2.0000     -10.522013      -286.3185
  13   2.0000     -10.475853      -285.0624
  14   2.0000      -8.526089      -232.0067
  15   2.0000      -6.454499      -175.6358
  16   2.0000      -6.449411      -175.4974
  17   2.0000      -6.448187      -175.4641
  18   2.0000      -1.496653       -40.7260
  19   2.0000      -1.236400       -33.6442
  20   2.0000      -1.131472       -30.7889
  21   2.0000      -0.943848       -25.6834
  22   2.0000      -0.910452       -24.7747
  23   2.0000      -0.880387       -23.9566
  24   2.0000      -0.853186       -23.2164
  25   2.0000      -0.816025       -22.2052
  26   2.0000      -0.796316       -21.6689
  27   2.0000      -0.758563       -20.6415
  28   2.0000      -0.720665       -19.6103
  29   2.0000      -0.705497       -19.1976
  30   2.0000      -0.683781       -18.6066
  31   2.0000      -0.680243       -18.5103
  32   2.0000      -0.649132       -17.6638
  33   2.0000      -0.638357       -17.3706
  34   2.0000      -0.622072       -16.9275
  35   2.0000      -0.574856       -15.6426
  36   2.0000      -0.567688       -15.4476
  37   2.0000      -0.557380       -15.1671
  38   2.0000      -0.543820       -14.7981
  39   2.0000      -0.538441       -14.6517
  40   2.0000      -0.525013       -14.2863
  41   2.0000      -0.508981       -13.8501
  42   2.0000      -0.504501       -13.7282
  43   2.0000      -0.496562       -13.5121
  44   2.0000      -0.482363       -13.1258
  45   2.0000      -0.466610       -12.6971
  46   2.0000      -0.459646       -12.5076
  47   2.0000      -0.458049       -12.4642
  48   2.0000      -0.441403       -12.0112
  49   2.0000      -0.431468       -11.7408
  50   2.0000      -0.422730       -11.5031
  51   2.0000      -0.418522       -11.3886
  52   2.0000      -0.406593       -11.0640
  53   2.0000      -0.399780       -10.8786
  54   2.0000      -0.393258       -10.7011
  55   2.0000      -0.387450       -10.5431
  56   2.0000      -0.383877       -10.4458
  57   2.0000      -0.375667       -10.2224
  58   2.0000      -0.364092        -9.9075
  59   2.0000      -0.361025        -9.8240
  60   2.0000      -0.341018        -9.2796
  61   0.0000       0.010522         0.2863
  62   0.0000       0.031366         0.8535
  63   0.0000       0.038581         1.0498
  64   0.0000       0.042855         1.1661
  65   0.0000       0.051963         1.4140

MULLIKEN ATOMIC CHARGES
-----------------------
   0 C :    0.044283
   1 C :    2.174142
   2 C :    0.611262
   3 C :    0.454450
   4 S :    1.507690
   5 H :   -0.542072
   6 H :   -0.272722
   7 H :   -1.133347
   8 F :   -0.492776
   9 O :   -0.758762
  10 H :   -0.316730
  11 H :   -0.005317
  12 O :   -0.776648
  13 C :    0.461715
  14 H :   -0.106810
  15 H :   -0.115953
  16 C :   -0.120298
  17 H :   -0.622051
  18 H :   -0.092162
  19 C :    0.749623
  20 H :   -0.399062
  21 H :    0.128341
  22 C :   -0.072754
  23 H :   -0.037185
  24 H :   -0.003850
  25 C :    0.427797
  26 H :    0.206769
  27 H :   -0.470693
  28 C :    0.313392
  29 H :   -0.057975
  30 H :   -0.501319
  31 H :    0.067104
  32 H :   -0.209424
  33 H :   -0.018010
  34 H :   -0.020648
Sum of atomic charges:    0.0000000

LOEWDIN ATOMIC CHARGES
----------------------
   0 C :   -0.036949
   1 C :    0.130051
   2 C :   -0.028403
   3 C :   -0.019701
   4 S :    1.195964
   5 H :   -0.120983
   6 H :   -0.012553
   7 H :   -0.096270
   8 F :   -0.281376
   9 O :   -0.472293
  10 H :    0.024971
  11 H :    0.012660
  12 O :   -0.457390
  13 C :   -0.022515
  14 H :    0.026197
  15 H :    0.018507
  16 C :   -0.034391
  17 H :   -0.008064
  18 H :    0.027187
  19 C :   -0.029244
  20 H :    0.025888
  21 H :    0.005336
  22 C :   -0.037568
  23 H :    0.024508
  24 H :    0.023546
  25 C :   -0.021406
  26 H :    0.016801
  27 H :    0.026739
  28 C :   -0.041753
  29 H :    0.042469
  30 H :   -0.004311
  31 H :    0.024244
  32 H :    0.038062
  33 H :    0.038154
  34 H :    0.023886

  Mayer bond orders larger than 0.100000
B(  0-C ,  1-C ) :   0.8544 B(  0-C ,  2-C ) :   1.1844 B(  0-C ,  5-H ) :   0.4474
B(  0-C ,  7-H ) :   0.5033 B(  0-C , 10-H ) :   0.9353 B(  0-C , 11-H ) :   0.7556
B(  0-C , 13-C ) :   0.1218 B(  0-C , 14-H ) :   0.1203 B(  0-C , 15-H ) :   0.1815
B(  1-C ,  5-H ) :  -0.3660 B(  1-C ,  6-H ) :   0.6462 B(  1-C ,  7-H ) :  -1.1046
B(  1-C ,  9-O ) :  -0.1340 B(  1-C , 11-H ) :   0.2281 B(  2-C ,  7-H ) :  -0.1324
B(  2-C , 13-C ) :   1.2010 B(  2-C , 14-H ) :   0.6944 B(  2-C , 15-H ) :   0.7412
B(  2-C , 19-C ) :   0.1063 B(  3-C ,  4-S ) :   0.8746 B(  3-C , 12-O ) :   0.1038
B(  3-C , 28-C ) :   1.2459 B(  3-C , 33-H ) :   0.9158 B(  3-C , 34-H ) :   0.7689
B(  4-S ,  8-F ) :   0.5589 B(  4-S ,  9-O ) :   1.4236 B(  4-S , 12-O ) :   1.4419
B(  4-S , 30-H ) :   0.1120 B(  4-S , 33-H ) :   0.1031 B(  5-H ,  6-H ) :  -0.1966
B(  5-H ,  7-H ) :   0.9690 B(  5-H ,  9-O ) :   0.1162 B(  6-H ,  7-H ) :   0.1293
B(  7-H ,  8-F ) :   0.1046 B(  7-H ,  9-O ) :   0.1278 B(  7-H , 10-H ) :   0.1007
B(  7-H , 15-H ) :  -0.1019 B(  7-H , 17-H ) :   0.1889 B( 10-H , 11-H ) :  -0.1451
B( 11-H , 21-H ) :   0.1198 B( 13-C , 14-H ) :   0.2110 B( 13-C , 15-H ) :   0.1342
B( 13-C , 16-C ) :   1.1525 B( 13-C , 17-H ) :   0.7660 B( 13-C , 18-H ) :   0.7574
B( 13-C , 20-H ) :   0.1849 B( 14-H , 15-H ) :  -0.1942 B( 16-C , 17-H ) :   0.2125
B( 16-C , 18-H ) :   0.1845 B( 16-C , 19-C ) :   1.1671 B( 16-C , 20-H ) :   1.0448
B( 16-C , 21-H ) :   0.8576 B( 16-C , 22-C ) :   0.1498 B( 16-C , 23-H ) :   0.1378
B( 16-C , 24-H ) :   0.2777 B( 17-H , 26-H ) :   0.1254 B( 19-C , 22-C ) :   1.1256
B( 19-C , 23-H ) :   0.6788 B( 19-C , 24-H ) :   0.6844 B( 21-H , 30-H ) :   0.1046
B( 22-C , 23-H ) :   0.2390 B( 22-C , 25-C ) :   1.2248 B( 22-C , 26-H ) :   0.7779
B( 22-C , 27-H ) :   1.1104 B( 22-C , 28-C ) :   0.1141 B( 22-C , 30-H ) :   0.1268
B( 23-H , 24-H ) :  -0.1495 B( 25-C , 26-H ) :   0.1051 B( 25-C , 27-H ) :   0.1723
B( 25-C , 28-C ) :   1.1162 B( 25-C , 29-H ) :   0.7033 B( 25-C , 30-H ) :   0.8241
B( 25-C , 32-H ) :   0.2024 B( 28-C , 29-H ) :   0.1307 B( 28-C , 31-H ) :   0.8524
B( 28-C , 32-H ) :   0.8386 B( 28-C , 34-H ) :   0.2258 B( 29-H , 30-H ) :   0.2249

Dispersion correction           -0.002315727
FINAL SINGLE POINT ENERGY     -1041.197769596872

DIPOLE MOMENT
-------------
                                X             Y             Z
Electronic contribution:    -10.89880     -16.14329     -13.11770
Nuclear contribution   :      9.63012      17.20461      14.03552
                        -----------------------------------------
Total Dipole Moment    :     -1.26868       1.06132       0.91781
                        -----------------------------------------
Magnitude (a.u.)       :      1.89165
Magnitude (Debye)      :      4.80819

Rotational constants in cm-1:     0.025899     0.015189     0.010690
Rotational constants in MHz :   776.424978   455.369614   320.488876

                             ****ORCA TERMINATED NORMALLY****
TOTAL RUN TIME: 0 days 0 hours 3 minutes 44 seconds 975 msec
