                         Program Version 5.0.0 -  RELEASE  -
|  1> !CAM-B3LYP RIJCOSX def2-SVPD def2/J TightSCF
|  2> *xyz -1 1
|  3> C         -0.87096        0.24804       -2.66280
|  4> C         -0.47749        0.60819       -4.10105
|  5> H          0.20677        1.45830       -4.11875
|  6> H         -1.36844        0.92942       -4.64785
|  7> C          0.18467       -0.50664       -4.91676
|  8> O         -0.15869       -1.70109       -4.65798
|  9> O          1.05594       -0.17441       -5.74037
| 10> H         -1.54056       -0.58646       -2.67455
| 11> H         -1.35339        1.08600       -2.20455
| 12> H          0.00660       -0.00662       -2.10609
| 13> *
| 14>
| 15> %MaxCore 64000
| 16>
| 17> %pal nprocs 4
| 18> end
| 19>
| 20> %scf
| 21>   MaxIter 150
| 22> end
| 23>
| 24>
| 25>                          ****END OF INPUT****

CARTESIAN COORDINATES (ANGSTROEM)
---------------------------------
  C     -0.870960    0.248040   -2.662800
  C     -0.477490    0.608190   -4.101050
  H      0.206770    1.458300   -4.118750
  H     -1.368440    0.929420   -4.647850
  C      0.184670   -0.506640   -4.916760
  O     -0.158690   -1.701090   -4.657980
  O      1.055940   -0.174410   -5.740370
  H     -1.540560   -0.586460   -2.674550
  H     -1.353390    1.086000   -2.204550
  H      0.006600   -0.006620   -2.106090

 Total Charge           Charge          ....   -1
 Multiplicity           Mult            ....    1
 Number of Electrons    NEL             ....   40
 Basis Dimension        Dim             ....  146

ORBITAL ENERGIES
----------------

  NO   OCC          E(Eh)            E(eV)
   0   2.0000     -18.954623      -515.7815
   1   2.0000     -18.950647      -515.6733
   2   2.0000     -10.149312      -276.1768
   3   2.0000     -10.096284      -274.7339
   4   2.0000     -10.087345      -274.4906
   5   2.0000      -0.895848       -24.3773
   6   2.0000      -0.799078       -21.7440
   7   2.0000      -0.681657       -18.5488
   8   2.0000      -0.550334       -14.9754
   9   2.0000      -0.389852       -10.6084
  10   2.0000      -0.366007        -9.9596
  11   2.0000      -0.330221        -8.9858
  12   2.0000      -0.300920        -8.1884
  13   2.0000      -0.285819        -7.7775
  14   2.0000      -0.278597        -7.5810
  15   2.0000      -0.248649        -6.7661
  16   2.0000      -0.229858        -6.2548
  17   2.0000      -0.115187        -3.1344
  18   2.0000      -0.111249        -3.0273
  19   2.0000      -0.097948        -2.6653
  20   0.0000       0.182121         4.9558
  21   0.0000       0.217856         5.9282
  22   0.0000       0.230396         6.2694
  23   0.0000       0.246116         6.6971
  24   0.0000       0.273256         7.4357

MULLIKEN ATOMIC CHARGES
-----------------------
   0 C :    0.838917
   1 C :   -0.210598
   2 H :   -0.121712
   3 H :   -0.094617
   4 C :    0.373748
   5 O :   -0.720067
   6 O :   -0.649536
   7 H :   -0.110618
   8 H :   -0.169328
   9 H :   -0.136189
Sum of atomic charges:   -1.0000000

LOEWDIN ATOMIC CHARGES
----------------------
   0 C :    0.097978
   1 C :   -0.037815
   2 H :   -0.000485
   3 H :    0.009630
   4 C :   -0.310626
   5 O :   -0.333059
   6 O :   -0.324200
   7 H :   -0.030791
   8 H :   -0.045419
   9 H :   -0.025213

  Mayer bond orders larger than 0.100000
B(  0-C ,  1-C ) :   1.2510 B(  0-C ,  7-H ) :   0.7843 B(  0-C ,  8-H ) :   0.7516
B(  0-C ,  9-H ) :   0.7930 B(  1-C ,  2-H ) :   0.9263 B(  1-C ,  3-H ) :   0.8729
B(  1-C ,  4-C ) :   1.0173 B(  1-C ,  7-H ) :   0.2294 B(  1-C ,  8-H ) :   0.2374
B(  1-C ,  9-H ) :   0.1955 B(  2-H ,  4-C ) :   0.1986 B(  4-C ,  5-O ) :   1.5009
B(  4-C ,  6-O ) :   1.5242

FINAL SINGLE POINT ENERGY      -267.545396794145

DIPOLE MOMENT
-------------
                                X             Y             Z
Electronic contribution:      2.59289      -2.85607      -4.50962
Nuclear contribution   :     -3.54611       4.15440       5.90446
                        -----------------------------------------
Total Dipole Moment    :     -0.95322       1.29833       1.39484
                        -----------------------------------------
Magnitude (a.u.)       :      2.13069
Magnitude (Debye)      :      5.41580

Rotational constants in cm-1:     0.332789     0.132085     0.101080
Rotational constants in MHz :  9976.755824  3959.803182  3030.288811

                             ****ORCA TERMINATED NORMALLY****
TOTAL RUN TIME: 0 days 0 hours 0 minutes 23 seconds 254 msec
