                         Program Version 5.0.0 -  RELEASE  -
|  1> !CAM-B3LYP RIJCOSX def2-SVPD def2/J TightSCF
|  2> *xyz 1 1
|  3> C          2.48645       -2.67712       -2.56345
|  4> C          3.03764       -2.36672       -3.92351
|  5> N          2.28036       -2.45441       -4.96769
|  6> N          4.32174       -2.01793       -4.01664
|  7> H          4.87994       -1.91167       -3.17382
|  8> H          4.71015       -1.67088       -4.88356
|  9> H          1.27042       -2.41265       -4.86614
| 10> H          2.58183       -2.05528       -5.84688
| 11> C          2.49799       -1.46946       -1.61030
| 12> H          1.47259       -3.05153       -2.69437
| 13> H          3.08320       -3.49064       -2.14147
| 14> H          1.91240       -0.67831       -2.02991
| 15> H          3.50450       -1.13364       -1.47227
| 16> H          2.08509       -1.75655       -0.66585
| 17> *
| 18>
| 19> %MaxCore 64000
| 20>
| 21> %pal nprocs 4
| 22> end
| 23>
| 24> %scf
| 25>   MaxIter 150
| 26> end
| 27>
| 28>
| 29>                          ****END OF INPUT****

CARTESIAN COORDINATES (ANGSTROEM)
---------------------------------
  C      2.486450   -2.677120   -2.563450
  C      3.037640   -2.366720   -3.923510
  N      2.280360   -2.454410   -4.967690
  N      4.321740   -2.017930   -4.016640
  H      4.879940   -1.911670   -3.173820
  H      4.710150   -1.670880   -4.883560
  H      1.270420   -2.412650   -4.866140
  H      2.581830   -2.055280   -5.846880
  C      2.497990   -1.469460   -1.610300
  H      1.472590   -3.051530   -2.694370
  H      3.083200   -3.490640   -2.141470
  H      1.912400   -0.678310   -2.029910
  H      3.504500   -1.133640   -1.472270
  H      2.085090   -1.756550   -0.665850

 Total Charge           Charge          ....    1
 Multiplicity           Mult            ....    1
 Number of Electrons    NEL             ....   40
 Basis Dimension        Dim             ....  172

ORBITAL ENERGIES
----------------

  NO   OCC          E(Eh)            E(eV)
   0   2.0000     -14.657026      -398.8379
   1   2.0000     -14.651185      -398.6790
   2   2.0000     -10.588743      -288.1343
   3   2.0000     -10.458748      -284.5970
   4   2.0000     -10.417839      -283.4838
   5   2.0000      -1.286105       -34.9967
   6   2.0000      -1.186448       -32.2849
   7   2.0000      -1.047530       -28.5047
   8   2.0000      -0.940720       -25.5983
   9   2.0000      -0.891322       -24.2541
  10   2.0000      -0.850924       -23.1548
  11   2.0000      -0.823086       -22.3973
  12   2.0000      -0.773529       -21.0488
  13   2.0000      -0.725979       -19.7549
  14   2.0000      -0.694450       -18.8969
  15   2.0000      -0.680481       -18.5168
  16   2.0000      -0.616902       -16.7868
  17   2.0000      -0.606157       -16.4944
  18   2.0000      -0.595658       -16.2087
  19   2.0000      -0.562801       -15.3146
  20   0.0000      -0.169744        -4.6190
  21   0.0000      -0.126083        -3.4309
  22   0.0000      -0.083731        -2.2784
  23   0.0000      -0.081631        -2.2213
  24   0.0000      -0.050646        -1.3782

MULLIKEN ATOMIC CHARGES
-----------------------
   0 C :   -0.121373
   1 C :    0.448112
   2 N :    0.247178
   3 N :    0.220930
   4 H :   -0.011831
   5 H :   -0.168853
   6 H :   -0.011833
   7 H :   -0.116408
   8 C :    0.909098
   9 H :   -0.043174
  10 H :   -0.017703
  11 H :   -0.144752
  12 H :   -0.139094
  13 H :   -0.050295
Sum of atomic charges:    1.0000000

LOEWDIN ATOMIC CHARGES
----------------------
   0 C :    0.013797
   1 C :   -0.047158
   2 N :    0.285054
   3 N :    0.289541
   4 H :    0.048273
   5 H :    0.045132
   6 H :    0.059977
   7 H :    0.051345
   8 C :    0.172471
   9 H :    0.035408
  10 H :    0.053909
  11 H :   -0.000808
  12 H :   -0.015631
  13 H :    0.008692

  Mayer bond orders larger than 0.100000
B(  0-C ,  1-C ) :   1.1976 B(  0-C ,  8-C ) :   1.2393 B(  0-C ,  9-H ) :   0.8460
B(  0-C , 10-H ) :   0.8389 B(  0-C , 11-H ) :   0.1758 B(  0-C , 12-H ) :   0.2043
B(  0-C , 13-H ) :   0.1743 B(  1-C ,  2-N ) :   1.1580 B(  1-C ,  3-N ) :   1.1633
B(  1-C ,  5-H ) :  -0.1443 B(  1-C ,  7-H ) :  -0.1105 B(  1-C ,  9-H ) :   0.2083
B(  1-C , 10-H ) :   0.1215 B(  2-N ,  3-N ) :   0.1325 B(  2-N ,  6-H ) :   1.0670
B(  2-N ,  7-H ) :   1.1837 B(  3-N ,  4-H ) :   1.1117 B(  3-N ,  5-H ) :   1.2703
B(  4-H ,  5-H ) :  -0.1774 B(  6-H ,  7-H ) :  -0.1315 B(  8-C , 11-H ) :   0.7827
B(  8-C , 12-H ) :   0.7445 B(  8-C , 13-H ) :   0.8128

FINAL SINGLE POINT ENERGY      -228.752899583998

DIPOLE MOMENT
-------------
                                X             Y             Z
Electronic contribution:      1.05649      -1.07481      -3.92056
Nuclear contribution   :     -0.84604       1.34287       2.92710
                        -----------------------------------------
Total Dipole Moment    :      0.21045       0.26806      -0.99346
                        -----------------------------------------
Magnitude (a.u.)       :      1.05029
Magnitude (Debye)      :      2.66963

Rotational constants in cm-1:     0.265816     0.126189     0.097583
Rotational constants in MHz :  7968.948902  3783.040103  2925.457702

                             ****ORCA TERMINATED NORMALLY****
TOTAL RUN TIME: 0 days 0 hours 0 minutes 31 seconds 796 msec
