                         Program Version 5.0.0 -  RELEASE  -
|  1> !CAM-B3LYP RIJCOSX def2-SVPD def2/J TightSCF xyzfile
|  2>
|  3> *xyzfile 0 1 B.xyz
|  4>
|  5> %MaxCore 64000
|  6>
|  7> %pal nprocs 4
|  8> end
|  9>
| 10> %scf
| 11>   MaxIter 150
| 12> end
| 13>
| 14>
| 15>                          ****END OF INPUT****

CARTESIAN COORDINATES (ANGSTROEM)
---------------------------------
  C      2.486452   -2.677121   -2.563447
  C     -0.870963    0.248043   -2.662804
  C     -0.477492    0.608191   -4.101052
  H      0.206773    1.458299   -4.118748
  H     -1.368442    0.929419   -4.647855
  C      0.184673   -0.506640   -4.916760
  C      3.037640   -2.366715   -3.923509
  N      2.280360   -2.454408   -4.967692
  N      4.321736   -2.017932   -4.016641
  H      4.879940   -1.911668   -3.173823
  H      4.710148   -1.670882   -4.883561
  H      1.270423   -2.412650   -4.866143
  H      2.581829   -2.055282   -5.846878
  O     -0.158685   -1.701088   -4.657981
  O      1.055938   -0.174410   -5.740373
  C      2.497991   -1.469464   -1.610303
  C      1.582841   -0.321986   -2.042619
  H      2.193083   -1.833912   -0.625420
  H      3.523356   -1.103982   -1.490392
  C      0.100160   -0.673551   -1.915815
  H      1.822311   -0.040361   -3.072834
  H      1.813180    0.557019   -1.433266
  H     -0.063284   -1.679120   -2.301112
  H     -0.168820   -0.691680   -0.853831
  H     -1.001048    1.181040   -2.104071
  H     -1.844645   -0.246592   -2.663281
  H      1.472592   -3.051527   -2.694366
  H      3.083201   -3.490638   -2.141472

 Total Charge           Charge          ....    0
 Multiplicity           Mult            ....    1
 Number of Electrons    NEL             ....   94
 Basis Dimension        Dim             ....  374

ORBITAL ENERGIES
----------------

  NO   OCC          E(Eh)            E(eV)
   0   2.0000     -19.128165      -520.5038
   1   2.0000     -19.122533      -520.3506
   2   2.0000     -14.491043      -394.3213
   3   2.0000     -14.453354      -393.2958
   4   2.0000     -10.413747      -283.3725
   5   2.0000     -10.315866      -280.7090
   6   2.0000     -10.304566      -280.4015
   7   2.0000     -10.286431      -279.9080
   8   2.0000     -10.255791      -279.0743
   9   2.0000     -10.237123      -278.5663
  10   2.0000     -10.232698      -278.4459
  11   2.0000     -10.221063      -278.1293
  12   2.0000      -1.111232       -30.2381
  13   2.0000      -1.074362       -29.2349
  14   2.0000      -1.009545       -27.4711
  15   2.0000      -0.976483       -26.5714
  16   2.0000      -0.910681       -24.7809
  17   2.0000      -0.855993       -23.2928
  18   2.0000      -0.810668       -22.0594
  19   2.0000      -0.754232       -20.5237
  20   2.0000      -0.735788       -20.0218
  21   2.0000      -0.691853       -18.8263
  22   2.0000      -0.682927       -18.5834
  23   2.0000      -0.653569       -17.7845
  24   2.0000      -0.629846       -17.1390
  25   2.0000      -0.597689       -16.2640
  26   2.0000      -0.573903       -15.6167
  27   2.0000      -0.551912       -15.0183
  28   2.0000      -0.529842       -14.4177
  29   2.0000      -0.524351       -14.2683
  30   2.0000      -0.516128       -14.0446
  31   2.0000      -0.494175       -13.4472
  32   2.0000      -0.482821       -13.1382
  33   2.0000      -0.478869       -13.0307
  34   2.0000      -0.462655       -12.5895
  35   2.0000      -0.449995       -12.2450
  36   2.0000      -0.439341       -11.9551
  37   2.0000      -0.425602       -11.5812
  38   2.0000      -0.419540       -11.4163
  39   2.0000      -0.403189       -10.9713
  40   2.0000      -0.389397       -10.5960
  41   2.0000      -0.380001       -10.3404
  42   2.0000      -0.371852       -10.1186
  43   2.0000      -0.362074        -9.8525
  44   2.0000      -0.293148        -7.9770
  45   2.0000      -0.281189        -7.6515
  46   2.0000      -0.270878        -7.3710
  47   0.0000      -0.002210        -0.0601
  48   0.0000       0.014375         0.3912
  49   0.0000       0.049350         1.3429
  50   0.0000       0.061788         1.6813
  51   0.0000       0.067740         1.8433

MULLIKEN ATOMIC CHARGES
-----------------------
   0 C :    0.407911
   1 C :    0.660083
   2 C :    0.443058
   3 H :    0.140447
   4 H :   -0.379939
   5 C :    0.135929
   6 C :    0.445403
   7 N :    0.488078
   8 N :    0.196830
   9 H :   -0.056584
  10 H :   -0.179607
  11 H :   -0.317080
  12 H :   -0.053199
  13 O :   -0.775955
  14 O :   -0.563561
  15 C :    0.440031
  16 C :    0.365109
  17 H :   -0.136077
  18 H :   -0.180712
  19 C :    0.167960
  20 H :   -0.234209
  21 H :   -0.271668
  22 H :   -0.056166
  23 H :   -0.270032
  24 H :   -0.218910
  25 H :   -0.025267
  26 H :   -0.019320
  27 H :   -0.152551
Sum of atomic charges:    0.0000000

LOEWDIN ATOMIC CHARGES
----------------------
   0 C :    0.056255
   1 C :   -0.017360
   2 C :    0.031275
   3 H :    0.017849
   4 H :    0.028511
   5 C :   -0.244383
   6 C :   -0.047183
   7 N :    0.313908
   8 N :    0.256263
   9 H :    0.023806
  10 H :    0.029063
  11 H :   -0.098113
  12 H :    0.033060
  13 O :   -0.257958
  14 O :   -0.262833
  15 C :   -0.012929
  16 C :   -0.009281
  17 H :    0.030430
  18 H :    0.009777
  19 C :   -0.027924
  20 H :    0.009710
  21 H :    0.028031
  22 H :   -0.011727
  23 H :    0.021429
  24 H :    0.015318
  25 H :    0.022966
  26 H :    0.025015
  27 H :    0.037025

  Mayer bond orders larger than 0.100000
B(  0-C ,  6-C ) :   1.1035 B(  0-C ,  7-N ) :   0.1127 B(  0-C , 15-C ) :   1.1389
B(  0-C , 16-C ) :   0.1162 B(  0-C , 17-H ) :   0.1676 B(  0-C , 18-H ) :   0.1531
B(  0-C , 26-H ) :   0.7444 B(  0-C , 27-H ) :   0.6671 B(  1-C ,  2-C ) :   1.1418
B(  1-C ,  4-H ) :   0.1239 B(  1-C , 19-C ) :   1.2702 B(  1-C , 24-H ) :   0.7130
B(  1-C , 25-H ) :   0.6210 B(  2-C ,  3-H ) :   0.7304 B(  2-C ,  4-H ) :   0.6830
B(  2-C ,  5-C ) :   1.1508 B(  2-C , 19-C ) :   0.1362 B(  2-C , 24-H ) :   0.1635
B(  3-H ,  4-H ) :  -0.1020 B(  3-H ,  5-C ) :   0.3205 B(  4-H ,  5-C ) :   0.2937
B(  5-C , 13-O ) :   1.2776 B(  5-C , 14-O ) :   1.5967 B(  6-C ,  7-N ) :   1.2240
B(  6-C ,  8-N ) :   1.0390 B(  6-C ,  9-H ) :  -0.1011 B(  6-C , 12-H ) :  -0.1347
B(  6-C , 26-H ) :   0.2236 B(  6-C , 27-H ) :   0.1767 B(  7-N ,  8-N ) :   0.1879
B(  7-N , 11-H ) :   1.0138 B(  7-N , 12-H ) :   1.0683 B(  8-N ,  9-H ) :   1.1700
B(  8-N , 10-H ) :   1.2471 B(  9-H , 10-H ) :  -0.1847 B( 11-H , 12-H ) :  -0.1380
B( 11-H , 13-O ) :   0.2912 B( 13-O , 14-O ) :   0.1075 B( 15-C , 16-C ) :   1.1856
B( 15-C , 17-H ) :   0.8274 B( 15-C , 18-H ) :   0.6397 B( 15-C , 20-H ) :   0.1790
B( 15-C , 26-H ) :   0.1651 B( 15-C , 27-H ) :   0.1412 B( 16-C , 17-H ) :   0.1097
B( 16-C , 18-H ) :   0.2409 B( 16-C , 19-C ) :   1.1479 B( 16-C , 20-H ) :   0.7767
B( 16-C , 21-H ) :   0.8052 B( 16-C , 22-H ) :   0.1379 B( 16-C , 23-H ) :   0.2641
B( 17-H , 18-H ) :  -0.1132 B( 19-C , 20-H ) :   0.1534 B( 19-C , 21-H ) :   0.1127
B( 19-C , 22-H ) :   0.8241 B( 19-C , 23-H ) :   0.7411 B( 19-C , 24-H ) :   0.2224
B( 19-C , 25-H ) :   0.2536 B( 22-H , 26-H ) :   0.1228 B( 24-H , 25-H ) :  -0.1272

FINAL SINGLE POINT ENERGY      -573.802175530186

DIPOLE MOMENT
-------------
                                X             Y             Z
Electronic contribution:      1.73902      -2.91642      -8.76040
Nuclear contribution   :      1.39386       1.90489      10.36520
                        -----------------------------------------
Total Dipole Moment    :      3.13288      -1.01153       1.60480
                        -----------------------------------------
Magnitude (a.u.)       :      3.66245
Magnitude (Debye)      :      9.30920

Rotational constants in cm-1:     0.041165     0.025922     0.019001
Rotational constants in MHz :  1234.086888   777.109255   569.639629

                             ****ORCA TERMINATED NORMALLY****
TOTAL RUN TIME: 0 days 0 hours 3 minutes 2 seconds 893 msec
