                         Program Version 5.0.0 -  RELEASE  -
|  1> !CAM-B3LYP RIJCOSX def2-SVPD def2/J TightSCF
|  2> *xyz 0 1
|  3> C         -0.87096        0.24804       -2.66280
|  4> C         -0.47749        0.60819       -4.10105
|  5> H          0.20677        1.45830       -4.11875
|  6> H         -1.36844        0.92942       -4.64785
|  7> C          0.18467       -0.50664       -4.91676
|  8> F         -0.15869       -1.70109       -4.65798
|  9> O          1.05594       -0.17441       -5.74037
| 10> H         -1.54056       -0.58646       -2.67455
| 11> H         -1.35339        1.08600       -2.20455
| 12> H          0.00660       -0.00662       -2.10609
| 13> *
| 14>
| 15> %MaxCore 64000
| 16>
| 17> %pal nprocs 4
| 18> end
| 19>
| 20> %scf
| 21>   MaxIter 150
| 22> end
| 23>
| 24>
| 25>                          ****END OF INPUT****

CARTESIAN COORDINATES (ANGSTROEM)
---------------------------------
  C     -0.870960    0.248040   -2.662800
  C     -0.477490    0.608190   -4.101050
  H      0.206770    1.458300   -4.118750
  H     -1.368440    0.929420   -4.647850
  C      0.184670   -0.506640   -4.916760
  F     -0.158690   -1.701090   -4.657980
  O      1.055940   -0.174410   -5.740370
  H     -1.540560   -0.586460   -2.674550
  H     -1.353390    1.086000   -2.204550
  H      0.006600   -0.006620   -2.106090

 Total Charge           Charge          ....    0
 Multiplicity           Mult            ....    1
 Number of Electrons    NEL             ....   40
 Basis Dimension        Dim             ....  146

ORBITAL ENERGIES
----------------

  NO   OCC          E(Eh)            E(eV)
   0   2.0000     -24.844237      -676.0460
   1   2.0000     -19.228672      -523.2388
   2   2.0000     -10.447492      -284.2907
   3   2.0000     -10.294802      -280.1358
   4   2.0000     -10.269610      -279.4503
   5   2.0000      -1.382813       -37.6282
   6   2.0000      -1.117465       -30.4078
   7   2.0000      -0.882388       -24.0110
   8   2.0000      -0.761935       -20.7333
   9   2.0000      -0.720445       -19.6043
  10   2.0000      -0.627206       -17.0671
  11   2.0000      -0.619572       -16.8594
  12   2.0000      -0.571159       -15.5420
  13   2.0000      -0.540960       -14.7203
  14   2.0000      -0.506773       -13.7900
  15   2.0000      -0.476524       -12.9669
  16   2.0000      -0.459999       -12.5172
  17   2.0000      -0.448962       -12.2169
  18   2.0000      -0.420784       -11.4501
  19   2.0000      -0.366689        -9.9781
  20   0.0000       0.016423         0.4469
  21   0.0000       0.039088         1.0636
  22   0.0000       0.075012         2.0412
  23   0.0000       0.082517         2.2454
  24   0.0000       0.103782         2.8240

MULLIKEN ATOMIC CHARGES
-----------------------
   0 C :    0.854719
   1 C :   -0.256580
   2 H :   -0.086253
   3 H :   -0.024141
   4 C :    0.665843
   5 F :   -0.386775
   6 O :   -0.419405
   7 H :   -0.103512
   8 H :   -0.133782
   9 H :   -0.110114
Sum of atomic charges:   -0.0000000

LOEWDIN ATOMIC CHARGES
----------------------
   0 C :    0.133533
   1 C :    0.011641
   2 H :    0.034291
   3 H :    0.039984
   4 C :   -0.013107
   5 F :   -0.039135
   6 O :   -0.127509
   7 H :   -0.015737
   8 H :   -0.013625
   9 H :   -0.010336

  Mayer bond orders larger than 0.100000
B(  0-C ,  1-C ) :   1.2845 B(  0-C ,  7-H ) :   0.7808 B(  0-C ,  8-H ) :   0.7633
B(  0-C ,  9-H ) :   0.7996 B(  1-C ,  2-H ) :   0.9452 B(  1-C ,  3-H ) :   0.8582
B(  1-C ,  4-C ) :   1.0462 B(  1-C ,  7-H ) :   0.1980 B(  1-C ,  8-H ) :   0.2317
B(  1-C ,  9-H ) :   0.1830 B(  2-H ,  4-C ) :   0.1493 B(  4-C ,  5-F ) :   0.7619
B(  4-C ,  6-O ) :   1.8756 B(  5-F ,  6-O ) :   0.1050

FINAL SINGLE POINT ENERGY      -292.081754653070

DIPOLE MOMENT
-------------
                                X             Y             Z
Electronic contribution:      2.58657      -5.33446      -5.27068
Nuclear contribution   :     -3.42837       5.66737       6.17046
                        -----------------------------------------
Total Dipole Moment    :     -0.84179       0.33291       0.89978
                        -----------------------------------------
Magnitude (a.u.)       :      1.27634
Magnitude (Debye)      :      3.24420

Rotational constants in cm-1:     0.304660     0.130969     0.097716
Rotational constants in MHz :  9133.464515  3926.366384  2929.457090

                             ****ORCA TERMINATED NORMALLY****
TOTAL RUN TIME: 0 days 0 hours 0 minutes 23 seconds 510 msec
