                         Program Version 5.0.0 -  RELEASE  -
|  1> !CAM-B3LYP RIJCOSX def2-SVPD def2/J TightSCF
|  2> *xyz 0 1
|  3> C          2.48645       -2.67712       -2.56345
|  4> C          3.03764       -2.36672       -3.92351
|  5> C          2.28036       -2.45441       -4.96769
|  6> N          4.32174       -2.01793       -4.01664
|  7> H          4.87994       -1.91167       -3.17382
|  8> H          4.71015       -1.67088       -4.88356
|  9> H          1.27042       -2.41265       -4.86614
| 10> H          2.58183       -2.05528       -5.84688
| 11> C          2.49799       -1.46946       -1.61030
| 12> H          1.47259       -3.05153       -2.69437
| 13> H          3.08320       -3.49064       -2.14147
| 14> H          1.91240       -0.67831       -2.02991
| 15> H          3.50450       -1.13364       -1.47227
| 16> H          2.08509       -1.75655       -0.66585
| 17> *
| 18>
| 19> %MaxCore 64000
| 20>
| 21> %pal nprocs 4
| 22> end
| 23>
| 24> %scf
| 25>   MaxIter 150
| 26> end
| 27>
| 28>
| 29>                          ****END OF INPUT****

CARTESIAN COORDINATES (ANGSTROEM)
---------------------------------
  C      2.486450   -2.677120   -2.563450
  C      3.037640   -2.366720   -3.923510
  C      2.280360   -2.454410   -4.967690
  N      4.321740   -2.017930   -4.016640
  H      4.879940   -1.911670   -3.173820
  H      4.710150   -1.670880   -4.883560
  H      1.270420   -2.412650   -4.866140
  H      2.581830   -2.055280   -5.846880
  C      2.497990   -1.469460   -1.610300
  H      1.472590   -3.051530   -2.694370
  H      3.083200   -3.490640   -2.141470
  H      1.912400   -0.678310   -2.029910
  H      3.504500   -1.133640   -1.472270
  H      2.085090   -1.756550   -0.665850

 Total Charge           Charge          ....    0
 Multiplicity           Mult            ....    1
 Number of Electrons    NEL             ....   40
 Basis Dimension        Dim             ....  172

ORBITAL ENERGIES
----------------

  NO   OCC          E(Eh)            E(eV)
   0   2.0000     -14.406085      -392.0095
   1   2.0000     -10.280735      -279.7530
   2   2.0000     -10.258058      -279.1359
   3   2.0000     -10.248664      -278.8803
   4   2.0000     -10.189907      -277.2815
   5   2.0000      -1.000746       -27.2317
   6   2.0000      -0.855943       -23.2914
   7   2.0000      -0.801017       -21.7968
   8   2.0000      -0.709837       -19.3156
   9   2.0000      -0.639917       -17.4130
  10   2.0000      -0.596510       -16.2319
  11   2.0000      -0.549690       -14.9578
  12   2.0000      -0.507291       -13.8041
  13   2.0000      -0.502015       -13.6605
  14   2.0000      -0.457577       -12.4513
  15   2.0000      -0.451335       -12.2815
  16   2.0000      -0.421082       -11.4582
  17   2.0000      -0.400923       -10.9097
  18   2.0000      -0.392720       -10.6864
  19   2.0000      -0.257413        -7.0046
  20   0.0000       0.046215         1.2576
  21   0.0000       0.075202         2.0464
  22   0.0000       0.083633         2.2758
  23   0.0000       0.090909         2.4738
  24   0.0000       0.102385         2.7860

MULLIKEN ATOMIC CHARGES
-----------------------
   0 C :   -0.050944
   1 C :   -0.184037
   2 C :    0.507633
   3 N :    0.336271
   4 H :   -0.182786
   5 H :   -0.226691
   6 H :   -0.104005
   7 H :   -0.503369
   8 C :    0.908706
   9 H :    0.028987
  10 H :   -0.112740
  11 H :   -0.135921
  12 H :   -0.150046
  13 H :   -0.131060
Sum of atomic charges:   -0.0000000

LOEWDIN ATOMIC CHARGES
----------------------
   0 C :   -0.028875
   1 C :   -0.263525
   2 C :    0.162191
   3 N :    0.178547
   4 H :   -0.005091
   5 H :    0.003957
   6 H :   -0.077002
   7 H :   -0.084196
   8 C :    0.134526
   9 H :    0.019998
  10 H :    0.024439
  11 H :   -0.013042
  12 H :   -0.032323
  13 H :   -0.019604

  Mayer bond orders larger than 0.100000
B(  0-C ,  1-C ) :   1.2790 B(  0-C ,  2-C ) :   0.1031 B(  0-C ,  8-C ) :   1.1964
B(  0-C ,  9-H ) :   0.8465 B(  0-C , 10-H ) :   0.8522 B(  0-C , 11-H ) :   0.1600
B(  0-C , 12-H ) :   0.2287 B(  0-C , 13-H ) :   0.2122 B(  1-C ,  2-C ) :   1.9712
B(  1-C ,  3-N ) :   1.2184 B(  1-C ,  6-H ) :   0.1143 B(  1-C ,  7-H ) :   0.2678
B(  1-C ,  9-H ) :   0.1710 B(  1-C , 10-H ) :   0.1759 B(  2-C ,  3-N ) :   0.2526
B(  2-C ,  6-H ) :   0.8405 B(  2-C ,  7-H ) :   0.5672 B(  3-N ,  4-H ) :   1.1461
B(  3-N ,  5-H ) :   1.1996 B(  4-H ,  5-H ) :  -0.1508 B(  6-H ,  7-H ) :   0.1679
B(  8-C ,  9-H ) :   0.1001 B(  8-C , 11-H ) :   0.7955 B(  8-C , 12-H ) :   0.7353
B(  8-C , 13-H ) :   0.7793

FINAL SINGLE POINT ENERGY      -212.293868392557

DIPOLE MOMENT
-------------
                                X             Y             Z
Electronic contribution:      1.52289      -0.88207      -2.13275
Nuclear contribution   :     -0.99743       1.27863       2.57190
                        -----------------------------------------
Total Dipole Moment    :      0.52546       0.39655       0.43915
                        -----------------------------------------
Magnitude (a.u.)       :      0.79134
Magnitude (Debye)      :      2.01142

Rotational constants in cm-1:     0.274050     0.130114     0.100964
Rotational constants in MHz :  8215.815505  3900.722919  3026.834930

                             ****ORCA TERMINATED NORMALLY****
TOTAL RUN TIME: 0 days 0 hours 0 minutes 28 seconds 763 msec
