                         Program Version 5.0.0 -  RELEASE  -
|  1> !CAM-B3LYP RIJCOSX def2-SVPD def2/J TightSCF
|  2> *xyz 0 1
|  3> C         -0.87096        0.24804       -2.66280
|  4> C         -0.47749        0.60819       -4.10105
|  5> H          0.20677        1.45830       -4.11875
|  6> H         -1.36844        0.92942       -4.64785
|  7> C          0.18467       -0.50664       -4.91676
|  8> O         -0.15869       -1.70109       -4.65798
|  9> F          1.05594       -0.17441       -5.74037
| 10> H         -1.54056       -0.58646       -2.67455
| 11> H         -1.35339        1.08600       -2.20455
| 12> H          0.00660       -0.00662       -2.10609
| 13> *
| 14>
| 15> %MaxCore 64000
| 16>
| 17> %pal nprocs 4
| 18> end
| 19>
| 20> %scf
| 21>   MaxIter 150
| 22> end
| 23>
| 24>
| 25>                          ****END OF INPUT****

CARTESIAN COORDINATES (ANGSTROEM)
---------------------------------
  C     -0.870960    0.248040   -2.662800
  C     -0.477490    0.608190   -4.101050
  H      0.206770    1.458300   -4.118750
  H     -1.368440    0.929420   -4.647850
  C      0.184670   -0.506640   -4.916760
  O     -0.158690   -1.701090   -4.657980
  F      1.055940   -0.174410   -5.740370
  H     -1.540560   -0.586460   -2.674550
  H     -1.353390    1.086000   -2.204550
  H      0.006600   -0.006620   -2.106090

 Total Charge           Charge          ....    0
 Multiplicity           Mult            ....    1
 Number of Electrons    NEL             ....   40
 Basis Dimension        Dim             ....  146

ORBITAL ENERGIES
----------------

  NO   OCC          E(Eh)            E(eV)
   0   2.0000     -24.853496      -676.2980
   1   2.0000     -19.225160      -523.1432
   2   2.0000     -10.449771      -284.3527
   3   2.0000     -10.296062      -280.1701
   4   2.0000     -10.263440      -279.2824
   5   2.0000      -1.401723       -38.1428
   6   2.0000      -1.102188       -29.9921
   7   2.0000      -0.878481       -23.9047
   8   2.0000      -0.772335       -21.0163
   9   2.0000      -0.719415       -19.5763
  10   2.0000      -0.636025       -17.3071
  11   2.0000      -0.619126       -16.8473
  12   2.0000      -0.582790       -15.8585
  13   2.0000      -0.539994       -14.6940
  14   2.0000      -0.505806       -13.7637
  15   2.0000      -0.466480       -12.6936
  16   2.0000      -0.446828       -12.1588
  17   2.0000      -0.444149       -12.0859
  18   2.0000      -0.416577       -11.3356
  19   2.0000      -0.364501        -9.9186
  20   0.0000       0.013781         0.3750
  21   0.0000       0.041969         1.1420
  22   0.0000       0.071175         1.9368
  23   0.0000       0.085632         2.3302
  24   0.0000       0.103228         2.8090

MULLIKEN ATOMIC CHARGES
-----------------------
   0 C :    0.844276
   1 C :   -0.265138
   2 H :   -0.076090
   3 H :   -0.017751
   4 C :    0.662210
   5 O :   -0.475014
   6 F :   -0.336328
   7 H :   -0.092649
   8 H :   -0.134945
   9 H :   -0.108571
Sum of atomic charges:    0.0000000

LOEWDIN ATOMIC CHARGES
----------------------
   0 C :    0.142665
   1 C :    0.003172
   2 H :    0.023858
   3 H :    0.039893
   4 C :   -0.013136
   5 O :   -0.139077
   6 F :   -0.024274
   7 H :   -0.011047
   8 H :   -0.013933
   9 H :   -0.008122

  Mayer bond orders larger than 0.100000
B(  0-C ,  1-C ) :   1.3176 B(  0-C ,  7-H ) :   0.7823 B(  0-C ,  8-H ) :   0.7582
B(  0-C ,  9-H ) :   0.7956 B(  1-C ,  2-H ) :   0.9145 B(  1-C ,  3-H ) :   0.8582
B(  1-C ,  4-C ) :   1.0847 B(  1-C ,  7-H ) :   0.2119 B(  1-C ,  8-H ) :   0.2268
B(  1-C ,  9-H ) :   0.1907 B(  2-H ,  4-C ) :   0.1259 B(  4-C ,  5-O ) :   1.8575
B(  4-C ,  6-F ) :   0.8017

FINAL SINGLE POINT ENERGY      -292.074911932454

DIPOLE MOMENT
-------------
                                X             Y             Z
Electronic contribution:      4.63358      -2.79711      -7.10524
Nuclear contribution   :     -4.75269       4.00281       7.35060
                        -----------------------------------------
Total Dipole Moment    :     -0.11911       1.20570       0.24536
                        -----------------------------------------
Magnitude (a.u.)       :      1.23617
Magnitude (Debye)      :      3.14209

Rotational constants in cm-1:     0.323805     0.124913     0.096140
Rotational constants in MHz :  9707.430323  3744.789513  2882.191141

                             ****ORCA TERMINATED NORMALLY****
TOTAL RUN TIME: 0 days 0 hours 0 minutes 23 seconds 650 msec
