                         Program Version 5.0.0 -  RELEASE  -
|  1> !CAM-B3LYP RIJCOSX def2-SVPD def2/J TightSCF
|  2> *xyz 0 1
|  3> C          2.48645       -2.67712       -2.56345
|  4> C          3.03764       -2.36672       -3.92351
|  5> N          2.28036       -2.45441       -4.96769
|  6> C          4.32174       -2.01793       -4.01664
|  7> H          4.87994       -1.91167       -3.17382
|  8> H          4.71015       -1.67088       -4.88356
|  9> H          1.27042       -2.41265       -4.86614
| 10> H          2.58183       -2.05528       -5.84688
| 11> C          2.49799       -1.46946       -1.61030
| 12> H          1.47259       -3.05153       -2.69437
| 13> H          3.08320       -3.49064       -2.14147
| 14> H          1.91240       -0.67831       -2.02991
| 15> H          3.50450       -1.13364       -1.47227
| 16> H          2.08509       -1.75655       -0.66585
| 17> *
| 18>
| 19> %MaxCore 64000
| 20>
| 21> %pal nprocs 4
| 22> end
| 23>
| 24> %scf
| 25>   MaxIter 150
| 26> end
| 27>
| 28>
| 29>                          ****END OF INPUT****

CARTESIAN COORDINATES (ANGSTROEM)
---------------------------------
  C      2.486450   -2.677120   -2.563450
  C      3.037640   -2.366720   -3.923510
  N      2.280360   -2.454410   -4.967690
  C      4.321740   -2.017930   -4.016640
  H      4.879940   -1.911670   -3.173820
  H      4.710150   -1.670880   -4.883560
  H      1.270420   -2.412650   -4.866140
  H      2.581830   -2.055280   -5.846880
  C      2.497990   -1.469460   -1.610300
  H      1.472590   -3.051530   -2.694370
  H      3.083200   -3.490640   -2.141470
  H      1.912400   -0.678310   -2.029910
  H      3.504500   -1.133640   -1.472270
  H      2.085090   -1.756550   -0.665850

 Total Charge           Charge          ....    0
 Multiplicity           Mult            ....    1
 Number of Electrons    NEL             ....   40
 Basis Dimension        Dim             ....  172

ORBITAL ENERGIES
----------------

  NO   OCC          E(Eh)            E(eV)
   0   2.0000     -14.410231      -392.1223
   1   2.0000     -10.281084      -279.7625
   2   2.0000     -10.258721      -279.1540
   3   2.0000     -10.244812      -278.7755
   4   2.0000     -10.190267      -277.2913
   5   2.0000      -1.016153       -27.6509
   6   2.0000      -0.857671       -23.3384
   7   2.0000      -0.784643       -21.3512
   8   2.0000      -0.715376       -19.4664
   9   2.0000      -0.643650       -17.5146
  10   2.0000      -0.593311       -16.1448
  11   2.0000      -0.553961       -15.0740
  12   2.0000      -0.516411       -14.0523
  13   2.0000      -0.478635       -13.0243
  14   2.0000      -0.464110       -12.6291
  15   2.0000      -0.446944       -12.1620
  16   2.0000      -0.419092       -11.4041
  17   2.0000      -0.403680       -10.9847
  18   2.0000      -0.401975       -10.9383
  19   2.0000      -0.247451        -6.7335
  20   0.0000       0.048012         1.3065
  21   0.0000       0.070794         1.9264
  22   0.0000       0.084459         2.2983
  23   0.0000       0.088218         2.4005
  24   0.0000       0.103205         2.8084

MULLIKEN ATOMIC CHARGES
-----------------------
   0 C :    0.115376
   1 C :   -0.129131
   2 N :    0.277022
   3 C :    0.574802
   4 H :   -0.277816
   5 H :   -0.565087
   6 H :   -0.111111
   7 H :   -0.148448
   8 C :    0.875364
   9 H :   -0.158413
  10 H :   -0.037281
  11 H :   -0.172704
  12 H :   -0.170898
  13 H :   -0.071675
Sum of atomic charges:    0.0000000

LOEWDIN ATOMIC CHARGES
----------------------
   0 C :   -0.029039
   1 C :   -0.265545
   2 N :    0.167634
   3 C :    0.178934
   4 H :   -0.085165
   5 H :   -0.091798
   6 H :    0.003735
   7 H :    0.010356
   8 C :    0.136422
   9 H :    0.008300
  10 H :    0.028899
  11 H :   -0.016185
  12 H :   -0.026060
  13 H :   -0.020490

  Mayer bond orders larger than 0.100000
B(  0-C ,  1-C ) :   1.1381 B(  0-C ,  2-N ) :   0.1046 B(  0-C ,  3-C ) :   0.1485
B(  0-C ,  8-C ) :   1.2479 B(  0-C ,  9-H ) :   0.7404 B(  0-C , 10-H ) :   0.7989
B(  0-C , 11-H ) :   0.1911 B(  0-C , 12-H ) :   0.2002 B(  0-C , 13-H ) :   0.1790
B(  1-C ,  2-N ) :   1.1050 B(  1-C ,  3-C ) :   1.7227 B(  1-C ,  5-H ) :   0.1465
B(  1-C ,  9-H ) :   0.2516 B(  1-C , 10-H ) :   0.1476 B(  2-N ,  3-C ) :   0.2429
B(  2-N ,  6-H ) :   1.0107 B(  2-N ,  7-H ) :   1.1311 B(  3-C ,  4-H ) :   0.7712
B(  3-C ,  5-H ) :   0.7381 B(  4-H ,  5-H ) :  -0.1011 B(  6-H ,  7-H ) :  -0.1179
B(  8-C ,  9-H ) :   0.1090 B(  8-C , 11-H ) :   0.7866 B(  8-C , 12-H ) :   0.7974
B(  8-C , 13-H ) :   0.7706

FINAL SINGLE POINT ENERGY      -212.294137375975

DIPOLE MOMENT
-------------
                                X             Y             Z
Electronic contribution:     -0.24943      -1.19364      -2.96799
Nuclear contribution   :     -0.52463       1.37972       2.79217
                        -----------------------------------------
Total Dipole Moment    :     -0.77406       0.18607      -0.17582
                        -----------------------------------------
Magnitude (a.u.)       :      0.81530
Magnitude (Debye)      :      2.07233

Rotational constants in cm-1:     0.281086     0.127387     0.100311
Rotational constants in MHz :  8426.743103  3818.969834  3007.238026

                             ****ORCA TERMINATED NORMALLY****
TOTAL RUN TIME: 0 days 0 hours 0 minutes 30 seconds 866 msec
