                         Program Version 5.0.0 -  RELEASE  -
|  1> !CAM-B3LYP RIJCOSX def2-SVPD def2/J TightSCF xyzfile
|  2>
|  3> *xyzfile 0 1 D2.xyz
|  4>
|  5> %MaxCore 64000
|  6>
|  7> %pal nprocs 4
|  8> end
|  9>
| 10> %scf
| 11>   MaxIter 150
| 12> end
| 13>
| 14>
| 15>                          ****END OF INPUT****

CARTESIAN COORDINATES (ANGSTROEM)
---------------------------------
  C      2.486452   -2.677121   -2.563447
  C     -0.870963    0.248043   -2.662804
  C     -0.477492    0.608191   -4.101052
  H      0.206773    1.458299   -4.118748
  H     -1.368442    0.929419   -4.647855
  C      0.184673   -0.506640   -4.916760
  C      3.037640   -2.366715   -3.923509
  N      2.280360   -2.454408   -4.967692
  C      4.321736   -2.017932   -4.016641
  H      4.879940   -1.911668   -3.173823
  H      4.710148   -1.670882   -4.883561
  H      1.270423   -2.412650   -4.866143
  H      2.581829   -2.055282   -5.846878
  F     -0.158685   -1.701088   -4.657981
  O      1.055938   -0.174410   -5.740373
  C      2.497991   -1.469464   -1.610303
  C      1.582841   -0.321986   -2.042619
  H      2.193083   -1.833912   -0.625420
  H      3.523356   -1.103982   -1.490392
  C      0.100160   -0.673551   -1.915815
  H      1.822311   -0.040361   -3.072834
  H      1.813180    0.557019   -1.433266
  H     -0.063284   -1.679120   -2.301112
  H     -0.168820   -0.691680   -0.853831
  H     -1.001048    1.181040   -2.104071
  H     -1.844645   -0.246592   -2.663281
  H      1.472592   -3.051527   -2.694366
  H      3.083201   -3.490638   -2.141472

 Total Charge           Charge          ....    0
 Multiplicity           Mult            ....    1
 Number of Electrons    NEL             ....   94
 Basis Dimension        Dim             ....  374

ORBITAL ENERGIES
----------------

  NO   OCC          E(Eh)            E(eV)
   0   2.0000     -24.873454      -676.8411
   1   2.0000     -19.244849      -523.6790
   2   2.0000     -14.382590      -391.3702
   3   2.0000     -10.464187      -284.7450
   4   2.0000     -10.300707      -280.2965
   5   2.0000     -10.280618      -279.7498
   6   2.0000     -10.269191      -279.4389
   7   2.0000     -10.265958      -279.3509
   8   2.0000     -10.258842      -279.1573
   9   2.0000     -10.255210      -279.0585
  10   2.0000     -10.252425      -278.9827
  11   2.0000     -10.177008      -276.9305
  12   2.0000      -1.416398       -38.5421
  13   2.0000      -1.135652       -30.9027
  14   2.0000      -0.999330       -27.1931
  15   2.0000      -0.914442       -24.8832
  16   2.0000      -0.872806       -23.7503
  17   2.0000      -0.831075       -22.6147
  18   2.0000      -0.784446       -21.3459
  19   2.0000      -0.767641       -20.8886
  20   2.0000      -0.743614       -20.2348
  21   2.0000      -0.702164       -19.1069
  22   2.0000      -0.671699       -18.2779
  23   2.0000      -0.660984       -17.9863
  24   2.0000      -0.645490       -17.5647
  25   2.0000      -0.612908       -16.6781
  26   2.0000      -0.585028       -15.9194
  27   2.0000      -0.570488       -15.5238
  28   2.0000      -0.555927       -15.1275
  29   2.0000      -0.549377       -14.9493
  30   2.0000      -0.542871       -14.7723
  31   2.0000      -0.516790       -14.0626
  32   2.0000      -0.500845       -13.6287
  33   2.0000      -0.492336       -13.3971
  34   2.0000      -0.479412       -13.0455
  35   2.0000      -0.463345       -12.6083
  36   2.0000      -0.456457       -12.4208
  37   2.0000      -0.446288       -12.1441
  38   2.0000      -0.434357       -11.8194
  39   2.0000      -0.424316       -11.5462
  40   2.0000      -0.412893       -11.2354
  41   2.0000      -0.405727       -11.0404
  42   2.0000      -0.392659       -10.6848
  43   2.0000      -0.389113       -10.5883
  44   2.0000      -0.380467       -10.3530
  45   2.0000      -0.371753       -10.1159
  46   2.0000      -0.231926        -6.3110
  47   0.0000      -0.000958        -0.0261
  48   0.0000       0.035154         0.9566
  49   0.0000       0.059207         1.6111
  50   0.0000       0.062501         1.7007
  51   0.0000       0.065770         1.7897

MULLIKEN ATOMIC CHARGES
-----------------------
   0 C :    0.765845
   1 C :    0.677717
   2 C :    0.361446
   3 H :    0.180349
   4 H :   -0.348028
   5 C :    0.456062
   6 C :   -0.213244
   7 N :    0.500196
   8 C :    0.522371
   9 H :   -0.220848
  10 H :   -0.468549
  11 H :   -0.438323
  12 H :   -0.028973
  13 F :   -0.539445
  14 O :   -0.393277
  15 C :    0.385891
  16 C :    0.344325
  17 H :   -0.151657
  18 H :   -0.138150
  19 C :    0.200613
  20 H :   -0.233501
  21 H :   -0.292123
  22 H :   -0.102521
  23 H :   -0.265265
  24 H :   -0.189304
  25 H :   -0.046142
  26 H :   -0.195637
  27 H :   -0.129830
Sum of atomic charges:   -0.0000000

LOEWDIN ATOMIC CHARGES
----------------------
   0 C :    0.023301
   1 C :   -0.015905
   2 C :    0.062018
   3 H :    0.040579
   4 H :    0.040918
   5 C :   -0.002683
   6 C :   -0.243425
   7 N :    0.197033
   8 C :    0.177391
   9 H :   -0.089617
  10 H :   -0.090684
  11 H :   -0.082950
  12 H :    0.012272
  13 F :   -0.040841
  14 O :   -0.111570
  15 C :   -0.013235
  16 C :   -0.012303
  17 H :    0.021980
  18 H :    0.017861
  19 C :   -0.028164
  20 H :    0.006907
  21 H :    0.028082
  22 H :   -0.008654
  23 H :    0.029675
  24 H :    0.026992
  25 H :    0.023527
  26 H :    0.000215
  27 H :    0.031279

  Mayer bond orders larger than 0.100000
B(  0-C ,  6-C ) :   0.9607 B(  0-C ,  7-N ) :   0.1223 B(  0-C , 10-H ) :   0.1259
B(  0-C , 15-C ) :   1.1316 B(  0-C , 16-C ) :   0.1166 B(  0-C , 17-H ) :   0.1595
B(  0-C , 18-H ) :   0.1750 B(  0-C , 26-H ) :   0.5288 B(  0-C , 27-H ) :   0.6812
B(  1-C ,  2-C ) :   1.1492 B(  1-C ,  4-H ) :   0.1350 B(  1-C , 19-C ) :   1.2546
B(  1-C , 24-H ) :   0.7092 B(  1-C , 25-H ) :   0.6291 B(  2-C ,  3-H ) :   0.7484
B(  2-C ,  4-H ) :   0.6895 B(  2-C ,  5-C ) :   1.1929 B(  2-C , 19-C ) :   0.1222
B(  2-C , 24-H ) :   0.1483 B(  3-H ,  4-H ) :  -0.1015 B(  3-H ,  5-C ) :   0.2479
B(  4-H ,  5-C ) :   0.3078 B(  5-C , 13-F ) :   0.5997 B(  5-C , 14-O ) :   1.8539
B(  6-C ,  7-N ) :   1.0867 B(  6-C ,  8-C ) :   1.7511 B(  6-C ,  9-H ) :   0.1440
B(  6-C , 10-H ) :   0.2110 B(  6-C , 26-H ) :   0.2884 B(  6-C , 27-H ) :   0.1770
B(  7-N ,  8-C ) :   0.2780 B(  7-N , 11-H ) :   0.8637 B(  7-N , 12-H ) :   0.9570
B(  8-C ,  9-H ) :   0.7933 B(  8-C , 10-H ) :   0.5824 B( 11-H , 12-H ) :  -0.1366
B( 11-H , 13-F ) :   0.1649 B( 11-H , 26-H ) :   0.1061 B( 13-F , 14-O ) :   0.1121
B( 15-C , 16-C ) :   1.2047 B( 15-C , 17-H ) :   0.8113 B( 15-C , 18-H ) :   0.6816
B( 15-C , 20-H ) :   0.1867 B( 15-C , 26-H ) :   0.2219 B( 15-C , 27-H ) :   0.1507
B( 16-C , 17-H ) :   0.1397 B( 16-C , 18-H ) :   0.2529 B( 16-C , 19-C ) :   1.1477
B( 16-C , 20-H ) :   0.7734 B( 16-C , 21-H ) :   0.8276 B( 16-C , 22-H ) :   0.1113
B( 16-C , 23-H ) :   0.2459 B( 16-C , 26-H ) :  -0.1034 B( 17-H , 18-H ) :  -0.1467
B( 19-C , 20-H ) :   0.1476 B( 19-C , 21-H ) :   0.1170 B( 19-C , 22-H ) :   0.8328
B( 19-C , 23-H ) :   0.7604 B( 19-C , 24-H ) :   0.2118 B( 19-C , 25-H ) :   0.2542
B( 22-H , 26-H ) :   0.1266 B( 24-H , 25-H ) :  -0.1265

FINAL SINGLE POINT ENERGY      -581.689699103575

DIPOLE MOMENT
-------------
                                X             Y             Z
Electronic contribution:     -5.35488      -1.77720     -10.84787
Nuclear contribution   :      3.65024       2.44123      11.52670
                        -----------------------------------------
Total Dipole Moment    :     -1.70464       0.66404       0.67883
                        -----------------------------------------
Magnitude (a.u.)       :      1.95129
Magnitude (Debye)      :      4.95979

Rotational constants in cm-1:     0.040600     0.026409     0.019262
Rotational constants in MHz :  1217.142957   791.712481   577.449390

                             ****ORCA TERMINATED NORMALLY****
TOTAL RUN TIME: 0 days 0 hours 3 minutes 28 seconds 780 msec
