                         Program Version 5.0.0 -  RELEASE  -
|  1> !LC-BLYP RIJCOSX def2-TZVP def2/J TightSCF
|  2> *xyz -1 1
|  3> C         -0.91495        0.61511        2.50554
|  4> C         -0.05915        1.50352        3.41058
|  5> H          0.36536        2.34431        2.86116
|  6> H         -0.69226        1.92021        4.19898
|  7> C          1.08303        0.74964        4.08571
|  8> O          2.22817        1.26348        4.01983
|  9> O          0.81003       -0.34541        4.63627
| 10> H         -0.30401        0.20228        1.73015
| 11> H         -1.69811        1.19946        2.06954
| 12> H         -1.34124       -0.17772        3.08397
| 13> *
| 14>
| 15> %MaxCore 64000
| 16>
| 17> %pal nprocs 4
| 18> end
| 19>
| 20> %scf
| 21>   MaxIter 150
| 22> end
| 23>
| 24>
| 25>                          ****END OF INPUT****

CARTESIAN COORDINATES (ANGSTROEM)
---------------------------------
  C     -0.914950    0.615110    2.505540
  C     -0.059150    1.503520    3.410580
  H      0.365360    2.344310    2.861160
  H     -0.692260    1.920210    4.198980
  C      1.083030    0.749640    4.085710
  O      2.228170    1.263480    4.019830
  O      0.810030   -0.345410    4.636270
  H     -0.304010    0.202280    1.730150
  H     -1.698110    1.199460    2.069540
  H     -1.341240   -0.177720    3.083970

 Total Charge           Charge          ....   -1
 Multiplicity           Mult            ....    1
 Number of Electrons    NEL             ....   40
 Basis Dimension        Dim             ....  185

ORBITAL ENERGIES
----------------

  NO   OCC          E(Eh)            E(eV)
   0   2.0000     -18.661852      -507.8148
   1   2.0000     -18.660686      -507.7831
   2   2.0000      -9.944495      -270.6035
   3   2.0000      -9.900828      -269.4152
   4   2.0000      -9.889892      -269.1176
   5   2.0000      -0.904398       -24.6099
   6   2.0000      -0.809848       -22.0371
   7   2.0000      -0.712118       -19.3777
   8   2.0000      -0.579353       -15.7650
   9   2.0000      -0.421950       -11.4818
  10   2.0000      -0.396802       -10.7975
  11   2.0000      -0.357806        -9.7364
  12   2.0000      -0.329799        -8.9743
  13   2.0000      -0.312301        -8.4981
  14   2.0000      -0.302394        -8.2286
  15   2.0000      -0.272251        -7.4083
  16   2.0000      -0.257675        -7.0117
  17   2.0000      -0.138859        -3.7785
  18   2.0000      -0.132710        -3.6112
  19   2.0000      -0.118334        -3.2200
  20   0.0000       0.246772         6.7150
  21   0.0000       0.288904         7.8615
  22   0.0000       0.311511         8.4766
  23   0.0000       0.313335         8.5263
  24   0.0000       0.333025         9.0621

MULLIKEN ATOMIC CHARGES
-----------------------
   0 C :   -0.368400
   1 C :   -0.185247
   2 H :    0.061960
   3 H :    0.056380
   4 C :    0.068069
   5 O :   -0.458700
   6 O :   -0.460357
   7 H :    0.103186
   8 H :    0.069476
   9 H :    0.113633
Sum of atomic charges:   -1.0000000

LOEWDIN ATOMIC CHARGES
----------------------
   0 C :   -0.340211
   1 C :   -0.302232
   2 H :    0.123047
   3 H :    0.126506
   4 C :   -0.727245
   5 O :   -0.104251
   6 O :   -0.101217
   7 H :    0.112676
   8 H :    0.097169
   9 H :    0.115757

  Mayer bond orders larger than 0.100000
B(  0-C ,  1-C ) :   0.9243 B(  0-C ,  7-H ) :   0.9826 B(  0-C ,  8-H ) :   0.9771
B(  0-C ,  9-H ) :   0.9711 B(  1-C ,  2-H ) :   0.9656 B(  1-C ,  3-H ) :   0.9645
B(  1-C ,  4-C ) :   0.9205 B(  4-C ,  5-O ) :   1.9765 B(  4-C ,  6-O ) :   1.9235

FINAL SINGLE POINT ENERGY      -267.347823358438

DIPOLE MOMENT
-------------
                                X             Y             Z
Electronic contribution:      4.77279      -1.01092       3.38528
Nuclear contribution   :     -6.38408       1.63097      -4.40540
                        -----------------------------------------
Total Dipole Moment    :     -1.61129       0.62005      -1.02012
                        -----------------------------------------
Magnitude (a.u.)       :      2.00533
Magnitude (Debye)      :      5.09714

Rotational constants in cm-1:     0.319732     0.134414     0.104753
Rotational constants in MHz :  9585.336550  4029.633034  3140.404334

                             ****ORCA TERMINATED NORMALLY****
TOTAL RUN TIME: 0 days 0 hours 0 minutes 28 seconds 597 msec
