                         Program Version 5.0.0 -  RELEASE  -
|  1> !LC-BLYP RIJCOSX def2-TZVP def2/J TightSCF
|  2> *xyz 1 1
|  3> C          4.60295       -2.44010        2.63478
|  4> C          3.86085       -1.59157        3.62289
|  5> N          2.75650       -2.04616        4.16633
|  6> N          4.25433       -0.36291        3.86046
|  7> H          3.56526        0.31099        4.16898
|  8> H          5.05429       -0.01606        3.33784
|  9> H          2.43970       -2.97389        3.89740
| 10> H          2.06687       -1.41253        4.54981
| 11> C          3.74469       -2.58056        1.36188
| 12> H          5.56156       -1.97135        2.40708
| 13> H          4.81050       -3.42255        3.06310
| 14> H          4.26314       -3.18477        0.64702
| 15> H          3.56325       -1.61180        0.94535
| 16> H          2.81197       -3.04259        1.60980
| 17> *
| 18>
| 19> %MaxCore 64000
| 20>
| 21> %pal nprocs 4
| 22> end
| 23>
| 24> %scf
| 25>   MaxIter 150
| 26> end
| 27>
| 28>
| 29>                          ****END OF INPUT****

CARTESIAN COORDINATES (ANGSTROEM)
---------------------------------
  C      4.602950   -2.440100    2.634780
  C      3.860850   -1.591570    3.622890
  N      2.756500   -2.046160    4.166330
  N      4.254330   -0.362910    3.860460
  H      3.565260    0.310990    4.168980
  H      5.054290   -0.016060    3.337840
  H      2.439700   -2.973890    3.897400
  H      2.066870   -1.412530    4.549810
  C      3.744690   -2.580560    1.361880
  H      5.561560   -1.971350    2.407080
  H      4.810500   -3.422550    3.063100
  H      4.263140   -3.184770    0.647020
  H      3.563250   -1.611800    0.945350
  H      2.811970   -3.042590    1.609800

 Total Charge           Charge          ....    1
 Multiplicity           Mult            ....    1
 Number of Electrons    NEL             ....   40
 Basis Dimension        Dim             ....  209

ORBITAL ENERGIES
----------------

  NO   OCC          E(Eh)            E(eV)
   0   2.0000     -14.415507      -392.2659
   1   2.0000     -14.414643      -392.2424
   2   2.0000     -10.394434      -282.8469
   3   2.0000     -10.270890      -279.4851
   4   2.0000     -10.228409      -278.3292
   5   2.0000      -1.311067       -35.6759
   6   2.0000      -1.212417       -32.9915
   7   2.0000      -1.082435       -29.4546
   8   2.0000      -0.968989       -26.3675
   9   2.0000      -0.924821       -25.1656
  10   2.0000      -0.878102       -23.8944
  11   2.0000      -0.859064       -23.3763
  12   2.0000      -0.798673       -21.7330
  13   2.0000      -0.774541       -21.0763
  14   2.0000      -0.731022       -19.8921
  15   2.0000      -0.706990       -19.2382
  16   2.0000      -0.650183       -17.6924
  17   2.0000      -0.643762       -17.5177
  18   2.0000      -0.630116       -17.1463
  19   2.0000      -0.595284       -16.1985
  20   0.0000      -0.133802        -3.6409
  21   0.0000      -0.095620        -2.6019
  22   0.0000      -0.050996        -1.3877
  23   0.0000      -0.049294        -1.3413
  24   0.0000      -0.013401        -0.3647

MULLIKEN ATOMIC CHARGES
-----------------------
   0 C :   -0.342245
   1 C :    0.281392
   2 N :   -0.294824
   3 N :   -0.289257
   4 H :    0.277730
   5 H :    0.296028
   6 H :    0.298376
   7 H :    0.282021
   8 C :   -0.382335
   9 H :    0.168349
  10 H :    0.209175
  11 H :    0.192898
  12 H :    0.160300
  13 H :    0.142392
Sum of atomic charges:    1.0000000

LOEWDIN ATOMIC CHARGES
----------------------
   0 C :   -0.226460
   1 C :   -0.302030
   2 N :    0.116480
   3 N :    0.115053
   4 H :    0.202872
   5 H :    0.212319
   6 H :    0.212105
   7 H :    0.202376
   8 C :   -0.271642
   9 H :    0.162826
  10 H :    0.171614
  11 H :    0.144479
  12 H :    0.133769
  13 H :    0.126237

  Mayer bond orders larger than 0.100000
B(  0-C ,  1-C ) :   0.9528 B(  0-C ,  8-C ) :   0.8996 B(  0-C ,  9-H ) :   0.9720
B(  0-C , 10-H ) :   0.9480 B(  1-C ,  2-N ) :   1.4306 B(  1-C ,  3-N ) :   1.4486
B(  2-N ,  6-H ) :   0.8943 B(  2-N ,  7-H ) :   0.8957 B(  3-N ,  4-H ) :   0.8968
B(  3-N ,  5-H ) :   0.8908 B(  8-C , 11-H ) :   0.9668 B(  8-C , 12-H ) :   0.9554
B(  8-C , 13-H ) :   0.9697

FINAL SINGLE POINT ENERGY      -228.503180134882

DIPOLE MOMENT
-------------
                                X             Y             Z
Electronic contribution:     -0.24252       1.80333       3.73534
Nuclear contribution   :     -0.22400      -1.16268      -3.30447
                        -----------------------------------------
Total Dipole Moment    :     -0.46653       0.64066       0.43086
                        -----------------------------------------
Magnitude (a.u.)       :      0.90207
Magnitude (Debye)      :      2.29288

Rotational constants in cm-1:     0.258103     0.130571     0.102508
Rotational constants in MHz :  7737.732062  3914.431392  3073.119154

                             ****ORCA TERMINATED NORMALLY****
TOTAL RUN TIME: 0 days 0 hours 0 minutes 30 seconds 132 msec
