                         Program Version 5.0.0 -  RELEASE  -
|  1> !LC-BLYP RIJCOSX def2-TZVP def2/J TightSCF
|  2> *xyz 0 1
|  3> C         -0.91495        0.61511        2.50554
|  4> C         -0.05915        1.50352        3.41058
|  5> H          0.36536        2.34431        2.86116
|  6> H         -0.69226        1.92021        4.19898
|  7> C          1.08303        0.74964        4.08571
|  8> F          2.22817        1.26348        4.01983
|  9> O          0.81003       -0.34541        4.63627
| 10> H         -0.30401        0.20228        1.73015
| 11> H         -1.69811        1.19946        2.06954
| 12> H         -1.34124       -0.17772        3.08397
| 13> *
| 14>
| 15> %MaxCore 64000
| 16>
| 17> %pal nprocs 4
| 18> end
| 19>
| 20> %scf
| 21>   MaxIter 150
| 22> end
| 23>
| 24>
| 25>                          ****END OF INPUT****

CARTESIAN COORDINATES (ANGSTROEM)
---------------------------------
  C     -0.914950    0.615110    2.505540
  C     -0.059150    1.503520    3.410580
  H      0.365360    2.344310    2.861160
  H     -0.692260    1.920210    4.198980
  C      1.083030    0.749640    4.085710
  F      2.228170    1.263480    4.019830
  O      0.810030   -0.345410    4.636270
  H     -0.304010    0.202280    1.730150
  H     -1.698110    1.199460    2.069540
  H     -1.341240   -0.177720    3.083970

 Total Charge           Charge          ....    0
 Multiplicity           Mult            ....    1
 Number of Electrons    NEL             ....   40
 Basis Dimension        Dim             ....  185

ORBITAL ENERGIES
----------------

  NO   OCC          E(Eh)            E(eV)
   0   2.0000     -24.523189      -667.3099
   1   2.0000     -18.944054      -515.4939
   2   2.0000     -10.249345      -278.8988
   3   2.0000     -10.101591      -274.8783
   4   2.0000     -10.071125      -274.0492
   5   2.0000      -1.397758       -38.0349
   6   2.0000      -1.126329       -30.6490
   7   2.0000      -0.911362       -24.7994
   8   2.0000      -0.797778       -21.7086
   9   2.0000      -0.742813       -20.2130
  10   2.0000      -0.656630       -17.8678
  11   2.0000      -0.639811       -17.4101
  12   2.0000      -0.612751       -16.6738
  13   2.0000      -0.571686       -15.5564
  14   2.0000      -0.537384       -14.6230
  15   2.0000      -0.499806       -13.6004
  16   2.0000      -0.477889       -13.0040
  17   2.0000      -0.474305       -12.9065
  18   2.0000      -0.448950       -12.2165
  19   2.0000      -0.394483       -10.7344
  20   0.0000       0.053278         1.4498
  21   0.0000       0.097881         2.6635
  22   0.0000       0.137076         3.7300
  23   0.0000       0.153843         4.1863
  24   0.0000       0.163025         4.4361

MULLIKEN ATOMIC CHARGES
-----------------------
   0 C :   -0.395096
   1 C :   -0.266455
   2 H :    0.133340
   3 H :    0.149177
   4 C :    0.287890
   5 F :   -0.064318
   6 O :   -0.275063
   7 H :    0.136508
   8 H :    0.137295
   9 H :    0.156723
Sum of atomic charges:   -0.0000000

LOEWDIN ATOMIC CHARGES
----------------------
   0 C :   -0.301219
   1 C :   -0.271734
   2 H :    0.143963
   3 H :    0.160352
   4 C :   -0.524855
   5 F :    0.337487
   6 O :    0.077244
   7 H :    0.124930
   8 H :    0.123641
   9 H :    0.130191

  Mayer bond orders larger than 0.100000
B(  0-C ,  1-C ) :   0.9394 B(  0-C ,  7-H ) :   0.9744 B(  0-C ,  8-H ) :   0.9736
B(  0-C ,  9-H ) :   0.9654 B(  1-C ,  2-H ) :   0.9651 B(  1-C ,  3-H ) :   0.9413
B(  1-C ,  4-C ) :   0.9629 B(  4-C ,  5-F ) :   1.2136 B(  4-C ,  6-O ) :   2.1064

FINAL SINGLE POINT ENERGY      -291.903928499624

DIPOLE MOMENT
-------------
                                X             Y             Z
Electronic contribution:      7.73224      -0.15743       4.09585
Nuclear contribution   :     -8.12386       1.06915      -4.71960
                        -----------------------------------------
Total Dipole Moment    :     -0.39162       0.91172      -0.62375
                        -----------------------------------------
Magnitude (a.u.)       :      1.17203
Magnitude (Debye)      :      2.97907

Rotational constants in cm-1:     0.309513     0.127560     0.099675
Rotational constants in MHz :  9278.979128  3824.146597  2988.174827

                             ****ORCA TERMINATED NORMALLY****
TOTAL RUN TIME: 0 days 0 hours 0 minutes 28 seconds 549 msec
