                         Program Version 5.0.0 -  RELEASE  -
|  1> !LC-BLYP RIJCOSX def2-TZVP def2/J TightSCF
|  2> *xyz 0 1
|  3> C          4.60295       -2.44010        2.63478
|  4> C          3.86085       -1.59157        3.62289
|  5> C          2.75650       -2.04616        4.16633
|  6> N          4.25433       -0.36291        3.86046
|  7> H          3.56526        0.31099        4.16898
|  8> H          5.05429       -0.01606        3.33784
|  9> H          2.43970       -2.97389        3.89740
| 10> H          2.06687       -1.41253        4.54981
| 11> C          3.74469       -2.58056        1.36188
| 12> H          5.56156       -1.97135        2.40708
| 13> H          4.81050       -3.42255        3.06310
| 14> H          4.26314       -3.18477        0.64702
| 15> H          3.56325       -1.61180        0.94535
| 16> H          2.81197       -3.04259        1.60980
| 17> *
| 18>
| 19> %MaxCore 64000
| 20>
| 21> %pal nprocs 4
| 22> end
| 23>
| 24> %scf
| 25>   MaxIter 150
| 26> end
| 27>
| 28>
| 29>                          ****END OF INPUT****

CARTESIAN COORDINATES (ANGSTROEM)
---------------------------------
  C      4.602950   -2.440100    2.634780
  C      3.860850   -1.591570    3.622890
  C      2.756500   -2.046160    4.166330
  N      4.254330   -0.362910    3.860460
  H      3.565260    0.310990    4.168980
  H      5.054290   -0.016060    3.337840
  H      2.439700   -2.973890    3.897400
  H      2.066870   -1.412530    4.549810
  C      3.744690   -2.580560    1.361880
  H      5.561560   -1.971350    2.407080
  H      4.810500   -3.422550    3.063100
  H      4.263140   -3.184770    0.647020
  H      3.563250   -1.611800    0.945350
  H      2.811970   -3.042590    1.609800

 Total Charge           Charge          ....    0
 Multiplicity           Mult            ....    1
 Number of Electrons    NEL             ....   40
 Basis Dimension        Dim             ....  209

ORBITAL ENERGIES
----------------

  NO   OCC          E(Eh)            E(eV)
   0   2.0000     -14.168370      -385.5409
   1   2.0000     -10.087902      -274.5058
   2   2.0000     -10.070662      -274.0366
   3   2.0000     -10.052732      -273.5487
   4   2.0000      -9.995456      -271.9902
   5   2.0000      -1.035012       -28.1641
   6   2.0000      -0.891455       -24.2577
   7   2.0000      -0.819133       -22.2898
   8   2.0000      -0.748974       -20.3806
   9   2.0000      -0.667474       -18.1629
  10   2.0000      -0.628493       -17.1022
  11   2.0000      -0.588214       -16.0061
  12   2.0000      -0.554531       -15.0895
  13   2.0000      -0.515894       -14.0382
  14   2.0000      -0.490249       -13.3403
  15   2.0000      -0.478272       -13.0144
  16   2.0000      -0.451825       -12.2948
  17   2.0000      -0.441052       -12.0016
  18   2.0000      -0.429519       -11.6878
  19   2.0000      -0.284928        -7.7533
  20   0.0000       0.090036         2.4500
  21   0.0000       0.111402         3.0314
  22   0.0000       0.135005         3.6737
  23   0.0000       0.140628         3.8267
  24   0.0000       0.152980         4.1628

MULLIKEN ATOMIC CHARGES
-----------------------
   0 C :   -0.294727
   1 C :    0.219541
   2 C :   -0.434171
   3 N :   -0.403545
   4 H :    0.228361
   5 H :    0.220354
   6 H :    0.089581
   7 H :    0.093714
   8 C :   -0.360364
   9 H :    0.105563
  10 H :    0.148292
  11 H :    0.126320
  12 H :    0.125281
  13 H :    0.135801
Sum of atomic charges:    0.0000000

LOEWDIN ATOMIC CHARGES
----------------------
   0 C :   -0.244298
   1 C :   -0.376137
   2 C :   -0.283722
   3 N :    0.000419
   4 H :    0.175674
   5 H :    0.169926
   6 H :    0.109785
   7 H :    0.101692
   8 C :   -0.300865
   9 H :    0.135412
  10 H :    0.150749
  11 H :    0.116958
  12 H :    0.121174
  13 H :    0.123234

  Mayer bond orders larger than 0.100000
B(  0-C ,  1-C ) :   0.9068 B(  0-C ,  8-C ) :   0.9205 B(  0-C ,  9-H ) :   0.9932
B(  0-C , 10-H ) :   0.9921 B(  1-C ,  2-C ) :   1.7322 B(  1-C ,  3-N ) :   1.1506
B(  2-C ,  6-H ) :   1.0072 B(  2-C ,  7-H ) :   0.9953 B(  3-N ,  4-H ) :   0.9268
B(  3-N ,  5-H ) :   0.9341 B(  8-C , 11-H ) :   0.9809 B(  8-C , 12-H ) :   0.9740
B(  8-C , 13-H ) :   0.9759

FINAL SINGLE POINT ENERGY      -212.034676819159

DIPOLE MOMENT
-------------
                                X             Y             Z
Electronic contribution:      0.82466       1.79684       2.52928
Nuclear contribution   :     -0.47010      -1.22282      -3.06417
                        -----------------------------------------
Total Dipole Moment    :      0.35456       0.57402      -0.53489
                        -----------------------------------------
Magnitude (a.u.)       :      0.86100
Magnitude (Debye)      :      2.18849

Rotational constants in cm-1:     0.271862     0.131962     0.105499
Rotational constants in MHz :  8150.219120  3956.123671  3162.785522

                             ****ORCA TERMINATED NORMALLY****
TOTAL RUN TIME: 0 days 0 hours 0 minutes 30 seconds 233 msec
