                         Program Version 5.0.0 -  RELEASE  -
|  1> !LC-BLYP RIJCOSX def2-TZVP def2/J TightSCF
|  2> *xyz 0 1
|  3> C         -0.91495        0.61511        2.50554
|  4> C         -0.05915        1.50352        3.41058
|  5> H          0.36536        2.34431        2.86116
|  6> H         -0.69226        1.92021        4.19898
|  7> C          1.08303        0.74964        4.08571
|  8> O          2.22817        1.26348        4.01983
|  9> F          0.81003       -0.34541        4.63627
| 10> H         -0.30401        0.20228        1.73015
| 11> H         -1.69811        1.19946        2.06954
| 12> H         -1.34124       -0.17772        3.08397
| 13> *
| 14>
| 15> %MaxCore 64000
| 16>
| 17> %pal nprocs 4
| 18> end
| 19>
| 20> %scf
| 21>   MaxIter 150
| 22> end
| 23>
| 24>
| 25>                          ****END OF INPUT****

CARTESIAN COORDINATES (ANGSTROEM)
---------------------------------
  C     -0.914950    0.615110    2.505540
  C     -0.059150    1.503520    3.410580
  H      0.365360    2.344310    2.861160
  H     -0.692260    1.920210    4.198980
  C      1.083030    0.749640    4.085710
  O      2.228170    1.263480    4.019830
  F      0.810030   -0.345410    4.636270
  H     -0.304010    0.202280    1.730150
  H     -1.698110    1.199460    2.069540
  H     -1.341240   -0.177720    3.083970

 Total Charge           Charge          ....    0
 Multiplicity           Mult            ....    1
 Number of Electrons    NEL             ....   40
 Basis Dimension        Dim             ....  185

ORBITAL ENERGIES
----------------

  NO   OCC          E(Eh)            E(eV)
   0   2.0000     -24.524432      -667.3437
   1   2.0000     -18.942828      -515.4605
   2   2.0000     -10.248635      -278.8795
   3   2.0000     -10.100900      -274.8594
   4   2.0000     -10.076703      -274.2010
   5   2.0000      -1.399297       -38.0768
   6   2.0000      -1.124207       -30.5912
   7   2.0000      -0.915675       -24.9168
   8   2.0000      -0.793483       -21.5918
   9   2.0000      -0.749972       -20.4078
  10   2.0000      -0.659177       -17.9371
  11   2.0000      -0.647225       -17.6119
  12   2.0000      -0.603214       -16.4143
  13   2.0000      -0.572129       -15.5684
  14   2.0000      -0.537786       -14.6339
  15   2.0000      -0.505285       -13.7495
  16   2.0000      -0.485270       -13.2049
  17   2.0000      -0.477844       -13.0028
  18   2.0000      -0.450764       -12.2659
  19   2.0000      -0.388659       -10.5759
  20   0.0000       0.056542         1.5386
  21   0.0000       0.093236         2.5371
  22   0.0000       0.136103         3.7035
  23   0.0000       0.155609         4.2343
  24   0.0000       0.165111         4.4929

MULLIKEN ATOMIC CHARGES
-----------------------
   0 C :   -0.401241
   1 C :   -0.263805
   2 H :    0.155388
   3 H :    0.141390
   4 C :    0.280334
   5 O :   -0.273184
   6 F :   -0.066100
   7 H :    0.145073
   8 H :    0.142723
   9 H :    0.139422
Sum of atomic charges:    0.0000000

LOEWDIN ATOMIC CHARGES
----------------------
   0 C :   -0.309273
   1 C :   -0.267296
   2 H :    0.156451
   3 H :    0.155193
   4 C :   -0.526864
   5 O :    0.073486
   6 F :    0.342105
   7 H :    0.126156
   8 H :    0.125858
   9 H :    0.124184

  Mayer bond orders larger than 0.100000
B(  0-C ,  1-C ) :   0.9224 B(  0-C ,  7-H ) :   0.9714 B(  0-C ,  8-H ) :   0.9742
B(  0-C ,  9-H ) :   0.9679 B(  1-C ,  2-H ) :   0.9686 B(  1-C ,  3-H ) :   0.9435
B(  1-C ,  4-C ) :   0.9773 B(  4-C ,  5-O ) :   2.1313 B(  4-C ,  6-F ) :   1.1985

FINAL SINGLE POINT ENERGY      -291.902809765423

DIPOLE MOMENT
-------------
                                X             Y             Z
Electronic contribution:      5.34382      -2.82810       5.10434
Nuclear contribution   :     -6.57765       2.82334      -5.39171
                        -----------------------------------------
Total Dipole Moment    :     -1.23383      -0.00476      -0.28737
                        -----------------------------------------
Magnitude (a.u.)       :      1.26686
Magnitude (Debye)      :      3.22010

Rotational constants in cm-1:     0.294245     0.132994     0.101060
Rotational constants in MHz :  8821.228602  3987.049251  3029.696815

                             ****ORCA TERMINATED NORMALLY****
TOTAL RUN TIME: 0 days 0 hours 0 minutes 27 seconds 308 msec
