                         Program Version 5.0.0 -  RELEASE  -
|  1> !LC-BLYP RIJCOSX def2-TZVP def2/J TightSCF
|  2> *xyz 0 1
|  3> C          4.60295       -2.44010        2.63478
|  4> C          3.86085       -1.59157        3.62289
|  5> N          2.75650       -2.04616        4.16633
|  6> C          4.25433       -0.36291        3.86046
|  7> H          3.56526        0.31099        4.16898
|  8> H          5.05429       -0.01606        3.33784
|  9> H          2.43970       -2.97389        3.89740
| 10> H          2.06687       -1.41253        4.54981
| 11> C          3.74469       -2.58056        1.36188
| 12> H          5.56156       -1.97135        2.40708
| 13> H          4.81050       -3.42255        3.06310
| 14> H          4.26314       -3.18477        0.64702
| 15> H          3.56325       -1.61180        0.94535
| 16> H          2.81197       -3.04259        1.60980
| 17> *
| 18>
| 19> %MaxCore 64000
| 20>
| 21> %pal nprocs 4
| 22> end
| 23>
| 24> %scf
| 25>   MaxIter 150
| 26> end
| 27>
| 28>
| 29>                          ****END OF INPUT****

CARTESIAN COORDINATES (ANGSTROEM)
---------------------------------
  C      4.602950   -2.440100    2.634780
  C      3.860850   -1.591570    3.622890
  N      2.756500   -2.046160    4.166330
  C      4.254330   -0.362910    3.860460
  H      3.565260    0.310990    4.168980
  H      5.054290   -0.016060    3.337840
  H      2.439700   -2.973890    3.897400
  H      2.066870   -1.412530    4.549810
  C      3.744690   -2.580560    1.361880
  H      5.561560   -1.971350    2.407080
  H      4.810500   -3.422550    3.063100
  H      4.263140   -3.184770    0.647020
  H      3.563250   -1.611800    0.945350
  H      2.811970   -3.042590    1.609800

 Total Charge           Charge          ....    0
 Multiplicity           Mult            ....    1
 Number of Electrons    NEL             ....   40
 Basis Dimension        Dim             ....  209

ORBITAL ENERGIES
----------------

  NO   OCC          E(Eh)            E(eV)
   0   2.0000     -14.168606      -385.5474
   1   2.0000     -10.088999      -274.5356
   2   2.0000     -10.070153      -274.0228
   3   2.0000     -10.056589      -273.6537
   4   2.0000      -9.996888      -272.0291
   5   2.0000      -1.035030       -28.1646
   6   2.0000      -0.889394       -24.2016
   7   2.0000      -0.827653       -22.5216
   8   2.0000      -0.743972       -20.2445
   9   2.0000      -0.674749       -18.3609
  10   2.0000      -0.630328       -17.1521
  11   2.0000      -0.583660       -15.8822
  12   2.0000      -0.543657       -14.7937
  13   2.0000      -0.534385       -14.5413
  14   2.0000      -0.488843       -13.3021
  15   2.0000      -0.481812       -13.1108
  16   2.0000      -0.455378       -12.3915
  17   2.0000      -0.439931       -11.9711
  18   2.0000      -0.424619       -11.5545
  19   2.0000      -0.287600        -7.8260
  20   0.0000       0.087739         2.3875
  21   0.0000       0.114788         3.1235
  22   0.0000       0.139217         3.7883
  23   0.0000       0.139885         3.8065
  24   0.0000       0.148172         4.0320

MULLIKEN ATOMIC CHARGES
-----------------------
   0 C :   -0.293915
   1 C :    0.204453
   2 N :   -0.402931
   3 C :   -0.408809
   4 H :    0.086480
   5 H :    0.086406
   6 H :    0.223582
   7 H :    0.228953
   8 C :   -0.367676
   9 H :    0.131044
  10 H :    0.129176
  11 H :    0.133470
  12 H :    0.140418
  13 H :    0.109347
Sum of atomic charges:    0.0000000

LOEWDIN ATOMIC CHARGES
----------------------
   0 C :   -0.244635
   1 C :   -0.376637
   2 N :    0.004376
   3 C :   -0.284443
   4 H :    0.102620
   5 H :    0.109264
   6 H :    0.171043
   7 H :    0.174695
   8 C :   -0.304873
   9 H :    0.149878
  10 H :    0.139366
  11 H :    0.119862
  12 H :    0.125035
  13 H :    0.114448

  Mayer bond orders larger than 0.100000
B(  0-C ,  1-C ) :   0.9333 B(  0-C ,  8-C ) :   0.9078 B(  0-C ,  9-H ) :   0.9917
B(  0-C , 10-H ) :   0.9820 B(  1-C ,  2-N ) :   1.1466 B(  1-C ,  3-C ) :   1.7617
B(  2-N ,  6-H ) :   0.9387 B(  2-N ,  7-H ) :   0.9267 B(  3-C ,  4-H ) :   0.9961
B(  3-C ,  5-H ) :   1.0039 B(  8-C , 11-H ) :   0.9810 B(  8-C , 12-H ) :   0.9735
B(  8-C , 13-H ) :   0.9760

FINAL SINGLE POINT ENERGY      -212.035335597332

DIPOLE MOMENT
-------------
                                X             Y             Z
Electronic contribution:     -0.50705       0.29487       2.82020
Nuclear contribution   :     -0.12319      -0.83296      -3.13501
                        -----------------------------------------
Total Dipole Moment    :     -0.63024      -0.53809      -0.31481
                        -----------------------------------------
Magnitude (a.u.)       :      0.88648
Magnitude (Debye)      :      2.25326

Rotational constants in cm-1:     0.266453     0.134423     0.106086
Rotational constants in MHz :  7988.053142  4029.892766  3180.375228

                             ****ORCA TERMINATED NORMALLY****
TOTAL RUN TIME: 0 days 0 hours 0 minutes 36 seconds 36 msec
