                         Program Version 5.0.0 -  RELEASE  -
|  1> !LC-BLYP RIJCOSX def2-TZVP def2/J TightSCF xyzfile
|  2>
|  3> *xyzfile 0 1 D1.xyz
|  4>
|  5> %MaxCore 64000
|  6>
|  7> %pal nprocs 18
|  8> end
|  9>
| 10> %scf
| 11>   MaxIter 150
| 12> end
| 13>
| 14>
| 15>                          ****END OF INPUT****

CARTESIAN COORDINATES (ANGSTROEM)
---------------------------------
  C      4.602954   -2.440100    2.634780
  C     -0.914947    0.615112    2.505538
  C     -0.059146    1.503524    3.410578
  H      0.365364    2.344315    2.861161
  H     -0.692261    1.920207    4.198985
  C      1.083027    0.749640    4.085705
  C      3.860851   -1.591565    3.622893
  C      2.756502   -2.046159    4.166333
  N      4.254325   -0.362905    3.860455
  H      3.565256    0.310994    4.168983
  H      5.054292   -0.016059    3.337838
  H      2.439696   -2.973894    3.897395
  H      2.066869   -1.412532    4.549813
  F      2.228167    1.263475    4.019826
  O      0.810034   -0.345411    4.636269
  C      3.744685   -2.580557    1.361882
  C      0.772139    0.636882    0.562129
  C     -0.130740   -0.193985    1.470763
  H     -0.840563   -0.760165    0.856377
  H      0.466691   -0.938942    2.006959
  H     -1.647961    1.245963    1.991076
  H     -1.478180   -0.081046    3.130424
  C      3.203721   -1.256004    0.826211
  H      2.898939   -3.239289    1.583074
  H      4.334962   -3.095523    0.600188
  C      2.107815   -1.442385   -0.216865
  H      2.786775   -0.672760    1.650711
  H      4.021008   -0.652993    0.414046
  C      1.390662   -0.145912   -0.602422
  H      1.372179   -2.152184    0.176151
  H      2.523302   -1.906787   -1.117115
  H      1.561361    1.100094    1.161831
  H      0.195516    1.468325    0.142758
  H      0.602893   -0.398214   -1.319716
  H      2.087247    0.508272   -1.137335
  H      5.561557   -1.971347    2.407084
  H      4.810498   -3.422552    3.063099

 Total Charge           Charge          ....    0
 Multiplicity           Mult            ....    1
 Number of Electrons    NEL             ....  118
 Basis Dimension        Dim             ....  597

ORBITAL ENERGIES
----------------

  NO   OCC          E(Eh)            E(eV)
   0   2.0000     -24.549952      -668.0382
   1   2.0000     -18.957756      -515.8668
   2   2.0000     -14.144802      -384.8996
   3   2.0000     -10.265132      -279.3284
   4   2.0000     -10.106582      -275.0141
   5   2.0000     -10.084174      -274.4043
   6   2.0000     -10.068715      -273.9837
   7   2.0000     -10.068498      -273.9778
   8   2.0000     -10.066298      -273.9179
   9   2.0000     -10.063773      -273.8492
  10   2.0000     -10.057331      -273.6739
  11   2.0000     -10.055492      -273.6239
  12   2.0000     -10.055340      -273.6197
  13   2.0000     -10.053309      -273.5644
  14   2.0000      -9.963364      -271.1169
  15   2.0000      -1.427384       -38.8411
  16   2.0000      -1.146475       -31.1972
  17   2.0000      -1.017524       -27.6882
  18   2.0000      -0.942766       -25.6540
  19   2.0000      -0.916902       -24.9502
  20   2.0000      -0.891373       -24.2555
  21   2.0000      -0.853477       -23.2243
  22   2.0000      -0.828528       -22.5454
  23   2.0000      -0.797677       -21.7059
  24   2.0000      -0.784957       -21.3598
  25   2.0000      -0.756883       -20.5958
  26   2.0000      -0.721727       -19.6392
  27   2.0000      -0.700150       -19.0521
  28   2.0000      -0.684074       -18.6146
  29   2.0000      -0.673831       -18.3359
  30   2.0000      -0.660635       -17.9768
  31   2.0000      -0.644358       -17.5339
  32   2.0000      -0.631647       -17.1880
  33   2.0000      -0.603705       -16.4276
  34   2.0000      -0.591349       -16.0914
  35   2.0000      -0.586612       -15.9625
  36   2.0000      -0.576603       -15.6902
  37   2.0000      -0.557532       -15.1712
  38   2.0000      -0.548757       -14.9324
  39   2.0000      -0.532644       -14.4940
  40   2.0000      -0.529020       -14.3954
  41   2.0000      -0.511401       -13.9159
  42   2.0000      -0.505971       -13.7682
  43   2.0000      -0.493487       -13.4285
  44   2.0000      -0.488284       -13.2869
  45   2.0000      -0.472872       -12.8675
  46   2.0000      -0.469489       -12.7754
  47   2.0000      -0.461002       -12.5445
  48   2.0000      -0.452480       -12.3126
  49   2.0000      -0.442790       -12.0489
  50   2.0000      -0.441394       -12.0110
  51   2.0000      -0.432845       -11.7783
  52   2.0000      -0.422205       -11.4888
  53   2.0000      -0.417220       -11.3531
  54   2.0000      -0.408372       -11.1124
  55   2.0000      -0.405521       -11.0348
  56   2.0000      -0.400129       -10.8881
  57   2.0000      -0.372297       -10.1307
  58   2.0000      -0.264230        -7.1901
  59   0.0000       0.036383         0.9900
  60   0.0000       0.086507         2.3540
  61   0.0000       0.102944         2.8012
  62   0.0000       0.106147         2.8884
  63   0.0000       0.112499         3.0613

MULLIKEN ATOMIC CHARGES
-----------------------
   0 C :   -0.279855
   1 C :   -0.234053
   2 C :   -0.312056
   3 H :    0.162067
   4 H :    0.171541
   5 C :    0.328466
   6 C :    0.069983
   7 C :   -0.405627
   8 N :   -0.360151
   9 H :    0.211662
  10 H :    0.213318
  11 H :    0.080299
  12 H :    0.132918
  13 F :   -0.096545
  14 O :   -0.253648
  15 C :   -0.256746
  16 C :   -0.309862
  17 C :   -0.326965
  18 H :    0.140356
  19 H :    0.184574
  20 H :    0.139849
  21 H :    0.156078
  22 C :   -0.211667
  23 H :    0.136150
  24 H :    0.118926
  25 C :   -0.290784
  26 H :    0.123497
  27 H :    0.113897
  28 C :   -0.225284
  29 H :    0.145362
  30 H :    0.129504
  31 H :    0.138928
  32 H :    0.134750
  33 H :    0.133177
  34 H :    0.128467
  35 H :    0.118702
  36 H :    0.150773
Sum of atomic charges:    0.0000000

LOEWDIN ATOMIC CHARGES
----------------------
   0 C :   -0.223993
   1 C :   -0.265951
   2 C :   -0.242942
   3 H :    0.148158
   4 H :    0.165077
   5 C :   -0.504455
   6 C :   -0.396330
   7 C :   -0.282919
   8 N :   -0.007068
   9 H :    0.151172
  10 H :    0.164615
  11 H :    0.106208
  12 H :    0.093688
  13 F :    0.348376
  14 O :    0.119775
  15 C :   -0.261608
  16 C :   -0.283054
  17 C :   -0.278379
  18 H :    0.145915
  19 H :    0.149750
  20 H :    0.145585
  21 H :    0.151033
  22 C :   -0.274409
  23 H :    0.142882
  24 H :    0.135832
  25 C :   -0.279358
  26 H :    0.144257
  27 H :    0.136394
  28 C :   -0.276257
  29 H :    0.141777
  30 H :    0.139991
  31 H :    0.134448
  32 H :    0.141297
  33 H :    0.141433
  34 H :    0.140272
  35 H :    0.136260
  36 H :    0.152530

  Mayer bond orders larger than 0.100000
B(  0-C ,  6-C ) :   0.8889 B(  0-C , 15-C ) :   0.9251 B(  0-C , 35-H ) :   1.0003
B(  0-C , 36-H ) :   0.9941 B(  1-C ,  2-C ) :   0.9102 B(  1-C , 17-C ) :   0.9395
B(  1-C , 20-H ) :   0.9783 B(  1-C , 21-H ) :   0.9789 B(  2-C ,  3-H ) :   0.9682
B(  2-C ,  4-H ) :   0.9536 B(  2-C ,  5-C ) :   0.9464 B(  5-C , 13-F ) :   1.1170
B(  5-C , 14-O ) :   2.0491 B(  6-C ,  7-C ) :   1.7403 B(  6-C ,  8-N ) :   1.1509
B(  7-C , 11-H ) :   1.0059 B(  7-C , 12-H ) :   0.9874 B(  8-N ,  9-H ) :   0.9121
B(  8-N , 10-H ) :   0.9377 B( 15-C , 22-C ) :   0.9126 B( 15-C , 23-H ) :   0.9837
B( 15-C , 24-H ) :   0.9824 B( 16-C , 17-C ) :   0.8456 B( 16-C , 28-C ) :   0.9393
B( 16-C , 31-H ) :   0.9834 B( 16-C , 32-H ) :   0.9817 B( 17-C , 18-H ) :   0.9821
B( 17-C , 19-H ) :   0.9725 B( 22-C , 25-C ) :   0.9024 B( 22-C , 26-H ) :   0.9778
B( 22-C , 27-H ) :   0.9720 B( 25-C , 28-C ) :   0.9275 B( 25-C , 29-H ) :   0.9873
B( 25-C , 30-H ) :   0.9862 B( 28-C , 33-H ) :   0.9895 B( 28-C , 34-H ) :   0.9936

FINAL SINGLE POINT ENERGY      -698.780070216405

DIPOLE MOMENT
-------------
                                X             Y             Z
Electronic contribution:      1.18975       7.39546      14.94909
Nuclear contribution   :     -1.66567      -5.90236     -15.95042
                        -----------------------------------------
Total Dipole Moment    :     -0.47591       1.49309      -1.00134
                        -----------------------------------------
Magnitude (a.u.)       :      1.85970
Magnitude (Debye)      :      4.72699

Rotational constants in cm-1:     0.021600     0.017292     0.011381
Rotational constants in MHz :   647.565282   518.410024   341.193038

                             ****ORCA TERMINATED NORMALLY****
TOTAL RUN TIME: 0 days 0 hours 1 minutes 32 seconds 511 msec
