                         Program Version 5.0.0 -  RELEASE  -
|  1> !LC-BLYP RIJCOSX def2-TZVP def2/J TightSCF xyzfile
|  2>
|  3> *xyzfile 0 1 D2.xyz
|  4>
|  5> %MaxCore 64000
|  6>
|  7> %pal nprocs 18
|  8> end
|  9>
| 10> %scf
| 11>   MaxIter 150
| 12> end
| 13>
| 14>
| 15>                          ****END OF INPUT****

CARTESIAN COORDINATES (ANGSTROEM)
---------------------------------
  C      4.602954   -2.440100    2.634780
  C     -0.914947    0.615112    2.505538
  C     -0.059146    1.503524    3.410578
  H      0.365364    2.344315    2.861161
  H     -0.692261    1.920207    4.198985
  C      1.083027    0.749640    4.085705
  C      3.860851   -1.591565    3.622893
  N      2.756502   -2.046159    4.166333
  C      4.254325   -0.362905    3.860455
  H      3.565256    0.310994    4.168983
  H      5.054292   -0.016059    3.337838
  H      2.439696   -2.973894    3.897395
  H      2.066869   -1.412532    4.549813
  F      2.228167    1.263475    4.019826
  O      0.810034   -0.345411    4.636269
  C      3.744685   -2.580557    1.361882
  C      0.772139    0.636882    0.562129
  C     -0.130740   -0.193985    1.470763
  H     -0.840563   -0.760165    0.856377
  H      0.466691   -0.938942    2.006959
  H     -1.647961    1.245963    1.991076
  H     -1.478180   -0.081046    3.130424
  C      3.203721   -1.256004    0.826211
  H      2.898939   -3.239289    1.583074
  H      4.334962   -3.095523    0.600188
  C      2.107815   -1.442385   -0.216865
  H      2.786775   -0.672760    1.650711
  H      4.021008   -0.652993    0.414046
  C      1.390662   -0.145912   -0.602422
  H      1.372179   -2.152184    0.176151
  H      2.523302   -1.906787   -1.117115
  H      1.561361    1.100094    1.161831
  H      0.195516    1.468325    0.142758
  H      0.602893   -0.398214   -1.319716
  H      2.087247    0.508272   -1.137335
  H      5.561557   -1.971347    2.407084
  H      4.810498   -3.422552    3.063099

 Total Charge           Charge          ....    0
 Multiplicity           Mult            ....    1
 Number of Electrons    NEL             ....  118
 Basis Dimension        Dim             ....  597

ORBITAL ENERGIES
----------------

  NO   OCC          E(Eh)            E(eV)
   0   2.0000     -24.540328      -667.7763
   1   2.0000     -18.969118      -516.1760
   2   2.0000     -14.133592      -384.5946
   3   2.0000     -10.272593      -279.5315
   4   2.0000     -10.109496      -275.0934
   5   2.0000     -10.087757      -274.5018
   6   2.0000     -10.072352      -274.0826
   7   2.0000     -10.069605      -274.0079
   8   2.0000     -10.069200      -273.9969
   9   2.0000     -10.064280      -273.8630
  10   2.0000     -10.059074      -273.7213
  11   2.0000     -10.057879      -273.6888
  12   2.0000     -10.054752      -273.6037
  13   2.0000     -10.051704      -273.5208
  14   2.0000      -9.972174      -271.3566
  15   2.0000      -1.419539       -38.6276
  16   2.0000      -1.156871       -31.4801
  17   2.0000      -1.010535       -27.4981
  18   2.0000      -0.945555       -25.7299
  19   2.0000      -0.917612       -24.9695
  20   2.0000      -0.890633       -24.2354
  21   2.0000      -0.855093       -23.2683
  22   2.0000      -0.824141       -22.4260
  23   2.0000      -0.810572       -22.0568
  24   2.0000      -0.777077       -21.1453
  25   2.0000      -0.758354       -20.6359
  26   2.0000      -0.721158       -19.6237
  27   2.0000      -0.695317       -18.9205
  28   2.0000      -0.678996       -18.4764
  29   2.0000      -0.671041       -18.2600
  30   2.0000      -0.662311       -18.0224
  31   2.0000      -0.654309       -17.8047
  32   2.0000      -0.631919       -17.1954
  33   2.0000      -0.605141       -16.4667
  34   2.0000      -0.595371       -16.2009
  35   2.0000      -0.586387       -15.9564
  36   2.0000      -0.568654       -15.4739
  37   2.0000      -0.559677       -15.2296
  38   2.0000      -0.547970       -14.9110
  39   2.0000      -0.538971       -14.6662
  40   2.0000      -0.530547       -14.4369
  41   2.0000      -0.513619       -13.9763
  42   2.0000      -0.508511       -13.8373
  43   2.0000      -0.498305       -13.5596
  44   2.0000      -0.482505       -13.1296
  45   2.0000      -0.475229       -12.9316
  46   2.0000      -0.470773       -12.8104
  47   2.0000      -0.466655       -12.6983
  48   2.0000      -0.452176       -12.3043
  49   2.0000      -0.447287       -12.1713
  50   2.0000      -0.441804       -12.0221
  51   2.0000      -0.428684       -11.6651
  52   2.0000      -0.422144       -11.4871
  53   2.0000      -0.417528       -11.3615
  54   2.0000      -0.411553       -11.1989
  55   2.0000      -0.408687       -11.1210
  56   2.0000      -0.400640       -10.9020
  57   2.0000      -0.390201       -10.6179
  58   2.0000      -0.265679        -7.2295
  59   0.0000       0.031040         0.8446
  60   0.0000       0.086563         2.3555
  61   0.0000       0.098486         2.6799
  62   0.0000       0.107890         2.9358
  63   0.0000       0.111632         3.0377

MULLIKEN ATOMIC CHARGES
-----------------------
   0 C :   -0.282444
   1 C :   -0.234595
   2 C :   -0.311572
   3 H :    0.168633
   4 H :    0.172697
   5 C :    0.346665
   6 C :    0.061328
   7 N :   -0.358795
   8 C :   -0.366414
   9 H :    0.063861
  10 H :    0.083241
  11 H :    0.208187
  12 H :    0.239919
  13 F :   -0.055985
  14 O :   -0.305319
  15 C :   -0.283473
  16 C :   -0.312393
  17 C :   -0.319337
  18 H :    0.141456
  19 H :    0.159033
  20 H :    0.142040
  21 H :    0.154827
  22 C :   -0.209206
  23 H :    0.127500
  24 H :    0.127597
  25 C :   -0.279502
  26 H :    0.135519
  27 H :    0.119753
  28 C :   -0.227593
  29 H :    0.139411
  30 H :    0.129662
  31 H :    0.149925
  32 H :    0.135122
  33 H :    0.132326
  34 H :    0.131145
  35 H :    0.136065
  36 H :    0.140714
Sum of atomic charges:   -0.0000000

LOEWDIN ATOMIC CHARGES
----------------------
   0 C :   -0.223087
   1 C :   -0.266549
   2 C :   -0.239917
   3 H :    0.150893
   4 H :    0.165924
   5 C :   -0.493583
   6 C :   -0.389994
   7 N :    0.007912
   8 C :   -0.304357
   9 H :    0.090856
  10 H :    0.104598
  11 H :    0.165663
  12 H :    0.146499
  13 F :    0.366073
  14 O :    0.095281
  15 C :   -0.268021
  16 C :   -0.282411
  17 C :   -0.279454
  18 H :    0.145963
  19 H :    0.144121
  20 H :    0.146432
  21 H :    0.150048
  22 C :   -0.270216
  23 H :    0.135517
  24 H :    0.139004
  25 C :   -0.281189
  26 H :    0.146298
  27 H :    0.140812
  28 C :   -0.275806
  29 H :    0.139322
  30 H :    0.139785
  31 H :    0.137329
  32 H :    0.141620
  33 H :    0.141089
  34 H :    0.141358
  35 H :    0.150425
  36 H :    0.141765

  Mayer bond orders larger than 0.100000
B(  0-C ,  6-C ) :   0.9089 B(  0-C , 15-C ) :   0.9053 B(  0-C , 35-H ) :   0.9930
B(  0-C , 36-H ) :   0.9989 B(  1-C ,  2-C ) :   0.9062 B(  1-C , 17-C ) :   0.9376
B(  1-C , 20-H ) :   0.9776 B(  1-C , 21-H ) :   0.9808 B(  2-C ,  3-H ) :   0.9691
B(  2-C ,  4-H ) :   0.9517 B(  2-C ,  5-C ) :   0.9471 B(  5-C , 13-F ) :   1.1850
B(  5-C , 14-O ) :   1.9762 B(  6-C ,  7-N ) :   1.1833 B(  6-C ,  8-C ) :   1.7523
B(  7-N , 11-H ) :   0.9410 B(  7-N , 12-H ) :   0.8626 B(  8-C ,  9-H ) :   0.9975
B(  8-C , 10-H ) :   1.0029 B( 12-H , 14-O ) :   0.1146 B( 15-C , 22-C ) :   0.8903
B( 15-C , 23-H ) :   0.9970 B( 15-C , 24-H ) :   0.9796 B( 16-C , 17-C ) :   0.8469
B( 16-C , 28-C ) :   0.9399 B( 16-C , 31-H ) :   0.9812 B( 16-C , 32-H ) :   0.9815
B( 17-C , 18-H ) :   0.9816 B( 17-C , 19-H ) :   0.9771 B( 22-C , 25-C ) :   0.8878
B( 22-C , 26-H ) :   0.9945 B( 22-C , 27-H ) :   0.9720 B( 25-C , 28-C ) :   0.9292
B( 25-C , 29-H ) :   0.9882 B( 25-C , 30-H ) :   0.9870 B( 28-C , 33-H ) :   0.9893
B( 28-C , 34-H ) :   0.9930

FINAL SINGLE POINT ENERGY      -698.790470649494

DIPOLE MOMENT
-------------
                                X             Y             Z
Electronic contribution:      0.06008       6.23919      15.12263
Nuclear contribution   :     -1.39991      -5.60370     -16.00470
                        -----------------------------------------
Total Dipole Moment    :     -1.33982       0.63548      -0.88206
                        -----------------------------------------
Magnitude (a.u.)       :      1.72540
Magnitude (Debye)      :      4.38561

Rotational constants in cm-1:     0.021622     0.017313     0.011402
Rotational constants in MHz :   648.226014   519.043632   341.814105

                             ****ORCA TERMINATED NORMALLY****
TOTAL RUN TIME: 0 days 0 hours 1 minutes 41 seconds 551 msec
