                         Program Version 5.0.0 -  RELEASE  -
|  1> !LC-BLYP RIJCOSX def2-TZVP def2/J TightSCF xyzfile
|  2>
|  3> *xyzfile 0 1 D3.xyz
|  4>
|  5> %MaxCore 64000
|  6>
|  7> %pal nprocs 18
|  8> end
|  9>
| 10> %scf
| 11>   MaxIter 150
| 12> end
| 13>
| 14>
| 15>                          ****END OF INPUT****

CARTESIAN COORDINATES (ANGSTROEM)
---------------------------------
  C      4.602954   -2.440100    2.634780
  C     -0.914947    0.615112    2.505538
  C     -0.059146    1.503524    3.410578
  H      0.365364    2.344315    2.861161
  H     -0.692261    1.920207    4.198985
  C      1.083027    0.749640    4.085705
  C      3.860851   -1.591565    3.622893
  C      2.756502   -2.046159    4.166333
  N      4.254325   -0.362905    3.860455
  H      3.565256    0.310994    4.168983
  H      5.054292   -0.016059    3.337838
  H      2.439696   -2.973894    3.897395
  H      2.066869   -1.412532    4.549813
  O      2.228167    1.263475    4.019826
  F      0.810034   -0.345411    4.636269
  C      3.744685   -2.580557    1.361882
  C      0.772139    0.636882    0.562129
  C     -0.130740   -0.193985    1.470763
  H     -0.840563   -0.760165    0.856377
  H      0.466691   -0.938942    2.006959
  H     -1.647961    1.245963    1.991076
  H     -1.478180   -0.081046    3.130424
  C      3.203721   -1.256004    0.826211
  H      2.898939   -3.239289    1.583074
  H      4.334962   -3.095523    0.600188
  C      2.107815   -1.442385   -0.216865
  H      2.786775   -0.672760    1.650711
  H      4.021008   -0.652993    0.414046
  C      1.390662   -0.145912   -0.602422
  H      1.372179   -2.152184    0.176151
  H      2.523302   -1.906787   -1.117115
  H      1.561361    1.100094    1.161831
  H      0.195516    1.468325    0.142758
  H      0.602893   -0.398214   -1.319716
  H      2.087247    0.508272   -1.137335
  H      5.561557   -1.971347    2.407084
  H      4.810498   -3.422552    3.063099

 Total Charge           Charge          ....    0
 Multiplicity           Mult            ....    1
 Number of Electrons    NEL             ....  118
 Basis Dimension        Dim             ....  597

ORBITAL ENERGIES
----------------

  NO   OCC          E(Eh)            E(eV)
   0   2.0000     -24.539735      -667.7601
   1   2.0000     -18.967647      -516.1359
   2   2.0000     -14.130939      -384.5224
   3   2.0000     -10.271157      -279.4924
   4   2.0000     -10.107708      -275.0447
   5   2.0000     -10.089270      -274.5430
   6   2.0000     -10.073204      -274.1058
   7   2.0000     -10.068980      -273.9909
   8   2.0000     -10.066813      -273.9319
   9   2.0000     -10.062652      -273.8187
  10   2.0000     -10.056549      -273.6526
  11   2.0000     -10.055215      -273.6163
  12   2.0000     -10.054855      -273.6065
  13   2.0000     -10.050858      -273.4978
  14   2.0000      -9.971448      -271.3369
  15   2.0000      -1.419352       -38.6225
  16   2.0000      -1.153960       -31.4008
  17   2.0000      -1.008870       -27.4527
  18   2.0000      -0.946602       -25.7584
  19   2.0000      -0.917131       -24.9564
  20   2.0000      -0.890043       -24.2193
  21   2.0000      -0.854063       -23.2402
  22   2.0000      -0.821184       -22.3456
  23   2.0000      -0.802772       -21.8445
  24   2.0000      -0.776804       -21.1379
  25   2.0000      -0.758565       -20.6416
  26   2.0000      -0.723647       -19.6914
  27   2.0000      -0.699203       -19.0263
  28   2.0000      -0.679216       -18.4824
  29   2.0000      -0.674247       -18.3472
  30   2.0000      -0.661538       -18.0014
  31   2.0000      -0.649003       -17.6603
  32   2.0000      -0.625508       -17.0209
  33   2.0000      -0.599459       -16.3121
  34   2.0000      -0.593260       -16.1434
  35   2.0000      -0.586327       -15.9548
  36   2.0000      -0.572561       -15.5802
  37   2.0000      -0.554209       -15.0808
  38   2.0000      -0.549067       -14.9409
  39   2.0000      -0.534889       -14.5551
  40   2.0000      -0.529082       -14.3971
  41   2.0000      -0.512408       -13.9433
  42   2.0000      -0.510920       -13.9028
  43   2.0000      -0.494006       -13.4426
  44   2.0000      -0.487853       -13.2752
  45   2.0000      -0.477325       -12.9887
  46   2.0000      -0.471828       -12.8391
  47   2.0000      -0.464770       -12.6470
  48   2.0000      -0.451715       -12.2918
  49   2.0000      -0.442259       -12.0345
  50   2.0000      -0.438195       -11.9239
  51   2.0000      -0.433224       -11.7886
  52   2.0000      -0.421816       -11.4782
  53   2.0000      -0.415843       -11.3157
  54   2.0000      -0.408165       -11.1067
  55   2.0000      -0.405656       -11.0385
  56   2.0000      -0.398549       -10.8451
  57   2.0000      -0.389846       -10.6083
  58   2.0000      -0.264066        -7.1856
  59   0.0000       0.035611         0.9690
  60   0.0000       0.085318         2.3216
  61   0.0000       0.104817         2.8522
  62   0.0000       0.108075         2.9409
  63   0.0000       0.111438         3.0324

MULLIKEN ATOMIC CHARGES
-----------------------
   0 C :   -0.281425
   1 C :   -0.266041
   2 C :   -0.304111
   3 H :    0.179366
   4 H :    0.168037
   5 C :    0.349315
   6 C :    0.078887
   7 C :   -0.407136
   8 N :   -0.346295
   9 H :    0.234026
  10 H :    0.206417
  11 H :    0.085489
  12 H :    0.076760
  13 O :   -0.315431
  14 F :   -0.055062
  15 C :   -0.252317
  16 C :   -0.321974
  17 C :   -0.309364
  18 H :    0.142274
  19 H :    0.169230
  20 H :    0.144444
  21 H :    0.154184
  22 C :   -0.235027
  23 H :    0.132938
  24 H :    0.119570
  25 C :   -0.287981
  26 H :    0.149436
  27 H :    0.115003
  28 C :   -0.225997
  29 H :    0.141239
  30 H :    0.129327
  31 H :    0.166819
  32 H :    0.133479
  33 H :    0.131415
  34 H :    0.129853
  35 H :    0.121708
  36 H :    0.148945
Sum of atomic charges:   -0.0000000

LOEWDIN ATOMIC CHARGES
----------------------
   0 C :   -0.222120
   1 C :   -0.274583
   2 C :   -0.236625
   3 H :    0.160533
   4 H :    0.161529
   5 C :   -0.494168
   6 C :   -0.387804
   7 C :   -0.308867
   8 N :    0.006355
   9 H :    0.145825
  10 H :    0.163449
  11 H :    0.106063
  12 H :    0.091074
  13 O :    0.091553
  14 F :    0.369010
  15 C :   -0.262261
  16 C :   -0.281823
  17 C :   -0.279253
  18 H :    0.146183
  19 H :    0.145882
  20 H :    0.147242
  21 H :    0.146238
  22 C :   -0.273806
  23 H :    0.141596
  24 H :    0.135980
  25 C :   -0.280087
  26 H :    0.147354
  27 H :    0.137425
  28 C :   -0.276323
  29 H :    0.140357
  30 H :    0.139803
  31 H :    0.141766
  32 H :    0.141238
  33 H :    0.140574
  34 H :    0.141068
  35 H :    0.137819
  36 H :    0.151803

  Mayer bond orders larger than 0.100000
B(  0-C ,  6-C ) :   0.8934 B(  0-C , 15-C ) :   0.9232 B(  0-C , 35-H ) :   1.0003
B(  0-C , 36-H ) :   0.9943 B(  1-C ,  2-C ) :   0.8912 B(  1-C , 17-C ) :   0.9220
B(  1-C , 20-H ) :   0.9758 B(  1-C , 21-H ) :   0.9894 B(  2-C ,  3-H ) :   0.9732
B(  2-C ,  4-H ) :   0.9556 B(  2-C ,  5-C ) :   0.9534 B(  5-C , 13-O ) :   1.9702
B(  5-C , 14-F ) :   1.1817 B(  6-C ,  7-C ) :   1.7110 B(  6-C ,  8-N ) :   1.2014
B(  7-C , 11-H ) :   1.0032 B(  7-C , 12-H ) :   1.0085 B(  8-N ,  9-H ) :   0.8718
B(  8-N , 10-H ) :   0.9384 B(  9-H , 13-O ) :   0.1150 B( 15-C , 22-C ) :   0.9027
B( 15-C , 23-H ) :   0.9851 B( 15-C , 24-H ) :   0.9817 B( 16-C , 17-C ) :   0.8433
B( 16-C , 28-C ) :   0.9368 B( 16-C , 31-H ) :   0.9784 B( 16-C , 32-H ) :   0.9812
B( 17-C , 18-H ) :   0.9814 B( 17-C , 19-H ) :   0.9781 B( 22-C , 25-C ) :   0.8951
B( 22-C , 26-H ) :   0.9803 B( 22-C , 27-H ) :   0.9727 B( 25-C , 28-C ) :   0.9285
B( 25-C , 29-H ) :   0.9886 B( 25-C , 30-H ) :   0.9859 B( 28-C , 33-H ) :   0.9906
B( 28-C , 34-H ) :   0.9930

FINAL SINGLE POINT ENERGY      -698.791398594801

DIPOLE MOMENT
-------------
                                X             Y             Z
Electronic contribution:     -1.22038       4.76778      15.94905
Nuclear contribution   :      0.05905      -3.94566     -16.70013
                        -----------------------------------------
Total Dipole Moment    :     -1.16133       0.82212      -0.75109
                        -----------------------------------------
Magnitude (a.u.)       :      1.60894
Magnitude (Debye)      :      4.08960

Rotational constants in cm-1:     0.021602     0.017295     0.011353
Rotational constants in MHz :   647.614981   518.478934   340.359556

                             ****ORCA TERMINATED NORMALLY****
TOTAL RUN TIME: 0 days 0 hours 1 minutes 28 seconds 644 msec
