                         Program Version 5.0.0 -  RELEASE  -
|  1> !LC-BLYP RIJCOSX def2-TZVP def2/J TightSCF xyzfile
|  2>
|  3> *xyzfile 0 1 D4.xyz
|  4>
|  5> %MaxCore 64000
|  6>
|  7> %pal nprocs 18
|  8> end
|  9>
| 10> %scf
| 11>   MaxIter 150
| 12> end
| 13>
| 14>
| 15>                          ****END OF INPUT****

CARTESIAN COORDINATES (ANGSTROEM)
---------------------------------
  C      4.602954   -2.440100    2.634780
  C     -0.914947    0.615112    2.505538
  C     -0.059146    1.503524    3.410578
  H      0.365364    2.344315    2.861161
  H     -0.692261    1.920207    4.198985
  C      1.083027    0.749640    4.085705
  C      3.860851   -1.591565    3.622893
  N      2.756502   -2.046159    4.166333
  C      4.254325   -0.362905    3.860455
  H      3.565256    0.310994    4.168983
  H      5.054292   -0.016059    3.337838
  H      2.439696   -2.973894    3.897395
  H      2.066869   -1.412532    4.549813
  O      2.228167    1.263475    4.019826
  F      0.810034   -0.345411    4.636269
  C      3.744685   -2.580557    1.361882
  C      0.772139    0.636882    0.562129
  C     -0.130740   -0.193985    1.470763
  H     -0.840563   -0.760165    0.856377
  H      0.466691   -0.938942    2.006959
  H     -1.647961    1.245963    1.991076
  H     -1.478180   -0.081046    3.130424
  C      3.203721   -1.256004    0.826211
  H      2.898939   -3.239289    1.583074
  H      4.334962   -3.095523    0.600188
  C      2.107815   -1.442385   -0.216865
  H      2.786775   -0.672760    1.650711
  H      4.021008   -0.652993    0.414046
  C      1.390662   -0.145912   -0.602422
  H      1.372179   -2.152184    0.176151
  H      2.523302   -1.906787   -1.117115
  H      1.561361    1.100094    1.161831
  H      0.195516    1.468325    0.142758
  H      0.602893   -0.398214   -1.319716
  H      2.087247    0.508272   -1.137335
  H      5.561557   -1.971347    2.407084
  H      4.810498   -3.422552    3.063099

 Total Charge           Charge          ....    0
 Multiplicity           Mult            ....    1
 Number of Electrons    NEL             ....  118
 Basis Dimension        Dim             ....  597

ORBITAL ENERGIES
----------------

  NO   OCC          E(Eh)            E(eV)
   0   2.0000     -24.552035      -668.0948
   1   2.0000     -18.958927      -515.8986
   2   2.0000     -14.146298      -384.9403
   3   2.0000     -10.266733      -279.3720
   4   2.0000     -10.107232      -275.0318
   5   2.0000     -10.090453      -274.5752
   6   2.0000     -10.076034      -274.1828
   7   2.0000     -10.066889      -273.9340
   8   2.0000     -10.064299      -273.8635
   9   2.0000     -10.062575      -273.8166
  10   2.0000     -10.057539      -273.6796
  11   2.0000     -10.056676      -273.6561
  12   2.0000     -10.053000      -273.5560
  13   2.0000     -10.049010      -273.4475
  14   2.0000      -9.961749      -271.0730
  15   2.0000      -1.430157       -38.9165
  16   2.0000      -1.146588       -31.2002
  17   2.0000      -1.017042       -27.6751
  18   2.0000      -0.947456       -25.7816
  19   2.0000      -0.917036       -24.9538
  20   2.0000      -0.890585       -24.2340
  21   2.0000      -0.852818       -23.2064
  22   2.0000      -0.826272       -22.4840
  23   2.0000      -0.800738       -21.7892
  24   2.0000      -0.787778       -21.4365
  25   2.0000      -0.756794       -20.5934
  26   2.0000      -0.724131       -19.7046
  27   2.0000      -0.696649       -18.9568
  28   2.0000      -0.689627       -18.7657
  29   2.0000      -0.680325       -18.5126
  30   2.0000      -0.661921       -18.0118
  31   2.0000      -0.648042       -17.6341
  32   2.0000      -0.625519       -17.0212
  33   2.0000      -0.606383       -16.5005
  34   2.0000      -0.595521       -16.2050
  35   2.0000      -0.590745       -16.0750
  36   2.0000      -0.566621       -15.4185
  37   2.0000      -0.552487       -15.0339
  38   2.0000      -0.545761       -14.8509
  39   2.0000      -0.540682       -14.7127
  40   2.0000      -0.525734       -14.3060
  41   2.0000      -0.517278       -14.0758
  42   2.0000      -0.511221       -13.9110
  43   2.0000      -0.492879       -13.4119
  44   2.0000      -0.484264       -13.1775
  45   2.0000      -0.476713       -12.9720
  46   2.0000      -0.473327       -12.8799
  47   2.0000      -0.460988       -12.5441
  48   2.0000      -0.455863       -12.4047
  49   2.0000      -0.447188       -12.1686
  50   2.0000      -0.443813       -12.0768
  51   2.0000      -0.428520       -11.6606
  52   2.0000      -0.422088       -11.4856
  53   2.0000      -0.419115       -11.4047
  54   2.0000      -0.408344       -11.1116
  55   2.0000      -0.404838       -11.0162
  56   2.0000      -0.399072       -10.8593
  57   2.0000      -0.366987        -9.9862
  58   2.0000      -0.264110        -7.1868
  59   0.0000       0.037630         1.0240
  60   0.0000       0.081713         2.2235
  61   0.0000       0.096507         2.6261
  62   0.0000       0.106559         2.8996
  63   0.0000       0.113519         3.0890

MULLIKEN ATOMIC CHARGES
-----------------------
   0 C :   -0.284443
   1 C :   -0.267650
   2 C :   -0.302769
   3 H :    0.182231
   4 H :    0.166354
   5 C :    0.326091
   6 C :    0.060262
   7 N :   -0.371947
   8 C :   -0.363889
   9 H :    0.113673
  10 H :    0.076790
  11 H :    0.214897
  12 H :    0.215167
  13 O :   -0.260326
  14 F :   -0.092291
  15 C :   -0.276508
  16 C :   -0.323097
  17 C :   -0.295487
  18 H :    0.142926
  19 H :    0.138039
  20 H :    0.145220
  21 H :    0.151076
  22 C :   -0.230592
  23 H :    0.122862
  24 H :    0.127927
  25 C :   -0.275584
  26 H :    0.156048
  27 H :    0.120776
  28 C :   -0.228107
  29 H :    0.134987
  30 H :    0.129387
  31 H :    0.176139
  32 H :    0.133807
  33 H :    0.130360
  34 H :    0.132171
  35 H :    0.137840
  36 H :    0.137660
Sum of atomic charges:   -0.0000000

LOEWDIN ATOMIC CHARGES
----------------------
   0 C :   -0.225406
   1 C :   -0.276345
   2 C :   -0.238001
   3 H :    0.161877
   4 H :    0.160691
   5 C :   -0.506442
   6 C :   -0.396271
   7 N :   -0.004063
   8 C :   -0.281337
   9 H :    0.092742
  10 H :    0.104376
  11 H :    0.166843
  12 H :    0.151000
  13 O :    0.118657
  14 F :    0.352915
  15 C :   -0.269602
  16 C :   -0.281026
  17 C :   -0.280456
  18 H :    0.146004
  19 H :    0.139193
  20 H :    0.147484
  21 H :    0.144496
  22 C :   -0.269449
  23 H :    0.133633
  24 H :    0.138804
  25 C :   -0.281924
  26 H :    0.149004
  27 H :    0.141720
  28 C :   -0.276024
  29 H :    0.137796
  30 H :    0.139581
  31 H :    0.144284
  32 H :    0.141627
  33 H :    0.140179
  34 H :    0.142016
  35 H :    0.151387
  36 H :    0.140037

  Mayer bond orders larger than 0.100000
B(  0-C ,  6-C ) :   0.9113 B(  0-C , 15-C ) :   0.9044 B(  0-C , 35-H ) :   0.9927
B(  0-C , 36-H ) :   0.9999 B(  1-C ,  2-C ) :   0.8876 B(  1-C , 17-C ) :   0.9203
B(  1-C , 20-H ) :   0.9752 B(  1-C , 21-H ) :   0.9917 B(  2-C ,  3-H ) :   0.9733
B(  2-C ,  4-H ) :   0.9561 B(  2-C ,  5-C ) :   0.9562 B(  5-C , 13-O ) :   2.0456
B(  5-C , 14-F ) :   1.1185 B(  6-C ,  7-N ) :   1.1356 B(  6-C ,  8-C ) :   1.7715
B(  7-N , 11-H ) :   0.9395 B(  7-N , 12-H ) :   0.9069 B(  8-C ,  9-H ) :   0.9833
B(  8-C , 10-H ) :   1.0026 B( 15-C , 22-C ) :   0.8803 B( 15-C , 23-H ) :   0.9996
B( 15-C , 24-H ) :   0.9797 B( 16-C , 17-C ) :   0.8450 B( 16-C , 28-C ) :   0.9370
B( 16-C , 31-H ) :   0.9765 B( 16-C , 32-H ) :   0.9811 B( 17-C , 18-H ) :   0.9809
B( 17-C , 19-H ) :   0.9824 B( 22-C , 25-C ) :   0.8809 B( 22-C , 26-H ) :   0.9982
B( 22-C , 27-H ) :   0.9724 B( 25-C , 28-C ) :   0.9299 B( 25-C , 29-H ) :   0.9896
B( 25-C , 30-H ) :   0.9868 B( 28-C , 33-H ) :   0.9902 B( 28-C , 34-H ) :   0.9924

FINAL SINGLE POINT ENERGY      -698.778565372968

DIPOLE MOMENT
-------------
                                X             Y             Z
Electronic contribution:     -2.28532       3.58194      16.19844
Nuclear contribution   :      0.32481      -3.64700     -16.75441
                        -----------------------------------------
Total Dipole Moment    :     -1.96051      -0.06506      -0.55596
                        -----------------------------------------
Magnitude (a.u.)       :      2.03886
Magnitude (Debye)      :      5.18236

Rotational constants in cm-1:     0.021629     0.017327     0.011372
Rotational constants in MHz :   648.414821   519.443407   340.925013

                             ****ORCA TERMINATED NORMALLY****
TOTAL RUN TIME: 0 days 0 hours 1 minutes 40 seconds 292 msec
