                         Program Version 5.0.0 -  RELEASE  -
|  1> !CAM-B3LYP RIJCOSX def2-TZVP def2/J TightSCF
|  2> *xyz -1 1
|  3> C          2.49556        1.81615       -2.13636
|  4> C          1.87218        0.42790       -2.07750
|  5> H          2.61427       -0.36583       -2.19889
|  6> H          1.38995        0.27309       -1.11236
|  7> S          0.57902        0.14047       -3.29794
|  8> O          0.22886       -1.24687       -3.12787
|  9> O         -0.43927        1.11897       -3.01455
| 10> O          1.24788        0.40347       -4.59565
| 11> H          2.96535        1.95613       -3.08747
| 12> H          3.22581        1.91242       -1.36024
| 13> H          1.73350        2.55528       -2.00274
| 14> *
| 15>
| 16> %MaxCore 64000
| 17>
| 18> %pal nprocs 4
| 19> end
| 20>
| 21> %scf
| 22>   MaxIter 150
| 23> end
| 24>
| 25>
| 26>                          ****END OF INPUT****

CARTESIAN COORDINATES (ANGSTROEM)
---------------------------------
  C      2.495560    1.816150   -2.136360
  C      1.872180    0.427900   -2.077500
  H      2.614270   -0.365830   -2.198890
  H      1.389950    0.273090   -1.112360
  S      0.579020    0.140470   -3.297940
  O      0.228860   -1.246870   -3.127870
  O     -0.439270    1.118970   -3.014550
  O      1.247880    0.403470   -4.595650
  H      2.965350    1.956130   -3.087470
  H      3.225810    1.912420   -1.360240
  H      1.733500    2.555280   -2.002740

 Total Charge           Charge          ....   -1
 Multiplicity           Mult            ....    1
 Number of Electrons    NEL             ....   58
 Basis Dimension        Dim             ....  222

ORBITAL ENERGIES
----------------

  NO   OCC          E(Eh)            E(eV)
   0   2.0000     -88.910505     -2419.3778
   1   2.0000     -18.972782      -516.2756
   2   2.0000     -18.972669      -516.2726
   3   2.0000     -18.957233      -515.8525
   4   2.0000     -10.098917      -274.8055
   5   2.0000     -10.092910      -274.6420
   6   2.0000      -7.953792      -216.4337
   7   2.0000      -5.918425      -161.0485
   8   2.0000      -5.917236      -161.0162
   9   2.0000      -5.916974      -161.0090
  10   2.0000      -1.004684       -27.3388
  11   2.0000      -0.873881       -23.7795
  12   2.0000      -0.847071       -23.0500
  13   2.0000      -0.710810       -19.3421
  14   2.0000      -0.579627       -15.7725
  15   2.0000      -0.450208       -12.2508
  16   2.0000      -0.384521       -10.4634
  17   2.0000      -0.382455       -10.4071
  18   2.0000      -0.340472        -9.2647
  19   2.0000      -0.328067        -8.9271
  20   2.0000      -0.318711        -8.6726
  21   2.0000      -0.293136        -7.9766
  22   2.0000      -0.274314        -7.4645
  23   2.0000      -0.217049        -5.9062
  24   2.0000      -0.215991        -5.8774
  25   2.0000      -0.180614        -4.9147
  26   2.0000      -0.169300        -4.6069
  27   2.0000      -0.159934        -4.3520
  28   2.0000      -0.125861        -3.4248
  29   0.0000       0.211471         5.7544
  30   0.0000       0.253715         6.9039
  31   0.0000       0.271495         7.3878
  32   0.0000       0.276578         7.5261
  33   0.0000       0.307214         8.3597

MULLIKEN ATOMIC CHARGES
-----------------------
   0 C :   -0.331426
   1 C :   -0.227150
   2 H :    0.078445
   3 H :    0.069027
   4 S :    0.827763
   5 O :   -0.548602
   6 O :   -0.551670
   7 O :   -0.603815
   8 H :    0.112329
   9 H :    0.064126
  10 H :    0.110974
Sum of atomic charges:   -1.0000000

LOEWDIN ATOMIC CHARGES
----------------------
   0 C :   -0.344253
   1 C :   -0.430006
   2 H :    0.116218
   3 H :    0.115036
   4 S :    0.417242
   5 O :   -0.382179
   6 O :   -0.381522
   7 O :   -0.437509
   8 H :    0.114358
   9 H :    0.098287
  10 H :    0.114328

  Mayer bond orders larger than 0.100000
B(  0-C ,  1-C ) :   0.9388 B(  0-C ,  8-H ) :   0.9751 B(  0-C ,  9-H ) :   0.9697
B(  0-C , 10-H ) :   0.9778 B(  1-C ,  2-H ) :   0.9649 B(  1-C ,  3-H ) :   0.9633
B(  1-C ,  4-S ) :   0.8836 B(  4-S ,  5-O ) :   1.8370 B(  4-S ,  6-O ) :   1.7937
B(  4-S ,  7-O ) :   1.7344

FINAL SINGLE POINT ENERGY      -703.202701280355

DIPOLE MOMENT
-------------
                                X             Y             Z
Electronic contribution:     -5.69910      -3.60588      -4.09379
Nuclear contribution   :      6.89220       4.11756       5.35566
                        -----------------------------------------
Total Dipole Moment    :      1.19310       0.51168       1.26187
                        -----------------------------------------
Magnitude (a.u.)       :      1.81042
Magnitude (Debye)      :      4.60172

Rotational constants in cm-1:     0.162183     0.084017     0.082390
Rotational constants in MHz :  4862.117324  2518.774315  2469.980309

                             ****ORCA TERMINATED NORMALLY****
TOTAL RUN TIME: 0 days 0 hours 0 minutes 28 seconds 405 msec
