                         Program Version 5.0.0 -  RELEASE  -
|  1> !CAM-B3LYP RIJCOSX def2-TZVP def2/J TightSCF
|  2> *xyz 1 1
|  3> C          3.38093        2.08304       -3.35013
|  4> N          4.53592        1.18245       -3.42852
|  5> C          2.49556        1.81615       -2.13636
|  6> C          4.67196        0.12227       -4.22060
|  7> N          5.86602       -0.50785       -4.22428
|  8> N          3.69888       -0.31284       -4.98699
|  9> H          2.73141       -0.05009       -4.84900
| 10> H          3.89005       -1.05517       -5.64373
| 11> H          5.25193        1.30346       -2.72101
| 12> H          6.69516       -0.06232       -3.85160
| 13> H          5.97538       -1.39688       -4.69141
| 14> H          2.80646        1.98651       -4.26848
| 15> H          3.77871        3.09828       -3.30738
| 16> H          2.11090        0.81901       -2.18783
| 17> H          1.68276        2.51198       -2.12786
| 18> H          3.07216        1.93031       -1.24227
| 19> *
| 20>
| 21> %MaxCore 64000
| 22>
| 23> %pal nprocs 4
| 24> end
| 25>
| 26> %scf
| 27>   MaxIter 150
| 28> end
| 29>
| 30>
| 31>                          ****END OF INPUT****

CARTESIAN COORDINATES (ANGSTROEM)
---------------------------------
  C      3.380930    2.083040   -3.350130
  N      4.535920    1.182450   -3.428520
  C      2.495560    1.816150   -2.136360
  C      4.671960    0.122270   -4.220600
  N      5.866020   -0.507850   -4.224280
  N      3.698880   -0.312840   -4.986990
  H      2.731410   -0.050090   -4.849000
  H      3.890050   -1.055170   -5.643730
  H      5.251930    1.303460   -2.721010
  H      6.695160   -0.062320   -3.851600
  H      5.975380   -1.396880   -4.691410
  H      2.806460    1.986510   -4.268480
  H      3.778710    3.098280   -3.307380
  H      2.110900    0.819010   -2.187830
  H      1.682760    2.511980   -2.127860
  H      3.072160    1.930310   -1.242270

 Total Charge           Charge          ....    1
 Multiplicity           Mult            ....    1
 Number of Electrons    NEL             ....   48
 Basis Dimension        Dim             ....  246

ORBITAL ENERGIES
----------------

  NO   OCC          E(Eh)            E(eV)
   0   2.0000     -14.614976      -397.6937
   1   2.0000     -14.610018      -397.5588
   2   2.0000     -14.606688      -397.4682
   3   2.0000     -10.583399      -287.9889
   4   2.0000     -10.448843      -284.3275
   5   2.0000     -10.376301      -282.3535
   6   2.0000      -1.297921       -35.3182
   7   2.0000      -1.186302       -32.2809
   8   2.0000      -1.171078       -31.8667
   9   2.0000      -1.011032       -27.5116
  10   2.0000      -0.917920       -24.9779
  11   2.0000      -0.878556       -23.9067
  12   2.0000      -0.859171       -23.3792
  13   2.0000      -0.814482       -22.1632
  14   2.0000      -0.765903       -20.8413
  15   2.0000      -0.761613       -20.7246
  16   2.0000      -0.711066       -19.3491
  17   2.0000      -0.701903       -19.0998
  18   2.0000      -0.672707       -18.3053
  19   2.0000      -0.624952       -17.0058
  20   2.0000      -0.596327       -16.2269
  21   2.0000      -0.579521       -15.7696
  22   2.0000      -0.543260       -14.7829
  23   2.0000      -0.509581       -13.8664
  24   0.0000      -0.117303        -3.1920
  25   0.0000      -0.111334        -3.0295
  26   0.0000      -0.080401        -2.1878
  27   0.0000      -0.071058        -1.9336
  28   0.0000      -0.050173        -1.3653

MULLIKEN ATOMIC CHARGES
-----------------------
   0 C :   -0.193875
   1 N :   -0.262047
   2 C :   -0.301959
   3 C :    0.479424
   4 N :   -0.437439
   5 N :   -0.404702
   6 H :    0.293855
   7 H :    0.278755
   8 H :    0.255664
   9 H :    0.286441
  10 H :    0.279914
  11 H :    0.137919
  12 H :    0.171235
  13 H :    0.117453
  14 H :    0.161453
  15 H :    0.137909
Sum of atomic charges:    1.0000000

LOEWDIN ATOMIC CHARGES
----------------------
   0 C :   -0.277344
   1 N :    0.166355
   2 C :   -0.284476
   3 C :   -0.399118
   4 N :    0.044899
   5 N :    0.080676
   6 H :    0.199752
   7 H :    0.200300
   8 H :    0.210095
   9 H :    0.195904
  10 H :    0.192870
  11 H :    0.137956
  12 H :    0.149721
  13 H :    0.120032
  14 H :    0.136234
  15 H :    0.126144

  Mayer bond orders larger than 0.100000
B(  0-C ,  1-N ) :   0.8576 B(  0-C ,  2-C ) :   0.9552 B(  0-C , 11-H ) :   0.9776
B(  0-C , 12-H ) :   0.9642 B(  1-N ,  3-C ) :   1.3783 B(  1-N ,  8-H ) :   0.9076
B(  2-C , 13-H ) :   0.9597 B(  2-C , 14-H ) :   0.9725 B(  2-C , 15-H ) :   0.9717
B(  3-C ,  4-N ) :   1.2842 B(  3-C ,  5-N ) :   1.3409 B(  4-N ,  9-H ) :   0.9002
B(  4-N , 10-H ) :   0.9028 B(  5-N ,  6-H ) :   0.8942 B(  5-N ,  7-H ) :   0.9010

FINAL SINGLE POINT ENERGY      -284.364339986941

DIPOLE MOMENT
-------------
                                X             Y             Z
Electronic contribution:      3.57952      -2.66820      -2.83278
Nuclear contribution   :     -2.93277       1.85779       2.25966
                        -----------------------------------------
Total Dipole Moment    :      0.64675      -0.81040      -0.57311
                        -----------------------------------------
Magnitude (a.u.)       :      1.18469
Magnitude (Debye)      :      3.01125

Rotational constants in cm-1:     0.245511     0.068839     0.059711
Rotational constants in MHz :  7360.233487  2063.743353  1790.088408

                             ****ORCA TERMINATED NORMALLY****
TOTAL RUN TIME: 0 days 0 hours 0 minutes 41 seconds 479 msec
