                         Program Version 5.0.0 -  RELEASE  -
|  1> !CAM-B3LYP RIJCOSX def2-TZVP def2/J TightSCF
|  2> *xyz 0 1
|  3> C          2.49556        1.81615       -2.13636
|  4> C          1.87218        0.42790       -2.07750
|  5> H          2.61427       -0.36583       -2.19889
|  6> H          1.38995        0.27309       -1.11236
|  7> S          0.57902        0.14047       -3.29794
|  8> F          0.22886       -1.24687       -3.12787
|  9> O         -0.43927        1.11897       -3.01455
| 10> O          1.24788        0.40347       -4.59565
| 11> H          2.96535        1.95613       -3.08747
| 12> H          3.22581        1.91242       -1.36024
| 13> H          1.73350        2.55528       -2.00274
| 14> *
| 15>
| 16> %MaxCore 64000
| 17>
| 18> %pal nprocs 4
| 19> end
| 20>
| 21> %scf
| 22>   MaxIter 150
| 23> end
| 24>
| 25>
| 26>                          ****END OF INPUT****

CARTESIAN COORDINATES (ANGSTROEM)
---------------------------------
  C      2.495560    1.816150   -2.136360
  C      1.872180    0.427900   -2.077500
  H      2.614270   -0.365830   -2.198890
  H      1.389950    0.273090   -1.112360
  S      0.579020    0.140470   -3.297940
  F      0.228860   -1.246870   -3.127870
  O     -0.439270    1.118970   -3.014550
  O      1.247880    0.403470   -4.595650
  H      2.965350    1.956130   -3.087470
  H      3.225810    1.912420   -1.360240
  H      1.733500    2.555280   -2.002740

 Total Charge           Charge          ....    0
 Multiplicity           Mult            ....    1
 Number of Electrons    NEL             ....   58
 Basis Dimension        Dim             ....  222

ORBITAL ENERGIES
----------------

  NO   OCC          E(Eh)            E(eV)
   0   2.0000     -89.178282     -2426.6644
   1   2.0000     -24.881715      -677.0659
   2   2.0000     -19.213064      -522.8141
   3   2.0000     -19.197709      -522.3962
   4   2.0000     -10.304353      -280.3957
   5   2.0000     -10.258805      -279.1563
   6   2.0000      -8.222184      -223.7370
   7   2.0000      -6.189962      -168.4374
   8   2.0000      -6.183491      -168.2613
   9   2.0000      -6.183277      -168.2555
  10   2.0000      -1.471800       -40.0497
  11   2.0000      -1.190481       -32.3946
  12   2.0000      -1.086748       -29.5719
  13   2.0000      -0.904264       -24.6063
  14   2.0000      -0.817770       -22.2527
  15   2.0000      -0.753366       -20.5001
  16   2.0000      -0.667037       -18.1510
  17   2.0000      -0.664915       -18.0933
  18   2.0000      -0.629751       -17.1364
  19   2.0000      -0.565549       -15.3894
  20   2.0000      -0.554600       -15.0914
  21   2.0000      -0.513179       -13.9643
  22   2.0000      -0.498218       -13.5572
  23   2.0000      -0.476541       -12.9673
  24   2.0000      -0.455384       -12.3916
  25   2.0000      -0.453817       -12.3490
  26   2.0000      -0.402299       -10.9471
  27   2.0000      -0.387862       -10.5543
  28   2.0000      -0.373183       -10.1548
  29   0.0000       0.060685         1.6513
  30   0.0000       0.079057         2.1512
  31   0.0000       0.102642         2.7930
  32   0.0000       0.110416         3.0046
  33   0.0000       0.118911         3.2357

MULLIKEN ATOMIC CHARGES
-----------------------
   0 C :   -0.356508
   1 C :   -0.239566
   2 H :    0.139802
   3 H :    0.135349
   4 S :    0.862780
   5 F :   -0.100349
   6 O :   -0.407046
   7 O :   -0.457090
   8 H :    0.148110
   9 H :    0.128852
  10 H :    0.145666
Sum of atomic charges:    0.0000000

LOEWDIN ATOMIC CHARGES
----------------------
   0 C :   -0.304034
   1 C :   -0.397207
   2 H :    0.135621
   3 H :    0.135580
   4 S :    0.538712
   5 F :    0.098104
   6 O :   -0.266477
   7 O :   -0.320189
   8 H :    0.127725
   9 H :    0.124694
  10 H :    0.127471

  Mayer bond orders larger than 0.100000
B(  0-C ,  1-C ) :   0.9546 B(  0-C ,  8-H ) :   0.9694 B(  0-C ,  9-H ) :   0.9634
B(  0-C , 10-H ) :   0.9701 B(  1-C ,  2-H ) :   0.9413 B(  1-C ,  3-H ) :   0.9413
B(  1-C ,  4-S ) :   0.9209 B(  4-S ,  5-F ) :   1.1462 B(  4-S ,  6-O ) :   1.9336
B(  4-S ,  7-O ) :   1.8772

FINAL SINGLE POINT ENERGY      -727.722253118180

DIPOLE MOMENT
-------------
                                X             Y             Z
Electronic contribution:     -6.81987      -6.43339      -4.07762
Nuclear contribution   :      7.60530       5.82028       5.38743
                        -----------------------------------------
Total Dipole Moment    :      0.78543      -0.61311       1.30981
                        -----------------------------------------
Magnitude (a.u.)       :      1.64573
Magnitude (Debye)      :      4.18310

Rotational constants in cm-1:     0.157861     0.081452     0.078859
Rotational constants in MHz :  4732.562506  2441.865430  2364.129821

                             ****ORCA TERMINATED NORMALLY****
TOTAL RUN TIME: 0 days 0 hours 0 minutes 33 seconds 341 msec
