                         Program Version 5.0.0 -  RELEASE  -
|  1> !CAM-B3LYP RIJCOSX def2-TZVP def2/J TightSCF
|  2> *xyz 0 1
|  3> C          3.38093        2.08304       -3.35013
|  4> C          4.53592        1.18245       -3.42852
|  5> C          2.49556        1.81615       -2.13636
|  6> C          4.67196        0.12227       -4.22060
|  7> N          5.86602       -0.50785       -4.22428
|  8> N          3.69888       -0.31284       -4.98699
|  9> H          2.73141       -0.05009       -4.84900
| 10> H          3.89005       -1.05517       -5.64373
| 11> H          5.25193        1.30346       -2.72101
| 12> H          6.69516       -0.06232       -3.85160
| 13> H          5.97538       -1.39688       -4.69141
| 14> H          2.80646        1.98651       -4.26848
| 15> H          3.77871        3.09828       -3.30738
| 16> H          2.11090        0.81901       -2.18783
| 17> H          1.68276        2.51198       -2.12786
| 18> H          3.07216        1.93031       -1.24227
| 19> *
| 20>
| 21> %MaxCore 64000
| 22>
| 23> %pal nprocs 4
| 24> end
| 25>
| 26> %scf
| 27>   MaxIter 150
| 28> end
| 29>
| 30>
| 31>                          ****END OF INPUT****

CARTESIAN COORDINATES (ANGSTROEM)
---------------------------------
  C      3.380930    2.083040   -3.350130
  C      4.535920    1.182450   -3.428520
  C      2.495560    1.816150   -2.136360
  C      4.671960    0.122270   -4.220600
  N      5.866020   -0.507850   -4.224280
  N      3.698880   -0.312840   -4.986990
  H      2.731410   -0.050090   -4.849000
  H      3.890050   -1.055170   -5.643730
  H      5.251930    1.303460   -2.721010
  H      6.695160   -0.062320   -3.851600
  H      5.975380   -1.396880   -4.691410
  H      2.806460    1.986510   -4.268480
  H      3.778710    3.098280   -3.307380
  H      2.110900    0.819010   -2.187830
  H      1.682760    2.511980   -2.127860
  H      3.072160    1.930310   -1.242270

 Total Charge           Charge          ....    0
 Multiplicity           Mult            ....    1
 Number of Electrons    NEL             ....   48
 Basis Dimension        Dim             ....  246

ORBITAL ENERGIES
----------------

  NO   OCC          E(Eh)            E(eV)
   0   2.0000     -14.389242      -391.5512
   1   2.0000     -14.381285      -391.3347
   2   2.0000     -10.287006      -279.9237
   3   2.0000     -10.213088      -277.9122
   4   2.0000     -10.204295      -277.6730
   5   2.0000     -10.160268      -276.4749
   6   2.0000      -1.043025       -28.3822
   7   2.0000      -0.948900       -25.8209
   8   2.0000      -0.851159       -23.1612
   9   2.0000      -0.772033       -21.0081
  10   2.0000      -0.691464       -18.8157
  11   2.0000      -0.650155       -17.6916
  12   2.0000      -0.614126       -16.7112
  13   2.0000      -0.576257       -15.6807
  14   2.0000      -0.547035       -14.8856
  15   2.0000      -0.509389       -13.8612
  16   2.0000      -0.482518       -13.1300
  17   2.0000      -0.460930       -12.5426
  18   2.0000      -0.443709       -12.0739
  19   2.0000      -0.414135       -11.2692
  20   2.0000      -0.389392       -10.5959
  21   2.0000      -0.382646       -10.4123
  22   2.0000      -0.328636        -8.9427
  23   2.0000      -0.212649        -5.7865
  24   0.0000       0.056711         1.5432
  25   0.0000       0.084685         2.3044
  26   0.0000       0.102757         2.7962
  27   0.0000       0.117750         3.2041
  28   0.0000       0.128956         3.5091

MULLIKEN ATOMIC CHARGES
-----------------------
   0 C :   -0.219038
   1 C :   -0.339720
   2 C :   -0.286299
   3 C :    0.378655
   4 N :   -0.491336
   5 N :   -0.476057
   6 H :    0.244714
   7 H :    0.211644
   8 H :    0.086552
   9 H :    0.239987
  10 H :    0.206403
  11 H :    0.065085
  12 H :    0.091904
  13 H :    0.089238
  14 H :    0.098557
  15 H :    0.099711
Sum of atomic charges:   -0.0000000

LOEWDIN ATOMIC CHARGES
----------------------
   0 C :   -0.304829
   1 C :   -0.278271
   2 C :   -0.306239
   3 C :   -0.457887
   4 N :   -0.032035
   5 N :   -0.001139
   6 H :    0.176401
   7 H :    0.163574
   8 H :    0.118525
   9 H :    0.174079
  10 H :    0.154783
  11 H :    0.126453
  12 H :    0.135502
  13 H :    0.109851
  14 H :    0.107781
  15 H :    0.113449

  Mayer bond orders larger than 0.100000
B(  0-C ,  1-C ) :   1.0168 B(  0-C ,  2-C ) :   0.9371 B(  0-C , 11-H ) :   0.9872
B(  0-C , 12-H ) :   0.9914 B(  1-C ,  3-C ) :   1.6568 B(  1-C ,  8-H ) :   0.9936
B(  2-C , 13-H ) :   0.9790 B(  2-C , 14-H ) :   0.9826 B(  2-C , 15-H ) :   0.9838
B(  3-C ,  4-N ) :   1.0998 B(  3-C ,  5-N ) :   1.1263 B(  4-N ,  9-H ) :   0.9241
B(  4-N , 10-H ) :   0.9331 B(  5-N ,  6-H ) :   0.9237 B(  5-N ,  7-H ) :   0.9311

FINAL SINGLE POINT ENERGY      -267.876267433020

DIPOLE MOMENT
-------------
                                X             Y             Z
Electronic contribution:      3.01448      -2.85781      -2.94102
Nuclear contribution   :     -2.84307       1.95814       2.32378
                        -----------------------------------------
Total Dipole Moment    :      0.17141      -0.89967      -0.61724
                        -----------------------------------------
Magnitude (a.u.)       :      1.10443
Magnitude (Debye)      :      2.80725

Rotational constants in cm-1:     0.248902     0.068887     0.059904
Rotational constants in MHz :  7461.898926  2065.183281  1795.882140

                             ****ORCA TERMINATED NORMALLY****
TOTAL RUN TIME: 0 days 0 hours 0 minutes 42 seconds 941 msec
