                         Program Version 5.0.0 -  RELEASE  -
|  1> !CAM-B3LYP RIJCOSX def2-TZVP def2/J TightSCF
|  2> *xyz 0 1
|  3> C          2.49556        1.81615       -2.13636
|  4> C          1.87218        0.42790       -2.07750
|  5> H          2.61427       -0.36583       -2.19889
|  6> H          1.38995        0.27309       -1.11236
|  7> S          0.57902        0.14047       -3.29794
|  8> O          0.22886       -1.24687       -3.12787
|  9> F         -0.43927        1.11897       -3.01455
| 10> O          1.24788        0.40347       -4.59565
| 11> H          2.96535        1.95613       -3.08747
| 12> H          3.22581        1.91242       -1.36024
| 13> H          1.73350        2.55528       -2.00274
| 14> *
| 15>
| 16> %MaxCore 64000
| 17>
| 18> %pal nprocs 4
| 19> end
| 20>
| 21> %scf
| 22>   MaxIter 150
| 23> end
| 24>
| 25>
| 26>                          ****END OF INPUT****

CARTESIAN COORDINATES (ANGSTROEM)
---------------------------------
  C      2.495560    1.816150   -2.136360
  C      1.872180    0.427900   -2.077500
  H      2.614270   -0.365830   -2.198890
  H      1.389950    0.273090   -1.112360
  S      0.579020    0.140470   -3.297940
  O      0.228860   -1.246870   -3.127870
  F     -0.439270    1.118970   -3.014550
  O      1.247880    0.403470   -4.595650
  H      2.965350    1.956130   -3.087470
  H      3.225810    1.912420   -1.360240
  H      1.733500    2.555280   -2.002740

 Total Charge           Charge          ....    0
 Multiplicity           Mult            ....    1
 Number of Electrons    NEL             ....   58
 Basis Dimension        Dim             ....  222

ORBITAL ENERGIES
----------------

  NO   OCC          E(Eh)            E(eV)
   0   2.0000     -89.178457     -2426.6692
   1   2.0000     -24.881786      -677.0678
   2   2.0000     -19.213532      -522.8268
   3   2.0000     -19.198438      -522.4161
   4   2.0000     -10.304315      -280.3947
   5   2.0000     -10.262070      -279.2451
   6   2.0000      -8.222328      -223.7409
   7   2.0000      -6.190255      -168.4454
   8   2.0000      -6.183628      -168.2651
   9   2.0000      -6.183300      -168.2561
  10   2.0000      -1.472272       -40.0626
  11   2.0000      -1.190005       -32.3817
  12   2.0000      -1.087799       -29.6005
  13   2.0000      -0.907341       -24.6900
  14   2.0000      -0.814121       -22.1534
  15   2.0000      -0.757640       -20.6164
  16   2.0000      -0.675650       -18.3854
  17   2.0000      -0.665757       -18.1162
  18   2.0000      -0.622695       -16.9444
  19   2.0000      -0.565414       -15.3857
  20   2.0000      -0.551215       -14.9993
  21   2.0000      -0.523068       -14.2334
  22   2.0000      -0.502385       -13.6706
  23   2.0000      -0.476772       -12.9736
  24   2.0000      -0.465974       -12.6798
  25   2.0000      -0.447119       -12.1667
  26   2.0000      -0.401630       -10.9289
  27   2.0000      -0.387837       -10.5536
  28   2.0000      -0.375259       -10.2113
  29   0.0000       0.051535         1.4023
  30   0.0000       0.087061         2.3690
  31   0.0000       0.101066         2.7502
  32   0.0000       0.106483         2.8976
  33   0.0000       0.121105         3.2954

MULLIKEN ATOMIC CHARGES
-----------------------
   0 C :   -0.352988
   1 C :   -0.251275
   2 H :    0.163452
   3 H :    0.137550
   4 S :    0.863242
   5 O :   -0.403280
   6 F :   -0.102926
   7 O :   -0.457928
   8 H :    0.153339
   9 H :    0.130171
  10 H :    0.120643
Sum of atomic charges:    0.0000000

LOEWDIN ATOMIC CHARGES
----------------------
   0 C :   -0.317184
   1 C :   -0.391760
   2 H :    0.149524
   3 H :    0.135672
   4 S :    0.539732
   5 O :   -0.266201
   6 F :    0.099284
   7 O :   -0.319592
   8 H :    0.127209
   9 H :    0.124410
  10 H :    0.118906

  Mayer bond orders larger than 0.100000
B(  0-C ,  1-C ) :   0.9384 B(  0-C ,  8-H ) :   0.9675 B(  0-C ,  9-H ) :   0.9660
B(  0-C , 10-H ) :   0.9727 B(  1-C ,  2-H ) :   0.9462 B(  1-C ,  3-H ) :   0.9487
B(  1-C ,  4-S ) :   0.9143 B(  4-S ,  5-O ) :   1.9596 B(  4-S ,  6-F ) :   1.1351
B(  4-S ,  7-O ) :   1.8734

FINAL SINGLE POINT ENERGY      -727.722321321847

DIPOLE MOMENT
-------------
                                X             Y             Z
Electronic contribution:     -7.94669      -2.40273      -3.87774
Nuclear contribution   :      8.30151       3.35500       5.26935
                        -----------------------------------------
Total Dipole Moment    :      0.35482       0.95227       1.39161
                        -----------------------------------------
Magnitude (a.u.)       :      1.72316
Magnitude (Debye)      :      4.37994

Rotational constants in cm-1:     0.152913     0.083043     0.080351
Rotational constants in MHz :  4584.227971  2489.580280  2408.872860

                             ****ORCA TERMINATED NORMALLY****
TOTAL RUN TIME: 0 days 0 hours 0 minutes 31 seconds 173 msec
