                         Program Version 5.0.0 -  RELEASE  -
|  1> !CAM-B3LYP RIJCOSX def2-TZVP def2/J TightSCF
|  2> *xyz 0 1
|  3> C          3.38093        2.08304       -3.35013
|  4> N          4.53592        1.18245       -3.42852
|  5> C          2.49556        1.81615       -2.13636
|  6> C          4.67196        0.12227       -4.22060
|  7> C          5.86602       -0.50785       -4.22428
|  8> N          3.69888       -0.31284       -4.98699
|  9> H          2.73141       -0.05009       -4.84900
| 10> H          3.89005       -1.05517       -5.64373
| 11> H          5.25193        1.30346       -2.72101
| 12> H          6.69516       -0.06232       -3.85160
| 13> H          5.97538       -1.39688       -4.69141
| 14> H          2.80646        1.98651       -4.26848
| 15> H          3.77871        3.09828       -3.30738
| 16> H          2.11090        0.81901       -2.18783
| 17> H          1.68276        2.51198       -2.12786
| 18> H          3.07216        1.93031       -1.24227
| 19> *
| 20>
| 21> %MaxCore 64000
| 22>
| 23> %pal nprocs 4
| 24> end
| 25>
| 26> %scf
| 27>   MaxIter 150
| 28> end
| 29>
| 30>
| 31>                          ****END OF INPUT****

CARTESIAN COORDINATES (ANGSTROEM)
---------------------------------
  C      3.380930    2.083040   -3.350130
  N      4.535920    1.182450   -3.428520
  C      2.495560    1.816150   -2.136360
  C      4.671960    0.122270   -4.220600
  C      5.866020   -0.507850   -4.224280
  N      3.698880   -0.312840   -4.986990
  H      2.731410   -0.050090   -4.849000
  H      3.890050   -1.055170   -5.643730
  H      5.251930    1.303460   -2.721010
  H      6.695160   -0.062320   -3.851600
  H      5.975380   -1.396880   -4.691410
  H      2.806460    1.986510   -4.268480
  H      3.778710    3.098280   -3.307380
  H      2.110900    0.819010   -2.187830
  H      1.682760    2.511980   -2.127860
  H      3.072160    1.930310   -1.242270

 Total Charge           Charge          ....    0
 Multiplicity           Mult            ....    1
 Number of Electrons    NEL             ....   48
 Basis Dimension        Dim             ....  246

ORBITAL ENERGIES
----------------

  NO   OCC          E(Eh)            E(eV)
   0   2.0000     -14.389911      -391.5694
   1   2.0000     -14.386575      -391.4786
   2   2.0000     -10.292196      -280.0649
   3   2.0000     -10.283062      -279.8163
   4   2.0000     -10.234894      -278.5056
   5   2.0000     -10.147833      -276.1366
   6   2.0000      -1.051194       -28.6044
   7   2.0000      -0.968737       -26.3607
   8   2.0000      -0.852981       -23.2108
   9   2.0000      -0.776042       -21.1172
  10   2.0000      -0.704463       -19.1694
  11   2.0000      -0.676452       -18.4072
  12   2.0000      -0.615547       -16.7499
  13   2.0000      -0.567939       -15.4544
  14   2.0000      -0.550005       -14.9664
  15   2.0000      -0.514936       -14.0121
  16   2.0000      -0.497828       -13.5466
  17   2.0000      -0.470097       -12.7920
  18   2.0000      -0.455123       -12.3845
  19   2.0000      -0.433824       -11.8050
  20   2.0000      -0.428834       -11.6692
  21   2.0000      -0.418743       -11.3946
  22   2.0000      -0.317286        -8.6338
  23   2.0000      -0.213526        -5.8103
  24   0.0000       0.055953         1.5226
  25   0.0000       0.087256         2.3744
  26   0.0000       0.097364         2.6494
  27   0.0000       0.116701         3.1756
  28   0.0000       0.128871         3.5068

MULLIKEN ATOMIC CHARGES
-----------------------
   0 C :   -0.162338
   1 N :   -0.311188
   2 C :   -0.285765
   3 C :    0.430955
   4 C :   -0.597731
   5 N :   -0.479724
   6 H :    0.220904
   7 H :    0.239874
   8 H :    0.218846
   9 H :    0.095978
  10 H :    0.083323
  11 H :    0.108308
  12 H :    0.116942
  13 H :    0.106513
  14 H :    0.108614
  15 H :    0.106489
Sum of atomic charges:   -0.0000000

LOEWDIN ATOMIC CHARGES
----------------------
   0 C :   -0.307767
   1 N :    0.117675
   2 C :   -0.308151
   3 C :   -0.461331
   4 C :   -0.364720
   5 N :    0.003562
   6 H :    0.161350
   7 H :    0.180485
   8 H :    0.193641
   9 H :    0.092744
  10 H :    0.090676
  11 H :    0.127704
  12 H :    0.128911
  13 H :    0.114284
  14 H :    0.116012
  15 H :    0.114925

  Mayer bond orders larger than 0.100000
B(  0-C ,  1-N ) :   0.9230 B(  0-C ,  2-C ) :   0.9379 B(  0-C , 11-H ) :   0.9857
B(  0-C , 12-H ) :   0.9826 B(  1-N ,  3-C ) :   1.1831 B(  1-N ,  8-H ) :   0.9293
B(  2-C , 13-H ) :   0.9735 B(  2-C , 14-H ) :   0.9765 B(  2-C , 15-H ) :   0.9774
B(  3-C ,  4-C ) :   1.5401 B(  3-C ,  5-N ) :   1.1410 B(  4-C ,  9-H ) :   1.0101
B(  4-C , 10-H ) :   1.0142 B(  5-N ,  6-H ) :   0.9271 B(  5-N ,  7-H ) :   0.9249

FINAL SINGLE POINT ENERGY      -267.867075917382

DIPOLE MOMENT
-------------
                                X             Y             Z
Electronic contribution:      1.46946      -1.09632      -2.05230
Nuclear contribution   :     -2.56090       1.59955       2.15496
                        -----------------------------------------
Total Dipole Moment    :     -1.09144       0.50323       0.10266
                        -----------------------------------------
Magnitude (a.u.)       :      1.20624
Magnitude (Debye)      :      3.06603

Rotational constants in cm-1:     0.249834     0.071381     0.061833
Rotational constants in MHz :  7489.842787  2139.945635  1853.706310

                             ****ORCA TERMINATED NORMALLY****
TOTAL RUN TIME: 0 days 0 hours 0 minutes 41 seconds 380 msec
