                         Program Version 5.0.0 -  RELEASE  -
|  1> !CAM-B3LYP RIJCOSX def2-TZVP def2/J TightSCF
|  2> *xyz 0 1
|  3> C          2.49556        1.81615       -2.13636
|  4> C          1.87218        0.42790       -2.07750
|  5> H          2.61427       -0.36583       -2.19889
|  6> H          1.38995        0.27309       -1.11236
|  7> S          0.57902        0.14047       -3.29794
|  8> O          0.22886       -1.24687       -3.12787
|  9> O         -0.43927        1.11897       -3.01455
| 10> F          1.24788        0.40347       -4.59565
| 11> H          2.96535        1.95613       -3.08747
| 12> H          3.22581        1.91242       -1.36024
| 13> H          1.73350        2.55528       -2.00274
| 14> *
| 15>
| 16> %MaxCore 64000
| 17>
| 18> %pal nprocs 4
| 19> end
| 20>
| 21> %scf
| 22>   MaxIter 150
| 23> end
| 24>
| 25>
| 26>                          ****END OF INPUT****

CARTESIAN COORDINATES (ANGSTROEM)
---------------------------------
  C      2.495560    1.816150   -2.136360
  C      1.872180    0.427900   -2.077500
  H      2.614270   -0.365830   -2.198890
  H      1.389950    0.273090   -1.112360
  S      0.579020    0.140470   -3.297940
  O      0.228860   -1.246870   -3.127870
  O     -0.439270    1.118970   -3.014550
  F      1.247880    0.403470   -4.595650
  H      2.965350    1.956130   -3.087470
  H      3.225810    1.912420   -1.360240
  H      1.733500    2.555280   -2.002740

 Total Charge           Charge          ....    0
 Multiplicity           Mult            ....    1
 Number of Electrons    NEL             ....   58
 Basis Dimension        Dim             ....  222

ORBITAL ENERGIES
----------------

  NO   OCC          E(Eh)            E(eV)
   0   2.0000     -89.176214     -2426.6082
   1   2.0000     -24.859092      -676.4503
   2   2.0000     -19.213277      -522.8198
   3   2.0000     -19.213031      -522.8131
   4   2.0000     -10.303320      -280.3676
   5   2.0000     -10.262660      -279.2612
   6   2.0000      -8.220089      -223.6800
   7   2.0000      -6.188067      -168.3859
   8   2.0000      -6.181520      -168.2077
   9   2.0000      -6.181040      -168.1946
  10   2.0000      -1.435916       -39.0733
  11   2.0000      -1.200960       -32.6798
  12   2.0000      -1.109117       -30.1806
  13   2.0000      -0.906745       -24.6738
  14   2.0000      -0.800173       -21.7738
  15   2.0000      -0.750283       -20.4162
  16   2.0000      -0.657185       -17.8829
  17   2.0000      -0.640498       -17.4288
  18   2.0000      -0.620568       -16.8865
  19   2.0000      -0.566978       -15.4282
  20   2.0000      -0.548663       -14.9299
  21   2.0000      -0.527309       -14.3488
  22   2.0000      -0.506807       -13.7909
  23   2.0000      -0.478412       -13.0183
  24   2.0000      -0.471510       -12.8304
  25   2.0000      -0.449268       -12.2252
  26   2.0000      -0.410755       -11.1772
  27   2.0000      -0.397867       -10.8265
  28   2.0000      -0.390633       -10.6297
  29   0.0000       0.052609         1.4316
  30   0.0000       0.093121         2.5339
  31   0.0000       0.103000         2.8028
  32   0.0000       0.108217         2.9447
  33   0.0000       0.120973         3.2919

MULLIKEN ATOMIC CHARGES
-----------------------
   0 C :   -0.358396
   1 C :   -0.252723
   2 H :    0.147430
   3 H :    0.155620
   4 S :    0.867409
   5 O :   -0.411313
   6 O :   -0.416832
   7 F :   -0.137668
   8 H :    0.125782
   9 H :    0.130889
  10 H :    0.149801
Sum of atomic charges:   -0.0000000

LOEWDIN ATOMIC CHARGES
----------------------
   0 C :   -0.317954
   1 C :   -0.391302
   2 H :    0.137913
   3 H :    0.148411
   4 S :    0.545801
   5 O :   -0.270103
   6 O :   -0.270077
   7 F :    0.046768
   8 H :    0.119434
   9 H :    0.124760
  10 H :    0.126350

  Mayer bond orders larger than 0.100000
B(  0-C ,  1-C ) :   0.9380 B(  0-C ,  8-H ) :   0.9727 B(  0-C ,  9-H ) :   0.9666
B(  0-C , 10-H ) :   0.9684 B(  1-C ,  2-H ) :   0.9483 B(  1-C ,  3-H ) :   0.9469
B(  1-C ,  4-S ) :   0.9148 B(  4-S ,  5-O ) :   1.9584 B(  4-S ,  6-O ) :   1.9286
B(  4-S ,  7-F ) :   1.0934

FINAL SINGLE POINT ENERGY      -727.741006574589

DIPOLE MOMENT
-------------
                                X             Y             Z
Electronic contribution:     -5.06274      -3.61293      -6.58118
Nuclear contribution   :      6.54345       4.10057       6.91691
                        -----------------------------------------
Total Dipole Moment    :      1.48070       0.48764       0.33572
                        -----------------------------------------
Magnitude (a.u.)       :      1.59468
Magnitude (Debye)      :      4.05334

Rotational constants in cm-1:     0.152835     0.082826     0.080611
Rotational constants in MHz :  4581.878371  2483.049050  2416.647141

                             ****ORCA TERMINATED NORMALLY****
TOTAL RUN TIME: 0 days 0 hours 0 minutes 30 seconds 875 msec
