                         Program Version 5.0.0 -  RELEASE  -
|  1> !CAM-B3LYP RIJCOSX def2-TZVP def2/J TightSCF
|  2> *xyz 0 1
|  3> C          3.38093        2.08304       -3.35013
|  4> N          4.53592        1.18245       -3.42852
|  5> C          2.49556        1.81615       -2.13636
|  6> C          4.67196        0.12227       -4.22060
|  7> N          5.86602       -0.50785       -4.22428
|  8> C          3.69888       -0.31284       -4.98699
|  9> H          2.73141       -0.05009       -4.84900
| 10> H          3.89005       -1.05517       -5.64373
| 11> H          5.25193        1.30346       -2.72101
| 12> H          6.69516       -0.06232       -3.85160
| 13> H          5.97538       -1.39688       -4.69141
| 14> H          2.80646        1.98651       -4.26848
| 15> H          3.77871        3.09828       -3.30738
| 16> H          2.11090        0.81901       -2.18783
| 17> H          1.68276        2.51198       -2.12786
| 18> H          3.07216        1.93031       -1.24227
| 19> *
| 20>
| 21> %MaxCore 64000
| 22>
| 23> %pal nprocs 4
| 24> end
| 25>
| 26> %scf
| 27>   MaxIter 150
| 28> end
| 29>
| 30>
| 31>                          ****END OF INPUT****

CARTESIAN COORDINATES (ANGSTROEM)
---------------------------------
  C      3.380930    2.083040   -3.350130
  N      4.535920    1.182450   -3.428520
  C      2.495560    1.816150   -2.136360
  C      4.671960    0.122270   -4.220600
  N      5.866020   -0.507850   -4.224280
  C      3.698880   -0.312840   -4.986990
  H      2.731410   -0.050090   -4.849000
  H      3.890050   -1.055170   -5.643730
  H      5.251930    1.303460   -2.721010
  H      6.695160   -0.062320   -3.851600
  H      5.975380   -1.396880   -4.691410
  H      2.806460    1.986510   -4.268480
  H      3.778710    3.098280   -3.307380
  H      2.110900    0.819010   -2.187830
  H      1.682760    2.511980   -2.127860
  H      3.072160    1.930310   -1.242270

 Total Charge           Charge          ....    0
 Multiplicity           Mult            ....    1
 Number of Electrons    NEL             ....   48
 Basis Dimension        Dim             ....  246

ORBITAL ENERGIES
----------------

  NO   OCC          E(Eh)            E(eV)
   0   2.0000     -14.386382      -391.4734
   1   2.0000     -14.382521      -391.3683
   2   2.0000     -10.288908      -279.9754
   3   2.0000     -10.274411      -279.5809
   4   2.0000     -10.226955      -278.2896
   5   2.0000     -10.151614      -276.2395
   6   2.0000      -1.044233       -28.4150
   7   2.0000      -0.959217       -26.1016
   8   2.0000      -0.837419       -22.7873
   9   2.0000      -0.790720       -21.5166
  10   2.0000      -0.715619       -19.4730
  11   2.0000      -0.637691       -17.3525
  12   2.0000      -0.614535       -16.7223
  13   2.0000      -0.584517       -15.9055
  14   2.0000      -0.525650       -14.3037
  15   2.0000      -0.518183       -14.1005
  16   2.0000      -0.489231       -13.3127
  17   2.0000      -0.469317       -12.7708
  18   2.0000      -0.445957       -12.1351
  19   2.0000      -0.440839       -11.9958
  20   2.0000      -0.419551       -11.4166
  21   2.0000      -0.414089       -11.2679
  22   2.0000      -0.309555        -8.4234
  23   2.0000      -0.225918        -6.1476
  24   0.0000       0.061843         1.6828
  25   0.0000       0.084931         2.3111
  26   0.0000       0.104278         2.8375
  27   0.0000       0.121295         3.3006
  28   0.0000       0.128521         3.4972

MULLIKEN ATOMIC CHARGES
-----------------------
   0 C :   -0.115158
   1 N :   -0.333125
   2 C :   -0.313942
   3 C :    0.445020
   4 N :   -0.508372
   5 C :   -0.570207
   6 H :    0.102243
   7 H :    0.079485
   8 H :    0.187387
   9 H :    0.212742
  10 H :    0.237994
  11 H :    0.133971
  12 H :    0.108648
  13 H :    0.127282
  14 H :    0.108917
  15 H :    0.097117
Sum of atomic charges:    0.0000000

LOEWDIN ATOMIC CHARGES
----------------------
   0 C :   -0.291493
   1 N :    0.110954
   2 C :   -0.306646
   3 C :   -0.457272
   4 N :   -0.029516
   5 C :   -0.339389
   6 H :    0.097882
   7 H :    0.097688
   8 H :    0.175678
   9 H :    0.156960
  10 H :    0.172448
  11 H :    0.138254
  12 H :    0.126705
  13 H :    0.119701
  14 H :    0.116490
  15 H :    0.111557

  Mayer bond orders larger than 0.100000
B(  0-C ,  1-N ) :   0.8936 B(  0-C ,  2-C ) :   0.9426 B(  0-C , 11-H ) :   0.9759
B(  0-C , 12-H ) :   0.9833 B(  1-N ,  3-C ) :   1.1537 B(  1-N ,  8-H ) :   0.9363
B(  2-C , 13-H ) :   0.9777 B(  2-C , 14-H ) :   0.9779 B(  2-C , 15-H ) :   0.9773
B(  3-C ,  4-N ) :   1.0866 B(  3-C ,  5-C ) :   1.6084 B(  4-N ,  9-H ) :   0.9305
B(  4-N , 10-H ) :   0.9278 B(  5-C ,  6-H ) :   1.0038 B(  5-C ,  7-H ) :   1.0134

FINAL SINGLE POINT ENERGY      -267.872016110982

DIPOLE MOMENT
-------------
                                X             Y             Z
Electronic contribution:      3.72294      -1.31856      -1.32770
Nuclear contribution   :     -3.02065       1.64092       1.99316
                        -----------------------------------------
Total Dipole Moment    :      0.70229       0.32236       0.66546
                        -----------------------------------------
Magnitude (a.u.)       :      1.01979
Magnitude (Debye)      :      2.59209

Rotational constants in cm-1:     0.259304     0.069422     0.060943
Rotational constants in MHz :  7773.747720  2081.225169  1827.013389

                             ****ORCA TERMINATED NORMALLY****
TOTAL RUN TIME: 0 days 0 hours 0 minutes 44 seconds 378 msec
