                         Program Version 5.0.0 -  RELEASE  -
|  1> !CAM-B3LYP RIJCOSX def2-TZVP def2/J TightSCF xyzfile
|  2>
|  3> *xyzfile 0 1 D2.xyz
|  4>
|  5> %MaxCore 64000
|  6>
|  7> %pal nprocs 18
|  8> end
|  9>
| 10> %scf
| 11>   MaxIter 150
| 12> end
| 13>
| 14>
| 15>                          ****END OF INPUT****

CARTESIAN COORDINATES (ANGSTROEM)
---------------------------------
  C      3.380928    2.083045   -3.350127
  N      4.535924    1.182447   -3.428518
  C      2.495557    1.816150   -2.136364
  C      1.872181    0.427903   -2.077497
  H      2.614270   -0.365825   -2.198894
  H      1.389953    0.273087   -1.112360
  S      0.579024    0.140472   -3.297943
  C      4.671956    0.122273   -4.220598
  C      5.866023   -0.507849   -4.224284
  N      3.698881   -0.312844   -4.986988
  H      2.731405   -0.050091   -4.849000
  H      3.890046   -1.055172   -5.643730
  H      5.251933    1.303459   -2.721014
  H      6.695165   -0.062322   -3.851596
  H      5.975383   -1.396884   -4.691414
  F      0.228860   -1.246868   -3.127871
  O     -0.439269    1.118966   -3.014550
  O      1.247881    0.403474   -4.595647
  H      1.697003    2.561969   -2.141109
  H      3.080787    1.987436   -1.225838
  H      2.806463    1.986511   -4.268484
  H      3.778714    3.098282   -3.307383

 Total Charge           Charge          ....    0
 Multiplicity           Mult            ....    1
 Number of Electrons    NEL             ....   96
 Basis Dimension        Dim             ....  413

ORBITAL ENERGIES
----------------

  NO   OCC          E(Eh)            E(eV)
   0   2.0000     -89.202449     -2427.3220
   1   2.0000     -24.900645      -677.5810
   2   2.0000     -19.234276      -523.3913
   3   2.0000     -19.228129      -523.2240
   4   2.0000     -14.388022      -391.5180
   5   2.0000     -14.360213      -390.7613
   6   2.0000     -10.315638      -280.7028
   7   2.0000     -10.286346      -279.9057
   8   2.0000     -10.284642      -279.8593
   9   2.0000     -10.280338      -279.7422
  10   2.0000     -10.141534      -275.9652
  11   2.0000      -8.246457      -224.3975
  12   2.0000      -6.214136      -169.0952
  13   2.0000      -6.208008      -168.9285
  14   2.0000      -6.207404      -168.9120
  15   2.0000      -1.490769       -40.5659
  16   2.0000      -1.216519       -33.1032
  17   2.0000      -1.119858       -30.4729
  18   2.0000      -1.044948       -28.4345
  19   2.0000      -0.962216       -26.1832
  20   2.0000      -0.919569       -25.0227
  21   2.0000      -0.852985       -23.2109
  22   2.0000      -0.806988       -21.9593
  23   2.0000      -0.767114       -20.8742
  24   2.0000      -0.715633       -19.4734
  25   2.0000      -0.687612       -18.7109
  26   2.0000      -0.674601       -18.3568
  27   2.0000      -0.671084       -18.2611
  28   2.0000      -0.656684       -17.8693
  29   2.0000      -0.618223       -16.8227
  30   2.0000      -0.581391       -15.8204
  31   2.0000      -0.563688       -15.3387
  32   2.0000      -0.558150       -15.1880
  33   2.0000      -0.551209       -14.9991
  34   2.0000      -0.534919       -14.5559
  35   2.0000      -0.515402       -14.0248
  36   2.0000      -0.485933       -13.2229
  37   2.0000      -0.478016       -13.0075
  38   2.0000      -0.475098       -12.9281
  39   2.0000      -0.455339       -12.3904
  40   2.0000      -0.450893       -12.2694
  41   2.0000      -0.435624       -11.8539
  42   2.0000      -0.424149       -11.5417
  43   2.0000      -0.413692       -11.2571
  44   2.0000      -0.405675       -11.0390
  45   2.0000      -0.392957       -10.6929
  46   2.0000      -0.310806        -8.4575
  47   2.0000      -0.208083        -5.6622
  48   0.0000       0.048619         1.3230
  49   0.0000       0.055372         1.5067
  50   0.0000       0.087855         2.3906
  51   0.0000       0.090477         2.4620
  52   0.0000       0.093872         2.5544

MULLIKEN ATOMIC CHARGES
-----------------------
   0 C :   -0.235822
   1 N :   -0.322576
   2 C :   -0.177869
   3 C :   -0.317410
   4 H :    0.185349
   5 H :    0.160702
   6 S :    0.891720
   7 C :    0.400428
   8 C :   -0.609683
   9 N :   -0.484304
  10 H :    0.252516
  11 H :    0.225704
  12 H :    0.215385
  13 H :    0.092205
  14 H :    0.082090
  15 F :   -0.091833
  16 O :   -0.393778
  17 O :   -0.460979
  18 H :    0.138489
  19 H :    0.125214
  20 H :    0.193584
  21 H :    0.130865
Sum of atomic charges:    0.0000000

LOEWDIN ATOMIC CHARGES
----------------------
   0 C :   -0.284048
   1 N :    0.115868
   2 C :   -0.280877
   3 C :   -0.367184
   4 H :    0.149031
   5 H :    0.142786
   6 S :    0.564288
   7 C :   -0.474991
   8 C :   -0.376543
   9 N :   -0.000612
  10 H :    0.124605
  11 H :    0.175151
  12 H :    0.191456
  13 H :    0.090219
  14 H :    0.089971
  15 F :    0.107247
  16 O :   -0.253030
  17 O :   -0.288138
  18 H :    0.149821
  19 H :    0.146642
  20 H :    0.143739
  21 H :    0.134599

  Mayer bond orders larger than 0.100000
B(  0-C ,  1-N ) :   0.8923 B(  0-C ,  2-C ) :   0.9341 B(  0-C , 20-H ) :   0.9776
B(  0-C , 21-H ) :   0.9863 B(  1-N ,  7-C ) :   1.1570 B(  1-N , 12-H ) :   0.9303
B(  2-C ,  3-C ) :   0.9408 B(  2-C , 18-H ) :   0.9631 B(  2-C , 19-H ) :   0.9610
B(  3-C ,  4-H ) :   0.9308 B(  3-C ,  5-H ) :   0.9451 B(  3-C ,  6-S ) :   0.9358
B(  6-S , 15-F ) :   1.1604 B(  6-S , 16-O ) :   1.9584 B(  6-S , 17-O ) :   1.7301
B(  7-C ,  8-C ) :   1.5367 B(  7-C ,  9-N ) :   1.1861 B(  8-C , 13-H ) :   1.0101
B(  8-C , 14-H ) :   1.0139 B(  9-N , 10-H ) :   0.8498 B(  9-N , 11-H ) :   0.9328
B( 10-H , 17-O ) :   0.1188

FINAL SINGLE POINT ENERGY      -955.084941530159

DIPOLE MOMENT
-------------
                                X             Y             Z
Electronic contribution:    -16.79745      -5.25974      -0.35626
Nuclear contribution   :     16.05479       5.17692       1.74190
                        -----------------------------------------
Total Dipole Moment    :     -0.74266      -0.08282       1.38564
                        -----------------------------------------
Magnitude (a.u.)       :      1.57430
Magnitude (Debye)      :      4.00154

Rotational constants in cm-1:     0.058652     0.021107     0.018077
Rotational constants in MHz :  1758.344290   632.763813   541.920558

                             ****ORCA TERMINATED NORMALLY****
TOTAL RUN TIME: 0 days 0 hours 1 minutes 0 seconds 438 msec
