                         Program Version 5.0.0 -  RELEASE  -
|  1> !CAM-B3LYP RIJCOSX def2-TZVP def2/J TightSCF xyzfile
|  2>
|  3> *xyzfile 0 1 D3.xyz
|  4>
|  5> %MaxCore 64000
|  6>
|  7> %pal nprocs 18
|  8> end
|  9>
| 10> %scf
| 11>   MaxIter 150
| 12> end
| 13>
| 14>
| 15>                          ****END OF INPUT****

CARTESIAN COORDINATES (ANGSTROEM)
---------------------------------
  C      3.380928    2.083045   -3.350127
  N      4.535924    1.182447   -3.428518
  C      2.495557    1.816150   -2.136364
  C      1.872181    0.427903   -2.077497
  H      2.614270   -0.365825   -2.198894
  H      1.389953    0.273087   -1.112360
  S      0.579024    0.140472   -3.297943
  C      4.671956    0.122273   -4.220598
  N      5.866023   -0.507849   -4.224284
  C      3.698881   -0.312844   -4.986988
  H      2.731405   -0.050091   -4.849000
  H      3.890046   -1.055172   -5.643730
  H      5.251933    1.303459   -2.721014
  H      6.695165   -0.062322   -3.851596
  H      5.975383   -1.396884   -4.691414
  F      0.228860   -1.246868   -3.127871
  O     -0.439269    1.118966   -3.014550
  O      1.247881    0.403474   -4.595647
  H      1.697003    2.561969   -2.141109
  H      3.080787    1.987436   -1.225838
  H      2.806463    1.986511   -4.268484
  H      3.778714    3.098282   -3.307383

 Total Charge           Charge          ....    0
 Multiplicity           Mult            ....    1
 Number of Electrons    NEL             ....   96
 Basis Dimension        Dim             ....  413

ORBITAL ENERGIES
----------------

  NO   OCC          E(Eh)            E(eV)
   0   2.0000     -89.179476     -2426.6969
   1   2.0000     -24.881003      -677.0465
   2   2.0000     -19.213527      -522.8267
   3   2.0000     -19.197562      -522.3922
   4   2.0000     -14.387884      -391.5142
   5   2.0000     -14.377533      -391.2326
   6   2.0000     -10.300562      -280.2925
   7   2.0000     -10.280457      -279.7455
   8   2.0000     -10.279275      -279.7133
   9   2.0000     -10.271333      -279.4972
  10   2.0000     -10.128920      -275.6219
  11   2.0000      -8.223494      -223.7727
  12   2.0000      -6.191249      -168.4724
  13   2.0000      -6.184759      -168.2959
  14   2.0000      -6.184641      -168.2926
  15   2.0000      -1.471026       -40.0287
  16   2.0000      -1.193268       -32.4705
  17   2.0000      -1.093474       -29.7550
  18   2.0000      -1.043135       -28.3851
  19   2.0000      -0.960450       -26.1352
  20   2.0000      -0.905614       -24.6430
  21   2.0000      -0.833925       -22.6923
  22   2.0000      -0.795681       -21.6516
  23   2.0000      -0.773715       -21.0539
  24   2.0000      -0.719965       -19.5912
  25   2.0000      -0.667165       -18.1545
  26   2.0000      -0.662367       -18.0239
  27   2.0000      -0.646842       -17.6015
  28   2.0000      -0.627190       -17.0667
  29   2.0000      -0.608498       -16.5581
  30   2.0000      -0.586981       -15.9726
  31   2.0000      -0.564787       -15.3686
  32   2.0000      -0.560813       -15.2605
  33   2.0000      -0.524914       -14.2836
  34   2.0000      -0.519985       -14.1495
  35   2.0000      -0.515165       -14.0183
  36   2.0000      -0.474273       -12.9056
  37   2.0000      -0.465995       -12.6804
  38   2.0000      -0.458673       -12.4811
  39   2.0000      -0.448080       -12.1929
  40   2.0000      -0.444471       -12.0947
  41   2.0000      -0.435016       -11.8374
  42   2.0000      -0.415675       -11.3111
  43   2.0000      -0.401886       -10.9359
  44   2.0000      -0.383929       -10.4472
  45   2.0000      -0.346493        -9.4286
  46   2.0000      -0.310602        -8.4519
  47   2.0000      -0.218152        -5.9362
  48   0.0000       0.053762         1.4630
  49   0.0000       0.070118         1.9080
  50   0.0000       0.076323         2.0768
  51   0.0000       0.097881         2.6635
  52   0.0000       0.106517         2.8985

MULLIKEN ATOMIC CHARGES
-----------------------
   0 C :   -0.186213
   1 N :   -0.351969
   2 C :   -0.199498
   3 C :   -0.297669
   4 H :    0.179379
   5 H :    0.152324
   6 S :    0.875014
   7 C :    0.438103
   8 N :   -0.514216
   9 C :   -0.590296
  10 H :    0.140762
  11 H :    0.074215
  12 H :    0.183794
  13 H :    0.208266
  14 H :    0.236571
  15 F :   -0.097895
  16 O :   -0.406240
  17 O :   -0.424667
  18 H :    0.137448
  19 H :    0.116176
  20 H :    0.203043
  21 H :    0.123569
Sum of atomic charges:   -0.0000000

LOEWDIN ATOMIC CHARGES
----------------------
   0 C :   -0.268257
   1 N :    0.106907
   2 C :   -0.281332
   3 C :   -0.367441
   4 H :    0.147675
   5 H :    0.139012
   6 S :    0.556597
   7 C :   -0.476753
   8 N :   -0.035765
   9 C :   -0.335462
  10 H :    0.078644
  11 H :    0.095187
  12 H :    0.173138
  13 H :    0.153748
  14 H :    0.171405
  15 F :    0.102690
  16 O :   -0.265532
  17 O :   -0.271774
  18 H :    0.149894
  19 H :    0.142987
  20 H :    0.151527
  21 H :    0.132904

  Mayer bond orders larger than 0.100000
B(  0-C ,  1-N ) :   0.8660 B(  0-C ,  2-C ) :   0.9493 B(  0-C , 20-H ) :   0.9712
B(  0-C , 21-H ) :   0.9854 B(  1-N ,  7-C ) :   1.1292 B(  1-N , 12-H ) :   0.9352
B(  2-C ,  3-C ) :   0.9491 B(  2-C , 18-H ) :   0.9639 B(  2-C , 19-H ) :   0.9634
B(  3-C ,  4-H ) :   0.9364 B(  3-C ,  5-H ) :   0.9451 B(  3-C ,  6-S ) :   0.9315
B(  6-S , 15-F ) :   1.1502 B(  6-S , 16-O ) :   1.9421 B(  6-S , 17-O ) :   1.7931
B(  7-C ,  8-N ) :   1.0625 B(  7-C ,  9-C ) :   1.6036 B(  8-N , 13-H ) :   0.9323
B(  8-N , 14-H ) :   0.9283 B(  9-C , 10-H ) :   1.0037 B(  9-C , 11-H ) :   1.0171

FINAL SINGLE POINT ENERGY      -955.067966991092

DIPOLE MOMENT
-------------
                                X             Y             Z
Electronic contribution:    -14.65740      -5.50635       0.09270
Nuclear contribution   :     15.84345       5.19593       1.66752
                        -----------------------------------------
Total Dipole Moment    :      1.18605      -0.31041       1.76022
                        -----------------------------------------
Magnitude (a.u.)       :      2.14510
Magnitude (Debye)      :      5.45240

Rotational constants in cm-1:     0.059060     0.020573     0.017713
Rotational constants in MHz :  1770.576058   616.749938   531.036486

                             ****ORCA TERMINATED NORMALLY****
TOTAL RUN TIME: 0 days 0 hours 0 minutes 45 seconds 564 msec
