                         Program Version 5.0.0 -  RELEASE  -
|  1> !CAM-B3LYP RIJCOSX def2-TZVP def2/J TightSCF xyzfile
|  2>
|  3> *xyzfile 0 1 D5.xyz
|  4>
|  5> %MaxCore 64000
|  6>
|  7> %pal nprocs 18
|  8> end
|  9>
| 10> %scf
| 11>   MaxIter 150
| 12> end
| 13>
| 14>
| 15>                          ****END OF INPUT****

CARTESIAN COORDINATES (ANGSTROEM)
---------------------------------
  C      3.380928    2.083045   -3.350127
  N      4.535924    1.182447   -3.428518
  C      2.495557    1.816150   -2.136364
  C      1.872181    0.427903   -2.077497
  H      2.614270   -0.365825   -2.198894
  H      1.389953    0.273087   -1.112360
  S      0.579024    0.140472   -3.297943
  C      4.671956    0.122273   -4.220598
  C      5.866023   -0.507849   -4.224284
  N      3.698881   -0.312844   -4.986988
  H      2.731405   -0.050091   -4.849000
  H      3.890046   -1.055172   -5.643730
  H      5.251933    1.303459   -2.721014
  H      6.695165   -0.062322   -3.851596
  H      5.975383   -1.396884   -4.691414
  O      0.228860   -1.246868   -3.127871
  F     -0.439269    1.118966   -3.014550
  O      1.247881    0.403474   -4.595647
  H      1.697003    2.561969   -2.141109
  H      3.080787    1.987436   -1.225838
  H      2.806463    1.986511   -4.268484
  H      3.778714    3.098282   -3.307383

 Total Charge           Charge          ....    0
 Multiplicity           Mult            ....    1
 Number of Electrons    NEL             ....   96
 Basis Dimension        Dim             ....  413

ORBITAL ENERGIES
----------------

  NO   OCC          E(Eh)            E(eV)
   0   2.0000     -89.202065     -2427.3116
   1   2.0000     -24.901416      -677.6020
   2   2.0000     -19.233474      -523.3694
   3   2.0000     -19.227797      -523.2149
   4   2.0000     -14.388861      -391.5408
   5   2.0000     -14.358828      -390.7236
   6   2.0000     -10.315363      -280.6953
   7   2.0000     -10.288700      -279.9698
   8   2.0000     -10.283630      -279.8318
   9   2.0000     -10.282997      -279.8146
  10   2.0000     -10.140366      -275.9334
  11   2.0000      -8.246009      -224.3853
  12   2.0000      -6.213810      -169.0864
  13   2.0000      -6.207558      -168.9162
  14   2.0000      -6.206849      -168.8969
  15   2.0000      -1.491811       -40.5942
  16   2.0000      -1.215239       -33.0683
  17   2.0000      -1.119405       -30.4606
  18   2.0000      -1.044728       -28.4285
  19   2.0000      -0.962098       -26.1800
  20   2.0000      -0.921708       -25.0810
  21   2.0000      -0.850741       -23.1498
  22   2.0000      -0.808476       -21.9997
  23   2.0000      -0.768167       -20.9029
  24   2.0000      -0.714572       -19.4445
  25   2.0000      -0.690154       -18.7800
  26   2.0000      -0.687420       -18.7056
  27   2.0000      -0.669248       -18.2112
  28   2.0000      -0.648509       -17.6468
  29   2.0000      -0.613301       -16.6888
  30   2.0000      -0.580931       -15.8079
  31   2.0000      -0.569171       -15.4879
  32   2.0000      -0.558486       -15.1972
  33   2.0000      -0.549980       -14.9657
  34   2.0000      -0.531371       -14.4593
  35   2.0000      -0.520055       -14.1514
  36   2.0000      -0.489207       -13.3120
  37   2.0000      -0.481852       -13.1119
  38   2.0000      -0.475445       -12.9375
  39   2.0000      -0.458966       -12.4891
  40   2.0000      -0.449518       -12.2320
  41   2.0000      -0.432220       -11.7613
  42   2.0000      -0.419982       -11.4283
  43   2.0000      -0.408954       -11.1282
  44   2.0000      -0.405356       -11.0303
  45   2.0000      -0.399290       -10.8652
  46   2.0000      -0.310267        -8.4428
  47   2.0000      -0.206962        -5.6317
  48   0.0000       0.040910         1.1132
  49   0.0000       0.060480         1.6457
  50   0.0000       0.083390         2.2691
  51   0.0000       0.087105         2.3702
  52   0.0000       0.091292         2.4842

MULLIKEN ATOMIC CHARGES
-----------------------
   0 C :   -0.219074
   1 N :   -0.323534
   2 C :   -0.186897
   3 C :   -0.322709
   4 H :    0.204028
   5 H :    0.161887
   6 S :    0.886949
   7 C :    0.395384
   8 C :   -0.607971
   9 N :   -0.477891
  10 H :    0.261921
  11 H :    0.227779
  12 H :    0.215796
  13 H :    0.091274
  14 H :    0.084376
  15 O :   -0.386461
  16 F :   -0.094835
  17 O :   -0.467782
  18 H :    0.115542
  19 H :    0.126224
  20 H :    0.186002
  21 H :    0.129992
Sum of atomic charges:    0.0000000

LOEWDIN ATOMIC CHARGES
----------------------
   0 C :   -0.287721
   1 N :    0.115767
   2 C :   -0.292969
   3 C :   -0.361586
   4 H :    0.161393
   5 H :    0.142804
   6 S :    0.562697
   7 C :   -0.474212
   8 C :   -0.374423
   9 N :    0.005614
  10 H :    0.129300
  11 H :    0.176846
  12 H :    0.191638
  13 H :    0.090027
  14 H :    0.090745
  15 O :   -0.250371
  16 F :    0.107135
  17 O :   -0.293243
  18 H :    0.139586
  19 H :    0.145491
  20 H :    0.141730
  21 H :    0.133753

  Mayer bond orders larger than 0.100000
B(  0-C ,  1-N ) :   0.8979 B(  0-C ,  2-C ) :   0.9188 B(  0-C , 20-H ) :   0.9781
B(  0-C , 21-H ) :   0.9863 B(  1-N ,  7-C ) :   1.1525 B(  1-N , 12-H ) :   0.9302
B(  2-C ,  3-C ) :   0.9242 B(  2-C , 18-H ) :   0.9737 B(  2-C , 19-H ) :   0.9615
B(  3-C ,  4-H ) :   0.9324 B(  3-C ,  5-H ) :   0.9542 B(  3-C ,  6-S ) :   0.9321
B(  6-S , 15-O ) :   1.9766 B(  6-S , 16-F ) :   1.1526 B(  6-S , 17-O ) :   1.7314
B(  7-C ,  8-C ) :   1.5370 B(  7-C ,  9-N ) :   1.1933 B(  8-C , 13-H ) :   1.0094
B(  8-C , 14-H ) :   1.0136 B(  9-N , 10-H ) :   0.8573 B(  9-N , 11-H ) :   0.9323

FINAL SINGLE POINT ENERGY      -955.083945432066

DIPOLE MOMENT
-------------
                                X             Y             Z
Electronic contribution:    -17.92077      -1.18368      -0.16702
Nuclear contribution   :     16.78714       2.58368       1.61768
                        -----------------------------------------
Total Dipole Moment    :     -1.13363       1.40000       1.45067
                        -----------------------------------------
Magnitude (a.u.)       :      2.31291
Magnitude (Debye)      :      5.87895

Rotational constants in cm-1:     0.059928     0.020911     0.017993
Rotational constants in MHz :  1796.610847   626.896941   539.414615

                             ****ORCA TERMINATED NORMALLY****
TOTAL RUN TIME: 0 days 0 hours 0 minutes 48 seconds 359 msec
