                         Program Version 5.0.0 -  RELEASE  -
|  1> !LC-PBE RIJCOSX def2-TZVP def2/J TightSCF
|  2> *xyz -1 1
|  3> C         -0.91495        0.61511        2.50554
|  4> C         -0.05915        1.50352        3.41058
|  5> H          0.36536        2.34431        2.86116
|  6> H         -0.69226        1.92021        4.19898
|  7> C          1.08303        0.74964        4.08571
|  8> O          2.22817        1.26348        4.01983
|  9> O          0.81003       -0.34541        4.63627
| 10> H         -0.30401        0.20228        1.73015
| 11> H         -1.69811        1.19946        2.06954
| 12> H         -1.34124       -0.17772        3.08397
| 13> *
| 14>
| 15> %MaxCore 64000
| 16>
| 17> %pal nprocs 4
| 18> end
| 19>
| 20> %scf
| 21>   MaxIter 150
| 22> end
| 23>
| 24>
| 25>                          ****END OF INPUT****

CARTESIAN COORDINATES (ANGSTROEM)
---------------------------------
  C     -0.914950    0.615110    2.505540
  C     -0.059150    1.503520    3.410580
  H      0.365360    2.344310    2.861160
  H     -0.692260    1.920210    4.198980
  C      1.083030    0.749640    4.085710
  O      2.228170    1.263480    4.019830
  O      0.810030   -0.345410    4.636270
  H     -0.304010    0.202280    1.730150
  H     -1.698110    1.199460    2.069540
  H     -1.341240   -0.177720    3.083970

 Total Charge           Charge          ....   -1
 Multiplicity           Mult            ....    1
 Number of Electrons    NEL             ....   40
 Basis Dimension        Dim             ....  185

ORBITAL ENERGIES
----------------

  NO   OCC          E(Eh)            E(eV)
   0   2.0000     -18.699128      -508.8291
   1   2.0000     -18.698196      -508.8038
   2   2.0000      -9.994571      -271.9661
   3   2.0000      -9.947339      -270.6809
   4   2.0000      -9.937614      -270.4162
   5   2.0000      -0.980561       -26.6824
   6   2.0000      -0.877731       -23.8843
   7   2.0000      -0.780690       -21.2436
   8   2.0000      -0.636816       -17.3287
   9   2.0000      -0.467043       -12.7089
  10   2.0000      -0.436927       -11.8894
  11   2.0000      -0.399926       -10.8825
  12   2.0000      -0.369769       -10.0619
  13   2.0000      -0.350120        -9.5272
  14   2.0000      -0.341781        -9.3003
  15   2.0000      -0.308904        -8.4057
  16   2.0000      -0.292859        -7.9691
  17   2.0000      -0.169812        -4.6208
  18   2.0000      -0.165946        -4.5156
  19   2.0000      -0.155272        -4.2252
  20   0.0000       0.265430         7.2227
  21   0.0000       0.308018         8.3816
  22   0.0000       0.328807         8.9473
  23   0.0000       0.331525         9.0213
  24   0.0000       0.349916         9.5217

MULLIKEN ATOMIC CHARGES
-----------------------
   0 C :   -0.419370
   1 C :   -0.228428
   2 H :    0.091126
   3 H :    0.079865
   4 C :    0.152119
   5 O :   -0.512142
   6 O :   -0.514039
   7 H :    0.121639
   8 H :    0.090346
   9 H :    0.138885
Sum of atomic charges:   -1.0000000

LOEWDIN ATOMIC CHARGES
----------------------
   0 C :   -0.346220
   1 C :   -0.305770
   2 H :    0.129028
   3 H :    0.131972
   4 C :   -0.711923
   5 O :   -0.119912
   6 O :   -0.116241
   7 H :    0.116648
   8 H :    0.101248
   9 H :    0.121171

  Mayer bond orders larger than 0.100000
B(  0-C ,  1-C ) :   0.9427 B(  0-C ,  7-H ) :   0.9804 B(  0-C ,  8-H ) :   0.9791
B(  0-C ,  9-H ) :   0.9693 B(  1-C ,  2-H ) :   0.9697 B(  1-C ,  3-H ) :   0.9677
B(  1-C ,  4-C ) :   0.9466 B(  4-C ,  5-O ) :   1.8993 B(  4-C ,  6-O ) :   1.8562

FINAL SINGLE POINT ENERGY      -267.153025770231

DIPOLE MOMENT
-------------
                                X             Y             Z
Electronic contribution:      4.70794      -0.98142       3.34605
Nuclear contribution   :     -6.38408       1.63097      -4.40540
                        -----------------------------------------
Total Dipole Moment    :     -1.67614       0.64955      -1.05935
                        -----------------------------------------
Magnitude (a.u.)       :      2.08652
Magnitude (Debye)      :      5.30352

Rotational constants in cm-1:     0.319732     0.134414     0.104753
Rotational constants in MHz :  9585.336550  4029.633034  3140.404334

                             ****ORCA TERMINATED NORMALLY****
TOTAL RUN TIME: 0 days 0 hours 0 minutes 26 seconds 723 msec
