                         Program Version 5.0.0 -  RELEASE  -
|  1> !LC-PBE RIJCOSX def2-TZVP def2/J TightSCF
|  2> *xyz 1 1
|  3> C          4.60295       -2.44010        2.63478
|  4> C          3.86085       -1.59157        3.62289
|  5> N          2.75650       -2.04616        4.16633
|  6> N          4.25433       -0.36291        3.86046
|  7> H          3.56526        0.31099        4.16898
|  8> H          5.05429       -0.01606        3.33784
|  9> H          2.43970       -2.97389        3.89740
| 10> H          2.06687       -1.41253        4.54981
| 11> C          3.74469       -2.58056        1.36188
| 12> H          5.56156       -1.97135        2.40708
| 13> H          4.81050       -3.42255        3.06310
| 14> H          4.26314       -3.18477        0.64702
| 15> H          3.56325       -1.61180        0.94535
| 16> H          2.81197       -3.04259        1.60980
| 17> *
| 18>
| 19> %MaxCore 64000
| 20>
| 21> %pal nprocs 4
| 22> end
| 23>
| 24> %scf
| 25>   MaxIter 150
| 26> end
| 27>
| 28>
| 29>                          ****END OF INPUT****

CARTESIAN COORDINATES (ANGSTROEM)
---------------------------------
  C      4.602950   -2.440100    2.634780
  C      3.860850   -1.591570    3.622890
  N      2.756500   -2.046160    4.166330
  N      4.254330   -0.362910    3.860460
  H      3.565260    0.310990    4.168980
  H      5.054290   -0.016060    3.337840
  H      2.439700   -2.973890    3.897400
  H      2.066870   -1.412530    4.549810
  C      3.744690   -2.580560    1.361880
  H      5.561560   -1.971350    2.407080
  H      4.810500   -3.422550    3.063100
  H      4.263140   -3.184770    0.647020
  H      3.563250   -1.611800    0.945350
  H      2.811970   -3.042590    1.609800

 Total Charge           Charge          ....    1
 Multiplicity           Mult            ....    1
 Number of Electrons    NEL             ....   40
 Basis Dimension        Dim             ....  209

ORBITAL ENERGIES
----------------

  NO   OCC          E(Eh)            E(eV)
   0   2.0000     -14.460329      -393.4856
   1   2.0000     -14.459462      -393.4620
   2   2.0000     -10.447803      -284.2992
   3   2.0000     -10.318951      -280.7929
   4   2.0000     -10.274530      -279.5842
   5   2.0000      -1.388390       -37.7800
   6   2.0000      -1.280827       -34.8531
   7   2.0000      -1.150877       -31.3170
   8   2.0000      -1.025051       -27.8931
   9   2.0000      -0.975714       -26.5505
  10   2.0000      -0.922376       -25.0991
  11   2.0000      -0.904711       -24.6184
  12   2.0000      -0.837124       -22.7793
  13   2.0000      -0.815818       -22.1995
  14   2.0000      -0.769748       -20.9459
  15   2.0000      -0.744513       -20.2592
  16   2.0000      -0.684193       -18.6178
  17   2.0000      -0.676640       -18.4123
  18   2.0000      -0.662328       -18.0229
  19   2.0000      -0.627162       -17.0659
  20   0.0000      -0.121222        -3.2986
  21   0.0000      -0.071802        -1.9538
  22   0.0000      -0.027646        -0.7523
  23   0.0000      -0.026945        -0.7332
  24   0.0000       0.007821         0.2128

MULLIKEN ATOMIC CHARGES
-----------------------
   0 C :   -0.362329
   1 C :    0.296325
   2 N :   -0.348852
   3 N :   -0.341537
   4 H :    0.299649
   5 H :    0.317207
   6 H :    0.320760
   7 H :    0.303340
   8 C :   -0.431051
   9 H :    0.183394
  10 H :    0.223305
  11 H :    0.205968
  12 H :    0.175853
  13 H :    0.157968
Sum of atomic charges:    1.0000000

LOEWDIN ATOMIC CHARGES
----------------------
   0 C :   -0.233480
   1 C :   -0.298357
   2 N :    0.107617
   3 N :    0.105972
   4 H :    0.206538
   5 H :    0.215607
   6 H :    0.215589
   7 H :    0.205894
   8 C :   -0.279760
   9 H :    0.166273
  10 H :    0.175234
  11 H :    0.146710
  12 H :    0.136801
  13 H :    0.129364

  Mayer bond orders larger than 0.100000
B(  0-C ,  1-C ) :   0.9748 B(  0-C ,  8-C ) :   0.9245 B(  0-C ,  9-H ) :   0.9664
B(  0-C , 10-H ) :   0.9436 B(  1-C ,  2-N ) :   1.4356 B(  1-C ,  3-N ) :   1.4555
B(  2-N ,  6-H ) :   0.8837 B(  2-N ,  7-H ) :   0.8864 B(  3-N ,  4-H ) :   0.8870
B(  3-N ,  5-H ) :   0.8810 B(  8-C , 11-H ) :   0.9611 B(  8-C , 12-H ) :   0.9524
B(  8-C , 13-H ) :   0.9672

FINAL SINGLE POINT ENERGY      -228.363167195798

DIPOLE MOMENT
-------------
                                X             Y             Z
Electronic contribution:     -0.24064       1.79938       3.72364
Nuclear contribution   :     -0.22400      -1.16268      -3.30447
                        -----------------------------------------
Total Dipole Moment    :     -0.46464       0.63671       0.41917
                        -----------------------------------------
Magnitude (a.u.)       :      0.89274
Magnitude (Debye)      :      2.26917

Rotational constants in cm-1:     0.258103     0.130571     0.102508
Rotational constants in MHz :  7737.732062  3914.431392  3073.119154

                             ****ORCA TERMINATED NORMALLY****
TOTAL RUN TIME: 0 days 0 hours 0 minutes 28 seconds 727 msec
