                         Program Version 5.0.0 -  RELEASE  -
|  1> !LC-PBE RIJCOSX def2-TZVP def2/J TightSCF
|  2> *xyz 0 1
|  3> C         -0.91495        0.61511        2.50554
|  4> C         -0.05915        1.50352        3.41058
|  5> H          0.36536        2.34431        2.86116
|  6> H         -0.69226        1.92021        4.19898
|  7> C          1.08303        0.74964        4.08571
|  8> F          2.22817        1.26348        4.01983
|  9> O          0.81003       -0.34541        4.63627
| 10> H         -0.30401        0.20228        1.73015
| 11> H         -1.69811        1.19946        2.06954
| 12> H         -1.34124       -0.17772        3.08397
| 13> *
| 14>
| 15> %MaxCore 64000
| 16>
| 17> %pal nprocs 4
| 18> end
| 19>
| 20> %scf
| 21>   MaxIter 150
| 22> end
| 23>
| 24>
| 25>                          ****END OF INPUT****

CARTESIAN COORDINATES (ANGSTROEM)
---------------------------------
  C     -0.914950    0.615110    2.505540
  C     -0.059150    1.503520    3.410580
  H      0.365360    2.344310    2.861160
  H     -0.692260    1.920210    4.198980
  C      1.083030    0.749640    4.085710
  F      2.228170    1.263480    4.019830
  O      0.810030   -0.345410    4.636270
  H     -0.304010    0.202280    1.730150
  H     -1.698110    1.199460    2.069540
  H     -1.341240   -0.177720    3.083970

 Total Charge           Charge          ....    0
 Multiplicity           Mult            ....    1
 Number of Electrons    NEL             ....   40
 Basis Dimension        Dim             ....  185

ORBITAL ENERGIES
----------------

  NO   OCC          E(Eh)            E(eV)
   0   2.0000     -24.560826      -668.3341
   1   2.0000     -18.983222      -516.5597
   2   2.0000     -10.301478      -280.3175
   3   2.0000     -10.149588      -276.1843
   4   2.0000     -10.117110      -275.3006
   5   2.0000      -1.477285       -40.1990
   6   2.0000      -1.199350       -32.6360
   7   2.0000      -0.980598       -26.6834
   8   2.0000      -0.856592       -23.3090
   9   2.0000      -0.796405       -21.6713
  10   2.0000      -0.706230       -19.2175
  11   2.0000      -0.689794       -18.7702
  12   2.0000      -0.660041       -17.9606
  13   2.0000      -0.611940       -16.6517
  14   2.0000      -0.577415       -15.7122
  15   2.0000      -0.535820       -14.5804
  16   2.0000      -0.513188       -13.9645
  17   2.0000      -0.508287       -13.8312
  18   2.0000      -0.481450       -13.1009
  19   2.0000      -0.431173       -11.7328
  20   0.0000       0.069209         1.8833
  21   0.0000       0.119432         3.2499
  22   0.0000       0.158103         4.3022
  23   0.0000       0.173564         4.7229
  24   0.0000       0.184619         5.0237

MULLIKEN ATOMIC CHARGES
-----------------------
   0 C :   -0.443575
   1 C :   -0.290541
   2 H :    0.151471
   3 H :    0.164686
   4 C :    0.314874
   5 F :   -0.069891
   6 O :   -0.306308
   7 H :    0.151260
   8 H :    0.153555
   9 H :    0.174469
Sum of atomic charges:    0.0000000

LOEWDIN ATOMIC CHARGES
----------------------
   0 C :   -0.308638
   1 C :   -0.277490
   2 H :    0.148015
   3 H :    0.164127
   4 C :   -0.511214
   5 F :    0.332127
   6 O :    0.064484
   7 H :    0.128050
   8 H :    0.126596
   9 H :    0.133942

  Mayer bond orders larger than 0.100000
B(  0-C ,  1-C ) :   0.9614 B(  0-C ,  7-H ) :   0.9713 B(  0-C ,  8-H ) :   0.9712
B(  0-C ,  9-H ) :   0.9613 B(  1-C ,  2-H ) :   0.9650 B(  1-C ,  3-H ) :   0.9397
B(  1-C ,  4-C ) :   0.9805 B(  4-C ,  5-F ) :   1.2060 B(  4-C ,  6-O ) :   2.0658

FINAL SINGLE POINT ENERGY      -291.695907169779

DIPOLE MOMENT
-------------
                                X             Y             Z
Electronic contribution:      7.72026      -0.12918       4.07507
Nuclear contribution   :     -8.12386       1.06915      -4.71960
                        -----------------------------------------
Total Dipole Moment    :     -0.40360       0.93996      -0.64453
                        -----------------------------------------
Magnitude (a.u.)       :      1.20907
Magnitude (Debye)      :      3.07320

Rotational constants in cm-1:     0.309513     0.127560     0.099675
Rotational constants in MHz :  9278.979128  3824.146597  2988.174827

                             ****ORCA TERMINATED NORMALLY****
TOTAL RUN TIME: 0 days 0 hours 0 minutes 22 seconds 730 msec
