                         Program Version 5.0.0 -  RELEASE  -
|  1> !LC-PBE RIJCOSX def2-TZVP def2/J TightSCF
|  2> *xyz 0 1
|  3> C          4.60295       -2.44010        2.63478
|  4> C          3.86085       -1.59157        3.62289
|  5> C          2.75650       -2.04616        4.16633
|  6> N          4.25433       -0.36291        3.86046
|  7> H          3.56526        0.31099        4.16898
|  8> H          5.05429       -0.01606        3.33784
|  9> H          2.43970       -2.97389        3.89740
| 10> H          2.06687       -1.41253        4.54981
| 11> C          3.74469       -2.58056        1.36188
| 12> H          5.56156       -1.97135        2.40708
| 13> H          4.81050       -3.42255        3.06310
| 14> H          4.26314       -3.18477        0.64702
| 15> H          3.56325       -1.61180        0.94535
| 16> H          2.81197       -3.04259        1.60980
| 17> *
| 18>
| 19> %MaxCore 64000
| 20>
| 21> %pal nprocs 4
| 22> end
| 23>
| 24> %scf
| 25>   MaxIter 150
| 26> end
| 27>
| 28>
| 29>                          ****END OF INPUT****

CARTESIAN COORDINATES (ANGSTROEM)
---------------------------------
  C      4.602950   -2.440100    2.634780
  C      3.860850   -1.591570    3.622890
  C      2.756500   -2.046160    4.166330
  N      4.254330   -0.362910    3.860460
  H      3.565260    0.310990    4.168980
  H      5.054290   -0.016060    3.337840
  H      2.439700   -2.973890    3.897400
  H      2.066870   -1.412530    4.549810
  C      3.744690   -2.580560    1.361880
  H      5.561560   -1.971350    2.407080
  H      4.810500   -3.422550    3.063100
  H      4.263140   -3.184770    0.647020
  H      3.563250   -1.611800    0.945350
  H      2.811970   -3.042590    1.609800

 Total Charge           Charge          ....    0
 Multiplicity           Mult            ....    1
 Number of Electrons    NEL             ....   40
 Basis Dimension        Dim             ....  209

ORBITAL ENERGIES
----------------

  NO   OCC          E(Eh)            E(eV)
   0   2.0000     -14.211814      -386.7231
   1   2.0000     -10.137559      -275.8570
   2   2.0000     -10.117862      -275.3210
   3   2.0000     -10.098476      -274.7935
   4   2.0000     -10.039847      -273.1981
   5   2.0000      -1.108727       -30.1700
   6   2.0000      -0.959787       -26.1171
   7   2.0000      -0.882181       -24.0054
   8   2.0000      -0.805140       -21.9090
   9   2.0000      -0.714098       -19.4316
  10   2.0000      -0.670890       -18.2558
  11   2.0000      -0.630070       -17.1451
  12   2.0000      -0.593280       -16.1440
  13   2.0000      -0.552414       -15.0319
  14   2.0000      -0.525625       -14.3030
  15   2.0000      -0.512890       -13.9565
  16   2.0000      -0.484280       -13.1779
  17   2.0000      -0.472930       -12.8691
  18   2.0000      -0.461932       -12.5698
  19   2.0000      -0.309128        -8.4118
  20   0.0000       0.111768         3.0414
  21   0.0000       0.125801         3.4232
  22   0.0000       0.155103         4.2206
  23   0.0000       0.159804         4.3485
  24   0.0000       0.173240         4.7141

MULLIKEN ATOMIC CHARGES
-----------------------
   0 C :   -0.314896
   1 C :    0.198050
   2 C :   -0.478057
   3 N :   -0.465418
   4 H :    0.254580
   5 H :    0.246375
   6 H :    0.119349
   7 H :    0.120547
   8 C :   -0.413395
   9 H :    0.124463
  10 H :    0.166949
  11 H :    0.143360
  12 H :    0.144081
  13 H :    0.154014
Sum of atomic charges:   -0.0000000

LOEWDIN ATOMIC CHARGES
----------------------
   0 C :   -0.251130
   1 C :   -0.382061
   2 C :   -0.287718
   3 N :   -0.009348
   4 H :    0.180242
   5 H :    0.174471
   6 H :    0.113132
   7 H :    0.104891
   8 C :   -0.308457
   9 H :    0.139409
  10 H :    0.155006
  11 H :    0.119998
  12 H :    0.124789
  13 H :    0.126777

  Mayer bond orders larger than 0.100000
B(  0-C ,  1-C ) :   0.9189 B(  0-C ,  8-C ) :   0.9361 B(  0-C ,  9-H ) :   0.9926
B(  0-C , 10-H ) :   0.9879 B(  1-C ,  2-C ) :   1.7511 B(  1-C ,  3-N ) :   1.1450
B(  2-C ,  6-H ) :   1.0012 B(  2-C ,  7-H ) :   0.9932 B(  3-N ,  4-H ) :   0.9190
B(  3-N ,  5-H ) :   0.9265 B(  8-C , 11-H ) :   0.9790 B(  8-C , 12-H ) :   0.9713
B(  8-C , 13-H ) :   0.9721

FINAL SINGLE POINT ENERGY      -211.906644429127

DIPOLE MOMENT
-------------
                                X             Y             Z
Electronic contribution:      0.82158       1.78773       2.50923
Nuclear contribution   :     -0.47010      -1.22282      -3.06417
                        -----------------------------------------
Total Dipole Moment    :      0.35148       0.56491      -0.55493
                        -----------------------------------------
Magnitude (a.u.)       :      0.86638
Magnitude (Debye)      :      2.20217

Rotational constants in cm-1:     0.271862     0.131962     0.105499
Rotational constants in MHz :  8150.219120  3956.123671  3162.785522

                             ****ORCA TERMINATED NORMALLY****
TOTAL RUN TIME: 0 days 0 hours 0 minutes 29 seconds 383 msec
