                         Program Version 5.0.0 -  RELEASE  -
|  1> !LC-PBE RIJCOSX def2-TZVP def2/J TightSCF
|  2> *xyz 0 1
|  3> C         -0.91495        0.61511        2.50554
|  4> C         -0.05915        1.50352        3.41058
|  5> H          0.36536        2.34431        2.86116
|  6> H         -0.69226        1.92021        4.19898
|  7> C          1.08303        0.74964        4.08571
|  8> O          2.22817        1.26348        4.01983
|  9> F          0.81003       -0.34541        4.63627
| 10> H         -0.30401        0.20228        1.73015
| 11> H         -1.69811        1.19946        2.06954
| 12> H         -1.34124       -0.17772        3.08397
| 13> *
| 14>
| 15> %MaxCore 64000
| 16>
| 17> %pal nprocs 4
| 18> end
| 19>
| 20> %scf
| 21>   MaxIter 150
| 22> end
| 23>
| 24>
| 25>                          ****END OF INPUT****

CARTESIAN COORDINATES (ANGSTROEM)
---------------------------------
  C     -0.914950    0.615110    2.505540
  C     -0.059150    1.503520    3.410580
  H      0.365360    2.344310    2.861160
  H     -0.692260    1.920210    4.198980
  C      1.083030    0.749640    4.085710
  O      2.228170    1.263480    4.019830
  F      0.810030   -0.345410    4.636270
  H     -0.304010    0.202280    1.730150
  H     -1.698110    1.199460    2.069540
  H     -1.341240   -0.177720    3.083970

 Total Charge           Charge          ....    0
 Multiplicity           Mult            ....    1
 Number of Electrons    NEL             ....   40
 Basis Dimension        Dim             ....  185

ORBITAL ENERGIES
----------------

  NO   OCC          E(Eh)            E(eV)
   0   2.0000     -24.561866      -668.3624
   1   2.0000     -18.982167      -516.5310
   2   2.0000     -10.300731      -280.2971
   3   2.0000     -10.148973      -276.1676
   4   2.0000     -10.122891      -275.4579
   5   2.0000      -1.478599       -40.2347
   6   2.0000      -1.197374       -32.5822
   7   2.0000      -0.985231       -26.8095
   8   2.0000      -0.851864       -23.1804
   9   2.0000      -0.803956       -21.8768
  10   2.0000      -0.708815       -19.2878
  11   2.0000      -0.697441       -18.9783
  12   2.0000      -0.649405       -17.6712
  13   2.0000      -0.612783       -16.6747
  14   2.0000      -0.577442       -15.7130
  15   2.0000      -0.542155       -14.7528
  16   2.0000      -0.521484       -14.1903
  17   2.0000      -0.511293       -13.9130
  18   2.0000      -0.483680       -13.1616
  19   2.0000      -0.425254       -11.5718
  20   0.0000       0.072529         1.9736
  21   0.0000       0.114736         3.1221
  22   0.0000       0.156808         4.2670
  23   0.0000       0.175477         4.7750
  24   0.0000       0.186422         5.0728

MULLIKEN ATOMIC CHARGES
-----------------------
   0 C :   -0.447633
   1 C :   -0.286447
   2 H :    0.174022
   3 H :    0.156619
   4 C :    0.305882
   5 O :   -0.304641
   6 F :   -0.071229
   7 H :    0.159261
   8 H :    0.158275
   9 H :    0.155893
Sum of atomic charges:    0.0000000

LOEWDIN ATOMIC CHARGES
----------------------
   0 C :   -0.316746
   1 C :   -0.272695
   2 H :    0.160759
   3 H :    0.159017
   4 C :   -0.513173
   5 O :    0.060184
   6 F :    0.337091
   7 H :    0.129226
   8 H :    0.128711
   9 H :    0.127627

  Mayer bond orders larger than 0.100000
B(  0-C ,  1-C ) :   0.9485 B(  0-C ,  7-H ) :   0.9682 B(  0-C ,  8-H ) :   0.9713
B(  0-C ,  9-H ) :   0.9651 B(  1-C ,  2-H ) :   0.9635 B(  1-C ,  3-H ) :   0.9432
B(  1-C ,  4-C ) :   0.9948 B(  4-C ,  5-O ) :   2.0854 B(  4-C ,  6-F ) :   1.1940

FINAL SINGLE POINT ENERGY      -291.694950441873

DIPOLE MOMENT
-------------
                                X             Y             Z
Electronic contribution:      5.30656      -2.82946       5.09553
Nuclear contribution   :     -6.57765       2.82334      -5.39171
                        -----------------------------------------
Total Dipole Moment    :     -1.27109      -0.00612      -0.29618
                        -----------------------------------------
Magnitude (a.u.)       :      1.30516
Magnitude (Debye)      :      3.31744

Rotational constants in cm-1:     0.294245     0.132994     0.101060
Rotational constants in MHz :  8821.228602  3987.049251  3029.696815

                             ****ORCA TERMINATED NORMALLY****
TOTAL RUN TIME: 0 days 0 hours 0 minutes 21 seconds 422 msec
