                         Program Version 5.0.0 -  RELEASE  -
|  1> !LC-PBE RIJCOSX def2-TZVP def2/J TightSCF
|  2> *xyz 0 1
|  3> C          4.60295       -2.44010        2.63478
|  4> C          3.86085       -1.59157        3.62289
|  5> N          2.75650       -2.04616        4.16633
|  6> C          4.25433       -0.36291        3.86046
|  7> H          3.56526        0.31099        4.16898
|  8> H          5.05429       -0.01606        3.33784
|  9> H          2.43970       -2.97389        3.89740
| 10> H          2.06687       -1.41253        4.54981
| 11> C          3.74469       -2.58056        1.36188
| 12> H          5.56156       -1.97135        2.40708
| 13> H          4.81050       -3.42255        3.06310
| 14> H          4.26314       -3.18477        0.64702
| 15> H          3.56325       -1.61180        0.94535
| 16> H          2.81197       -3.04259        1.60980
| 17> *
| 18>
| 19> %MaxCore 64000
| 20>
| 21> %pal nprocs 4
| 22> end
| 23>
| 24> %scf
| 25>   MaxIter 150
| 26> end
| 27>
| 28>
| 29>                          ****END OF INPUT****

CARTESIAN COORDINATES (ANGSTROEM)
---------------------------------
  C      4.602950   -2.440100    2.634780
  C      3.860850   -1.591570    3.622890
  N      2.756500   -2.046160    4.166330
  C      4.254330   -0.362910    3.860460
  H      3.565260    0.310990    4.168980
  H      5.054290   -0.016060    3.337840
  H      2.439700   -2.973890    3.897400
  H      2.066870   -1.412530    4.549810
  C      3.744690   -2.580560    1.361880
  H      5.561560   -1.971350    2.407080
  H      4.810500   -3.422550    3.063100
  H      4.263140   -3.184770    0.647020
  H      3.563250   -1.611800    0.945350
  H      2.811970   -3.042590    1.609800

 Total Charge           Charge          ....    0
 Multiplicity           Mult            ....    1
 Number of Electrons    NEL             ....   40
 Basis Dimension        Dim             ....  209

ORBITAL ENERGIES
----------------

  NO   OCC          E(Eh)            E(eV)
   0   2.0000     -14.211955      -386.7269
   1   2.0000     -10.138560      -275.8842
   2   2.0000     -10.117483      -275.3107
   3   2.0000     -10.102422      -274.9009
   4   2.0000     -10.041219      -273.2355
   5   2.0000      -1.108672       -30.1685
   6   2.0000      -0.957427       -26.0529
   7   2.0000      -0.891225       -24.2515
   8   2.0000      -0.799881       -21.7659
   9   2.0000      -0.721496       -19.6329
  10   2.0000      -0.672765       -18.3069
  11   2.0000      -0.625199       -17.0125
  12   2.0000      -0.581524       -15.8241
  13   2.0000      -0.572313       -15.5734
  14   2.0000      -0.523873       -14.2553
  15   2.0000      -0.516587       -14.0571
  16   2.0000      -0.486990       -13.2517
  17   2.0000      -0.473279       -12.8786
  18   2.0000      -0.456210       -12.4141
  19   2.0000      -0.311749        -8.4831
  20   0.0000       0.109499         2.9796
  21   0.0000       0.129070         3.5122
  22   0.0000       0.158936         4.3249
  23   0.0000       0.160033         4.3547
  24   0.0000       0.168488         4.5848

MULLIKEN ATOMIC CHARGES
-----------------------
   0 C :   -0.316012
   1 C :    0.183255
   2 N :   -0.468814
   3 C :   -0.453565
   4 H :    0.113891
   5 H :    0.114989
   6 H :    0.250772
   7 H :    0.254910
   8 C :   -0.413614
   9 H :    0.150809
  10 H :    0.147906
  11 H :    0.150427
  12 H :    0.157796
  13 H :    0.127252
Sum of atomic charges:   -0.0000000

LOEWDIN ATOMIC CHARGES
----------------------
   0 C :   -0.251426
   1 C :   -0.383377
   2 N :   -0.005293
   3 C :   -0.288374
   4 H :    0.106000
   5 H :    0.112449
   6 H :    0.175630
   7 H :    0.179163
   8 C :   -0.312019
   9 H :    0.153919
  10 H :    0.143761
  11 H :    0.122820
  12 H :    0.128663
  13 H :    0.118084

  Mayer bond orders larger than 0.100000
B(  0-C ,  1-C ) :   0.9484 B(  0-C ,  8-C ) :   0.9251 B(  0-C ,  9-H ) :   0.9870
B(  0-C , 10-H ) :   0.9812 B(  1-C ,  2-N ) :   1.1374 B(  1-C ,  3-C ) :   1.7842
B(  2-N ,  6-H ) :   0.9301 B(  2-N ,  7-H ) :   0.9195 B(  3-C ,  4-H ) :   0.9937
B(  3-C ,  5-H ) :   0.9981 B(  8-C , 11-H ) :   0.9784 B(  8-C , 12-H ) :   0.9693
B(  8-C , 13-H ) :   0.9745

FINAL SINGLE POINT ENERGY      -211.907247600907

DIPOLE MOMENT
-------------
                                X             Y             Z
Electronic contribution:     -0.50297       0.29198       2.79842
Nuclear contribution   :     -0.12319      -0.83296      -3.13501
                        -----------------------------------------
Total Dipole Moment    :     -0.62616      -0.54099      -0.33659
                        -----------------------------------------
Magnitude (a.u.)       :      0.89333
Magnitude (Debye)      :      2.27067

Rotational constants in cm-1:     0.266453     0.134423     0.106086
Rotational constants in MHz :  7988.053142  4029.892766  3180.375228

                             ****ORCA TERMINATED NORMALLY****
TOTAL RUN TIME: 0 days 0 hours 0 minutes 31 seconds 111 msec
