                         Program Version 5.0.0 -  RELEASE  -
|  1> !LC-PBE RIJCOSX def2-TZVP def2/J TightSCF xyzfile
|  2>
|  3> *xyzfile 0 1 D1.xyz
|  4>
|  5> %MaxCore 64000
|  6>
|  7> %pal nprocs 18
|  8> end
|  9>
| 10> %scf
| 11>   MaxIter 150
| 12> end
| 13>
| 14>
| 15>                          ****END OF INPUT****

CARTESIAN COORDINATES (ANGSTROEM)
---------------------------------
  C      4.602954   -2.440100    2.634780
  C     -0.914947    0.615112    2.505538
  C     -0.059146    1.503524    3.410578
  H      0.365364    2.344315    2.861161
  H     -0.692261    1.920207    4.198985
  C      1.083027    0.749640    4.085705
  C      3.860851   -1.591565    3.622893
  C      2.756502   -2.046159    4.166333
  N      4.254325   -0.362905    3.860455
  H      3.565256    0.310994    4.168983
  H      5.054292   -0.016059    3.337838
  H      2.439696   -2.973894    3.897395
  H      2.066869   -1.412532    4.549813
  F      2.228167    1.263475    4.019826
  O      0.810034   -0.345411    4.636269
  C      3.744685   -2.580557    1.361882
  C      0.772139    0.636882    0.562129
  C     -0.130740   -0.193985    1.470763
  H     -0.840563   -0.760165    0.856377
  H      0.466691   -0.938942    2.006959
  H     -1.647961    1.245963    1.991076
  H     -1.478180   -0.081046    3.130424
  C      3.203721   -1.256004    0.826211
  H      2.898939   -3.239289    1.583074
  H      4.334962   -3.095523    0.600188
  C      2.107815   -1.442385   -0.216865
  H      2.786775   -0.672760    1.650711
  H      4.021008   -0.652993    0.414046
  C      1.390662   -0.145912   -0.602422
  H      1.372179   -2.152184    0.176151
  H      2.523302   -1.906787   -1.117115
  H      1.561361    1.100094    1.161831
  H      0.195516    1.468325    0.142758
  H      0.602893   -0.398214   -1.319716
  H      2.087247    0.508272   -1.137335
  H      5.561557   -1.971347    2.407084
  H      4.810498   -3.422552    3.063099

 Total Charge           Charge          ....    0
 Multiplicity           Mult            ....    1
 Number of Electrons    NEL             ....  118
 Basis Dimension        Dim             ....  597

ORBITAL ENERGIES
----------------

  NO   OCC          E(Eh)            E(eV)
   0   2.0000     -24.587784      -669.0676
   1   2.0000     -18.997455      -516.9470
   2   2.0000     -14.187821      -386.0702
   3   2.0000     -10.317614      -280.7565
   4   2.0000     -10.154722      -276.3240
   5   2.0000     -10.132024      -275.7064
   6   2.0000     -10.115898      -275.2676
   7   2.0000     -10.115606      -275.2596
   8   2.0000     -10.115542      -275.2579
   9   2.0000     -10.110932      -275.1324
  10   2.0000     -10.104340      -274.9531
  11   2.0000     -10.102880      -274.9133
  12   2.0000     -10.102385      -274.8999
  13   2.0000     -10.100124      -274.8383
  14   2.0000     -10.007466      -272.3170
  15   2.0000      -1.506872       -41.0041
  16   2.0000      -1.219788       -33.1921
  17   2.0000      -1.090949       -29.6862
  18   2.0000      -1.015379       -27.6299
  19   2.0000      -0.987939       -26.8832
  20   2.0000      -0.960056       -26.1244
  21   2.0000      -0.918656       -24.9979
  22   2.0000      -0.890533       -24.2326
  23   2.0000      -0.858406       -23.3584
  24   2.0000      -0.842068       -22.9138
  25   2.0000      -0.813675       -22.1412
  26   2.0000      -0.775285       -21.0966
  27   2.0000      -0.751693       -20.4546
  28   2.0000      -0.734122       -19.9765
  29   2.0000      -0.724459       -19.7135
  30   2.0000      -0.709598       -19.3091
  31   2.0000      -0.691361       -18.8129
  32   2.0000      -0.677421       -18.4336
  33   2.0000      -0.646079       -17.5807
  34   2.0000      -0.632584       -17.2135
  35   2.0000      -0.627918       -17.0865
  36   2.0000      -0.617148       -16.7935
  37   2.0000      -0.597128       -16.2487
  38   2.0000      -0.588884       -16.0244
  39   2.0000      -0.570618       -15.5273
  40   2.0000      -0.566663       -15.4197
  41   2.0000      -0.548802       -14.9337
  42   2.0000      -0.542074       -14.7506
  43   2.0000      -0.528903       -14.3922
  44   2.0000      -0.522736       -14.2244
  45   2.0000      -0.506494       -13.7824
  46   2.0000      -0.503088       -13.6897
  47   2.0000      -0.495289       -13.4775
  48   2.0000      -0.484905       -13.1949
  49   2.0000      -0.474802       -12.9200
  50   2.0000      -0.473498       -12.8845
  51   2.0000      -0.464092       -12.6286
  52   2.0000      -0.452659       -12.3175
  53   2.0000      -0.446790       -12.1578
  54   2.0000      -0.436370       -11.8742
  55   2.0000      -0.434668       -11.8279
  56   2.0000      -0.429621       -11.6906
  57   2.0000      -0.404218       -10.9993
  58   2.0000      -0.287610        -7.8263
  59   0.0000       0.051555         1.4029
  60   0.0000       0.106868         2.9080
  61   0.0000       0.123118         3.3502
  62   0.0000       0.126422         3.4401
  63   0.0000       0.132563         3.6072

MULLIKEN ATOMIC CHARGES
-----------------------
   0 C :   -0.294425
   1 C :   -0.273231
   2 C :   -0.348777
   3 H :    0.186644
   4 H :    0.191402
   5 C :    0.348152
   6 C :    0.026996
   7 C :   -0.434898
   8 N :   -0.425428
   9 H :    0.240019
  10 H :    0.239764
  11 H :    0.108505
  12 H :    0.167471
  13 F :   -0.099843
  14 O :   -0.284310
  15 C :   -0.316490
  16 C :   -0.376626
  17 C :   -0.379078
  18 H :    0.166103
  19 H :    0.209089
  20 H :    0.160830
  21 H :    0.179041
  22 C :   -0.245922
  23 H :    0.162936
  24 H :    0.140224
  25 C :   -0.346867
  26 H :    0.138875
  27 H :    0.139536
  28 C :   -0.250254
  29 H :    0.170313
  30 H :    0.153345
  31 H :    0.168906
  32 H :    0.159623
  33 H :    0.154523
  34 H :    0.148970
  35 H :    0.141926
  36 H :    0.172956
Sum of atomic charges:    0.0000000

LOEWDIN ATOMIC CHARGES
----------------------
   0 C :   -0.230431
   1 C :   -0.274008
   2 C :   -0.248993
   3 H :    0.153047
   4 H :    0.168815
   5 C :   -0.493427
   6 C :   -0.403184
   7 C :   -0.285096
   8 N :   -0.016007
   9 H :    0.155172
  10 H :    0.169610
  11 H :    0.109818
  12 H :    0.095629
  13 F :    0.344008
  14 O :    0.108103
  15 C :   -0.270033
  16 C :   -0.292108
  17 C :   -0.286753
  18 H :    0.150232
  19 H :    0.154680
  20 H :    0.149778
  21 H :    0.155629
  22 C :   -0.282175
  23 H :    0.147988
  24 H :    0.139970
  25 C :   -0.288095
  26 H :    0.148252
  27 H :    0.141187
  28 C :   -0.284736
  29 H :    0.146632
  30 H :    0.144039
  31 H :    0.139479
  32 H :    0.145520
  33 H :    0.145554
  34 H :    0.144404
  35 H :    0.140701
  36 H :    0.156800

  Mayer bond orders larger than 0.100000
B(  0-C ,  6-C ) :   0.8906 B(  0-C , 15-C ) :   0.9369 B(  0-C , 35-H ) :   1.0027
B(  0-C , 36-H ) :   0.9899 B(  1-C ,  2-C ) :   0.9249 B(  1-C , 17-C ) :   0.9577
B(  1-C , 20-H ) :   0.9759 B(  1-C , 21-H ) :   0.9749 B(  2-C ,  3-H ) :   0.9671
B(  2-C ,  4-H ) :   0.9475 B(  2-C ,  5-C ) :   0.9615 B(  5-C , 13-F ) :   1.1120
B(  5-C , 14-O ) :   2.0257 B(  6-C ,  7-C ) :   1.7571 B(  6-C ,  8-N ) :   1.1393
B(  7-C , 11-H ) :   1.0035 B(  7-C , 12-H ) :   0.9800 B(  8-N ,  9-H ) :   0.9040
B(  8-N , 10-H ) :   0.9314 B( 15-C , 22-C ) :   0.9284 B( 15-C , 23-H ) :   0.9818
B( 15-C , 24-H ) :   0.9793 B( 16-C , 17-C ) :   0.8609 B( 16-C , 28-C ) :   0.9516
B( 16-C , 31-H ) :   0.9789 B( 16-C , 32-H ) :   0.9745 B( 17-C , 18-H ) :   0.9752
B( 17-C , 19-H ) :   0.9636 B( 22-C , 25-C ) :   0.9268 B( 22-C , 26-H ) :   0.9660
B( 22-C , 27-H ) :   0.9671 B( 25-C , 28-C ) :   0.9396 B( 25-C , 29-H ) :   0.9847
B( 25-C , 30-H ) :   0.9798 B( 28-C , 33-H ) :   0.9887 B( 28-C , 34-H ) :   0.9920

FINAL SINGLE POINT ENERGY      -698.322760806610

DIPOLE MOMENT
-------------
                                X             Y             Z
Electronic contribution:      1.17514       7.41363      14.90208
Nuclear contribution   :     -1.66567      -5.90236     -15.95042
                        -----------------------------------------
Total Dipole Moment    :     -0.49053       1.51127      -1.04835
                        -----------------------------------------
Magnitude (a.u.)       :      1.90357
Magnitude (Debye)      :      4.83849

Rotational constants in cm-1:     0.021600     0.017292     0.011381
Rotational constants in MHz :   647.565282   518.410024   341.193038

                             ****ORCA TERMINATED NORMALLY****
TOTAL RUN TIME: 0 days 0 hours 1 minutes 25 seconds 850 msec
