                         Program Version 5.0.0 -  RELEASE  -
|  1> !TPSS D3BJ RIJCOSX def2-TZVP def2/J TightSCF
|  2> *xyz -1 1
|  3> C          0.13297        2.38587       -4.02462
|  4> C         -1.36646        2.47911       -4.31393
|  5> C         -2.35773        2.30686       -3.13675
|  6> H         -1.63680        1.72709       -5.06399
|  7> H         -1.58235        3.44561       -4.76869
|  8> O         -3.44376        2.84652       -3.25274
|  9> O         -1.97092        1.58304       -2.15123
| 10> H          0.68084        2.52514       -4.93310
| 11> H          0.35823        1.42282       -3.61633
| 12> H          0.40851        3.14443       -3.32208
| 13> *
| 14> %MaxCore 64000
| 15>
| 16> %pal nprocs 4
| 17> end
| 18>
| 19> %scf
| 20>   MaxIter 150
| 21> end
| 22>
| 23>
| 24>                          ****END OF INPUT****

CARTESIAN COORDINATES (ANGSTROEM)
---------------------------------
  C      0.132970    2.385870   -4.024620
  C     -1.366460    2.479110   -4.313930
  C     -2.357730    2.306860   -3.136750
  H     -1.636800    1.727090   -5.063990
  H     -1.582350    3.445610   -4.768690
  O     -3.443760    2.846520   -3.252740
  O     -1.970920    1.583040   -2.151230
  H      0.680840    2.525140   -4.933100
  H      0.358230    1.422820   -3.616330
  H      0.408510    3.144430   -3.322080

 Total Charge           Charge          ....   -1
 Multiplicity           Mult            ....    1
 Number of Electrons    NEL             ....   40
 Basis Dimension        Dim             ....  185

ORBITAL ENERGIES
----------------

  NO   OCC          E(Eh)            E(eV)
   0   2.0000     -18.611518      -506.4452
   1   2.0000     -18.602657      -506.2040
   2   2.0000      -9.847640      -267.9679
   3   2.0000      -9.813962      -267.0515
   4   2.0000      -9.802526      -266.7403
   5   2.0000      -0.746061       -20.3013
   6   2.0000      -0.650500       -17.7010
   7   2.0000      -0.540352       -14.7037
   8   2.0000      -0.416204       -11.3255
   9   2.0000      -0.262134        -7.1330
  10   2.0000      -0.246250        -6.7008
  11   2.0000      -0.210041        -5.7155
  12   2.0000      -0.176469        -4.8020
  13   2.0000      -0.168194        -4.5768
  14   2.0000      -0.155943        -4.2434
  15   2.0000      -0.126544        -3.4434
  16   2.0000      -0.113862        -3.0983
  17   2.0000      -0.001875        -0.0510
  18   2.0000       0.010140         0.2759
  19   2.0000       0.025322         0.6890
  20   0.0000       0.174531         4.7492
  21   0.0000       0.217248         5.9116
  22   0.0000       0.221808         6.0357
  23   0.0000       0.237787         6.4705
  24   0.0000       0.249166         6.7802

MULLIKEN ATOMIC CHARGES
-----------------------
   0 C :   -0.271846
   1 C :   -0.167167
   2 C :    0.177378
   3 H :    0.032670
   4 H :    0.033548
   5 O :   -0.455417
   6 O :   -0.545456
   7 H :    0.043606
   8 H :    0.079893
   9 H :    0.072790
Sum of atomic charges:   -1.0000000

LOEWDIN ATOMIC CHARGES
----------------------
   0 C :   -0.327604
   1 C :   -0.297527
   2 C :   -0.722774
   3 H :    0.119002
   4 H :    0.115081
   5 O :   -0.041925
   6 O :   -0.140315
   7 H :    0.088005
   8 H :    0.104829
   9 H :    0.103229

  Mayer bond orders larger than 0.100000
B(  0-C ,  1-C ) :   0.9706 B(  0-C ,  7-H ) :   0.9544 B(  0-C ,  8-H ) :   0.9676
B(  0-C ,  9-H ) :   0.9739 B(  1-C ,  2-C ) :   0.9466 B(  1-C ,  3-H ) :   0.9473
B(  1-C ,  4-H ) :   0.9445 B(  2-C ,  5-O ) :   1.9198 B(  2-C ,  6-O ) :   1.8219

Dispersion correction           -0.007963612
FINAL SINGLE POINT ENERGY      -267.982152614649

DIPOLE MOMENT
-------------
                                X             Y             Z
Electronic contribution:     -5.40844      -0.40299       3.34015
Nuclear contribution   :      6.75610       0.63068      -4.53972
                        -----------------------------------------
Total Dipole Moment    :      1.34765       0.22769      -1.19957
                        -----------------------------------------
Magnitude (a.u.)       :      1.81851
Magnitude (Debye)      :      4.62229

Rotational constants in cm-1:     0.335096     0.130241     0.099025
Rotational constants in MHz : 10045.924902  3904.536250  2968.708333

                             ****ORCA TERMINATED NORMALLY****
TOTAL RUN TIME: 0 days 0 hours 0 minutes 12 seconds 467 msec
