                         Program Version 5.0.0 -  RELEASE  -
|  1> !TPSS D3BJ RIJCOSX def2-TZVP def2/J TightSCF
|  2> *xyz 1 1
|  3> C          0.64866        1.00359       -3.64560
|  4> N          0.28128        0.67645       -2.24018
|  5> C          0.13297        2.38587       -4.02462
|  6> H          0.39079       -0.31925       -2.02649
|  7> H         -0.69269        0.99010       -2.13812
|  8> H          0.85421        1.21221       -1.57528
|  9> H          0.19099        0.23965       -4.27575
| 10> H          1.73157        0.93173       -3.75075
| 11> H          0.40589        2.60338       -5.03610
| 12> H          0.56342        3.11797       -3.37374
| 13> H         -0.93265        2.40724       -3.93025
| 14> *
| 15> %MaxCore 64000
| 16>
| 17> %pal nprocs 4
| 18> end
| 19>
| 20> %scf
| 21>   MaxIter 150
| 22> end
| 23>
| 24>
| 25>                          ****END OF INPUT****

CARTESIAN COORDINATES (ANGSTROEM)
---------------------------------
  C      0.648660    1.003590   -3.645600
  N      0.281280    0.676450   -2.240180
  C      0.132970    2.385870   -4.024620
  H      0.390790   -0.319250   -2.026490
  H     -0.692690    0.990100   -2.138120
  H      0.854210    1.212210   -1.575280
  H      0.190990    0.239650   -4.275750
  H      1.731570    0.931730   -3.750750
  H      0.405890    2.603380   -5.036100
  H      0.563420    3.117970   -3.373740
  H     -0.932650    2.407240   -3.930250

 Total Charge           Charge          ....    1
 Multiplicity           Mult            ....    1
 Number of Electrons    NEL             ....   26
 Basis Dimension        Dim             ....  141

ORBITAL ENERGIES
----------------

  NO   OCC          E(Eh)            E(eV)
   0   2.0000     -14.435328      -392.8053
   1   2.0000     -10.239155      -278.6216
   2   2.0000     -10.163855      -276.5725
   3   2.0000      -1.156698       -31.4754
   4   2.0000      -0.912267       -24.8241
   5   2.0000      -0.797091       -21.6899
   6   2.0000      -0.755874       -20.5684
   7   2.0000      -0.748987       -20.3810
   8   2.0000      -0.653508       -17.7829
   9   2.0000      -0.603705       -16.4277
  10   2.0000      -0.547549       -14.8996
  11   2.0000      -0.534487       -14.5441
  12   2.0000      -0.519328       -14.1316
  13   0.0000      -0.208256        -5.6669
  14   0.0000      -0.148945        -4.0530
  15   0.0000      -0.145509        -3.9595
  16   0.0000      -0.125045        -3.4026
  17   0.0000      -0.088569        -2.4101

MULLIKEN ATOMIC CHARGES
-----------------------
   0 C :   -0.191223
   1 N :   -0.283852
   2 C :   -0.355547
   3 H :    0.332654
   4 H :    0.321745
   5 H :    0.324218
   6 H :    0.182956
   7 H :    0.188833
   8 H :    0.181994
   9 H :    0.149140
  10 H :    0.149083
Sum of atomic charges:    1.0000000

LOEWDIN ATOMIC CHARGES
----------------------
   0 C :   -0.272945
   1 N :    0.175075
   2 C :   -0.269468
   3 H :    0.219134
   4 H :    0.223297
   5 H :    0.220648
   6 H :    0.151034
   7 H :    0.149998
   8 H :    0.146737
   9 H :    0.128686
  10 H :    0.127804

  Mayer bond orders larger than 0.100000
B(  0-C ,  1-N ) :   0.8875 B(  0-C ,  2-C ) :   1.0404 B(  0-C ,  6-H ) :   0.9397
B(  0-C ,  7-H ) :   0.9422 B(  1-N ,  3-H ) :   0.8713 B(  1-N ,  4-H ) :   0.8741
B(  1-N ,  5-H ) :   0.8767 B(  2-C ,  8-H ) :   0.9498 B(  2-C ,  9-H ) :   0.9561
B(  2-C , 10-H ) :   0.9522

Dispersion correction           -0.007483701
FINAL SINGLE POINT ENERGY      -135.613563225979

DIPOLE MOMENT
-------------
                                X             Y             Z
Electronic contribution:      0.17053      -1.29763       1.31495
Nuclear contribution   :     -0.22655       0.48066      -0.09136
                        -----------------------------------------
Total Dipole Moment    :     -0.05602      -0.81697       1.22360
                        -----------------------------------------
Magnitude (a.u.)       :      1.47234
Magnitude (Debye)      :      3.74238

Rotational constants in cm-1:     0.998155     0.284845     0.251232
Rotational constants in MHz : 29923.943568  8539.431565  7531.732866

                             ****ORCA TERMINATED NORMALLY****
TOTAL RUN TIME: 0 days 0 hours 0 minutes 9 seconds 366 msec
