                         Program Version 5.0.0 -  RELEASE  -
|  1> !TPSS D3BJ RIJCOSX def2-TZVP def2/J TightSCF xyzfile
|  2>
|  3> *xyzfile 0 1 B.xyz
|  4>
|  5> %MaxCore 64000
|  6>
|  7> %pal nprocs 18
|  8> end
|  9>
| 10> %scf
| 11>   MaxIter 150
| 12> end
| 13>
| 14>
| 15>                          ****END OF INPUT****

CARTESIAN COORDINATES (ANGSTROEM)
---------------------------------
  C      0.648656    1.003595   -3.645601
  N      0.281280    0.676454   -2.240179
  C      0.132968    2.385869   -4.024618
  C     -1.366462    2.479106   -4.313932
  C     -2.357732    2.306858   -3.136753
  H     -1.636802    1.727095   -5.063993
  H     -1.582347    3.445605   -4.768687
  H      0.390790   -0.319253   -2.026495
  H     -0.692686    0.990104   -2.138123
  H      0.854206    1.212214   -1.575279
  O     -3.443763    2.846518   -3.252744
  O     -1.970922    1.583042   -2.151229
  H      0.190993    0.239655   -4.275752
  H      1.731572    0.931729   -3.750751
  H      0.414839    3.102847   -3.245165
  H      0.683167    2.687560   -4.919721

 Total Charge           Charge          ....    0
 Multiplicity           Mult            ....    1
 Number of Electrons    NEL             ....   56
 Basis Dimension        Dim             ....  271

ORBITAL ENERGIES
----------------

  NO   OCC          E(Eh)            E(eV)
   0   2.0000     -18.805699      -511.7291
   1   2.0000     -18.783815      -511.1336
   2   2.0000     -14.209403      -386.6575
   3   2.0000     -10.071681      -274.0644
   4   2.0000     -10.031325      -272.9662
   5   2.0000     -10.011845      -272.4361
   6   2.0000      -9.972625      -271.3689
   7   2.0000      -0.956699       -26.0331
   8   2.0000      -0.927640       -25.2424
   9   2.0000      -0.848053       -23.0767
  10   2.0000      -0.754040       -20.5185
  11   2.0000      -0.662361       -18.0238
  12   2.0000      -0.587082       -15.9753
  13   2.0000      -0.555146       -15.1063
  14   2.0000      -0.548332       -14.9209
  15   2.0000      -0.479135       -13.0379
  16   2.0000      -0.436245       -11.8708
  17   2.0000      -0.433421       -11.7940
  18   2.0000      -0.395592       -10.7646
  19   2.0000      -0.378809       -10.3079
  20   2.0000      -0.345765        -9.4087
  21   2.0000      -0.341682        -9.2976
  22   2.0000      -0.333559        -9.0766
  23   2.0000      -0.310292        -8.4435
  24   2.0000      -0.292917        -7.9707
  25   2.0000      -0.191736        -5.2174
  26   2.0000      -0.186676        -5.0797
  27   2.0000      -0.155390        -4.2284
  28   0.0000      -0.038443        -1.0461
  29   0.0000       0.006223         0.1693
  30   0.0000       0.015449         0.4204
  31   0.0000       0.040535         1.1030
  32   0.0000       0.053964         1.4684

MULLIKEN ATOMIC CHARGES
-----------------------
   0 C :   -0.144409
   1 N :   -0.273007
   2 C :   -0.194740
   3 C :   -0.226514
   4 C :    0.235765
   5 H :    0.084426
   6 H :    0.110800
   7 H :    0.264438
   8 H :    0.277552
   9 H :    0.263148
  10 O :   -0.361637
  11 O :   -0.517595
  12 H :    0.133625
  13 H :    0.135771
  14 H :    0.103768
  15 H :    0.108609
Sum of atomic charges:   -0.0000000

LOEWDIN ATOMIC CHARGES
----------------------
   0 C :   -0.268819
   1 N :    0.145311
   2 C :   -0.269676
   3 C :   -0.251581
   4 C :   -0.658818
   5 H :    0.139947
   6 H :    0.144894
   7 H :    0.185142
   8 H :    0.107975
   9 H :    0.191466
  10 O :    0.040315
  11 O :   -0.058260
  12 H :    0.140179
  13 H :    0.129036
  14 H :    0.139231
  15 H :    0.143658

  Mayer bond orders larger than 0.100000
B(  0-C ,  1-N ) :   0.9296 B(  0-C ,  2-C ) :   1.0168 B(  0-C , 12-H ) :   0.9496
B(  0-C , 13-H ) :   0.9570 B(  1-N ,  7-H ) :   0.8954 B(  1-N ,  8-H ) :   0.6765
B(  1-N ,  9-H ) :   0.9000 B(  2-C ,  3-C ) :   0.9768 B(  2-C , 14-H ) :   0.9507
B(  2-C , 15-H ) :   0.9356 B(  3-C ,  4-C ) :   0.9755 B(  3-C ,  5-H ) :   0.9392
B(  3-C ,  6-H ) :   0.9380 B(  4-C , 10-O ) :   2.0140 B(  4-C , 11-O ) :   1.4615
B(  8-H , 11-O ) :   0.3441

Dispersion correction           -0.016934180
FINAL SINGLE POINT ENERGY      -363.243831690647

DIPOLE MOMENT
-------------
                                X             Y             Z
Electronic contribution:     -5.95154       0.96050       2.59368
Nuclear contribution   :      9.92875      -2.62114      -2.63866
                        -----------------------------------------
Total Dipole Moment    :      3.97722      -1.66064      -0.04498
                        -----------------------------------------
Magnitude (a.u.)       :      4.31022
Magnitude (Debye)      :     10.95571

Rotational constants in cm-1:     0.159108     0.062474     0.047603
Rotational constants in MHz :  4769.938632  1872.932224  1427.103830

                             ****ORCA TERMINATED NORMALLY****
TOTAL RUN TIME: 0 days 0 hours 0 minutes 8 seconds 492 msec
