                         Program Version 5.0.0 -  RELEASE  -
|  1> !TPSS D3BJ RIJCOSX def2-TZVP def2/J TightSCF
|  2> *xyz 0 1
|  3> C          0.13297        2.38587       -4.02462
|  4> C         -1.36646        2.47911       -4.31393
|  5> C         -2.35773        2.30686       -3.13675
|  6> H         -1.63680        1.72709       -5.06399
|  7> H         -1.58235        3.44561       -4.76869
|  8> F         -3.44376        2.84652       -3.25274
|  9> O         -1.97092        1.58304       -2.15123
| 10> H          0.68084        2.52514       -4.93310
| 11> H          0.35823        1.42282       -3.61633
| 12> H          0.40851        3.14443       -3.32208
| 13> *
| 14> %MaxCore 64000
| 15>
| 16> %pal nprocs 4
| 17> end
| 18>
| 19> %scf
| 20>   MaxIter 150
| 21> end
| 22>
| 23>
| 24>                          ****END OF INPUT****

CARTESIAN COORDINATES (ANGSTROEM)
---------------------------------
  C      0.132970    2.385870   -4.024620
  C     -1.366460    2.479110   -4.313930
  C     -2.357730    2.306860   -3.136750
  H     -1.636800    1.727090   -5.063990
  H     -1.582350    3.445610   -4.768690
  F     -3.443760    2.846520   -3.252740
  O     -1.970920    1.583040   -2.151230
  H      0.680840    2.525140   -4.933100
  H      0.358230    1.422820   -3.616330
  H      0.408510    3.144430   -3.322080

 Total Charge           Charge          ....    0
 Multiplicity           Mult            ....    1
 Number of Electrons    NEL             ....   40
 Basis Dimension        Dim             ....  185

ORBITAL ENERGIES
----------------

  NO   OCC          E(Eh)            E(eV)
   0   2.0000     -24.489532      -666.3940
   1   2.0000     -18.880577      -513.7666
   2   2.0000     -10.152810      -276.2720
   3   2.0000     -10.016262      -272.5563
   4   2.0000      -9.985326      -271.7145
   5   2.0000      -1.264985       -34.4220
   6   2.0000      -0.944637       -25.7049
   7   2.0000      -0.738234       -20.0884
   8   2.0000      -0.641314       -17.4511
   9   2.0000      -0.590099       -16.0574
  10   2.0000      -0.506170       -13.7736
  11   2.0000      -0.490031       -13.3344
  12   2.0000      -0.455324       -12.3900
  13   2.0000      -0.424133       -11.5413
  14   2.0000      -0.385443       -10.4884
  15   2.0000      -0.350735        -9.5440
  16   2.0000      -0.336218        -9.1490
  17   2.0000      -0.328753        -8.9458
  18   2.0000      -0.302129        -8.2213
  19   2.0000      -0.238962        -6.5025
  20   0.0000      -0.057770        -1.5720
  21   0.0000       0.021648         0.5891
  22   0.0000       0.061854         1.6831
  23   0.0000       0.078929         2.1478
  24   0.0000       0.086049         2.3415

MULLIKEN ATOMIC CHARGES
-----------------------
   0 C :   -0.313652
   1 C :   -0.212263
   2 C :    0.312590
   3 H :    0.119472
   4 H :    0.106712
   5 F :   -0.041413
   6 O :   -0.333401
   7 H :    0.117991
   8 H :    0.129882
   9 H :    0.114081
Sum of atomic charges:    0.0000000

LOEWDIN ATOMIC CHARGES
----------------------
   0 C :   -0.283325
   1 C :   -0.261999
   2 C :   -0.533671
   3 H :    0.151029
   4 H :    0.138033
   5 F :    0.394803
   6 O :    0.038473
   7 H :    0.116643
   8 H :    0.121655
   9 H :    0.118360

  Mayer bond orders larger than 0.100000
B(  0-C ,  1-C ) :   1.0243 B(  0-C ,  7-H ) :   0.9590 B(  0-C ,  8-H ) :   0.9650
B(  0-C ,  9-H ) :   0.9718 B(  1-C ,  2-C ) :   1.0193 B(  1-C ,  3-H ) :   0.9182
B(  1-C ,  4-H ) :   0.9424 B(  2-C ,  5-F ) :   1.2164 B(  2-C ,  6-O ) :   2.0291

Dispersion correction           -0.007564272
FINAL SINGLE POINT ENERGY      -292.545888528426

DIPOLE MOMENT
-------------
                                X             Y             Z
Electronic contribution:     -8.40811       0.45185       3.63369
Nuclear contribution   :      8.54799       0.05434      -4.66633
                        -----------------------------------------
Total Dipole Moment    :      0.13988       0.50619      -1.03264
                        -----------------------------------------
Magnitude (a.u.)       :      1.15850
Magnitude (Debye)      :      2.94468

Rotational constants in cm-1:     0.325803     0.123345     0.094275
Rotational constants in MHz :  9767.324172  3697.779805  2826.305733

                             ****ORCA TERMINATED NORMALLY****
TOTAL RUN TIME: 0 days 0 hours 0 minutes 14 seconds 750 msec
