                         Program Version 5.0.0 -  RELEASE  -
|  1> !TPSS D3BJ RIJCOSX def2-TZVP def2/J TightSCF
|  2> *xyz 0 1
|  3> C          0.64866        1.00359       -3.64560
|  4> C          0.28128        0.67645       -2.24018
|  5> C          0.13297        2.38587       -4.02462
|  6> H          0.39079       -0.31925       -2.02649
|  7> H         -0.69269        0.99010       -2.13812
|  8> H          0.85421        1.21221       -1.57528
|  9> H          0.19099        0.23965       -4.27575
| 10> H          1.73157        0.93173       -3.75075
| 11> H          0.40589        2.60338       -5.03610
| 12> H          0.56342        3.11797       -3.37374
| 13> H         -0.93265        2.40724       -3.93025
| 14> *
| 15> %MaxCore 64000
| 16>
| 17> %pal nprocs 4
| 18> end
| 19>
| 20> %scf
| 21>   MaxIter 150
| 22> end
| 23>
| 24>
| 25>                          ****END OF INPUT****

CARTESIAN COORDINATES (ANGSTROEM)
---------------------------------
  C      0.648660    1.003590   -3.645600
  C      0.281280    0.676450   -2.240180
  C      0.132970    2.385870   -4.024620
  H      0.390790   -0.319250   -2.026490
  H     -0.692690    0.990100   -2.138120
  H      0.854210    1.212210   -1.575280
  H      0.190990    0.239650   -4.275750
  H      1.731570    0.931730   -3.750750
  H      0.405890    2.603380   -5.036100
  H      0.563420    3.117970   -3.373740
  H     -0.932650    2.407240   -3.930250

 Total Charge           Charge          ....    0
 Multiplicity           Mult            ....    1
 Number of Electrons    NEL             ....   26
 Basis Dimension        Dim             ....  141

ORBITAL ENERGIES
----------------

  NO   OCC          E(Eh)            E(eV)
   0   2.0000      -9.970042      -271.2986
   1   2.0000      -9.963388      -271.1176
   2   2.0000      -9.944241      -270.5966
   3   2.0000      -0.735121       -20.0037
   4   2.0000      -0.636839       -17.3293
   5   2.0000      -0.538447       -14.6519
   6   2.0000      -0.426080       -11.5942
   7   2.0000      -0.408053       -11.1037
   8   2.0000      -0.363163        -9.8822
   9   2.0000      -0.349042        -9.4979
  10   2.0000      -0.300442        -8.1754
  11   2.0000      -0.297065        -8.0835
  12   2.0000      -0.292792        -7.9673
  13   0.0000       0.032416         0.8821
  14   0.0000       0.074490         2.0270
  15   0.0000       0.080479         2.1899
  16   0.0000       0.083900         2.2830
  17   0.0000       0.102723         2.7952

MULLIKEN ATOMIC CHARGES
-----------------------
   0 C :   -0.137004
   1 C :   -0.318291
   2 C :   -0.330492
   3 H :    0.111690
   4 H :    0.095763
   5 H :    0.103285
   6 H :    0.078232
   7 H :    0.080019
   8 H :    0.109494
   9 H :    0.102329
  10 H :    0.104975
Sum of atomic charges:    0.0000000

LOEWDIN ATOMIC CHARGES
----------------------
   0 C :   -0.316109
   1 C :   -0.296767
   2 C :   -0.299238
   3 H :    0.103685
   4 H :    0.110680
   5 H :    0.105837
   6 H :    0.128528
   7 H :    0.125849
   8 H :    0.111889
   9 H :    0.113133
  10 H :    0.112513

  Mayer bond orders larger than 0.100000
B(  0-C ,  1-C ) :   1.0162 B(  0-C ,  2-C ) :   1.0228 B(  0-C ,  6-H ) :   0.9565
B(  0-C ,  7-H ) :   0.9580 B(  1-C ,  3-H ) :   0.9723 B(  1-C ,  4-H ) :   0.9746
B(  1-C ,  5-H ) :   0.9757 B(  2-C ,  8-H ) :   0.9714 B(  2-C ,  9-H ) :   0.9720
B(  2-C , 10-H ) :   0.9709

Dispersion correction           -0.007507658
FINAL SINGLE POINT ENERGY      -119.197337419939

DIPOLE MOMENT
-------------
                                X             Y             Z
Electronic contribution:      0.25956      -0.28134      -0.24337
Nuclear contribution   :     -0.24754       0.26111       0.24628
                        -----------------------------------------
Total Dipole Moment    :      0.01203      -0.02022       0.00291
                        -----------------------------------------
Magnitude (a.u.)       :      0.02371
Magnitude (Debye)      :      0.06026

Rotational constants in cm-1:     1.006509     0.299509     0.263145
Rotational constants in MHz : 30174.379724  8979.049324  7888.875355

                             ****ORCA TERMINATED NORMALLY****
TOTAL RUN TIME: 0 days 0 hours 0 minutes 6 seconds 644 msec
