                         Program Version 5.0.0 -  RELEASE  -
|  1> !TPSS D3BJ RIJCOSX def2-TZVP def2/J TightSCF
|  2> *xyz 0 1
|  3> C          0.13297        2.38587       -4.02462
|  4> C         -1.36646        2.47911       -4.31393
|  5> C         -2.35773        2.30686       -3.13675
|  6> H         -1.63680        1.72709       -5.06399
|  7> H         -1.58235        3.44561       -4.76869
|  8> O         -3.44376        2.84652       -3.25274
|  9> F         -1.97092        1.58304       -2.15123
| 10> H          0.68084        2.52514       -4.93310
| 11> H          0.35823        1.42282       -3.61633
| 12> H          0.40851        3.14443       -3.32208
| 13> *
| 14> %MaxCore 64000
| 15>
| 16> %pal nprocs 4
| 17> end
| 18>
| 19> %scf
| 20>   MaxIter 150
| 21> end
| 22>
| 23>
| 24>                          ****END OF INPUT****

CARTESIAN COORDINATES (ANGSTROEM)
---------------------------------
  C      0.132970    2.385870   -4.024620
  C     -1.366460    2.479110   -4.313930
  C     -2.357730    2.306860   -3.136750
  H     -1.636800    1.727090   -5.063990
  H     -1.582350    3.445610   -4.768690
  O     -3.443760    2.846520   -3.252740
  F     -1.970920    1.583040   -2.151230
  H      0.680840    2.525140   -4.933100
  H      0.358230    1.422820   -3.616330
  H      0.408510    3.144430   -3.322080

 Total Charge           Charge          ....    0
 Multiplicity           Mult            ....    1
 Number of Electrons    NEL             ....   40
 Basis Dimension        Dim             ....  185

ORBITAL ENERGIES
----------------

  NO   OCC          E(Eh)            E(eV)
   0   2.0000     -24.466366      -665.7637
   1   2.0000     -18.889231      -514.0021
   2   2.0000     -10.147445      -276.1260
   3   2.0000     -10.015090      -272.5245
   4   2.0000      -9.989831      -271.8371
   5   2.0000      -1.218238       -33.1499
   6   2.0000      -0.983353       -26.7584
   7   2.0000      -0.740724       -20.1561
   8   2.0000      -0.626499       -17.0479
   9   2.0000      -0.580648       -15.8002
  10   2.0000      -0.484059       -13.1719
  11   2.0000      -0.478305       -13.0153
  12   2.0000      -0.443379       -12.0649
  13   2.0000      -0.422792       -11.5047
  14   2.0000      -0.389114       -10.5883
  15   2.0000      -0.359173        -9.7736
  16   2.0000      -0.348253        -9.4765
  17   2.0000      -0.334917        -9.1135
  18   2.0000      -0.316101        -8.6015
  19   2.0000      -0.250926        -6.8280
  20   0.0000      -0.052921        -1.4400
  21   0.0000       0.016390         0.4460
  22   0.0000       0.064227         1.7477
  23   0.0000       0.081660         2.2221
  24   0.0000       0.085353         2.3226

MULLIKEN ATOMIC CHARGES
-----------------------
   0 C :   -0.322921
   1 C :   -0.216247
   2 C :    0.291139
   3 H :    0.119875
   4 H :    0.129599
   5 O :   -0.257730
   6 F :   -0.098142
   7 H :    0.122212
   8 H :    0.115273
   9 H :    0.116943
Sum of atomic charges:   -0.0000000

LOEWDIN ATOMIC CHARGES
----------------------
   0 C :   -0.294835
   1 C :   -0.257225
   2 C :   -0.518554
   3 H :    0.151180
   4 H :    0.150031
   5 O :    0.125199
   6 F :    0.293345
   7 H :    0.118079
   8 H :    0.116002
   9 H :    0.116777

  Mayer bond orders larger than 0.100000
B(  0-C ,  1-C ) :   1.0012 B(  0-C ,  7-H ) :   0.9610 B(  0-C ,  8-H ) :   0.9661
B(  0-C ,  9-H ) :   0.9713 B(  1-C ,  2-C ) :   1.0270 B(  1-C ,  3-H ) :   0.9264
B(  1-C ,  4-H ) :   0.9490 B(  2-C ,  5-O ) :   2.1136 B(  2-C ,  6-F ) :   1.1466

Dispersion correction           -0.007502915
FINAL SINGLE POINT ENERGY      -292.562778054632

DIPOLE MOMENT
-------------
                                X             Y             Z
Electronic contribution:     -5.95324      -1.62630       5.42580
Nuclear contribution   :      6.94213       1.43193      -5.86732
                        -----------------------------------------
Total Dipole Moment    :      0.98890      -0.19437      -0.44152
                        -----------------------------------------
Magnitude (a.u.)       :      1.10029
Magnitude (Debye)      :      2.79671

Rotational constants in cm-1:     0.306336     0.129048     0.095707
Rotational constants in MHz :  9183.725605  3868.769583  2869.236577

                             ****ORCA TERMINATED NORMALLY****
TOTAL RUN TIME: 0 days 0 hours 0 minutes 8 seconds 251 msec
