                         Program Version 5.0.0 -  RELEASE  -
|  1> !TPSS D3BJ RIJCOSX def2-TZVP def2/J TightSCF xyzfile
|  2>
|  3> *xyzfile 0 1 D1.xyz
|  4>
|  5> %MaxCore 64000
|  6>
|  7> %pal nprocs 18
|  8> end
|  9>
| 10> %scf
| 11>   MaxIter 150
| 12> end
| 13>
| 14>
| 15>                          ****END OF INPUT****

CARTESIAN COORDINATES (ANGSTROEM)
---------------------------------
  C      0.648656    1.003595   -3.645601
  C      0.281280    0.676454   -2.240179
  C      0.132968    2.385869   -4.024618
  C     -1.366462    2.479106   -4.313932
  C     -2.357732    2.306858   -3.136753
  H     -1.636802    1.727095   -5.063993
  H     -1.582347    3.445605   -4.768687
  H      0.390790   -0.319253   -2.026495
  H     -0.692686    0.990104   -2.138123
  H      0.854206    1.212214   -1.575279
  F     -3.443763    2.846518   -3.252744
  O     -1.970922    1.583042   -2.151229
  H      0.190993    0.239655   -4.275752
  H      1.731572    0.931729   -3.750751
  H      0.414839    3.102847   -3.245165
  H      0.683167    2.687560   -4.919721

 Total Charge           Charge          ....    0
 Multiplicity           Mult            ....    1
 Number of Electrons    NEL             ....   56
 Basis Dimension        Dim             ....  271

ORBITAL ENERGIES
----------------

  NO   OCC          E(Eh)            E(eV)
   0   2.0000     -24.500176      -666.6837
   1   2.0000     -18.889792      -514.0174
   2   2.0000     -10.167509      -276.6720
   3   2.0000     -10.021698      -272.7043
   4   2.0000      -9.992391      -271.9068
   5   2.0000      -9.964243      -271.1408
   6   2.0000      -9.895005      -269.2568
   7   2.0000      -1.275417       -34.7059
   8   2.0000      -0.968298       -26.3487
   9   2.0000      -0.756580       -20.5876
  10   2.0000      -0.700022       -19.0486
  11   2.0000      -0.631948       -17.1962
  12   2.0000      -0.603405       -16.4195
  13   2.0000      -0.532784       -14.4978
  14   2.0000      -0.515112       -14.0169
  15   2.0000      -0.500442       -13.6177
  16   2.0000      -0.476266       -12.9599
  17   2.0000      -0.435926       -11.8622
  18   2.0000      -0.406646       -11.0654
  19   2.0000      -0.393954       -10.7200
  20   2.0000      -0.365028        -9.9329
  21   2.0000      -0.343123        -9.3369
  22   2.0000      -0.337046        -9.1715
  23   2.0000      -0.316705        -8.6180
  24   2.0000      -0.300259        -8.1704
  25   2.0000      -0.285326        -7.7641
  26   2.0000      -0.273111        -7.4317
  27   2.0000      -0.206596        -5.6218
  28   0.0000      -0.072443        -1.9713
  29   0.0000       0.020589         0.5602
  30   0.0000       0.050569         1.3760
  31   0.0000       0.060685         1.6513
  32   0.0000       0.071444         1.9441

MULLIKEN ATOMIC CHARGES
-----------------------
   0 C :   -0.138889
   1 C :   -0.376270
   2 C :   -0.152944
   3 C :   -0.241351
   4 C :    0.304805
   5 H :    0.122030
   6 H :    0.121593
   7 H :    0.083362
   8 H :    0.179101
   9 H :    0.074381
  10 F :   -0.030203
  11 O :   -0.277951
  12 H :    0.060916
  13 H :    0.081094
  14 H :    0.095069
  15 H :    0.095255
Sum of atomic charges:    0.0000000

LOEWDIN ATOMIC CHARGES
----------------------
   0 C :   -0.295872
   1 C :   -0.312001
   2 C :   -0.252981
   3 C :   -0.232109
   4 C :   -0.505491
   5 H :    0.156292
   6 H :    0.144015
   7 H :    0.096106
   8 H :    0.067570
   9 H :    0.098516
  10 F :    0.401460
  11 O :    0.099258
  12 H :    0.129917
  13 H :    0.127300
  14 H :    0.140074
  15 H :    0.137946

  Mayer bond orders larger than 0.100000
B(  0-C ,  1-C ) :   1.0181 B(  0-C ,  2-C ) :   1.0159 B(  0-C , 12-H ) :   0.9533
B(  0-C , 13-H ) :   0.9498 B(  1-C ,  7-H ) :   0.9613 B(  1-C ,  8-H ) :   0.9401
B(  1-C ,  9-H ) :   0.9620 B(  2-C ,  3-C ) :   1.0163 B(  2-C , 14-H ) :   0.9574
B(  2-C , 15-H ) :   0.9382 B(  3-C ,  4-C ) :   1.0336 B(  3-C ,  5-H ) :   0.9119
B(  3-C ,  6-H ) :   0.9366 B(  4-C , 10-F ) :   1.2329 B(  4-C , 11-O ) :   1.9392
B(  8-H , 11-O ) :   0.1175

Dispersion correction           -0.016533197
FINAL SINGLE POINT ENERGY      -371.162345960548

DIPOLE MOMENT
-------------
                                X             Y             Z
Electronic contribution:    -13.03346       4.56546       1.47339
Nuclear contribution   :     12.79331      -3.91961      -2.45895
                        -----------------------------------------
Total Dipole Moment    :     -0.24015       0.64584      -0.98556
                        -----------------------------------------
Magnitude (a.u.)       :      1.20255
Magnitude (Debye)      :      3.05663

Rotational constants in cm-1:     0.162888     0.059977     0.046450
Rotational constants in MHz :  4883.250030  1798.063289  1392.548669

                             ****ORCA TERMINATED NORMALLY****
TOTAL RUN TIME: 0 days 0 hours 0 minutes 6 seconds 716 msec
