                         Program Version 5.0.0 -  RELEASE  -
|  1> !DLPNO-CCSD(T) aug-cc-pVTZ aug-cc-pVTZ/C TightSCF TightPNO RIJCOSX def2/J
|  2> *xyz -1 1
|  3> C         -1.36353       -1.98134       -2.29361
|  4> O         -0.35039       -2.74969       -1.79601
|  5> H         -2.22523       -2.59288       -2.46214
|  6> H         -1.05452       -1.53818       -3.21720
|  7> H         -1.60477       -1.21086       -1.59143
|  8> *
|  9>
| 10> %MaxCore 64000
| 11> %pal nprocs 8
| 12> end
| 13>
| 14> %scf
| 15>   MaxIter 150
| 16> end
| 17>
| 18>
| 19>                          ****END OF INPUT****

CARTESIAN COORDINATES (ANGSTROEM)
---------------------------------
  C     -1.363530   -1.981340   -2.293610
  O     -0.350390   -2.749690   -1.796010
  H     -2.225230   -2.592880   -2.462140
  H     -1.054520   -1.538180   -3.217200
  H     -1.604770   -1.210860   -1.591430

 Total Charge           Charge          ....   -1
 Multiplicity           Mult            ....    1
 Number of Electrons    NEL             ....   18
 Basis Dimension        Dim             ....  161

ORBITAL ENERGIES
----------------

  NO   OCC          E(Eh)            E(eV)
   0   2.0000     -20.185309      -549.2702
   1   2.0000     -11.004260      -299.4411
   2   2.0000      -0.975946       -26.5568
   3   2.0000      -0.632176       -17.2024
   4   2.0000      -0.357512        -9.7284
   5   2.0000      -0.357492        -9.7279
   6   2.0000      -0.250042        -6.8040
   7   2.0000      -0.095980        -2.6118
   8   2.0000      -0.095942        -2.6107
   9   0.0000       0.144843         3.9414
  10   0.0000       0.154706         4.2098
  11   0.0000       0.154708         4.2098
  12   0.0000       0.215843         5.8734
  13   0.0000       0.262359         7.1391

MULLIKEN ATOMIC CHARGES
-----------------------
   0 C :   -0.679777
   1 O :   -1.051716
   2 H :    0.241288
   3 H :    0.243795
   4 H :    0.246410
Sum of atomic charges:   -1.0000000

LOEWDIN ATOMIC CHARGES
----------------------
   0 C :   -0.143204
   1 O :    0.043673
   2 H :   -0.300208
   3 H :   -0.300148
   4 H :   -0.300113

  Mayer bond orders larger than 0.100000
B(  0-C ,  1-O ) :   1.0830 B(  0-C ,  2-H ) :   0.9412 B(  0-C ,  3-H ) :   0.9382
B(  0-C ,  4-H ) :   0.9346

E(0)                                       ...   -114.448480826
E(0)                                       ...   -114.448480826
E(CORR)(strong-pairs)                      ...     -0.463103340
E(CORR)(weak-pairs)                        ...     -0.000193003
E(CORR)(corrected)                         ...     -0.463296344
E(TOT)                                     ...   -114.911777170
E(CCSD(T))                                 ...   -114.929862211
FINAL SINGLE POINT ENERGY      -114.929862210513

DIPOLE MOMENT
-------------
                                X             Y             Z
Electronic contribution:      1.34602      -1.02075       0.66124
Nuclear contribution   :     -2.13467       1.61890      -1.04844
                        -----------------------------------------
Total Dipole Moment    :     -0.78865       0.59815      -0.38720
                        -----------------------------------------
Magnitude (a.u.)       :      1.06287
Magnitude (Debye)      :      2.70159

Rotational constants in cm-1:     5.477725     0.944113     0.944112
Rotational constants in MHz : 164218.064700 28303.798445 28303.757130

                             ****ORCA TERMINATED NORMALLY****
TOTAL RUN TIME: 0 days 0 hours 1 minutes 10 seconds 61 msec
