                         Program Version 5.0.0 -  RELEASE  -
|  1> !DLPNO-CCSD(T) aug-cc-pVTZ aug-cc-pVTZ/C TightSCF TightPNO RIJCOSX def2/J
|  2> *xyz 1 1
|  3> C          2.20996       -2.81239       -3.66571
|  4> C          2.48901       -1.66851       -2.73754
|  5> N          3.59631       -0.94761       -2.95225
|  6> N          1.66394       -1.41369       -1.77781
|  7> H          0.81164       -1.96318       -1.70275
|  8> H          1.84550       -0.63508       -1.15875
|  9> H          4.20535       -1.17600       -3.73383
| 10> H          3.81723       -0.12585       -2.40604
| 11> H          2.99011       -2.87840       -4.39503
| 12> H          1.27381       -2.65174       -4.15838
| 13> H          2.16680       -3.72339       -3.10614
| 14> *
| 15>
| 16> %MaxCore 64000
| 17> %pal nprocs 8
| 18> end
| 19>
| 20> %scf
| 21>   MaxIter 150
| 22> end
| 23>
| 24>
| 25>                          ****END OF INPUT****

CARTESIAN COORDINATES (ANGSTROEM)
---------------------------------
  C      2.209960   -2.812390   -3.665710
  C      2.489010   -1.668510   -2.737540
  N      3.596310   -0.947610   -2.952250
  N      1.663940   -1.413690   -1.777810
  H      0.811640   -1.963180   -1.702750
  H      1.845500   -0.635080   -1.158750
  H      4.205350   -1.176000   -3.733830
  H      3.817230   -0.125850   -2.406040
  H      2.990110   -2.878400   -4.395030
  H      1.273810   -2.651740   -4.158380
  H      2.166800   -3.723390   -3.106140

 Total Charge           Charge          ....    1
 Multiplicity           Mult            ....    1
 Number of Electrons    NEL             ....   32
 Basis Dimension        Dim             ....  345

ORBITAL ENERGIES
----------------

  NO   OCC          E(Eh)            E(eV)
   0   2.0000     -15.816466      -430.3879
   1   2.0000     -15.809615      -430.2015
   2   2.0000     -11.579135      -315.0843
   3   2.0000     -11.424854      -310.8861
   4   2.0000      -1.529913       -41.6311
   5   2.0000      -1.410819       -38.3903
   6   2.0000      -1.215884       -33.0859
   7   2.0000      -1.054247       -28.6875
   8   2.0000      -0.968289       -26.3485
   9   2.0000      -0.955511       -26.0008
  10   2.0000      -0.878701       -23.9107
  11   2.0000      -0.825225       -22.4555
  12   2.0000      -0.772942       -21.0328
  13   2.0000      -0.761664       -20.7259
  14   2.0000      -0.731312       -19.9000
  15   2.0000      -0.634755       -17.2726
  16   0.0000      -0.101925        -2.7735
  17   0.0000      -0.076937        -2.0936
  18   0.0000      -0.074173        -2.0184
  19   0.0000      -0.071244        -1.9386
  20   0.0000      -0.050106        -1.3634

MULLIKEN ATOMIC CHARGES
-----------------------
   0 C :   -0.580145
   1 C :    0.589824
   2 N :   -0.338429
   3 N :   -0.300800
   4 H :    0.115983
   5 H :    0.177669
   6 H :    0.119860
   7 H :    0.176820
   8 H :    0.337269
   9 H :    0.345448
  10 H :    0.356502
Sum of atomic charges:    1.0000000

LOEWDIN ATOMIC CHARGES
----------------------
   0 C :    0.699050
   1 C :   -0.215493
   2 N :    0.949017
   3 N :    0.939305
   4 H :   -0.213994
   5 H :   -0.222725
   6 H :   -0.237909
   7 H :   -0.234011
   8 H :   -0.166067
   9 H :   -0.148640
  10 H :   -0.148532

  Mayer bond orders larger than 0.100000
B(  0-C ,  1-C ) :   0.4708 B(  0-C ,  8-H ) :   0.9458 B(  0-C ,  9-H ) :   0.9000
B(  0-C , 10-H ) :   0.8959 B(  1-C ,  2-N ) :   0.9748 B(  1-C ,  3-N ) :   1.0742
B(  2-N ,  3-N ) :  -0.1180 B(  2-N ,  6-H ) :   1.1109 B(  2-N ,  7-H ) :   1.0525
B(  3-N ,  4-H ) :   1.1132 B(  3-N ,  5-H ) :   1.0570

E(0)                                       ...   -188.594892467
E(0)                                       ...   -188.594892467
E(CORR)(strong-pairs)                      ...     -0.782039272
E(CORR)(weak-pairs)                        ...     -0.000660330
E(CORR)(corrected)                         ...     -0.782699603
E(TOT)                                     ...   -189.377592070
E(CCSD(T))                                 ...   -189.408315288
FINAL SINGLE POINT ENERGY      -189.408315287775

DIPOLE MOMENT
-------------
                                X             Y             Z
Electronic contribution:      0.29048       1.55924       1.39915
Nuclear contribution   :     -0.32363      -1.20411      -1.15396
                        -----------------------------------------
Total Dipole Moment    :     -0.03315       0.35513       0.24518
                        -----------------------------------------
Magnitude (a.u.)       :      0.43282
Magnitude (Debye)      :      1.10014

Rotational constants in cm-1:     0.327805     0.304052     0.162439
Rotational constants in MHz :  9827.347355  9115.244333  4869.808750

                             ****ORCA TERMINATED NORMALLY****
TOTAL RUN TIME: 0 days 0 hours 5 minutes 12 seconds 131 msec
