                         Program Version 5.0.0 -  RELEASE  -
|  1> !DLPNO-CCSD(T) aug-cc-pVTZ aug-cc-pVTZ/C TightSCF TightPNO RIJCOSX def2/J
|  2> *xyz 0 1
|  3> C         -1.36353       -1.98134       -2.29361
|  4> F         -0.35039       -2.74969       -1.79601
|  5> H         -2.22523       -2.59288       -2.46214
|  6> H         -1.05452       -1.53818       -3.21720
|  7> H         -1.60477       -1.21086       -1.59143
|  8> *
|  9>
| 10> %MaxCore 64000
| 11> %pal nprocs 8
| 12> end
| 13>
| 14> %scf
| 15>   MaxIter 150
| 16> end
| 17>
| 18>
| 19>                          ****END OF INPUT****

CARTESIAN COORDINATES (ANGSTROEM)
---------------------------------
  C     -1.363530   -1.981340   -2.293610
  F     -0.350390   -2.749690   -1.796010
  H     -2.225230   -2.592880   -2.462140
  H     -1.054520   -1.538180   -3.217200
  H     -1.604770   -1.210860   -1.591430

 Total Charge           Charge          ....    0
 Multiplicity           Mult            ....    1
 Number of Electrons    NEL             ....   18
 Basis Dimension        Dim             ....  161

ORBITAL ENERGIES
----------------

  NO   OCC          E(Eh)            E(eV)
   0   2.0000     -26.280160      -715.1195
   1   2.0000     -11.297101      -307.4098
   2   2.0000      -1.594756       -43.3955
   3   2.0000      -0.961661       -26.1681
   4   2.0000      -0.701946       -19.1009
   5   2.0000      -0.701918       -19.1002
   6   2.0000      -0.682683       -18.5768
   7   2.0000      -0.532043       -14.4776
   8   2.0000      -0.532037       -14.4775
   9   0.0000       0.029477         0.8021
  10   0.0000       0.047213         1.2847
  11   0.0000       0.047213         1.2847
  12   0.0000       0.074934         2.0390
  13   0.0000       0.124013         3.3746

MULLIKEN ATOMIC CHARGES
-----------------------
   0 C :   -0.495297
   1 F :   -0.424369
   2 H :    0.303295
   3 H :    0.308592
   4 H :    0.307779
Sum of atomic charges:    0.0000000

LOEWDIN ATOMIC CHARGES
----------------------
   0 C :    0.213604
   1 F :    0.434793
   2 H :   -0.216183
   3 H :   -0.216130
   4 H :   -0.216084

  Mayer bond orders larger than 0.100000
B(  0-C ,  1-F ) :   0.6642 B(  0-C ,  2-H ) :   0.9149 B(  0-C ,  3-H ) :   0.9093
B(  0-C ,  4-H ) :   0.9085

E(0)                                       ...   -139.097729775
E(0)                                       ...   -139.097729775
E(CORR)(strong-pairs)                      ...     -0.458285151
E(CORR)(weak-pairs)                        ...     -0.000193047
E(CORR)(corrected)                         ...     -0.458478198
E(TOT)                                     ...   -139.556207973
E(CCSD(T))                                 ...   -139.569813493
FINAL SINGLE POINT ENERGY      -139.569813492680

DIPOLE MOMENT
-------------
                                X             Y             Z
Electronic contribution:      2.12807      -1.61390       1.04523
Nuclear contribution   :     -2.70693       2.05289      -1.32950
                        -----------------------------------------
Total Dipole Moment    :     -0.57886       0.43899      -0.28427
                        -----------------------------------------
Magnitude (a.u.)       :      0.78013
Magnitude (Debye)      :      1.98293

Rotational constants in cm-1:     5.477725     0.878859     0.878857
Rotational constants in MHz : 164218.064700 26347.517988 26347.482187

                             ****ORCA TERMINATED NORMALLY****
TOTAL RUN TIME: 0 days 0 hours 0 minutes 43 seconds 502 msec
