                         Program Version 5.0.0 -  RELEASE  -
|  1> !DLPNO-CCSD(T) aug-cc-pVTZ aug-cc-pVTZ/C TightSCF TightPNO RIJCOSX def2/J
|  2> *xyz 0 1
|  3> C          2.20996       -2.81239       -3.66571
|  4> C          2.48901       -1.66851       -2.73754
|  5> C          3.59631       -0.94761       -2.95225
|  6> N          1.66394       -1.41369       -1.77781
|  7> H          0.81164       -1.96318       -1.70275
|  8> H          1.84550       -0.63508       -1.15875
|  9> H          4.20535       -1.17600       -3.73383
| 10> H          3.81723       -0.12585       -2.40604
| 11> H          2.99011       -2.87840       -4.39503
| 12> H          1.27381       -2.65174       -4.15838
| 13> H          2.16680       -3.72339       -3.10614
| 14> *
| 15>
| 16> %MaxCore 64000
| 17> %pal nprocs 8
| 18> end
| 19>
| 20> %scf
| 21>   MaxIter 150
| 22> end
| 23>
| 24>
| 25>                          ****END OF INPUT****

CARTESIAN COORDINATES (ANGSTROEM)
---------------------------------
  C      2.209960   -2.812390   -3.665710
  C      2.489010   -1.668510   -2.737540
  C      3.596310   -0.947610   -2.952250
  N      1.663940   -1.413690   -1.777810
  H      0.811640   -1.963180   -1.702750
  H      1.845500   -0.635080   -1.158750
  H      4.205350   -1.176000   -3.733830
  H      3.817230   -0.125850   -2.406040
  H      2.990110   -2.878400   -4.395030
  H      1.273810   -2.651740   -4.158380
  H      2.166800   -3.723390   -3.106140

 Total Charge           Charge          ....    0
 Multiplicity           Mult            ....    1
 Number of Electrons    NEL             ....   32
 Basis Dimension        Dim             ....  345

ORBITAL ENERGIES
----------------

  NO   OCC          E(Eh)            E(eV)
   0   2.0000     -15.565498      -423.5587
   1   2.0000     -11.258706      -306.3650
   2   2.0000     -11.214742      -305.1687
   3   2.0000     -11.151527      -303.4485
   4   2.0000      -1.251281       -34.0491
   5   2.0000      -1.024586       -27.8804
   6   2.0000      -0.936301       -25.4780
   7   2.0000      -0.778643       -21.1880
   8   2.0000      -0.714232       -19.4352
   9   2.0000      -0.650323       -17.6962
  10   2.0000      -0.596093       -16.2205
  11   2.0000      -0.557643       -15.1742
  12   2.0000      -0.550170       -14.9709
  13   2.0000      -0.499407       -13.5896
  14   2.0000      -0.492003       -13.3881
  15   2.0000      -0.286740        -7.8026
  16   0.0000       0.025924         0.7054
  17   0.0000       0.037342         1.0161
  18   0.0000       0.042130         1.1464
  19   0.0000       0.047440         1.2909
  20   0.0000       0.057680         1.5695

MULLIKEN ATOMIC CHARGES
-----------------------
   0 C :   -0.626423
   1 C :    0.734605
   2 C :   -1.360039
   3 N :   -0.537806
   4 H :    0.072998
   5 H :    0.067162
   6 H :    0.136113
   7 H :    0.583979
   8 H :    0.320691
   9 H :    0.299413
  10 H :    0.309309
Sum of atomic charges:    0.0000000

LOEWDIN ATOMIC CHARGES
----------------------
   0 C :    0.605389
   1 C :   -0.323720
   2 C :    0.559621
   3 N :    0.827804
   4 H :   -0.262750
   5 H :   -0.261915
   6 H :   -0.304557
   7 H :   -0.296212
   8 H :   -0.189958
   9 H :   -0.176718
  10 H :   -0.176985

  Mayer bond orders larger than 0.100000
B(  0-C ,  1-C ) :   0.4794 B(  0-C ,  8-H ) :   0.9801 B(  0-C ,  9-H ) :   0.9657
B(  0-C , 10-H ) :   0.9592 B(  1-C ,  2-C ) :   1.1486 B(  1-C ,  3-N ) :   0.8613
B(  2-C ,  3-N ) :  -0.2428 B(  2-C ,  6-H ) :   1.4580 B(  2-C ,  7-H ) :   0.4972
B(  3-N ,  4-H ) :   1.1455 B(  3-N ,  5-H ) :   1.1664

E(0)                                       ...   -172.159825052
E(0)                                       ...   -172.159825052
E(CORR)(strong-pairs)                      ...     -0.762270053
E(CORR)(weak-pairs)                        ...     -0.000648160
E(CORR)(corrected)                         ...     -0.762918213
E(TOT)                                     ...   -172.922743265
E(CCSD(T))                                 ...   -172.953689721
FINAL SINGLE POINT ENERGY      -172.953689720807

DIPOLE MOMENT
-------------
                                X             Y             Z
Electronic contribution:     -0.69401       0.81886       1.50778
Nuclear contribution   :     -0.07639      -1.03653      -1.19368
                        -----------------------------------------
Total Dipole Moment    :     -0.77040      -0.21767       0.31410
                        -----------------------------------------
Magnitude (a.u.)       :      0.85997
Magnitude (Debye)      :      2.18587

Rotational constants in cm-1:     0.347569     0.308531     0.168494
Rotational constants in MHz : 10419.863808  9249.512495  5051.317883

                             ****ORCA TERMINATED NORMALLY****
TOTAL RUN TIME: 0 days 0 hours 6 minutes 13 seconds 715 msec
