                         Program Version 5.0.0 -  RELEASE  -
|  1> !DLPNO-CCSD(T) aug-cc-pVTZ aug-cc-pVTZ/C TightSCF TightPNO RIJCOSX def2/J
|  2> *xyz 0 1
|  3> C          2.20996       -2.81239       -3.66571
|  4> C          2.48901       -1.66851       -2.73754
|  5> N          3.59631       -0.94761       -2.95225
|  6> C          1.66394       -1.41369       -1.77781
|  7> H          0.81164       -1.96318       -1.70275
|  8> H          1.84550       -0.63508       -1.15875
|  9> H          4.20535       -1.17600       -3.73383
| 10> H          3.81723       -0.12585       -2.40604
| 11> H          2.99011       -2.87840       -4.39503
| 12> H          1.27381       -2.65174       -4.15838
| 13> H          2.16680       -3.72339       -3.10614
| 14> *
| 15>
| 16> %MaxCore 64000
| 17> %pal nprocs 8
| 18> end
| 19>
| 20> %scf
| 21>   MaxIter 150
| 22> end
| 23>
| 24>
| 25>                          ****END OF INPUT****

CARTESIAN COORDINATES (ANGSTROEM)
---------------------------------
  C      2.209960   -2.812390   -3.665710
  C      2.489010   -1.668510   -2.737540
  N      3.596310   -0.947610   -2.952250
  C      1.663940   -1.413690   -1.777810
  H      0.811640   -1.963180   -1.702750
  H      1.845500   -0.635080   -1.158750
  H      4.205350   -1.176000   -3.733830
  H      3.817230   -0.125850   -2.406040
  H      2.990110   -2.878400   -4.395030
  H      1.273810   -2.651740   -4.158380
  H      2.166800   -3.723390   -3.106140

 Total Charge           Charge          ....    0
 Multiplicity           Mult            ....    1
 Number of Electrons    NEL             ....   32
 Basis Dimension        Dim             ....  345

ORBITAL ENERGIES
----------------

  NO   OCC          E(Eh)            E(eV)
   0   2.0000     -15.559704      -423.4011
   1   2.0000     -11.253067      -306.2115
   2   2.0000     -11.213744      -305.1415
   3   2.0000     -11.147746      -303.3456
   4   2.0000      -1.228501       -33.4292
   5   2.0000      -1.031529       -28.0693
   6   2.0000      -0.943888       -25.6845
   7   2.0000      -0.767545       -20.8860
   8   2.0000      -0.698758       -19.0142
   9   2.0000      -0.651272       -17.7220
  10   2.0000      -0.591446       -16.0941
  11   2.0000      -0.562010       -15.2931
  12   2.0000      -0.550094       -14.9688
  13   2.0000      -0.502860       -13.6835
  14   2.0000      -0.483336       -13.1522
  15   2.0000      -0.296299        -8.0627
  16   0.0000       0.027164         0.7392
  17   0.0000       0.037565         1.0222
  18   0.0000       0.041612         1.1323
  19   0.0000       0.050568         1.3760
  20   0.0000       0.057715         1.5705

MULLIKEN ATOMIC CHARGES
-----------------------
   0 C :   -0.723758
   1 C :    0.651484
   2 N :   -0.532711
   3 C :   -1.278370
   4 H :    0.261117
   5 H :    0.607686
   6 H :    0.057473
   7 H :    0.068529
   8 H :    0.313851
   9 H :    0.282814
  10 H :    0.291884
Sum of atomic charges:   -0.0000000

LOEWDIN ATOMIC CHARGES
----------------------
   0 C :    0.609352
   1 C :   -0.316214
   2 N :    0.840312
   3 C :    0.537912
   4 H :   -0.282777
   5 H :   -0.288186
   6 H :   -0.287463
   7 H :   -0.273165
   8 H :   -0.194641
   9 H :   -0.172573
  10 H :   -0.172557

  Mayer bond orders larger than 0.100000
B(  0-C ,  1-C ) :   0.7128 B(  0-C ,  8-H ) :   0.9574 B(  0-C ,  9-H ) :   0.9754
B(  0-C , 10-H ) :   0.9741 B(  1-C ,  2-N ) :   0.7859 B(  1-C ,  3-C ) :   1.2477
B(  2-N ,  3-C ) :  -0.2519 B(  2-N ,  6-H ) :   1.1752 B(  2-N ,  7-H ) :   1.1564
B(  3-C ,  4-H ) :   1.2228 B(  3-C ,  5-H ) :   0.5499

E(0)                                       ...   -172.159900439
E(0)                                       ...   -172.159900439
E(CORR)(strong-pairs)                      ...     -0.762101176
E(CORR)(weak-pairs)                        ...     -0.000639007
E(CORR)(corrected)                         ...     -0.762740183
E(TOT)                                     ...   -172.922640622
E(CCSD(T))                                 ...   -172.953363774
FINAL SINGLE POINT ENERGY      -172.953363773771

DIPOLE MOMENT
-------------
                                X             Y             Z
Electronic contribution:      1.02643       1.21526       0.44371
Nuclear contribution   :     -0.50975      -1.14105      -0.93029
                        -----------------------------------------
Total Dipole Moment    :      0.51668       0.07421      -0.48657
                        -----------------------------------------
Magnitude (a.u.)       :      0.71360
Magnitude (Debye)      :      1.81382

Rotational constants in cm-1:     0.350603     0.305690     0.168346
Rotational constants in MHz : 10510.799277  9164.357607  5046.873498

                             ****ORCA TERMINATED NORMALLY****
TOTAL RUN TIME: 0 days 0 hours 5 minutes 53 seconds 945 msec
