                         Program Version 5.0.0 -  RELEASE  -
|  1> !DLPNO-CCSD(T) aug-cc-pVTZ aug-cc-pVTZ/C TightSCF TightPNO RIJCOSX def2/J
|  2>
|  3> *xyzfile 0 1 D2.xyz
|  4>
|  5> %MaxCore 64000
|  6>
|  7> %pal nprocs 18
|  8> end
|  9>
| 10> %scf
| 11>   MaxIter 150
| 12> end
| 13>
| 14>
| 15>                          ****END OF INPUT****

CARTESIAN COORDINATES (ANGSTROEM)
---------------------------------
  C      1.647032   -2.345276   -5.020411
  C      0.217628   -1.814022   -4.924389
  C      2.209964   -2.812388   -3.665708
  C     -0.811356   -2.908780   -4.607625
  C     -1.916579   -2.485081   -3.643665
  H     -2.554525   -1.712428   -4.091993
  C     -1.363531   -1.981337   -2.293608
  H     -2.553448   -3.355667   -3.458815
  F     -0.350395   -2.749689   -1.796006
  H      2.308385   -1.588704   -5.457128
  H      1.674286   -3.203478   -5.697392
  C      2.489007   -1.668510   -2.737538
  N      3.596314   -0.947608   -2.952247
  C      1.663936   -1.413685   -1.777806
  H      0.811642   -1.963178   -1.702755
  H      1.845503   -0.635078   -1.158749
  H      4.205351   -1.176003   -3.733825
  H      3.817230   -0.125845   -2.406041
  H     -1.244829   -3.280884   -5.541040
  H     -0.306331   -3.757746   -4.142734
  H     -0.036244   -1.318555   -5.865303
  H      0.175004   -1.035382   -4.158095
  H      3.143106   -3.362803   -3.811524
  H      1.487683   -3.458935   -3.165211
  H     -2.226220   -1.908386   -1.602039
  H     -1.051353   -0.915671   -2.443331

 Total Charge           Charge          ....    0
 Multiplicity           Mult            ....    1
 Number of Electrons    NEL             ....   80
 Basis Dimension        Dim             ....  828

ORBITAL ENERGIES
----------------

  NO   OCC          E(Eh)            E(eV)
   0   2.0000     -26.296111      -715.5536
   1   2.0000     -15.542310      -422.9278
   2   2.0000     -11.312263      -307.8223
   3   2.0000     -11.231129      -305.6146
   4   2.0000     -11.229146      -305.5606
   5   2.0000     -11.217360      -305.2399
   6   2.0000     -11.215070      -305.1776
   7   2.0000     -11.210439      -305.0516
   8   2.0000     -11.209597      -305.0286
   9   2.0000     -11.114208      -302.4330
  10   2.0000      -1.625529       -44.2329
  11   2.0000      -1.212631       -32.9974
  12   2.0000      -1.092628       -29.7319
  13   2.0000      -1.049415       -28.5560
  14   2.0000      -0.991859       -26.9899
  15   2.0000      -0.954961       -25.9858
  16   2.0000      -0.897314       -24.4172
  17   2.0000      -0.826304       -22.4849
  18   2.0000      -0.781595       -21.2683
  19   2.0000      -0.778015       -21.1709
  20   2.0000      -0.724773       -19.7221
  21   2.0000      -0.718273       -19.5452
  22   2.0000      -0.682740       -18.5783
  23   2.0000      -0.671566       -18.2742
  24   2.0000      -0.637596       -17.3499
  25   2.0000      -0.620219       -16.8770
  26   2.0000      -0.612419       -16.6648
  27   2.0000      -0.593142       -16.1402
  28   2.0000      -0.565456       -15.3868
  29   2.0000      -0.535368       -14.5681
  30   2.0000      -0.519305       -14.1310
  31   2.0000      -0.508424       -13.8349
  32   2.0000      -0.500600       -13.6220
  33   2.0000      -0.488299       -13.2873
  34   2.0000      -0.477236       -12.9863
  35   2.0000      -0.467367       -12.7177
  36   2.0000      -0.446591       -12.1524
  37   2.0000      -0.444797       -12.1035
  38   2.0000      -0.437718       -11.9109
  39   2.0000      -0.278957        -7.5908
  40   0.0000       0.027603         0.7511
  41   0.0000       0.031260         0.8506
  42   0.0000       0.034415         0.9365
  43   0.0000       0.037348         1.0163
  44   0.0000       0.045752         1.2450

MULLIKEN ATOMIC CHARGES
-----------------------
   0 C :   -0.573098
   1 C :   -0.517195
   2 C :   -0.048558
   3 C :   -0.284125
   4 C :   -0.682264
   5 H :    0.238272
   6 C :   -0.119106
   7 H :    0.237188
   8 F :   -0.570846
   9 H :    0.174416
  10 H :    0.260881
  11 C :    1.046357
  12 N :   -0.902430
  13 C :   -1.608301
  14 H :    0.769742
  15 H :    0.529600
  16 H :   -0.051201
  17 H :   -0.007855
  18 H :    0.340350
  19 H :    0.146383
  20 H :    0.285372
  21 H :    0.206872
  22 H :    0.320054
  23 H :    0.130154
  24 H :    0.402736
  25 H :    0.276601
Sum of atomic charges:   -0.0000000

LOEWDIN ATOMIC CHARGES
----------------------
   0 C :    0.306038
   1 C :    0.300647
   2 C :    0.304045
   3 C :    0.290395
   4 C :    0.297006
   5 H :   -0.134430
   6 C :   -0.002300
   7 H :   -0.152955
   8 F :    0.718436
   9 H :   -0.142211
  10 H :   -0.142866
  11 C :   -0.283758
  12 N :    0.841695
  13 C :    0.552105
  14 H :   -0.693416
  15 H :   -0.259151
  16 H :   -0.281829
  17 H :   -0.273869
  18 H :   -0.135080
  19 H :   -0.176678
  20 H :   -0.137613
  21 H :   -0.184399
  22 H :   -0.134636
  23 H :   -0.182998
  24 H :   -0.145018
  25 H :   -0.147161

  Mayer bond orders larger than 0.100000
B(  0-C ,  1-C ) :   0.8753 B(  0-C ,  2-C ) :   0.8014 B(  0-C ,  9-H ) :   1.0238
B(  0-C , 10-H ) :   0.9894 B(  0-C , 11-C ) :   0.1324 B(  1-C ,  2-C ) :   0.1008
B(  1-C ,  3-C ) :   0.7449 B(  1-C , 20-H ) :   0.9275 B(  1-C , 21-H ) :   1.0753
B(  2-C , 11-C ) :   0.4446 B(  2-C , 12-N ) :  -0.1552 B(  2-C , 22-H ) :   0.9786
B(  2-C , 23-H ) :   1.1404 B(  3-C ,  4-C ) :   0.8713 B(  3-C ,  8-F ) :  -0.1142
B(  3-C , 18-H ) :   0.9132 B(  3-C , 19-H ) :   1.0990 B(  4-C ,  5-H ) :   0.9815
B(  4-C ,  6-C ) :   0.8824 B(  4-C ,  7-H ) :   1.0075 B(  4-C ,  8-F ) :   0.1750
B(  6-C ,  8-F ) :   0.7016 B(  6-C , 24-H ) :   0.8516 B(  6-C , 25-H ) :   1.0109
B(  8-F , 14-H ) :  -0.1895 B( 11-C , 12-N ) :   0.5243 B( 11-C , 13-C ) :   0.9872
B( 11-C , 16-H ) :  -0.1908 B( 11-C , 22-H ) :  -0.1785 B( 12-N , 13-C ) :  -0.5342
B( 12-N , 16-H ) :   1.3993 B( 12-N , 17-H ) :   1.2457 B( 13-C , 14-H ) :   0.5936
B( 13-C , 15-H ) :   0.7170

E(0)                                       ...   -466.230044974
E(0)                                       ...   -466.230044974
E(CORR)(strong-pairs)                      ...     -1.951273122
E(CORR)(weak-pairs)                        ...     -0.002683537
E(CORR)(corrected)                         ...     -1.953956659
E(TOT)                                     ...   -468.184001633
E(CCSD(T))                                 ...   -468.262532587
FINAL SINGLE POINT ENERGY      -468.262532586577

DIPOLE MOMENT
-------------
                                X             Y             Z
Electronic contribution:      0.31978      -1.31427       6.03235
Nuclear contribution   :     -0.73748       1.64619      -6.72655
                        -----------------------------------------
Total Dipole Moment    :     -0.41770       0.33192      -0.69420
                        -----------------------------------------
Magnitude (a.u.)       :      0.87553
Magnitude (Debye)      :      2.22543

Rotational constants in cm-1:     0.063169     0.031711     0.023958
Rotational constants in MHz :  1893.751676   950.657187   718.229932

                             ****ORCA TERMINATED NORMALLY****
TOTAL RUN TIME: 0 days 2 hours 11 minutes 3 seconds 301 msec
