                         Program Version 5.0.0 -  RELEASE  -
|  1> !LC-PBE RIJCOSX def2-SVPD def2/J TightSCF
|  2> *xyz -1 1
|  3> C         -5.57236       -5.80780       -0.81644
|  4> S         -6.90318       -4.61903       -0.52846
|  5> O         -8.11485       -5.25093       -0.95701
|  6> O         -6.53271       -3.42684       -1.31485
|  7> O         -6.86563       -4.29496        0.91412
|  8> C         -3.82708       -4.66110        0.78617
|  9> C         -4.45780       -5.94187        0.22919
| 10> H         -5.17735       -5.54257       -1.79771
| 11> H         -6.07420       -6.76889       -0.92127
| 12> H         -3.68106       -6.56224       -0.22988
| 13> H         -4.84394       -6.51273        1.07581
| 14> H         -3.43706       -4.07576       -0.02016
| 15> H         -3.03403       -4.91680        1.45744
| 16> H         -4.56975       -4.09647        1.31013
| 17> *
| 18> %MaxCore 64000
| 19>
| 20> %pal nprocs 4
| 21> end
| 22>
| 23> %scf
| 24>   MaxIter 150
| 25> end
| 26>
| 27>                          ****END OF INPUT****

CARTESIAN COORDINATES (ANGSTROEM)
---------------------------------
  C     -5.572360   -5.807800   -0.816440
  S     -6.903180   -4.619030   -0.528460
  O     -8.114850   -5.250930   -0.957010
  O     -6.532710   -3.426840   -1.314850
  O     -6.865630   -4.294960    0.914120
  C     -3.827080   -4.661100    0.786170
  C     -4.457800   -5.941870    0.229190
  H     -5.177350   -5.542570   -1.797710
  H     -6.074200   -6.768890   -0.921270
  H     -3.681060   -6.562240   -0.229880
  H     -4.843940   -6.512730    1.075810
  H     -3.437060   -4.075760   -0.020160
  H     -3.034030   -4.916800    1.457440
  H     -4.569750   -4.096470    1.310130

 Total Charge           Charge          ....   -1
 Multiplicity           Mult            ....    1
 Number of Electrons    NEL             ....   66
 Basis Dimension        Dim             ....  212

ORBITAL ENERGIES
----------------

  NO   OCC          E(Eh)            E(eV)
   0   2.0000     -88.318004     -2403.2551
   1   2.0000     -18.781594      -511.0731
   2   2.0000     -18.767818      -510.6983
   3   2.0000     -18.766430      -510.6605
   4   2.0000     -10.005186      -272.2550
   5   2.0000      -9.997476      -272.0452
   6   2.0000      -9.977327      -271.4969
   7   2.0000      -7.939560      -216.0464
   8   2.0000      -5.961903      -162.2316
   9   2.0000      -5.961788      -162.2285
  10   2.0000      -5.961536      -162.2216
  11   2.0000      -1.110618       -30.2215
  12   2.0000      -0.955321       -25.9956
  13   2.0000      -0.931211       -25.3395
  14   2.0000      -0.832703       -22.6590
  15   2.0000      -0.737513       -20.0688
  16   2.0000      -0.634057       -17.2536
  17   2.0000      -0.533476       -14.5166
  18   2.0000      -0.485081       -13.1997
  19   2.0000      -0.467118       -12.7109
  20   2.0000      -0.445459       -12.1215
  21   2.0000      -0.428895       -11.6708
  22   2.0000      -0.411930       -11.2092
  23   2.0000      -0.396137       -10.7794
  24   2.0000      -0.358397        -9.7525
  25   2.0000      -0.353214        -9.6114
  26   2.0000      -0.335496        -9.1293
  27   2.0000      -0.294718        -8.0197
  28   2.0000      -0.292521        -7.9599
  29   2.0000      -0.254331        -6.9207
  30   2.0000      -0.239276        -6.5110
  31   2.0000      -0.236530        -6.4363
  32   2.0000      -0.199964        -5.4413
  33   0.0000       0.199980         5.4417
  34   0.0000       0.220343         5.9958
  35   0.0000       0.222911         6.0657
  36   0.0000       0.229942         6.2571
  37   0.0000       0.249512         6.7896

MULLIKEN ATOMIC CHARGES
-----------------------
   0 C :   -0.126085
   1 S :    1.208251
   2 O :   -0.757896
   3 O :   -0.776087
   4 O :   -0.807392
   5 C :    0.538489
   6 C :   -0.423925
   7 H :    0.104372
   8 H :    0.066739
   9 H :   -0.025058
  10 H :    0.042125
  11 H :    0.004771
  12 H :    0.021078
  13 H :   -0.069380
Sum of atomic charges:   -1.0000000

LOEWDIN ATOMIC CHARGES
----------------------
   0 C :   -0.103798
   1 S :    0.854367
   2 O :   -0.565960
   3 O :   -0.594283
   4 O :   -0.580435
   5 C :    0.090739
   6 C :   -0.112904
   7 H :    0.015437
   8 H :    0.008815
   9 H :    0.018149
  10 H :    0.028140
  11 H :   -0.005784
  12 H :   -0.021123
  13 H :   -0.031361

  Mayer bond orders larger than 0.100000
B(  0-C ,  1-S ) :   0.8973 B(  0-C ,  6-C ) :   1.2917 B(  0-C ,  7-H ) :   0.9206
B(  0-C ,  8-H ) :   0.9113 B(  0-C ,  9-H ) :   0.1255 B(  0-C , 10-H ) :   0.1136
B(  1-S ,  2-O ) :   1.4013 B(  1-S ,  3-O ) :   1.2923 B(  1-S ,  4-O ) :   1.2834
B(  5-C ,  6-C ) :   1.2774 B(  5-C , 11-H ) :   0.8119 B(  5-C , 12-H ) :   0.7746
B(  5-C , 13-H ) :   0.8792 B(  6-C ,  7-H ) :   0.1065 B(  6-C ,  8-H ) :   0.1202
B(  6-C ,  9-H ) :   0.9069 B(  6-C , 10-H ) :   0.9357 B(  6-C , 11-H ) :   0.1760
B(  6-C , 12-H ) :   0.1755 B(  6-C , 13-H ) :   0.1768

FINAL SINGLE POINT ENERGY      -740.721464777298

DIPOLE MOMENT
-------------
                                X             Y             Z
Electronic contribution:     -9.75898       3.13387      -2.58784
Nuclear contribution   :     11.75544      -4.53524       2.70749
                        -----------------------------------------
Total Dipole Moment    :      1.99646      -1.40137       0.11966
                        -----------------------------------------
Magnitude (a.u.)       :      2.44213
Magnitude (Debye)      :      6.20739

Rotational constants in cm-1:     0.134586     0.054907     0.051455
Rotational constants in MHz :  4034.798577  1646.069534  1542.570153

                             ****ORCA TERMINATED NORMALLY****
TOTAL RUN TIME: 0 days 0 hours 0 minutes 25 seconds 415 msec
