                         Program Version 5.0.0 -  RELEASE  -
|  1> !LC-PBE RIJCOSX def2-SVPD def2/J TightSCF
|  2> *xyz 1 1
|  3> C         -4.38262       -1.67089        1.21620
|  4> N         -5.76354       -1.91517        0.70501
|  5> C         -3.28173       -2.19127        0.29436
|  6> H         -5.84081       -2.11520       -0.30065
|  7> H         -6.40882       -1.14866        0.93612
|  8> H         -6.17478       -2.79061        1.05143
|  9> H         -4.32862       -2.13922        2.19810
| 10> H         -4.26158       -0.59740        1.35725
| 11> C         -3.47464       -3.60590       -0.25961
| 12> H         -2.35455       -2.12760        0.87143
| 13> H         -3.16661       -1.49969       -0.54504
| 14> H         -2.64612       -3.85908       -0.88759
| 15> H         -4.37934       -3.64545       -0.82956
| 16> H         -3.53324       -4.30157        0.55126
| 17> *
| 18> %MaxCore 64000
| 19>
| 20> %pal nprocs 4
| 21> end
| 22>
| 23> %scf
| 24>   MaxIter 150
| 25> end
| 26>
| 27>                          ****END OF INPUT****

CARTESIAN COORDINATES (ANGSTROEM)
---------------------------------
  C     -4.382620   -1.670890    1.216200
  N     -5.763540   -1.915170    0.705010
  C     -3.281730   -2.191270    0.294360
  H     -5.840810   -2.115200   -0.300650
  H     -6.408820   -1.148660    0.936120
  H     -6.174780   -2.790610    1.051430
  H     -4.328620   -2.139220    2.198100
  H     -4.261580   -0.597400    1.357250
  C     -3.474640   -3.605900   -0.259610
  H     -2.354550   -2.127600    0.871430
  H     -3.166610   -1.499690   -0.545040
  H     -2.646120   -3.859080   -0.887590
  H     -4.379340   -3.645450   -0.829560
  H     -3.533240   -4.301570    0.551260

 Total Charge           Charge          ....    1
 Multiplicity           Mult            ....    1
 Number of Electrons    NEL             ....   34
 Basis Dimension        Dim             ....  160

ORBITAL ENERGIES
----------------

  NO   OCC          E(Eh)            E(eV)
   0   2.0000     -14.560165      -396.2022
   1   2.0000     -10.375744      -282.3383
   2   2.0000     -10.305202      -280.4188
   3   2.0000     -10.275061      -279.5986
   4   2.0000      -1.376728       -37.4627
   5   2.0000      -1.144738       -31.1499
   6   2.0000      -1.053592       -28.6697
   7   2.0000      -0.949912       -25.8484
   8   2.0000      -0.940611       -25.5953
   9   2.0000      -0.916444       -24.9377
  10   2.0000      -0.832803       -22.6617
  11   2.0000      -0.778688       -21.1892
  12   2.0000      -0.748038       -20.3551
  13   2.0000      -0.720967       -19.6185
  14   2.0000      -0.660839       -17.9823
  15   2.0000      -0.654973       -17.8227
  16   2.0000      -0.634997       -17.2791
  17   0.0000      -0.105799        -2.8789
  18   0.0000      -0.054068        -1.4713
  19   0.0000      -0.047729        -1.2988
  20   0.0000      -0.036965        -1.0059
  21   0.0000      -0.011321        -0.3081

MULLIKEN ATOMIC CHARGES
-----------------------
   0 C :    0.428783
   1 N :   -0.876078
   2 C :   -0.560892
   3 H :    0.384992
   4 H :    0.391842
   5 H :    0.455937
   6 H :    0.047971
   7 H :    0.071349
   8 C :    0.504935
   9 H :    0.078712
  10 H :    0.038332
  11 H :    0.039234
  12 H :   -0.052803
  13 H :    0.047686
Sum of atomic charges:    1.0000000

LOEWDIN ATOMIC CHARGES
----------------------
   0 C :    0.074856
   1 N :    0.316092
   2 C :   -0.070213
   3 H :    0.098722
   4 H :    0.117589
   5 H :    0.114467
   6 H :    0.062381
   7 H :    0.061084
   8 C :    0.115413
   9 H :    0.056763
  10 H :    0.046242
  11 H :    0.017523
  12 H :   -0.018946
  13 H :    0.008027

  Mayer bond orders larger than 0.100000
B(  0-C ,  1-N ) :   0.7003 B(  0-C ,  2-C ) :   1.2318 B(  0-C ,  6-H ) :   0.8683
B(  0-C ,  7-H ) :   0.9180 B(  0-C ,  9-H ) :   0.1140 B(  1-N ,  3-H ) :   0.7024
B(  1-N ,  4-H ) :   0.7644 B(  1-N ,  5-H ) :   0.7363 B(  2-C ,  6-H ) :   0.1098
B(  2-C ,  8-C ) :   1.3060 B(  2-C ,  9-H ) :   0.9444 B(  2-C , 10-H ) :   0.9724
B(  2-C , 11-H ) :   0.1733 B(  2-C , 12-H ) :   0.1410 B(  2-C , 13-H ) :   0.1572
B(  8-C , 11-H ) :   0.8269 B(  8-C , 12-H ) :   0.8741 B(  8-C , 13-H ) :   0.8307

FINAL SINGLE POINT ENERGY      -174.138502989207

DIPOLE MOMENT
-------------
                                X             Y             Z
Electronic contribution:     -1.75884       1.32251       0.79071
Nuclear contribution   :     -0.18358      -0.73024      -0.44649
                        -----------------------------------------
Total Dipole Moment    :     -1.94241       0.59227       0.34422
                        -----------------------------------------
Magnitude (a.u.)       :      2.05967
Magnitude (Debye)      :      5.23527

Rotational constants in cm-1:     0.423641     0.164544     0.133152
Rotational constants in MHz : 12700.438743  4932.897948  3991.802402

                             ****ORCA TERMINATED NORMALLY****
TOTAL RUN TIME: 0 days 0 hours 0 minutes 14 seconds 89 msec
