                         Program Version 5.0.0 -  RELEASE  -
|  1> !LC-PBE RIJCOSX def2-SVPD def2/J TightSCF
|  2> *xyz 0 1
|  3> C         -5.57236       -5.80780       -0.81644
|  4> S         -6.90318       -4.61903       -0.52846
|  5> F         -8.11485       -5.25093       -0.95701
|  6> O         -6.53271       -3.42684       -1.31485
|  7> O         -6.86563       -4.29496        0.91412
|  8> C         -3.82708       -4.66110        0.78617
|  9> C         -4.45780       -5.94187        0.22919
| 10> H         -5.17735       -5.54257       -1.79771
| 11> H         -6.07420       -6.76889       -0.92127
| 12> H         -3.68106       -6.56224       -0.22988
| 13> H         -4.84394       -6.51273        1.07581
| 14> H         -3.43706       -4.07576       -0.02016
| 15> H         -3.03403       -4.91680        1.45744
| 16> H         -4.56975       -4.09647        1.31013
| 17> *
| 18> %MaxCore 64000
| 19>
| 20> %pal nprocs 4
| 21> end
| 22>
| 23> %scf
| 24>   MaxIter 150
| 25> end
| 26>
| 27>                          ****END OF INPUT****

CARTESIAN COORDINATES (ANGSTROEM)
---------------------------------
  C     -5.572360   -5.807800   -0.816440
  S     -6.903180   -4.619030   -0.528460
  F     -8.114850   -5.250930   -0.957010
  O     -6.532710   -3.426840   -1.314850
  O     -6.865630   -4.294960    0.914120
  C     -3.827080   -4.661100    0.786170
  C     -4.457800   -5.941870    0.229190
  H     -5.177350   -5.542570   -1.797710
  H     -6.074200   -6.768890   -0.921270
  H     -3.681060   -6.562240   -0.229880
  H     -4.843940   -6.512730    1.075810
  H     -3.437060   -4.075760   -0.020160
  H     -3.034030   -4.916800    1.457440
  H     -4.569750   -4.096470    1.310130

 Total Charge           Charge          ....    0
 Multiplicity           Mult            ....    1
 Number of Electrons    NEL             ....   66
 Basis Dimension        Dim             ....  212

ORBITAL ENERGIES
----------------

  NO   OCC          E(Eh)            E(eV)
   0   2.0000     -88.577609     -2410.3193
   1   2.0000     -24.638557      -670.4492
   2   2.0000     -19.000406      -517.0273
   3   2.0000     -19.000037      -517.0173
   4   2.0000     -10.197957      -277.5005
   5   2.0000     -10.161257      -276.5019
   6   2.0000     -10.116477      -275.2833
   7   2.0000      -8.200107      -223.1363
   8   2.0000      -6.227239      -169.4518
   9   2.0000      -6.219828      -169.2501
  10   2.0000      -6.218674      -169.2187
  11   2.0000      -1.552965       -42.2583
  12   2.0000      -1.273030       -34.6409
  13   2.0000      -1.161338       -31.6016
  14   2.0000      -1.008174       -27.4338
  15   2.0000      -0.928404       -25.2632
  16   2.0000      -0.875406       -23.8210
  17   2.0000      -0.803640       -21.8681
  18   2.0000      -0.755818       -20.5669
  19   2.0000      -0.742115       -20.1940
  20   2.0000      -0.705133       -19.1876
  21   2.0000      -0.644854       -17.5474
  22   2.0000      -0.632732       -17.2175
  23   2.0000      -0.605333       -16.4719
  24   2.0000      -0.590268       -16.0620
  25   2.0000      -0.560512       -15.2523
  26   2.0000      -0.530842       -14.4449
  27   2.0000      -0.513513       -13.9734
  28   2.0000      -0.504048       -13.7158
  29   2.0000      -0.488672       -13.2974
  30   2.0000      -0.459792       -12.5116
  31   2.0000      -0.453449       -12.3390
  32   2.0000      -0.438999       -11.9458
  33   0.0000       0.061870         1.6836
  34   0.0000       0.082665         2.2494
  35   0.0000       0.089349         2.4313
  36   0.0000       0.097476         2.6525
  37   0.0000       0.116803         3.1784

MULLIKEN ATOMIC CHARGES
-----------------------
   0 C :   -0.166895
   1 S :    1.409561
   2 F :   -0.386044
   3 O :   -0.636038
   4 O :   -0.678944
   5 C :    0.536831
   6 C :   -0.429474
   7 H :    0.158362
   8 H :    0.120391
   9 H :    0.015887
  10 H :    0.068869
  11 H :    0.020707
  12 H :    0.048643
  13 H :   -0.081856
Sum of atomic charges:    0.0000000

LOEWDIN ATOMIC CHARGES
----------------------
   0 C :   -0.068224
   1 S :    1.117045
   2 F :   -0.239675
   3 O :   -0.480675
   4 O :   -0.476821
   5 C :    0.111499
   6 C :   -0.085389
   7 H :    0.035883
   8 H :    0.024843
   9 H :    0.042517
  10 H :    0.040621
  11 H :    0.003863
  12 H :   -0.000733
  13 H :   -0.024754

  Mayer bond orders larger than 0.100000
B(  0-C ,  1-S ) :   0.9408 B(  0-C ,  6-C ) :   1.3353 B(  0-C ,  7-H ) :   0.9213
B(  0-C ,  8-H ) :   0.8644 B(  0-C ,  9-H ) :   0.1209 B(  0-C , 10-H ) :   0.1129
B(  1-S ,  2-F ) :   0.7381 B(  1-S ,  3-O ) :   1.5089 B(  1-S ,  4-O ) :   1.4783
B(  5-C ,  6-C ) :   1.2955 B(  5-C , 11-H ) :   0.8129 B(  5-C , 12-H ) :   0.7797
B(  5-C , 13-H ) :   0.8856 B(  6-C ,  8-H ) :   0.1313 B(  6-C ,  9-H ) :   0.9010
B(  6-C , 10-H ) :   0.9293 B(  6-C , 11-H ) :   0.1705 B(  6-C , 12-H ) :   0.1692
B(  6-C , 13-H ) :   0.1644

FINAL SINGLE POINT ENERGY      -765.169415940012

DIPOLE MOMENT
-------------
                                X             Y             Z
Electronic contribution:    -13.35964       2.34858      -3.91383
Nuclear contribution   :     13.81909      -4.05404       3.42760
                        -----------------------------------------
Total Dipole Moment    :      0.45944      -1.70546      -0.48623
                        -----------------------------------------
Magnitude (a.u.)       :      1.83196
Magnitude (Debye)      :      4.65648

Rotational constants in cm-1:     0.132500     0.053014     0.049575
Rotational constants in MHz :  3972.256497  1589.318970  1486.215991

                             ****ORCA TERMINATED NORMALLY****
TOTAL RUN TIME: 0 days 0 hours 0 minutes 25 seconds 336 msec
