                         Program Version 5.0.0 -  RELEASE  -
|  1> !LC-PBE RIJCOSX def2-SVPD def2/J TightSCF
|  2> *xyz 0 1
|  3> C         -4.38262       -1.67089        1.21620
|  4> C         -5.76354       -1.91517        0.70501
|  5> C         -3.28173       -2.19127        0.29436
|  6> H         -5.84081       -2.11520       -0.30065
|  7> H         -6.40882       -1.14866        0.93612
|  8> H         -6.17478       -2.79061        1.05143
|  9> H         -4.32862       -2.13922        2.19810
| 10> H         -4.26158       -0.59740        1.35725
| 11> C         -3.47464       -3.60590       -0.25961
| 12> H         -2.35455       -2.12760        0.87143
| 13> H         -3.16661       -1.49969       -0.54504
| 14> H         -2.64612       -3.85908       -0.88759
| 15> H         -4.37934       -3.64545       -0.82956
| 16> H         -3.53324       -4.30157        0.55126
| 17> *
| 18> %MaxCore 64000
| 19>
| 20> %pal nprocs 4
| 21> end
| 22>
| 23> %scf
| 24>   MaxIter 150
| 25> end
| 26>
| 27>                          ****END OF INPUT****

CARTESIAN COORDINATES (ANGSTROEM)
---------------------------------
  C     -4.382620   -1.670890    1.216200
  C     -5.763540   -1.915170    0.705010
  C     -3.281730   -2.191270    0.294360
  H     -5.840810   -2.115200   -0.300650
  H     -6.408820   -1.148660    0.936120
  H     -6.174780   -2.790610    1.051430
  H     -4.328620   -2.139220    2.198100
  H     -4.261580   -0.597400    1.357250
  C     -3.474640   -3.605900   -0.259610
  H     -2.354550   -2.127600    0.871430
  H     -3.166610   -1.499690   -0.545040
  H     -2.646120   -3.859080   -0.887590
  H     -4.379340   -3.645450   -0.829560
  H     -3.533240   -4.301570    0.551260

 Total Charge           Charge          ....    0
 Multiplicity           Mult            ....    1
 Number of Electrons    NEL             ....   34
 Basis Dimension        Dim             ....  160

ORBITAL ENERGIES
----------------

  NO   OCC          E(Eh)            E(eV)
   0   2.0000     -10.117298      -275.3057
   1   2.0000     -10.113612      -275.2054
   2   2.0000     -10.105765      -274.9918
   3   2.0000     -10.086354      -274.4636
   4   2.0000      -0.974896       -26.5283
   5   2.0000      -0.894714       -24.3464
   6   2.0000      -0.811571       -22.0840
   7   2.0000      -0.718326       -19.5466
   8   2.0000      -0.613415       -16.6919
   9   2.0000      -0.608532       -16.5590
  10   2.0000      -0.558917       -15.2089
  11   2.0000      -0.533897       -14.5281
  12   2.0000      -0.518532       -14.1100
  13   2.0000      -0.491792       -13.3824
  14   2.0000      -0.456268       -12.4157
  15   2.0000      -0.448946       -12.2165
  16   2.0000      -0.436812       -11.8863
  17   0.0000       0.094207         2.5635
  18   0.0000       0.118422         3.2224
  19   0.0000       0.119947         3.2639
  20   0.0000       0.136657         3.7186
  21   0.0000       0.166925         4.5423

MULLIKEN ATOMIC CHARGES
-----------------------
   0 C :   -0.329045
   1 C :    0.744016
   2 C :   -0.445786
   3 H :   -0.269926
   4 H :   -0.230371
   5 H :   -0.022497
   6 H :   -0.008589
   7 H :    0.030112
   8 C :    0.446590
   9 H :    0.012923
  10 H :    0.050077
  11 H :    0.026094
  12 H :   -0.004928
  13 H :    0.001330
Sum of atomic charges:   -0.0000000

LOEWDIN ATOMIC CHARGES
----------------------
   0 C :   -0.090023
   1 C :    0.087187
   2 C :   -0.104606
   3 H :   -0.034069
   4 H :   -0.022305
   5 H :   -0.020161
   6 H :    0.032189
   7 H :    0.030720
   8 C :    0.093059
   9 H :    0.026767
  10 H :    0.032041
  11 H :   -0.007881
  12 H :   -0.019304
  13 H :   -0.003613

  Mayer bond orders larger than 0.100000
B(  0-C ,  1-C ) :   1.2740 B(  0-C ,  2-C ) :   1.2380 B(  0-C ,  3-H ) :   0.2217
B(  0-C ,  4-H ) :   0.1521 B(  0-C ,  5-H ) :   0.1925 B(  0-C ,  6-H ) :   0.8917
B(  0-C ,  7-H ) :   0.9175 B(  0-C ,  9-H ) :   0.1489 B(  0-C , 10-H ) :   0.1074
B(  1-C ,  3-H ) :   0.7145 B(  1-C ,  4-H ) :   0.8382 B(  1-C ,  5-H ) :   0.6600
B(  1-C ,  6-H ) :   0.1080 B(  2-C ,  6-H ) :   0.1192 B(  2-C ,  8-C ) :   1.3222
B(  2-C ,  9-H ) :   0.9203 B(  2-C , 10-H ) :   0.9288 B(  2-C , 11-H ) :   0.1765
B(  2-C , 12-H ) :   0.1549 B(  2-C , 13-H ) :   0.1544 B(  3-H ,  5-H ) :   0.2662
B(  8-C , 11-H ) :   0.7918 B(  8-C , 12-H ) :   0.8776 B(  8-C , 13-H ) :   0.8451

FINAL SINGLE POINT ENERGY      -157.757370480325

DIPOLE MOMENT
-------------
                                X             Y             Z
Electronic contribution:      0.63766       0.59540       0.38032
Nuclear contribution   :     -0.64996      -0.59433      -0.37777
                        -----------------------------------------
Total Dipole Moment    :     -0.01230       0.00107       0.00254
                        -----------------------------------------
Magnitude (a.u.)       :      0.01261
Magnitude (Debye)      :      0.03205

Rotational constants in cm-1:     0.431358     0.171688     0.138554
Rotational constants in MHz : 12931.797515  5147.084397  4153.759343

                             ****ORCA TERMINATED NORMALLY****
TOTAL RUN TIME: 0 days 0 hours 0 minutes 13 seconds 325 msec
