                         Program Version 5.0.0 -  RELEASE  -
|  1> !LC-PBE RIJCOSX def2-SVPD def2/J TightSCF
|  2> *xyz 0 1
|  3> C         -5.57236       -5.80780       -0.81644
|  4> S         -6.90318       -4.61903       -0.52846
|  5> O         -8.11485       -5.25093       -0.95701
|  6> F         -6.53271       -3.42684       -1.31485
|  7> O         -6.86563       -4.29496        0.91412
|  8> C         -3.82708       -4.66110        0.78617
|  9> C         -4.45780       -5.94187        0.22919
| 10> H         -5.17735       -5.54257       -1.79771
| 11> H         -6.07420       -6.76889       -0.92127
| 12> H         -3.68106       -6.56224       -0.22988
| 13> H         -4.84394       -6.51273        1.07581
| 14> H         -3.43706       -4.07576       -0.02016
| 15> H         -3.03403       -4.91680        1.45744
| 16> H         -4.56975       -4.09647        1.31013
| 17> *
| 18> %MaxCore 64000
| 19>
| 20> %pal nprocs 4
| 21> end
| 22>
| 23> %scf
| 24>   MaxIter 150
| 25> end
| 26>
| 27>                          ****END OF INPUT****

CARTESIAN COORDINATES (ANGSTROEM)
---------------------------------
  C     -5.572360   -5.807800   -0.816440
  S     -6.903180   -4.619030   -0.528460
  O     -8.114850   -5.250930   -0.957010
  F     -6.532710   -3.426840   -1.314850
  O     -6.865630   -4.294960    0.914120
  C     -3.827080   -4.661100    0.786170
  C     -4.457800   -5.941870    0.229190
  H     -5.177350   -5.542570   -1.797710
  H     -6.074200   -6.768890   -0.921270
  H     -3.681060   -6.562240   -0.229880
  H     -4.843940   -6.512730    1.075810
  H     -3.437060   -4.075760   -0.020160
  H     -3.034030   -4.916800    1.457440
  H     -4.569750   -4.096470    1.310130

 Total Charge           Charge          ....    0
 Multiplicity           Mult            ....    1
 Number of Electrons    NEL             ....   66
 Basis Dimension        Dim             ....  212

ORBITAL ENERGIES
----------------

  NO   OCC          E(Eh)            E(eV)
   0   2.0000     -88.575753     -2410.2688
   1   2.0000     -24.616147      -669.8394
   2   2.0000     -19.015031      -517.4253
   3   2.0000     -18.999675      -517.0074
   4   2.0000     -10.197267      -277.4817
   5   2.0000     -10.161060      -276.4965
   6   2.0000     -10.123126      -275.4643
   7   2.0000      -8.198070      -223.0808
   8   2.0000      -6.225086      -169.3932
   9   2.0000      -6.217982      -169.1999
  10   2.0000      -6.216831      -169.1686
  11   2.0000      -1.516131       -41.2560
  12   2.0000      -1.288217       -35.0542
  13   2.0000      -1.177731       -32.0477
  14   2.0000      -1.009310       -27.4647
  15   2.0000      -0.923186       -25.1212
  16   2.0000      -0.864618       -23.5274
  17   2.0000      -0.799218       -21.7478
  18   2.0000      -0.730702       -19.8834
  19   2.0000      -0.725364       -19.7382
  20   2.0000      -0.706164       -19.2157
  21   2.0000      -0.651243       -17.7212
  22   2.0000      -0.629675       -17.1343
  23   2.0000      -0.603716       -16.4279
  24   2.0000      -0.593307       -16.1447
  25   2.0000      -0.577458       -15.7134
  26   2.0000      -0.538913       -14.6646
  27   2.0000      -0.515469       -14.0266
  28   2.0000      -0.512992       -13.9592
  29   2.0000      -0.490492       -13.3470
  30   2.0000      -0.473813       -12.8931
  31   2.0000      -0.459201       -12.4955
  32   2.0000      -0.447053       -12.1649
  33   0.0000       0.065780         1.7900
  34   0.0000       0.084832         2.3084
  35   0.0000       0.093194         2.5359
  36   0.0000       0.093588         2.5467
  37   0.0000       0.118254         3.2179

MULLIKEN ATOMIC CHARGES
-----------------------
   0 C :   -0.173166
   1 S :    1.364026
   2 O :   -0.620229
   3 F :   -0.362840
   4 O :   -0.678876
   5 C :    0.538842
   6 C :   -0.403998
   7 H :    0.153276
   8 H :    0.120503
   9 H :    0.017124
  10 H :    0.069968
  11 H :    0.006758
  12 H :    0.052193
  13 H :   -0.083584
Sum of atomic charges:   -0.0000000

LOEWDIN ATOMIC CHARGES
----------------------
   0 C :   -0.062072
   1 S :    1.112193
   2 O :   -0.454422
   3 F :   -0.260014
   4 O :   -0.473245
   5 C :    0.105847
   6 C :   -0.090066
   7 H :    0.031450
   8 H :    0.036785
   9 H :    0.040804
  10 H :    0.042809
  11 H :   -0.001054
  12 H :    0.000112
  13 H :   -0.029127

  Mayer bond orders larger than 0.100000
B(  0-C ,  1-S ) :   0.9563 B(  0-C ,  6-C ) :   1.3258 B(  0-C ,  7-H ) :   0.8938
B(  0-C ,  8-H ) :   0.9082 B(  0-C ,  9-H ) :   0.1164 B(  0-C , 10-H ) :   0.1169
B(  1-S ,  2-O ) :   1.6199 B(  1-S ,  3-F ) :   0.6675 B(  1-S ,  4-O ) :   1.5118
B(  5-C ,  6-C ) :   1.2900 B(  5-C , 11-H ) :   0.8139 B(  5-C , 12-H ) :   0.7857
B(  5-C , 13-H ) :   0.8861 B(  6-C ,  7-H ) :   0.1046 B(  6-C ,  8-H ) :   0.1137
B(  6-C ,  9-H ) :   0.9017 B(  6-C , 10-H ) :   0.9320 B(  6-C , 11-H ) :   0.1659
B(  6-C , 12-H ) :   0.1680 B(  6-C , 13-H ) :   0.1626

FINAL SINGLE POINT ENERGY      -765.188869091018

DIPOLE MOMENT
-------------
                                X             Y             Z
Electronic contribution:    -10.58277       5.53841      -4.54080
Nuclear contribution   :     12.11759      -6.01574       3.81244
                        -----------------------------------------
Total Dipole Moment    :      1.53482      -0.47732      -0.72836
                        -----------------------------------------
Magnitude (a.u.)       :      1.76466
Magnitude (Debye)      :      4.48541

Rotational constants in cm-1:     0.128152     0.053825     0.050608
Rotational constants in MHz :  3841.897096  1613.621976  1517.196867

                             ****ORCA TERMINATED NORMALLY****
TOTAL RUN TIME: 0 days 0 hours 0 minutes 25 seconds 172 msec
