                         Program Version 5.0.0 -  RELEASE  -
|  1> !LC-PBE RIJCOSX def2-SVPD def2/J TightSCF
|  2> *xyz 0 1
|  3> C         -5.57236       -5.80780       -0.81644
|  4> S         -6.90318       -4.61903       -0.52846
|  5> O         -8.11485       -5.25093       -0.95701
|  6> O         -6.53271       -3.42684       -1.31485
|  7> F         -6.86563       -4.29496        0.91412
|  8> C         -3.82708       -4.66110        0.78617
|  9> C         -4.45780       -5.94187        0.22919
| 10> H         -5.17735       -5.54257       -1.79771
| 11> H         -6.07420       -6.76889       -0.92127
| 12> H         -3.68106       -6.56224       -0.22988
| 13> H         -4.84394       -6.51273        1.07581
| 14> H         -3.43706       -4.07576       -0.02016
| 15> H         -3.03403       -4.91680        1.45744
| 16> H         -4.56975       -4.09647        1.31013
| 17> *
| 18> %MaxCore 64000
| 19>
| 20> %pal nprocs 4
| 21> end
| 22>
| 23> %scf
| 24>   MaxIter 150
| 25> end
| 26>
| 27>                          ****END OF INPUT****

CARTESIAN COORDINATES (ANGSTROEM)
---------------------------------
  C     -5.572360   -5.807800   -0.816440
  S     -6.903180   -4.619030   -0.528460
  O     -8.114850   -5.250930   -0.957010
  O     -6.532710   -3.426840   -1.314850
  F     -6.865630   -4.294960    0.914120
  C     -3.827080   -4.661100    0.786170
  C     -4.457800   -5.941870    0.229190
  H     -5.177350   -5.542570   -1.797710
  H     -6.074200   -6.768890   -0.921270
  H     -3.681060   -6.562240   -0.229880
  H     -4.843940   -6.512730    1.075810
  H     -3.437060   -4.075760   -0.020160
  H     -3.034030   -4.916800    1.457440
  H     -4.569750   -4.096470    1.310130

 Total Charge           Charge          ....    0
 Multiplicity           Mult            ....    1
 Number of Electrons    NEL             ....   66
 Basis Dimension        Dim             ....  212

ORBITAL ENERGIES
----------------

  NO   OCC          E(Eh)            E(eV)
   0   2.0000     -88.574409     -2410.2322
   1   2.0000     -24.614760      -669.8017
   2   2.0000     -19.014116      -517.4004
   3   2.0000     -18.998156      -516.9661
   4   2.0000     -10.196027      -277.4480
   5   2.0000     -10.168084      -276.6876
   6   2.0000     -10.133974      -275.7594
   7   2.0000      -8.196751      -223.0449
   8   2.0000      -6.223859      -169.3598
   9   2.0000      -6.216676      -169.1644
  10   2.0000      -6.215425      -169.1303
  11   2.0000      -1.513273       -41.1783
  12   2.0000      -1.288092       -35.0508
  13   2.0000      -1.177016       -32.0282
  14   2.0000      -1.013972       -27.5916
  15   2.0000      -0.924303       -25.1516
  16   2.0000      -0.865235       -23.5442
  17   2.0000      -0.806139       -21.9362
  18   2.0000      -0.737943       -20.0805
  19   2.0000      -0.727741       -19.8028
  20   2.0000      -0.693731       -18.8774
  21   2.0000      -0.648624       -17.6499
  22   2.0000      -0.623754       -16.9732
  23   2.0000      -0.620352       -16.8806
  24   2.0000      -0.596111       -16.2210
  25   2.0000      -0.576233       -15.6801
  26   2.0000      -0.540927       -14.7194
  27   2.0000      -0.524944       -14.2845
  28   2.0000      -0.518275       -14.1030
  29   2.0000      -0.497875       -13.5479
  30   2.0000      -0.470710       -12.8087
  31   2.0000      -0.458014       -12.4632
  32   2.0000      -0.449842       -12.2408
  33   0.0000       0.063373         1.7245
  34   0.0000       0.086897         2.3646
  35   0.0000       0.092862         2.5269
  36   0.0000       0.094430         2.5696
  37   0.0000       0.116846         3.1796

MULLIKEN ATOMIC CHARGES
-----------------------
   0 C :   -0.152669
   1 S :    1.340319
   2 O :   -0.620521
   3 O :   -0.643759
   4 F :   -0.387612
   5 C :    0.544353
   6 C :   -0.410177
   7 H :    0.157679
   8 H :    0.124815
   9 H :    0.025790
  10 H :    0.045574
  11 H :    0.021442
  12 H :    0.056803
  13 H :   -0.102038
Sum of atomic charges:    0.0000000

LOEWDIN ATOMIC CHARGES
----------------------
   0 C :   -0.057168
   1 S :    1.104611
   2 O :   -0.454779
   3 O :   -0.482542
   4 F :   -0.260405
   5 C :    0.107812
   6 C :   -0.097051
   7 H :    0.043709
   8 H :    0.031567
   9 H :    0.042249
  10 H :    0.037436
  11 H :    0.006470
  12 H :    0.001304
  13 H :   -0.023213

  Mayer bond orders larger than 0.100000
B(  0-C ,  1-S ) :   0.9703 B(  0-C ,  6-C ) :   1.2918 B(  0-C ,  7-H ) :   0.9075
B(  0-C ,  8-H ) :   0.9066 B(  0-C ,  9-H ) :   0.1215 B(  0-C , 10-H ) :   0.1064
B(  1-S ,  2-O ) :   1.6023 B(  1-S ,  3-O ) :   1.5204 B(  1-S ,  4-F ) :   0.6742
B(  5-C ,  6-C ) :   1.2883 B(  5-C , 11-H ) :   0.8202 B(  5-C , 12-H ) :   0.7809
B(  5-C , 13-H ) :   0.8813 B(  6-C ,  7-H ) :   0.1084 B(  6-C ,  8-H ) :   0.1189
B(  6-C ,  9-H ) :   0.8933 B(  6-C , 10-H ) :   0.9512 B(  6-C , 11-H ) :   0.1753
B(  6-C , 12-H ) :   0.1694 B(  6-C , 13-H ) :   0.1575

FINAL SINGLE POINT ENERGY      -765.188854285903

DIPOLE MOMENT
-------------
                                X             Y             Z
Electronic contribution:    -11.08956       3.98740      -0.65255
Nuclear contribution   :     12.47562      -5.08213       1.41531
                        -----------------------------------------
Total Dipole Moment    :      1.38606      -1.09473       0.76276
                        -----------------------------------------
Magnitude (a.u.)       :      1.92391
Magnitude (Debye)      :      4.89018

Rotational constants in cm-1:     0.128398     0.054249     0.051014
Rotational constants in MHz :  3849.278549  1626.338413  1529.351405

                             ****ORCA TERMINATED NORMALLY****
TOTAL RUN TIME: 0 days 0 hours 0 minutes 25 seconds 413 msec
