                         Program Version 5.0.0 -  RELEASE  -
|  1> !LC-PBE RIJCOSX def2-SVPD def2/J TightSCF xyzfile
|  2>
|  3> *xyzfile 0 1 D1.xyz
|  4>
|  5> %MaxCore 64000
|  6>
|  7> %pal nprocs 4
|  8> end
|  9>
| 10> %scf
| 11>   MaxIter 150
| 12> end
| 13>
| 14>
| 15>                          ****END OF INPUT****

CARTESIAN COORDINATES (ANGSTROEM)
---------------------------------
  C     -4.382623   -1.670889    1.216201
  C     -5.763539   -1.915170    0.705012
  C     -3.281728   -2.191272    0.294361
  C     -5.572364   -5.807798   -0.816445
  S     -6.903179   -4.619033   -0.528458
  H     -5.840812   -2.115205   -0.300646
  H     -6.408823   -1.148656    0.936124
  H     -6.174781   -2.790606    1.051433
  F     -8.114853   -5.250932   -0.957007
  O     -6.532715   -3.426838   -1.314848
  H     -4.328618   -2.139223    2.198103
  H     -4.261583   -0.597399    1.357248
  O     -6.865632   -4.294957    0.914118
  C     -3.474641   -3.605898   -0.259608
  H     -2.354548   -2.127602    0.871433
  H     -3.166611   -1.499693   -0.545037
  C     -3.827078   -4.661097    0.786174
  H     -2.560559   -3.889391   -0.788050
  H     -4.255932   -3.570040   -1.019300
  C     -4.457800   -5.941875    0.229195
  H     -5.177347   -5.542575   -1.797714
  H     -6.074202   -6.768894   -0.921272
  H     -4.530506   -4.253640    1.511979
  H     -2.933400   -4.932302    1.356825
  H     -3.681064   -6.562236   -0.229885
  H     -4.843942   -6.512728    1.075805

 Total Charge           Charge          ....    0
 Multiplicity           Mult            ....    1
 Number of Electrons    NEL             ....   98
 Basis Dimension        Dim             ....  356

ORBITAL ENERGIES
----------------

  NO   OCC          E(Eh)            E(eV)
   0   2.0000     -88.587928     -2410.6001
   1   2.0000     -24.644927      -670.6226
   2   2.0000     -19.009550      -517.2762
   3   2.0000     -19.008738      -517.2541
   4   2.0000     -10.201688      -277.6020
   5   2.0000     -10.160083      -276.4699
   6   2.0000     -10.125043      -275.5164
   7   2.0000     -10.113954      -275.2147
   8   2.0000     -10.104640      -274.9612
   9   2.0000     -10.090087      -274.5652
  10   2.0000     -10.030816      -272.9524
  11   2.0000      -8.208979      -223.3777
  12   2.0000      -6.236114      -169.6933
  13   2.0000      -6.228878      -169.4964
  14   2.0000      -6.227677      -169.4637
  15   2.0000      -1.558684       -42.4139
  16   2.0000      -1.285914       -34.9915
  17   2.0000      -1.174195       -31.9515
  18   2.0000      -1.016536       -27.6613
  19   2.0000      -0.972003       -26.4495
  20   2.0000      -0.924860       -25.1667
  21   2.0000      -0.895523       -24.3684
  22   2.0000      -0.858187       -23.3524
  23   2.0000      -0.810406       -22.0523
  24   2.0000      -0.775036       -21.0898
  25   2.0000      -0.764075       -20.7915
  26   2.0000      -0.743797       -20.2397
  27   2.0000      -0.709401       -19.3038
  28   2.0000      -0.692069       -18.8322
  29   2.0000      -0.650289       -17.6953
  30   2.0000      -0.645481       -17.5644
  31   2.0000      -0.622880       -16.9494
  32   2.0000      -0.617089       -16.7918
  33   2.0000      -0.587205       -15.9787
  34   2.0000      -0.578477       -15.7412
  35   2.0000      -0.561977       -15.2922
  36   2.0000      -0.550619       -14.9831
  37   2.0000      -0.525558       -14.3012
  38   2.0000      -0.516814       -14.0632
  39   2.0000      -0.512054       -13.9337
  40   2.0000      -0.482583       -13.1318
  41   2.0000      -0.476616       -12.9694
  42   2.0000      -0.470247       -12.7961
  43   2.0000      -0.465374       -12.6635
  44   2.0000      -0.453199       -12.3322
  45   2.0000      -0.440355       -11.9827
  46   2.0000      -0.419481       -11.4147
  47   2.0000      -0.413885       -11.2624
  48   2.0000      -0.391144       -10.6436
  49   0.0000       0.057890         1.5753
  50   0.0000       0.078050         2.1238
  51   0.0000       0.083692         2.2774
  52   0.0000       0.095681         2.6036
  53   0.0000       0.108583         2.9547

MULLIKEN ATOMIC CHARGES
-----------------------
   0 C :   -0.215651
   1 C :    1.612447
   2 C :    0.256356
   3 C :   -0.033654
   4 S :    1.531124
   5 H :   -0.387686
   6 H :   -0.291747
   7 H :   -0.816415
   8 F :   -0.478087
   9 O :   -0.622387
  10 H :    0.185934
  11 H :   -0.267105
  12 O :   -0.691141
  13 C :   -0.000564
  14 H :    0.027451
  15 H :    0.126815
  16 C :   -0.097653
  17 H :   -0.224222
  18 H :   -0.033798
  19 C :    0.263945
  20 H :    0.226401
  21 H :   -0.112112
  22 H :    0.043168
  23 H :   -0.153228
  24 H :    0.064120
  25 H :    0.087689
Sum of atomic charges:    0.0000000

LOEWDIN ATOMIC CHARGES
----------------------
   0 C :   -0.069060
   1 C :    0.108088
   2 C :   -0.047876
   3 C :   -0.055288
   4 S :    1.182616
   5 H :   -0.089180
   6 H :   -0.008149
   7 H :   -0.130640
   8 F :   -0.229906
   9 O :   -0.459487
  10 H :    0.026195
  11 H :    0.026625
  12 O :   -0.448479
  13 C :   -0.032136
  14 H :    0.027607
  15 H :    0.037356
  16 C :   -0.030418
  17 H :    0.035079
  18 H :   -0.007270
  19 C :   -0.035747
  20 H :    0.035858
  21 H :    0.024309
  22 H :    0.007144
  23 H :    0.042838
  24 H :    0.046823
  25 H :    0.043096

  Mayer bond orders larger than 0.100000
B(  0-C ,  1-C ) :   1.1111 B(  0-C ,  2-C ) :   1.1761 B(  0-C ,  5-H ) :   0.3211
B(  0-C ,  7-H ) :   0.3412 B(  0-C , 10-H ) :   0.7168 B(  0-C , 11-H ) :   1.0967
B(  0-C , 14-H ) :   0.1485 B(  0-C , 15-H ) :   0.1341 B(  1-C ,  2-C ) :   0.1159
B(  1-C ,  6-H ) :   0.6738 B(  1-C ,  7-H ) :  -0.1660 B(  1-C , 10-H ) :   0.1733
B(  2-C , 10-H ) :   0.1012 B(  2-C , 13-C ) :   1.2894 B(  2-C , 14-H ) :   0.8168
B(  2-C , 15-H ) :   0.7072 B(  3-C ,  4-S ) :   0.9799 B(  3-C , 19-C ) :   1.2693
B(  3-C , 20-H ) :   0.8696 B(  3-C , 21-H ) :   0.9143 B(  3-C , 24-H ) :   0.1080
B(  3-C , 25-H ) :   0.1030 B(  4-S ,  8-F ) :   0.6798 B(  4-S ,  9-O ) :   1.3949
B(  4-S , 12-O ) :   1.3868 B(  5-H ,  7-H ) :   0.8445 B(  5-H ,  9-O ) :   0.2199
B(  5-H , 11-H ) :   0.1441 B(  5-H , 18-H ) :   0.1307 B(  6-H , 11-H ) :  -0.1228
B(  6-H , 18-H ) :  -0.1134 B(  7-H , 10-H ) :  -0.1082 B(  7-H , 12-O ) :   0.1411
B(  9-O , 12-O ) :   0.1590 B( 10-H , 11-H ) :  -0.1671 B( 10-H , 22-H ) :   0.1279
B( 13-C , 14-H ) :   0.1465 B( 13-C , 15-H ) :   0.2096 B( 13-C , 16-C ) :   1.2006
B( 13-C , 17-H ) :   0.9182 B( 13-C , 18-H ) :   0.8500 B( 13-C , 23-H ) :   0.1688
B( 16-C , 17-H ) :   0.1808 B( 16-C , 18-H ) :   0.1468 B( 16-C , 19-C ) :   1.2822
B( 16-C , 22-H ) :   0.8952 B( 16-C , 23-H ) :   0.9094 B( 16-C , 24-H ) :   0.1101
B( 16-C , 25-H ) :   0.2170 B( 19-C , 21-H ) :   0.1837 B( 19-C , 24-H ) :   0.8175
B( 19-C , 25-H ) :   0.7282

FINAL SINGLE POINT ENERGY      -921.717862343315

DIPOLE MOMENT
-------------
                                X             Y             Z
Electronic contribution:    -18.91387      -8.77443      -6.76240
Nuclear contribution   :     19.08524       6.89775       6.14221
                        -----------------------------------------
Total Dipole Moment    :      0.17137      -1.87668      -0.62018
                        -----------------------------------------
Magnitude (a.u.)       :      1.98392
Magnitude (Debye)      :      5.04272

Rotational constants in cm-1:     0.049343     0.024787     0.019726
Rotational constants in MHz :  1479.262779   743.087234   591.370705

                             ****ORCA TERMINATED NORMALLY****
TOTAL RUN TIME: 0 days 0 hours 1 minutes 55 seconds 287 msec
