                         Program Version 5.0.0 -  RELEASE  -
|  1> !PBE D3BJ RIJCOSX def2-SVPD def2/J TightSCF
|  2> *xyz -1 1
|  3> C          3.84189       -6.95161       -3.63283
|  4> S          4.31812       -6.91593       -5.36869
|  5> O          5.40615       -5.89948       -5.51297
|  6> O          3.11191       -6.44508       -6.04379
|  7> O          4.76340       -8.23942       -5.69863
|  8> H          3.06224       -7.67071       -3.49159
|  9> H          3.49217       -5.98401       -3.33897
| 10> H          4.68822       -7.22131       -3.03626
| 11> *
| 12>
| 13> %MaxCore 64000
| 14>
| 15> %pal nprocs 8
| 16> end
| 17>
| 18> %scf
| 19>   MaxIter 150
| 20> end
| 21>
| 22>
| 23>                          ****END OF INPUT****

CARTESIAN COORDINATES (ANGSTROEM)
---------------------------------
  C      3.841890   -6.951610   -3.632830
  S      4.318120   -6.915930   -5.368690
  O      5.406150   -5.899480   -5.512970
  O      3.111910   -6.445080   -6.043790
  O      4.763400   -8.239420   -5.698630
  H      3.062240   -7.670710   -3.491590
  H      3.492170   -5.984010   -3.338970
  H      4.688220   -7.221310   -3.036260

 Total Charge           Charge          ....   -1
 Multiplicity           Mult            ....    1
 Number of Electrons    NEL             ....   50
 Basis Dimension        Dim             ....  140

ORBITAL ENERGIES
----------------

  NO   OCC          E(Eh)            E(eV)
   0   2.0000     -88.055149     -2396.1024
   1   2.0000     -18.548649      -504.7344
   2   2.0000     -18.538934      -504.4701
   3   2.0000     -18.532811      -504.3034
   4   2.0000      -9.748023      -265.2572
   5   2.0000      -7.659137      -208.4157
   6   2.0000      -5.686120      -154.7272
   7   2.0000      -5.685974      -154.7232
   8   2.0000      -5.685587      -154.7127
   9   2.0000      -0.837138       -22.7797
  10   2.0000      -0.704908       -19.1815
  11   2.0000      -0.675747       -18.3880
  12   2.0000      -0.510027       -13.8785
  13   2.0000      -0.329278        -8.9601
  14   2.0000      -0.247473        -6.7341
  15   2.0000      -0.240947        -6.5565
  16   2.0000      -0.238855        -6.4996
  17   2.0000      -0.197782        -5.3819
  18   2.0000      -0.195235        -5.3126
  19   2.0000      -0.102182        -2.7805
  20   2.0000      -0.101018        -2.7488
  21   2.0000      -0.072845        -1.9822
  22   2.0000      -0.064894        -1.7659
  23   2.0000      -0.053139        -1.4460
  24   2.0000      -0.016498        -0.4489
  25   0.0000       0.135660         3.6915
  26   0.0000       0.172242         4.6870
  27   0.0000       0.172482         4.6935
  28   0.0000       0.175575         4.7776
  29   0.0000       0.196598         5.3497

MULLIKEN ATOMIC CHARGES
-----------------------
   0 C :    0.505358
   1 S :    0.926100
   2 O :   -0.756626
   3 O :   -0.726510
   4 O :   -0.692884
   5 H :   -0.076581
   6 H :   -0.081377
   7 H :   -0.097481
Sum of atomic charges:   -1.0000000

LOEWDIN ATOMIC CHARGES
----------------------
   0 C :    0.050542
   1 S :    0.784235
   2 O :   -0.582509
   3 O :   -0.572105
   4 O :   -0.555288
   5 H :   -0.041586
   6 H :   -0.040244
   7 H :   -0.043045

  Mayer bond orders larger than 0.100000
B(  0-C ,  1-S ) :   0.9333 B(  0-C ,  5-H ) :   0.9145 B(  0-C ,  6-H ) :   0.9209
B(  0-C ,  7-H ) :   0.9236 B(  1-S ,  2-O ) :   1.3274 B(  1-S ,  3-O ) :   1.3603
B(  1-S ,  4-O ) :   1.3787 B(  1-S ,  5-H ) :   0.1118 B(  1-S ,  6-H ) :   0.1242
B(  1-S ,  7-H ) :   0.1197

Dispersion correction           -0.006290486
FINAL SINGLE POINT ENERGY      -663.052998909116

DIPOLE MOMENT
-------------
                                X             Y             Z
Electronic contribution:      1.10963      -0.05271      -4.20522
Nuclear contribution   :     -1.53523      -0.17928       5.57610
                        -----------------------------------------
Total Dipole Moment    :     -0.42561      -0.23199       1.37088
                        -----------------------------------------
Magnitude (a.u.)       :      1.45406
Magnitude (Debye)      :      3.69592

Rotational constants in cm-1:     0.172657     0.156250     0.152500
Rotational constants in MHz :  5176.120042  4684.252187  4571.835124

                             ****ORCA TERMINATED NORMALLY****
TOTAL RUN TIME: 0 days 0 hours 0 minutes 3 seconds 530 msec
