                         Program Version 5.0.0 -  RELEASE  -
|  1> !PBE D3BJ RIJCOSX def2-SVPD def2/J TightSCF
|  2> *xyz 1 1
|  3> C          5.55821       -1.99291       -6.21505
|  4> C          4.18188       -2.58967       -6.29891
|  5> N          3.14587       -1.76843       -6.48675
|  6> N          4.01910       -3.86431       -6.22743
|  7> H          4.76849       -4.59115       -5.99077
|  8> H          3.12241       -4.33339       -6.31462
|  9> H          3.28164       -0.77779       -6.56655
| 10> H          2.21255       -2.13419       -6.56225
| 11> H          5.49055       -0.92791       -6.29315
| 12> H          6.16046       -2.37160       -7.01429
| 13> H          6.00378       -2.25423       -5.27799
| 14> *
| 15>
| 16> %MaxCore 64000
| 17>
| 18> %pal nprocs 8
| 19> end
| 20>
| 21> %scf
| 22>   MaxIter 150
| 23> end
| 24>
| 25>
| 26>                          ****END OF INPUT****

CARTESIAN COORDINATES (ANGSTROEM)
---------------------------------
  C      5.558210   -1.992910   -6.215050
  C      4.181880   -2.589670   -6.298910
  N      3.145870   -1.768430   -6.486750
  N      4.019100   -3.864310   -6.227430
  H      4.768490   -4.591150   -5.990770
  H      3.122410   -4.333390   -6.314620
  H      3.281640   -0.777790   -6.566550
  H      2.212550   -2.134190   -6.562250
  H      5.490550   -0.927910   -6.293150
  H      6.160460   -2.371600   -7.014290
  H      6.003780   -2.254230   -5.277990

 Total Charge           Charge          ....    1
 Multiplicity           Mult            ....    1
 Number of Electrons    NEL             ....   32
 Basis Dimension        Dim             ....  136

ORBITAL ENERGIES
----------------

  NO   OCC          E(Eh)            E(eV)
   0   2.0000     -14.257321      -387.9614
   1   2.0000     -14.247708      -387.6998
   2   2.0000     -10.220503      -278.1140
   3   2.0000     -10.093036      -274.6455
   4   2.0000      -1.120040       -30.4778
   5   2.0000      -1.028371       -27.9834
   6   2.0000      -0.880191       -23.9512
   7   2.0000      -0.789756       -21.4903
   8   2.0000      -0.731763       -19.9123
   9   2.0000      -0.711967       -19.3736
  10   2.0000      -0.655423       -17.8350
  11   2.0000      -0.613754       -16.7011
  12   2.0000      -0.570882       -15.5345
  13   2.0000      -0.554416       -15.0864
  14   2.0000      -0.533919       -14.5287
  15   2.0000      -0.461819       -12.5667
  16   0.0000      -0.249871        -6.7993
  17   0.0000      -0.187237        -5.0950
  18   0.0000      -0.148068        -4.0291
  19   0.0000      -0.141445        -3.8489
  20   0.0000      -0.116411        -3.1677

MULLIKEN ATOMIC CHARGES
-----------------------
   0 C :    0.616296
   1 C :    0.479511
   2 N :    0.030925
   3 N :    0.108073
   4 H :    0.052858
   5 H :   -0.165392
   6 H :   -0.001083
   7 H :   -0.139238
   8 H :    0.006238
   9 H :   -0.000887
  10 H :    0.012700
Sum of atomic charges:    1.0000000

LOEWDIN ATOMIC CHARGES
----------------------
   0 C :    0.235878
   1 C :   -0.085521
   2 N :    0.298750
   3 N :    0.262995
   4 H :    0.110468
   5 H :    0.047610
   6 H :    0.040543
   7 H :    0.039690
   8 H :    0.005699
   9 H :    0.022708
  10 H :    0.021180

  Mayer bond orders larger than 0.100000
B(  0-C ,  1-C ) :   1.3025 B(  0-C ,  8-H ) :   0.7806 B(  0-C ,  9-H ) :   0.7703
B(  0-C , 10-H ) :   0.7525 B(  1-C ,  2-N ) :   0.9326 B(  1-C ,  3-N ) :   1.1342
B(  1-C ,  4-H ) :  -0.1101 B(  1-C ,  5-H ) :  -0.2210 B(  1-C ,  7-H ) :  -0.2553
B(  1-C ,  8-H ) :   0.2431 B(  1-C ,  9-H ) :   0.1678 B(  1-C , 10-H ) :   0.1791
B(  2-N ,  3-N ) :   0.2005 B(  2-N ,  6-H ) :   1.1078 B(  2-N ,  7-H ) :   1.3371
B(  3-N ,  4-H ) :   1.1404 B(  3-N ,  5-H ) :   1.2601 B(  4-H ,  5-H ) :  -0.1612
B(  6-H ,  7-H ) :  -0.1900 B(  8-H , 10-H ) :   0.1070

Dispersion correction           -0.006864407
FINAL SINGLE POINT ENERGY      -189.354616716366

DIPOLE MOMENT
-------------
                                X             Y             Z
Electronic contribution:     -1.93544      -0.89039      -0.12119
Nuclear contribution   :      1.48163       0.51565       0.12876
                        -----------------------------------------
Total Dipole Moment    :     -0.45381      -0.37473       0.00757
                        -----------------------------------------
Magnitude (a.u.)       :      0.58858
Magnitude (Debye)      :      1.49606

Rotational constants in cm-1:     0.329497     0.300036     0.161709
Rotational constants in MHz :  9878.065920  8994.849253  4847.907140

                             ****ORCA TERMINATED NORMALLY****
TOTAL RUN TIME: 0 days 0 hours 0 minutes 3 seconds 470 msec
