                         Program Version 5.0.0 -  RELEASE  -
|  1> !PBE D3BJ RIJCOSX def2-SVPD def2/J TightSCF xyzfile
|  2>
|  3> *xyzfile 0 1 B.xyz
|  4>
|  5> %MaxCore 64000
|  6>
|  7> %pal nprocs 4
|  8> end
|  9>
| 10> %scf
| 11>   MaxIter 150
| 12> end
| 13>
| 14>
| 15>                          ****END OF INPUT****

CARTESIAN COORDINATES (ANGSTROEM)
---------------------------------
  C      5.558206   -1.992914   -6.215054
  C      4.930199   -7.375319   -2.649623
  C      3.841892   -6.951611   -3.632829
  H      3.458144   -5.954425   -3.407121
  H      2.988484   -7.643606   -3.567078
  S      4.318115   -6.915930   -5.368692
  C      4.181880   -2.589671   -6.298911
  N      3.145873   -1.768431   -6.486753
  N      4.019102   -3.864307   -6.227427
  H      4.768490   -4.591153   -5.990773
  H      3.122405   -4.333392   -6.314620
  H      3.281635   -0.777786   -6.566549
  H      2.212549   -2.134193   -6.562246
  O      5.406154   -5.899480   -5.512972
  O      3.111910   -6.445079   -6.043792
  C      6.419260   -2.542944   -5.077630
  C      5.872267   -5.002756   -2.427819
  C      6.173994   -6.485522   -2.606315
  H      6.734852   -6.613767   -3.534015
  H      6.821463   -6.831018   -1.793617
  H      4.469612   -7.406168   -1.655876
  H      5.230134   -8.398678   -2.885906
  C      5.896512   -2.169314   -3.694552
  H      7.428880   -2.143665   -5.208078
  H      6.505894   -3.627541   -5.175502
  C      6.807804   -2.623428   -2.551019
  H      4.894708   -2.589732   -3.557501
  H      5.778823   -1.081255   -3.635790
  C      7.111544   -4.122463   -2.520363
  H      7.751615   -2.071393   -2.614406
  H      6.345837   -2.326401   -1.604086
  H      5.362882   -4.828697   -1.471335
  H      5.174429   -4.702577   -3.211298
  H      7.778329   -4.329347   -1.677651
  H      7.673189   -4.402845   -3.417586
  O      4.763396   -8.239424   -5.698629
  H      6.036826   -2.198189   -7.176852
  H      5.467610   -0.907371   -6.127968

 Total Charge           Charge          ....    0
 Multiplicity           Mult            ....    1
 Number of Electrons    NEL             ....  136
 Basis Dimension        Dim             ....  512

ORBITAL ENERGIES
----------------

  NO   OCC          E(Eh)            E(eV)
   0   2.0000     -88.211620     -2400.3602
   1   2.0000     -18.711737      -509.1722
   2   2.0000     -18.699819      -508.8480
   3   2.0000     -18.694137      -508.6933
   4   2.0000     -14.090740      -383.4285
   5   2.0000     -14.050129      -382.3234
   6   2.0000     -10.044528      -273.3255
   7   2.0000      -9.952902      -270.8322
   8   2.0000      -9.921755      -269.9847
   9   2.0000      -9.910267      -269.6721
  10   2.0000      -9.899003      -269.3656
  11   2.0000      -9.890852      -269.1438
  12   2.0000      -9.887142      -269.0428
  13   2.0000      -9.880312      -268.8570
  14   2.0000      -9.879144      -268.8252
  15   2.0000      -9.871890      -268.6278
  16   2.0000      -7.814635      -212.6470
  17   2.0000      -5.842571      -158.9845
  18   2.0000      -5.841413      -158.9529
  19   2.0000      -5.840218      -158.9204
  20   2.0000      -0.997589       -27.1458
  21   2.0000      -0.948343       -25.8057
  22   2.0000      -0.863381       -23.4938
  23   2.0000      -0.854327       -23.2474
  24   2.0000      -0.847986       -23.0749
  25   2.0000      -0.762444       -20.7472
  26   2.0000      -0.728332       -19.8189
  27   2.0000      -0.706507       -19.2250
  28   2.0000      -0.670040       -18.2327
  29   2.0000      -0.639848       -17.4111
  30   2.0000      -0.611291       -16.6341
  31   2.0000      -0.591698       -16.1009
  32   2.0000      -0.566632       -15.4188
  33   2.0000      -0.555484       -15.1155
  34   2.0000      -0.540852       -14.7173
  35   2.0000      -0.516597       -14.0573
  36   2.0000      -0.501198       -13.6383
  37   2.0000      -0.487819       -13.2742
  38   2.0000      -0.458832       -12.4855
  39   2.0000      -0.454779       -12.3752
  40   2.0000      -0.438598       -11.9349
  41   2.0000      -0.424887       -11.5618
  42   2.0000      -0.419410       -11.4127
  43   2.0000      -0.405599       -11.0369
  44   2.0000      -0.400057       -10.8861
  45   2.0000      -0.393195       -10.6994
  46   2.0000      -0.384694       -10.4680
  47   2.0000      -0.378377       -10.2962
  48   2.0000      -0.364258        -9.9120
  49   2.0000      -0.357014        -9.7149
  50   2.0000      -0.352657        -9.5963
  51   2.0000      -0.349905        -9.5214
  52   2.0000      -0.332509        -9.0480
  53   2.0000      -0.325740        -8.8638
  54   2.0000      -0.321211        -8.7406
  55   2.0000      -0.304303        -8.2805
  56   2.0000      -0.296522        -8.0688
  57   2.0000      -0.291280        -7.9261
  58   2.0000      -0.287085        -7.8120
  59   2.0000      -0.275602        -7.4995
  60   2.0000      -0.273494        -7.4421
  61   2.0000      -0.265660        -7.2290
  62   2.0000      -0.261791        -7.1237
  63   2.0000      -0.256136        -6.9698
  64   2.0000      -0.222836        -6.0637
  65   2.0000      -0.219387        -5.9698
  66   2.0000      -0.212942        -5.7944
  67   2.0000      -0.187778        -5.1097
  68   0.0000      -0.083685        -2.2772
  69   0.0000      -0.045443        -1.2366
  70   0.0000      -0.010982        -0.2988
  71   0.0000      -0.001409        -0.0383
  72   0.0000       0.006569         0.1788

MULLIKEN ATOMIC CHARGES
-----------------------
   0 C :    0.464946
   1 C :    0.496687
   2 C :    0.008110
   3 H :    0.220199
   4 H :   -0.267623
   5 S :    1.261398
   6 C :    0.742738
   7 N :    0.121106
   8 N :    0.542227
   9 H :   -0.004585
  10 H :   -0.288510
  11 H :   -0.108104
  12 H :   -0.185406
  13 O :   -0.970137
  14 O :   -0.804573
  15 C :    0.344120
  16 C :   -0.062318
  17 C :    0.197179
  18 H :    0.122464
  19 H :   -0.360507
  20 H :    0.060521
  21 H :   -0.002175
  22 C :   -0.106518
  23 H :   -0.134963
  24 H :   -0.517223
  25 C :    0.615573
  26 H :    0.178372
  27 H :   -0.362176
  28 C :    0.088998
  29 H :    0.031336
  30 H :   -0.046159
  31 H :    0.009708
  32 H :   -0.274716
  33 H :   -0.332346
  34 H :    0.122362
  35 O :   -0.785260
  36 H :   -0.106689
  37 H :    0.091945
Sum of atomic charges:   -0.0000000

LOEWDIN ATOMIC CHARGES
----------------------
   0 C :    0.040629
   1 C :   -0.034565
   2 C :   -0.077826
   3 H :    0.000853
   4 H :    0.025044
   5 S :    0.905402
   6 C :   -0.067849
   7 N :    0.263851
   8 N :    0.308723
   9 H :   -0.092582
  10 H :   -0.002965
  11 H :    0.013020
  12 H :    0.021834
  13 O :   -0.492221
  14 O :   -0.517282
  15 C :   -0.010465
  16 C :   -0.038620
  17 C :   -0.031254
  18 H :    0.015860
  19 H :    0.025826
  20 H :    0.025279
  21 H :    0.028714
  22 C :   -0.036562
  23 H :    0.038764
  24 H :    0.003615
  25 C :   -0.031061
  26 H :    0.014694
  27 H :    0.021995
  28 C :   -0.032855
  29 H :    0.022898
  30 H :    0.024406
  31 H :    0.036441
  32 H :   -0.017814
  33 H :    0.026242
  34 H :    0.022374
  35 O :   -0.475267
  36 H :    0.048063
  37 H :    0.024657

  Mayer bond orders larger than 0.100000
B(  0-C ,  6-C ) :   0.9781 B(  0-C ,  7-N ) :   0.1005 B(  0-C ,  8-N ) :   0.1070
B(  0-C , 15-C ) :   1.2411 B(  0-C , 24-H ) :   0.1548 B(  0-C , 36-H ) :   0.6115
B(  0-C , 37-H ) :   0.7242 B(  1-C ,  2-C ) :   1.2525 B(  1-C ,  3-H ) :   0.1105
B(  1-C ,  4-H ) :   0.1655 B(  1-C , 17-C ) :   1.2582 B(  1-C , 20-H ) :   0.6739
B(  1-C , 21-H ) :   0.6392 B(  2-C ,  3-H ) :   0.7720 B(  2-C ,  4-H ) :   0.8608
B(  2-C ,  5-S ) :   0.9417 B(  2-C , 20-H ) :   0.1955 B(  2-C , 21-H ) :   0.1300
B(  2-C , 35-O ) :   0.1649 B(  4-H ,  5-S ) :   0.1316 B(  5-S , 13-O ) :   1.0075
B(  5-S , 14-O ) :   1.2776 B(  5-S , 35-O ) :   1.3403 B(  6-C ,  7-N ) :   0.9139
B(  6-C ,  8-N ) :   1.2783 B(  6-C ,  9-H ) :  -0.2475 B(  6-C , 10-H ) :  -0.3761
B(  6-C , 11-H ) :  -0.1083 B(  6-C , 12-H ) :  -0.2103 B(  6-C , 24-H ) :  -0.1022
B(  6-C , 36-H ) :   0.1980 B(  6-C , 37-H ) :   0.1526 B(  7-N ,  8-N ) :   0.2028
B(  7-N , 11-H ) :   1.1960 B(  7-N , 12-H ) :   1.3387 B(  8-N ,  9-H ) :   0.8824
B(  8-N , 10-H ) :   1.1912 B(  8-N , 24-H ) :   0.1167 B(  9-H , 10-H ) :  -0.2698
B(  9-H , 13-O ) :   0.1831 B( 10-H , 14-O ) :   0.1781 B( 11-H , 12-H ) :  -0.1852
B( 13-O , 14-O ) :   0.1378 B( 13-O , 18-H ) :   0.1063 B( 13-O , 24-H ) :   0.1976
B( 13-O , 35-O ) :   0.1305 B( 15-C , 22-C ) :   1.2248 B( 15-C , 23-H ) :   0.7450
B( 15-C , 24-H ) :   0.6608 B( 15-C , 26-H ) :   0.1425 B( 15-C , 27-H ) :   0.1822
B( 15-C , 36-H ) :   0.3014 B( 15-C , 37-H ) :   0.1699 B( 16-C , 17-C ) :   1.2341
B( 16-C , 18-H ) :   0.1363 B( 16-C , 19-H ) :   0.1834 B( 16-C , 28-C ) :   1.2296
B( 16-C , 31-H ) :   0.7560 B( 16-C , 32-H ) :   1.0187 B( 16-C , 33-H ) :   0.2214
B( 16-C , 34-H ) :   0.1424 B( 17-C , 18-H ) :   0.8008 B( 17-C , 19-H ) :   0.8472
B( 17-C , 20-H ) :   0.1137 B( 17-C , 21-H ) :   0.2506 B( 17-C , 28-C ) :   0.1507
B( 17-C , 31-H ) :   0.1096 B( 22-C , 23-H ) :   0.1649 B( 22-C , 24-H ) :   0.2097
B( 22-C , 25-C ) :   1.0965 B( 22-C , 26-H ) :   0.7843 B( 22-C , 27-H ) :   1.0492
B( 22-C , 28-C ) :   0.1423 B( 22-C , 29-H ) :   0.1504 B( 22-C , 30-H ) :   0.2511
B( 25-C , 28-C ) :   1.1421 B( 25-C , 29-H ) :   0.6510 B( 25-C , 30-H ) :   0.6767
B( 26-H , 32-H ) :   0.1495 B( 28-C , 29-H ) :   0.2238 B( 28-C , 30-H ) :   0.1422
B( 28-C , 31-H ) :   0.1188 B( 28-C , 33-H ) :   0.9545 B( 28-C , 34-H ) :   0.7931
B( 29-H , 30-H ) :  -0.1074

Dispersion correction           -0.046357703
FINAL SINGLE POINT ENERGY     -1126.040343266380

DIPOLE MOMENT
-------------
                                X             Y             Z
Electronic contribution:     -9.19752     -11.53962     -14.19152
Nuclear contribution   :      8.53517      16.50844      14.36520
                        -----------------------------------------
Total Dipole Moment    :     -0.66236       4.96882       0.17368
                        -----------------------------------------
Magnitude (a.u.)       :      5.01578
Magnitude (Debye)      :     12.74911

Rotational constants in cm-1:     0.017951     0.012436     0.008288
Rotational constants in MHz :   538.163255   372.824050   248.467077

                             ****ORCA TERMINATED NORMALLY****
TOTAL RUN TIME: 0 days 0 hours 0 minutes 59 seconds 83 msec
