                         Program Version 5.0.0 -  RELEASE  -
|  1> !PBE D3BJ RIJCOSX def2-SVPD def2/J TightSCF
|  2> *xyz 0 1
|  3> C          3.84189       -6.95161       -3.63283
|  4> S          4.31812       -6.91593       -5.36869
|  5> F          5.40615       -5.89948       -5.51297
|  6> O          3.11191       -6.44508       -6.04379
|  7> O          4.76340       -8.23942       -5.69863
|  8> H          3.06224       -7.67071       -3.49159
|  9> H          3.49217       -5.98401       -3.33897
| 10> H          4.68822       -7.22131       -3.03626
| 11> *
| 12>
| 13> %MaxCore 64000
| 14>
| 15> %pal nprocs 8
| 16> end
| 17>
| 18> %scf
| 19>   MaxIter 150
| 20> end
| 21>
| 22>
| 23>                          ****END OF INPUT****

CARTESIAN COORDINATES (ANGSTROEM)
---------------------------------
  C      3.841890   -6.951610   -3.632830
  S      4.318120   -6.915930   -5.368690
  F      5.406150   -5.899480   -5.512970
  O      3.111910   -6.445080   -6.043790
  O      4.763400   -8.239420   -5.698630
  H      3.062240   -7.670710   -3.491590
  H      3.492170   -5.984010   -3.338970
  H      4.688220   -7.221310   -3.036260

 Total Charge           Charge          ....    0
 Multiplicity           Mult            ....    1
 Number of Electrons    NEL             ....   50
 Basis Dimension        Dim             ....  140

ORBITAL ENERGIES
----------------

  NO   OCC          E(Eh)            E(eV)
   0   2.0000     -88.314478     -2403.1591
   1   2.0000     -24.370274      -663.1489
   2   2.0000     -18.786162      -511.1974
   3   2.0000     -18.776039      -510.9220
   4   2.0000      -9.955826      -270.9118
   5   2.0000      -7.919336      -215.4961
   6   2.0000      -5.950253      -161.9146
   7   2.0000      -5.944186      -161.7495
   8   2.0000      -5.943150      -161.7213
   9   2.0000      -1.234691       -33.5976
  10   2.0000      -1.030560       -28.0430
  11   2.0000      -0.937910       -25.5218
  12   2.0000      -0.728198       -19.8153
  13   2.0000      -0.637652       -17.3514
  14   2.0000      -0.531906       -14.4739
  15   2.0000      -0.499604       -13.5949
  16   2.0000      -0.494911       -13.4672
  17   2.0000      -0.431181       -11.7330
  18   2.0000      -0.428852       -11.6697
  19   2.0000      -0.420063       -11.4305
  20   2.0000      -0.397546       -10.8178
  21   2.0000      -0.347461        -9.4549
  22   2.0000      -0.304164        -8.2767
  23   2.0000      -0.293163        -7.9774
  24   2.0000      -0.277497        -7.5511
  25   0.0000      -0.037932        -1.0322
  26   0.0000      -0.004416        -0.1202
  27   0.0000       0.012100         0.3293
  28   0.0000       0.031390         0.8542
  29   0.0000       0.032396         0.8815

MULLIKEN ATOMIC CHARGES
-----------------------
   0 C :    0.494635
   1 S :    1.118315
   2 F :   -0.357159
   3 O :   -0.599945
   4 O :   -0.570339
   5 H :   -0.025476
   6 H :   -0.022138
   7 H :   -0.037894
Sum of atomic charges:   -0.0000000

LOEWDIN ATOMIC CHARGES
----------------------
   0 C :    0.119725
   1 S :    1.057406
   2 F :   -0.261208
   3 O :   -0.451541
   4 O :   -0.435671
   5 H :   -0.000189
   6 H :   -0.012937
   7 H :   -0.015587

  Mayer bond orders larger than 0.100000
B(  0-C ,  1-S ) :   0.9950 B(  0-C ,  5-H ) :   0.9028 B(  0-C ,  6-H ) :   0.9110
B(  0-C ,  7-H ) :   0.9130 B(  1-S ,  2-F ) :   0.6838 B(  1-S ,  3-O ) :   1.5545
B(  1-S ,  4-O ) :   1.5718 B(  1-S ,  5-H ) :   0.1106 B(  3-O ,  4-O ) :   0.1074

Dispersion correction           -0.005911404
FINAL SINGLE POINT ENERGY      -687.542864596095

DIPOLE MOMENT
-------------
                                X             Y             Z
Electronic contribution:      2.88006       1.58250      -4.36964
Nuclear contribution   :     -2.64549      -1.17311       5.81218
                        -----------------------------------------
Total Dipole Moment    :      0.23457       0.40939       1.44254
                        -----------------------------------------
Magnitude (a.u.)       :      1.51774
Magnitude (Debye)      :      3.85780

Rotational constants in cm-1:     0.165958     0.149400     0.146699
Rotational constants in MHz :  4975.281722  4478.884828  4397.931002

                             ****ORCA TERMINATED NORMALLY****
TOTAL RUN TIME: 0 days 0 hours 0 minutes 3 seconds 294 msec
