                         Program Version 5.0.0 -  RELEASE  -
|  1> !PBE D3BJ RIJCOSX def2-SVPD def2/J TightSCF
|  2> *xyz 0 1
|  3> C          5.55821       -1.99291       -6.21505
|  4> C          4.18188       -2.58967       -6.29891
|  5> C          3.14587       -1.76843       -6.48675
|  6> N          4.01910       -3.86431       -6.22743
|  7> H          4.76849       -4.59115       -5.99077
|  8> H          3.12241       -4.33339       -6.31462
|  9> H          3.28164       -0.77779       -6.56655
| 10> H          2.21255       -2.13419       -6.56225
| 11> H          5.49055       -0.92791       -6.29315
| 12> H          6.16046       -2.37160       -7.01429
| 13> H          6.00378       -2.25423       -5.27799
| 14> *
| 15>
| 16> %MaxCore 64000
| 17>
| 18> %pal nprocs 8
| 19> end
| 20>
| 21> %scf
| 22>   MaxIter 150
| 23> end
| 24>
| 25>
| 26>                          ****END OF INPUT****

CARTESIAN COORDINATES (ANGSTROEM)
---------------------------------
  C      5.558210   -1.992910   -6.215050
  C      4.181880   -2.589670   -6.298910
  C      3.145870   -1.768430   -6.486750
  N      4.019100   -3.864310   -6.227430
  H      4.768490   -4.591150   -5.990770
  H      3.122410   -4.333390   -6.314620
  H      3.281640   -0.777790   -6.566550
  H      2.212550   -2.134190   -6.562250
  H      5.490550   -0.927910   -6.293150
  H      6.160460   -2.371600   -7.014290
  H      6.003780   -2.254230   -5.277990

 Total Charge           Charge          ....    0
 Multiplicity           Mult            ....    1
 Number of Electrons    NEL             ....   32
 Basis Dimension        Dim             ....  136

ORBITAL ENERGIES
----------------

  NO   OCC          E(Eh)            E(eV)
   0   2.0000     -14.010547      -381.2464
   1   2.0000      -9.916362      -269.8379
   2   2.0000      -9.885089      -268.9869
   3   2.0000      -9.826045      -267.3803
   4   2.0000      -0.846718       -23.0404
   5   2.0000      -0.678298       -18.4574
   6   2.0000      -0.611889       -16.6503
   7   2.0000      -0.529847       -14.4179
   8   2.0000      -0.463012       -12.5992
   9   2.0000      -0.421850       -11.4791
  10   2.0000      -0.384583       -10.4650
  11   2.0000      -0.351870        -9.5749
  12   2.0000      -0.344469        -9.3735
  13   2.0000      -0.306179        -8.3316
  14   2.0000      -0.296524        -8.0688
  15   2.0000      -0.156644        -4.2625
  16   0.0000      -0.004080        -0.1110
  17   0.0000       0.018217         0.4957
  18   0.0000       0.034294         0.9332
  19   0.0000       0.042079         1.1450
  20   0.0000       0.066336         1.8051

MULLIKEN ATOMIC CHARGES
-----------------------
   0 C :    0.837540
   1 C :   -0.466926
   2 C :    0.553906
   3 N :    0.214756
   4 H :   -0.103273
   5 H :   -0.234136
   6 H :   -0.201387
   7 H :   -0.494065
   8 H :    0.009779
   9 H :   -0.061508
  10 H :   -0.054686
Sum of atomic charges:   -0.0000000

LOEWDIN ATOMIC CHARGES
----------------------
   0 C :    0.165832
   1 C :   -0.308755
   2 C :    0.177404
   3 N :    0.147178
   4 H :    0.046789
   5 H :    0.004778
   6 H :   -0.094633
   7 H :   -0.093919
   8 H :   -0.015276
   9 H :   -0.013849
  10 H :   -0.015550

  Mayer bond orders larger than 0.100000
B(  0-C ,  1-C ) :   1.3274 B(  0-C ,  8-H ) :   0.8023 B(  0-C ,  9-H ) :   0.6729
B(  0-C , 10-H ) :   0.6582 B(  1-C ,  2-C ) :   1.5687 B(  1-C ,  3-N ) :   1.2122
B(  1-C ,  7-H ) :   0.1635 B(  1-C ,  8-H ) :   0.2112 B(  1-C ,  9-H ) :   0.2860
B(  1-C , 10-H ) :   0.2903 B(  2-C ,  3-N ) :   0.2822 B(  2-C ,  6-H ) :   0.9724
B(  2-C ,  7-H ) :   0.7366 B(  3-N ,  4-H ) :   1.2151 B(  3-N ,  5-H ) :   1.2242
B(  4-H ,  5-H ) :  -0.1395 B(  8-H ,  9-H ) :   0.1027 B(  8-H , 10-H ) :   0.1087

Dispersion correction           -0.007182198
FINAL SINGLE POINT ENERGY      -172.899806825943

DIPOLE MOMENT
-------------
                                X             Y             Z
Electronic contribution:     -0.90970      -1.48432       0.03706
Nuclear contribution   :      1.24351       0.69391       0.08872
                        -----------------------------------------
Total Dipole Moment    :      0.33382      -0.79041       0.12578
                        -----------------------------------------
Magnitude (a.u.)       :      0.86718
Magnitude (Debye)      :      2.20420

Rotational constants in cm-1:     0.350694     0.303314     0.167659
Rotational constants in MHz : 10513.535482  9093.138449  5026.287342

                             ****ORCA TERMINATED NORMALLY****
TOTAL RUN TIME: 0 days 0 hours 0 minutes 3 seconds 834 msec
