                         Program Version 5.0.0 -  RELEASE  -
|  1> !PBE D3BJ RIJCOSX def2-SVPD def2/J TightSCF
|  2> *xyz 0 1
|  3> C          3.84189       -6.95161       -3.63283
|  4> S          4.31812       -6.91593       -5.36869
|  5> O          5.40615       -5.89948       -5.51297
|  6> F          3.11191       -6.44508       -6.04379
|  7> O          4.76340       -8.23942       -5.69863
|  8> H          3.06224       -7.67071       -3.49159
|  9> H          3.49217       -5.98401       -3.33897
| 10> H          4.68822       -7.22131       -3.03626
| 11> *
| 12>
| 13> %MaxCore 64000
| 14>
| 15> %pal nprocs 8
| 16> end
| 17>
| 18> %scf
| 19>   MaxIter 150
| 20> end
| 21>
| 22>
| 23>                          ****END OF INPUT****

CARTESIAN COORDINATES (ANGSTROEM)
---------------------------------
  C      3.841890   -6.951610   -3.632830
  S      4.318120   -6.915930   -5.368690
  O      5.406150   -5.899480   -5.512970
  F      3.111910   -6.445080   -6.043790
  O      4.763400   -8.239420   -5.698630
  H      3.062240   -7.670710   -3.491590
  H      3.492170   -5.984010   -3.338970
  H      4.688220   -7.221310   -3.036260

 Total Charge           Charge          ....    0
 Multiplicity           Mult            ....    1
 Number of Electrons    NEL             ....   50
 Basis Dimension        Dim             ....  140

ORBITAL ENERGIES
----------------

  NO   OCC          E(Eh)            E(eV)
   0   2.0000     -88.316584     -2403.2164
   1   2.0000     -24.383715      -663.5146
   2   2.0000     -18.785898      -511.1903
   3   2.0000     -18.769650      -510.7482
   4   2.0000      -9.956742      -270.9367
   5   2.0000      -7.921349      -215.5509
   6   2.0000      -5.952522      -161.9763
   7   2.0000      -5.946116      -161.8021
   8   2.0000      -5.944896      -161.7688
   9   2.0000      -1.261007       -34.3137
  10   2.0000      -1.024946       -27.8902
  11   2.0000      -0.920075       -25.0365
  12   2.0000      -0.732640       -19.9361
  13   2.0000      -0.648680       -17.6515
  14   2.0000      -0.540513       -14.7081
  15   2.0000      -0.517648       -14.0859
  16   2.0000      -0.500200       -13.6111
  17   2.0000      -0.432653       -11.7731
  18   2.0000      -0.430503       -11.7146
  19   2.0000      -0.418498       -11.3879
  20   2.0000      -0.394483       -10.7344
  21   2.0000      -0.344792        -9.3823
  22   2.0000      -0.303422        -8.2565
  23   2.0000      -0.285148        -7.7593
  24   2.0000      -0.264990        -7.2107
  25   0.0000      -0.032696        -0.8897
  26   0.0000       0.001933         0.0526
  27   0.0000       0.009938         0.2704
  28   0.0000       0.027733         0.7547
  29   0.0000       0.031216         0.8494

MULLIKEN ATOMIC CHARGES
-----------------------
   0 C :    0.492912
   1 S :    1.109431
   2 O :   -0.617053
   3 F :   -0.339771
   4 O :   -0.560839
   5 H :   -0.014473
   6 H :   -0.024512
   7 H :   -0.045695
Sum of atomic charges:   -0.0000000

LOEWDIN ATOMIC CHARGES
----------------------
   0 C :    0.119338
   1 S :    1.057495
   2 O :   -0.459716
   3 F :   -0.253075
   4 O :   -0.435995
   5 H :   -0.013594
   6 H :   -0.013344
   7 H :   -0.001110

  Mayer bond orders larger than 0.100000
B(  0-C ,  1-S ) :   0.9928 B(  0-C ,  5-H ) :   0.9034 B(  0-C ,  6-H ) :   0.9107
B(  0-C ,  7-H ) :   0.9127 B(  1-S ,  2-O ) :   1.5252 B(  1-S ,  3-F ) :   0.7316
B(  1-S ,  4-O ) :   1.5765 B(  1-S ,  7-H ) :   0.1187

Dispersion correction           -0.005905666
FINAL SINGLE POINT ENERGY      -687.532361559046

DIPOLE MOMENT
-------------
                                X             Y             Z
Electronic contribution:     -0.87569       0.68226      -5.24560
Nuclear contribution   :     -0.35339      -0.62802       6.34251
                        -----------------------------------------
Total Dipole Moment    :     -1.22908       0.05424       1.09691
                        -----------------------------------------
Magnitude (a.u.)       :      1.64827
Magnitude (Debye)      :      4.18956

Rotational constants in cm-1:     0.162638     0.154373     0.145390
Rotational constants in MHz :  4875.774584  4627.990015  4358.691210

                             ****ORCA TERMINATED NORMALLY****
TOTAL RUN TIME: 0 days 0 hours 0 minutes 3 seconds 424 msec
