                         Program Version 5.0.0 -  RELEASE  -
|  1> !PBE D3BJ RIJCOSX def2-SVPD def2/J TightSCF
|  2> *xyz 0 1
|  3> C          5.55821       -1.99291       -6.21505
|  4> C          4.18188       -2.58967       -6.29891
|  5> N          3.14587       -1.76843       -6.48675
|  6> C          4.01910       -3.86431       -6.22743
|  7> H          4.76849       -4.59115       -5.99077
|  8> H          3.12241       -4.33339       -6.31462
|  9> H          3.28164       -0.77779       -6.56655
| 10> H          2.21255       -2.13419       -6.56225
| 11> H          5.49055       -0.92791       -6.29315
| 12> H          6.16046       -2.37160       -7.01429
| 13> H          6.00378       -2.25423       -5.27799
| 14> *
| 15>
| 16> %MaxCore 64000
| 17>
| 18> %pal nprocs 8
| 19> end
| 20>
| 21> %scf
| 22>   MaxIter 150
| 23> end
| 24>
| 25>
| 26>                          ****END OF INPUT****

CARTESIAN COORDINATES (ANGSTROEM)
---------------------------------
  C      5.558210   -1.992910   -6.215050
  C      4.181880   -2.589670   -6.298910
  N      3.145870   -1.768430   -6.486750
  C      4.019100   -3.864310   -6.227430
  H      4.768490   -4.591150   -5.990770
  H      3.122410   -4.333390   -6.314620
  H      3.281640   -0.777790   -6.566550
  H      2.212550   -2.134190   -6.562250
  H      5.490550   -0.927910   -6.293150
  H      6.160460   -2.371600   -7.014290
  H      6.003780   -2.254230   -5.277990

 Total Charge           Charge          ....    0
 Multiplicity           Mult            ....    1
 Number of Electrons    NEL             ....   32
 Basis Dimension        Dim             ....  136

ORBITAL ENERGIES
----------------

  NO   OCC          E(Eh)            E(eV)
   0   2.0000     -14.000651      -380.9771
   1   2.0000      -9.913765      -269.7673
   2   2.0000      -9.886170      -269.0164
   3   2.0000      -9.830881      -267.5119
   4   2.0000      -0.837818       -22.7982
   5   2.0000      -0.681249       -18.5377
   6   2.0000      -0.617586       -16.8054
   7   2.0000      -0.512758       -13.9529
   8   2.0000      -0.475212       -12.9312
   9   2.0000      -0.427220       -11.6252
  10   2.0000      -0.382744       -10.4150
  11   2.0000      -0.351418        -9.5626
  12   2.0000      -0.347305        -9.4507
  13   2.0000      -0.302008        -8.2180
  14   2.0000      -0.291141        -7.9223
  15   2.0000      -0.161287        -4.3888
  16   0.0000       0.001249         0.0340
  17   0.0000       0.016973         0.4618
  18   0.0000       0.038687         1.0527
  19   0.0000       0.044653         1.2151
  20   0.0000       0.067684         1.8418

MULLIKEN ATOMIC CHARGES
-----------------------
   0 C :    0.812525
   1 C :   -0.098851
   2 N :    0.181197
   3 C :    0.051279
   4 H :   -0.058855
   5 H :   -0.389749
   6 H :   -0.168500
   7 H :   -0.185465
   8 H :   -0.145284
   9 H :   -0.017984
  10 H :    0.019687
Sum of atomic charges:    0.0000000

LOEWDIN ATOMIC CHARGES
----------------------
   0 C :    0.168245
   1 C :   -0.297510
   2 N :    0.184734
   3 C :    0.137344
   4 H :   -0.039607
   5 H :   -0.089365
   6 H :   -0.017707
   7 H :   -0.002012
   8 H :   -0.029237
   9 H :   -0.007140
  10 H :   -0.007745

  Mayer bond orders larger than 0.100000
B(  0-C ,  1-C ) :   1.1294 B(  0-C ,  2-N ) :   0.1252 B(  0-C ,  8-H ) :   0.7091
B(  0-C ,  9-H ) :   0.7726 B(  0-C , 10-H ) :   0.7259 B(  1-C ,  2-N ) :   1.0041
B(  1-C ,  3-C ) :   1.4479 B(  1-C ,  5-H ) :   0.1226 B(  1-C ,  7-H ) :  -0.1517
B(  1-C ,  8-H ) :   0.2779 B(  1-C ,  9-H ) :   0.1654 B(  1-C , 10-H ) :   0.1897
B(  2-N ,  3-C ) :   0.3215 B(  2-N ,  6-H ) :   1.1435 B(  2-N ,  7-H ) :   1.2903
B(  3-C ,  4-H ) :   0.9121 B(  3-C ,  5-H ) :   0.8516 B(  4-H ,  5-H ) :   0.1014
B(  6-H ,  7-H ) :  -0.1725

Dispersion correction           -0.007184113
FINAL SINGLE POINT ENERGY      -172.907660631254

DIPOLE MOMENT
-------------
                                X             Y             Z
Electronic contribution:     -1.65255       0.42939      -0.21350
Nuclear contribution   :      1.43935       0.22387       0.14687
                        -----------------------------------------
Total Dipole Moment    :     -0.21320       0.65326      -0.06662
                        -----------------------------------------
Magnitude (a.u.)       :      0.69039
Magnitude (Debye)      :      1.75483

Rotational constants in cm-1:     0.350137     0.303099     0.167465
Rotational constants in MHz : 10496.847516  9086.685989  5020.487860

                             ****ORCA TERMINATED NORMALLY****
TOTAL RUN TIME: 0 days 0 hours 0 minutes 3 seconds 593 msec
