                         Program Version 5.0.0 -  RELEASE  -
|  1> !PBE D3BJ RIJCOSX def2-SVPD def2/J TightSCF
|  2> *xyz 0 1
|  3> C          3.84189       -6.95161       -3.63283
|  4> S          4.31812       -6.91593       -5.36869
|  5> O          5.40615       -5.89948       -5.51297
|  6> O          3.11191       -6.44508       -6.04379
|  7> F          4.76340       -8.23942       -5.69863
|  8> H          3.06224       -7.67071       -3.49159
|  9> H          3.49217       -5.98401       -3.33897
| 10> H          4.68822       -7.22131       -3.03626
| 11> *
| 12>
| 13> %MaxCore 64000
| 14>
| 15> %pal nprocs 8
| 16> end
| 17>
| 18> %scf
| 19>   MaxIter 150
| 20> end
| 21>
| 22>
| 23>                          ****END OF INPUT****

CARTESIAN COORDINATES (ANGSTROEM)
---------------------------------
  C      3.841890   -6.951610   -3.632830
  S      4.318120   -6.915930   -5.368690
  O      5.406150   -5.899480   -5.512970
  O      3.111910   -6.445080   -6.043790
  F      4.763400   -8.239420   -5.698630
  H      3.062240   -7.670710   -3.491590
  H      3.492170   -5.984010   -3.338970
  H      4.688220   -7.221310   -3.036260

 Total Charge           Charge          ....    0
 Multiplicity           Mult            ....    1
 Number of Electrons    NEL             ....   50
 Basis Dimension        Dim             ....  140

ORBITAL ENERGIES
----------------

  NO   OCC          E(Eh)            E(eV)
   0   2.0000     -88.318100     -2403.2577
   1   2.0000     -24.397580      -663.8919
   2   2.0000     -18.776315      -510.9295
   3   2.0000     -18.770208      -510.7633
   4   2.0000      -9.957149      -270.9478
   5   2.0000      -7.922817      -215.5908
   6   2.0000      -5.954177      -162.0214
   7   2.0000      -5.947366      -161.8361
   8   2.0000      -5.946273      -161.8063
   9   2.0000      -1.283321       -34.9209
  10   2.0000      -1.013928       -27.5904
  11   2.0000      -0.912379       -24.8271
  12   2.0000      -0.732826       -19.9412
  13   2.0000      -0.659754       -17.9528
  14   2.0000      -0.550391       -14.9769
  15   2.0000      -0.532851       -14.4996
  16   2.0000      -0.503252       -13.6942
  17   2.0000      -0.432673       -11.7736
  18   2.0000      -0.427978       -11.6459
  19   2.0000      -0.420662       -11.4468
  20   2.0000      -0.390611       -10.6291
  21   2.0000      -0.337847        -9.1933
  22   2.0000      -0.293368        -7.9829
  23   2.0000      -0.283398        -7.7116
  24   2.0000      -0.258592        -7.0367
  25   0.0000      -0.035416        -0.9637
  26   0.0000       0.000287         0.0078
  27   0.0000       0.008980         0.2444
  28   0.0000       0.022793         0.6202
  29   0.0000       0.030780         0.8376

MULLIKEN ATOMIC CHARGES
-----------------------
   0 C :    0.495313
   1 S :    1.105323
   2 O :   -0.610183
   3 O :   -0.583854
   4 F :   -0.323808
   5 H :   -0.014230
   6 H :   -0.032122
   7 H :   -0.036437
Sum of atomic charges:   -0.0000000

LOEWDIN ATOMIC CHARGES
----------------------
   0 C :    0.118828
   1 S :    1.059232
   2 O :   -0.459084
   3 O :   -0.451360
   4 F :   -0.239147
   5 H :   -0.013792
   6 H :    0.000617
   7 H :   -0.015293

  Mayer bond orders larger than 0.100000
B(  0-C ,  1-S ) :   0.9952 B(  0-C ,  5-H ) :   0.9018 B(  0-C ,  6-H ) :   0.9110
B(  0-C ,  7-H ) :   0.9124 B(  1-S ,  2-O ) :   1.5255 B(  1-S ,  3-O ) :   1.5599
B(  1-S ,  4-F ) :   0.7583 B(  1-S ,  6-H ) :   0.1214

Dispersion correction           -0.005908145
FINAL SINGLE POINT ENERGY      -687.520038570235

DIPOLE MOMENT
-------------
                                X             Y             Z
Electronic contribution:      1.81678      -2.23070      -4.67916
Nuclear contribution   :     -2.00334       1.16464       5.99767
                        -----------------------------------------
Total Dipole Moment    :     -0.18656      -1.06606       1.31850
                        -----------------------------------------
Magnitude (a.u.)       :      1.70580
Magnitude (Debye)      :      4.33579

Rotational constants in cm-1:     0.163678     0.154408     0.144413
Rotational constants in MHz :  4906.945035  4629.020676  4329.393152

                             ****ORCA TERMINATED NORMALLY****
TOTAL RUN TIME: 0 days 0 hours 0 minutes 3 seconds 508 msec
