                         Program Version 5.0.0 -  RELEASE  -
|  1> !PBE D3BJ RIJCOSX def2-SVPD def2/J TightSCF xyzfile
|  2>
|  3> *xyzfile 0 1 D1.xyz
|  4>
|  5> %MaxCore 64000
|  6>
|  7> %pal nprocs 4
|  8> end
|  9>
| 10> %scf
| 11>   MaxIter 150
| 12> end
| 13>
| 14>
| 15>                          ****END OF INPUT****

CARTESIAN COORDINATES (ANGSTROEM)
---------------------------------
  C      5.558206   -1.992914   -6.215054
  C      4.930199   -7.375319   -2.649623
  C      3.841892   -6.951611   -3.632829
  H      3.458144   -5.954425   -3.407121
  H      2.988484   -7.643606   -3.567078
  S      4.318115   -6.915930   -5.368692
  C      4.181880   -2.589671   -6.298911
  C      3.145873   -1.768431   -6.486753
  N      4.019102   -3.864307   -6.227427
  H      4.768490   -4.591153   -5.990773
  H      3.122405   -4.333392   -6.314620
  H      3.281635   -0.777786   -6.566549
  H      2.212549   -2.134193   -6.562246
  F      5.406154   -5.899480   -5.512972
  O      3.111910   -6.445079   -6.043792
  C      6.419260   -2.542944   -5.077630
  C      5.872267   -5.002756   -2.427819
  C      6.173994   -6.485522   -2.606315
  H      6.734852   -6.613767   -3.534015
  H      6.821463   -6.831018   -1.793617
  H      4.469612   -7.406168   -1.655876
  H      5.230134   -8.398678   -2.885906
  C      5.896512   -2.169314   -3.694552
  H      7.428880   -2.143665   -5.208078
  H      6.505894   -3.627541   -5.175502
  C      6.807804   -2.623428   -2.551019
  H      4.894708   -2.589732   -3.557501
  H      5.778823   -1.081255   -3.635790
  C      7.111544   -4.122463   -2.520363
  H      7.751615   -2.071393   -2.614406
  H      6.345837   -2.326401   -1.604086
  H      5.362882   -4.828697   -1.471335
  H      5.174429   -4.702577   -3.211298
  H      7.778329   -4.329347   -1.677651
  H      7.673189   -4.402845   -3.417586
  O      4.763396   -8.239424   -5.698629
  H      6.036826   -2.198189   -7.176852
  H      5.467610   -0.907371   -6.127968

 Total Charge           Charge          ....    0
 Multiplicity           Mult            ....    1
 Number of Electrons    NEL             ....  136
 Basis Dimension        Dim             ....  512

ORBITAL ENERGIES
----------------

  NO   OCC          E(Eh)            E(eV)
   0   2.0000     -88.326946     -2403.4984
   1   2.0000     -24.396872      -663.8726
   2   2.0000     -18.799481      -511.5599
   3   2.0000     -18.792265      -511.3635
   4   2.0000     -13.985296      -380.5593
   5   2.0000      -9.968180      -271.2480
   6   2.0000      -9.933401      -270.3016
   7   2.0000      -9.917188      -269.8604
   8   2.0000      -9.908380      -269.6207
   9   2.0000      -9.902006      -269.4473
  10   2.0000      -9.901309      -269.4283
  11   2.0000      -9.895907      -269.2813
  12   2.0000      -9.894751      -269.2499
  13   2.0000      -9.890708      -269.1398
  14   2.0000      -9.888212      -269.0719
  15   2.0000      -9.815638      -267.0971
  16   2.0000      -7.931044      -215.8147
  17   2.0000      -5.962493      -162.2477
  18   2.0000      -5.955936      -162.0693
  19   2.0000      -5.954202      -162.0221
  20   2.0000      -1.264266       -34.4024
  21   2.0000      -1.045751       -28.4563
  22   2.0000      -0.953255       -25.9394
  23   2.0000      -0.832726       -22.6596
  24   2.0000      -0.774923       -21.0867
  25   2.0000      -0.742136       -20.1946
  26   2.0000      -0.716579       -19.4991
  27   2.0000      -0.687839       -18.7170
  28   2.0000      -0.672503       -18.2997
  29   2.0000      -0.643296       -17.5050
  30   2.0000      -0.628367       -17.0987
  31   2.0000      -0.593269       -16.1437
  32   2.0000      -0.562802       -15.3146
  33   2.0000      -0.552688       -15.0394
  34   2.0000      -0.545876       -14.8541
  35   2.0000      -0.524996       -14.2859
  36   2.0000      -0.514703       -14.0058
  37   2.0000      -0.502373       -13.6703
  38   2.0000      -0.500393       -13.6164
  39   2.0000      -0.460562       -12.5325
  40   2.0000      -0.453908       -12.3515
  41   2.0000      -0.441805       -12.0221
  42   2.0000      -0.438151       -11.9227
  43   2.0000      -0.428292       -11.6544
  44   2.0000      -0.417740       -11.3673
  45   2.0000      -0.414592       -11.2816
  46   2.0000      -0.404395       -11.0042
  47   2.0000      -0.390631       -10.6296
  48   2.0000      -0.387361       -10.5406
  49   2.0000      -0.377879       -10.2826
  50   2.0000      -0.366179        -9.9642
  51   2.0000      -0.364352        -9.9145
  52   2.0000      -0.351343        -9.5605
  53   2.0000      -0.336941        -9.1686
  54   2.0000      -0.329620        -8.9694
  55   2.0000      -0.328139        -8.9291
  56   2.0000      -0.326497        -8.8844
  57   2.0000      -0.315788        -8.5930
  58   2.0000      -0.311843        -8.4857
  59   2.0000      -0.304519        -8.2864
  60   2.0000      -0.299587        -8.1522
  61   2.0000      -0.296075        -8.0566
  62   2.0000      -0.293877        -7.9968
  63   2.0000      -0.288782        -7.8582
  64   2.0000      -0.281411        -7.6576
  65   2.0000      -0.274100        -7.4586
  66   2.0000      -0.269257        -7.3269
  67   2.0000      -0.145556        -3.9608
  68   0.0000      -0.048921        -1.3312
  69   0.0000      -0.011589        -0.3154
  70   0.0000      -0.007344        -0.1998
  71   0.0000      -0.002073        -0.0564
  72   0.0000       0.005004         0.1362

MULLIKEN ATOMIC CHARGES
-----------------------
   0 C :    0.775530
   1 C :    0.514822
   2 C :   -0.016273
   3 H :    0.278751
   4 H :   -0.259145
   5 S :    1.360417
   6 C :   -0.370068
   7 C :    0.430104
   8 N :    0.929852
   9 H :   -0.297937
  10 H :   -0.303987
  11 H :   -0.285118
  12 H :   -0.365648
  13 F :   -0.613761
  14 O :   -0.669825
  15 C :    0.297767
  16 C :   -0.027892
  17 C :    0.166343
  18 H :    0.069428
  19 H :   -0.332208
  20 H :    0.085768
  21 H :   -0.004417
  22 C :   -0.101152
  23 H :   -0.161649
  24 H :   -0.543344
  25 C :    0.616877
  26 H :    0.160104
  27 H :   -0.335525
  28 C :    0.097463
  29 H :    0.037754
  30 H :   -0.055540
  31 H :    0.011177
  32 H :   -0.307930
  33 H :   -0.344228
  34 H :    0.117831
  35 O :   -0.679284
  36 H :   -0.157771
  37 H :    0.282715
Sum of atomic charges:   -0.0000000

LOEWDIN ATOMIC CHARGES
----------------------
   0 C :    0.014643
   1 C :   -0.031486
   2 C :   -0.043009
   3 H :    0.018700
   4 H :    0.044574
   5 S :    1.094151
   6 C :   -0.263671
   7 C :    0.182702
   8 N :    0.199448
   9 H :   -0.070775
  10 H :   -0.022224
  11 H :   -0.097368
  12 H :   -0.091684
  13 F :   -0.258634
  14 O :   -0.424840
  15 C :   -0.032171
  16 C :   -0.037015
  17 C :   -0.031743
  18 H :    0.016421
  19 H :    0.034416
  20 H :    0.038580
  21 H :    0.031801
  22 C :   -0.031530
  23 H :    0.029593
  24 H :   -0.012064
  25 C :   -0.032757
  26 H :    0.016219
  27 H :    0.029140
  28 C :   -0.035528
  29 H :    0.023877
  30 H :    0.023173
  31 H :    0.042625
  32 H :   -0.016015
  33 H :    0.026347
  34 H :    0.017961
  35 O :   -0.408007
  36 H :    0.029350
  37 H :    0.026800

  Mayer bond orders larger than 0.100000
B(  0-C ,  6-C ) :   0.9675 B(  0-C ,  8-N ) :   0.1890 B(  0-C , 15-C ) :   1.1722
B(  0-C , 23-H ) :   0.1164 B(  0-C , 24-H ) :   0.1743 B(  0-C , 36-H ) :   0.4727
B(  0-C , 37-H ) :   0.6550 B(  1-C ,  2-C ) :   1.2744 B(  1-C ,  4-H ) :   0.1776
B(  1-C , 17-C ) :   1.2514 B(  1-C , 20-H ) :   0.6626 B(  1-C , 21-H ) :   0.6465
B(  2-C ,  3-H ) :   0.7892 B(  2-C ,  4-H ) :   0.8054 B(  2-C ,  5-S ) :   0.9977
B(  2-C , 20-H ) :   0.1875 B(  2-C , 21-H ) :   0.1330 B(  2-C , 35-O ) :   0.1213
B(  4-H ,  5-S ) :   0.1350 B(  5-S , 13-F ) :   0.5807 B(  5-S , 14-O ) :   1.5203
B(  5-S , 35-O ) :   1.5021 B(  6-C ,  7-C ) :   1.5180 B(  6-C ,  8-N ) :   1.3596
B(  6-C , 10-H ) :  -0.2331 B(  6-C , 11-H ) :   0.1467 B(  6-C , 12-H ) :   0.3462
B(  6-C , 15-C ) :   0.1275 B(  6-C , 24-H ) :  -0.1218 B(  6-C , 36-H ) :   0.3041
B(  6-C , 37-H ) :   0.1020 B(  7-C ,  8-N ) :   0.2160 B(  7-C , 10-H ) :  -0.1120
B(  7-C , 11-H ) :   0.8807 B(  7-C , 12-H ) :   0.5849 B(  8-N ,  9-H ) :   0.6733
B(  8-N , 10-H ) :   0.9822 B(  8-N , 13-F ) :  -0.1448 B(  9-H , 10-H ) :  -0.2038
B(  9-H , 13-F ) :   0.1687 B( 10-H , 14-O ) :   0.1577 B( 13-F , 14-O ) :   0.1179
B( 13-F , 24-H ) :   0.1426 B( 13-F , 35-O ) :   0.1185 B( 15-C , 22-C ) :   1.2186
B( 15-C , 23-H ) :   0.7543 B( 15-C , 24-H ) :   0.6632 B( 15-C , 26-H ) :   0.1340
B( 15-C , 27-H ) :   0.1926 B( 15-C , 36-H ) :   0.2706 B( 15-C , 37-H ) :   0.1510
B( 16-C , 17-C ) :   1.2245 B( 16-C , 18-H ) :   0.1342 B( 16-C , 19-H ) :   0.1961
B( 16-C , 28-C ) :   1.2296 B( 16-C , 31-H ) :   0.7532 B( 16-C , 32-H ) :   1.0220
B( 16-C , 33-H ) :   0.2136 B( 16-C , 34-H ) :   0.1388 B( 17-C , 18-H ) :   0.8331
B( 17-C , 19-H ) :   0.8587 B( 17-C , 20-H ) :   0.1101 B( 17-C , 21-H ) :   0.2556
B( 17-C , 28-C ) :   0.1383 B( 17-C , 31-H ) :   0.1156 B( 18-H , 19-H ) :  -0.1015
B( 22-C , 23-H ) :   0.1566 B( 22-C , 24-H ) :   0.2109 B( 22-C , 25-C ) :   1.0902
B( 22-C , 26-H ) :   0.8035 B( 22-C , 27-H ) :   1.0240 B( 22-C , 28-C ) :   0.1412
B( 22-C , 29-H ) :   0.1486 B( 22-C , 30-H ) :   0.2415 B( 25-C , 28-C ) :   1.1483
B( 25-C , 29-H ) :   0.6626 B( 25-C , 30-H ) :   0.6852 B( 26-H , 32-H ) :   0.1490
B( 28-C , 29-H ) :   0.2273 B( 28-C , 30-H ) :   0.1386 B( 28-C , 31-H ) :   0.1169
B( 28-C , 33-H ) :   0.9610 B( 28-C , 34-H ) :   0.7931 B( 29-H , 30-H ) :  -0.1126

Dispersion correction           -0.045848702
FINAL SINGLE POINT ENERGY     -1133.889945311982

DIPOLE MOMENT
-------------
                                X             Y             Z
Electronic contribution:     -7.04811     -18.80560     -13.25087
Nuclear contribution   :      7.78491      18.17172      15.09294
                        -----------------------------------------
Total Dipole Moment    :      0.73680      -0.63388       1.84206
                        -----------------------------------------
Magnitude (a.u.)       :      2.08276
Magnitude (Debye)      :      5.29394

Rotational constants in cm-1:     0.018190     0.012573     0.008405
Rotational constants in MHz :   545.327178   376.916509   251.974803

                             ****ORCA TERMINATED NORMALLY****
TOTAL RUN TIME: 0 days 0 hours 1 minutes 3 seconds 929 msec
