                         Program Version 5.0.0 -  RELEASE  -
|  1> !PBE D3BJ RIJCOSX def2-SVPD def2/J TightSCF xyzfile
|  2>
|  3> *xyzfile 0 1 D2.xyz
|  4>
|  5> %MaxCore 64000
|  6>
|  7> %pal nprocs 4
|  8> end
|  9>
| 10> %scf
| 11>   MaxIter 150
| 12> end
| 13>
| 14>
| 15>                          ****END OF INPUT****

CARTESIAN COORDINATES (ANGSTROEM)
---------------------------------
  C      5.558206   -1.992914   -6.215054
  C      4.930199   -7.375319   -2.649623
  C      3.841892   -6.951611   -3.632829
  H      3.458144   -5.954425   -3.407121
  H      2.988484   -7.643606   -3.567078
  S      4.318115   -6.915930   -5.368692
  C      4.181880   -2.589671   -6.298911
  N      3.145873   -1.768431   -6.486753
  C      4.019102   -3.864307   -6.227427
  H      4.768490   -4.591153   -5.990773
  H      3.122405   -4.333392   -6.314620
  H      3.281635   -0.777786   -6.566549
  H      2.212549   -2.134193   -6.562246
  F      5.406154   -5.899480   -5.512972
  O      3.111910   -6.445079   -6.043792
  C      6.419260   -2.542944   -5.077630
  C      5.872267   -5.002756   -2.427819
  C      6.173994   -6.485522   -2.606315
  H      6.734852   -6.613767   -3.534015
  H      6.821463   -6.831018   -1.793617
  H      4.469612   -7.406168   -1.655876
  H      5.230134   -8.398678   -2.885906
  C      5.896512   -2.169314   -3.694552
  H      7.428880   -2.143665   -5.208078
  H      6.505894   -3.627541   -5.175502
  C      6.807804   -2.623428   -2.551019
  H      4.894708   -2.589732   -3.557501
  H      5.778823   -1.081255   -3.635790
  C      7.111544   -4.122463   -2.520363
  H      7.751615   -2.071393   -2.614406
  H      6.345837   -2.326401   -1.604086
  H      5.362882   -4.828697   -1.471335
  H      5.174429   -4.702577   -3.211298
  H      7.778329   -4.329347   -1.677651
  H      7.673189   -4.402845   -3.417586
  O      4.763396   -8.239424   -5.698629
  H      6.036826   -2.198189   -7.176852
  H      5.467610   -0.907371   -6.127968

 Total Charge           Charge          ....    0
 Multiplicity           Mult            ....    1
 Number of Electrons    NEL             ....  136
 Basis Dimension        Dim             ....  512

ORBITAL ENERGIES
----------------

  NO   OCC          E(Eh)            E(eV)
   0   2.0000     -88.305599     -2402.9175
   1   2.0000     -24.366358      -663.0423
   2   2.0000     -18.779446      -511.0147
   3   2.0000     -18.767451      -510.6883
   4   2.0000     -13.994653      -380.8139
   5   2.0000      -9.952313      -270.8162
   6   2.0000      -9.921618      -269.9810
   7   2.0000      -9.907013      -269.5835
   8   2.0000      -9.903179      -269.4792
   9   2.0000      -9.899368      -269.3755
  10   2.0000      -9.895208      -269.2623
  11   2.0000      -9.892335      -269.1841
  12   2.0000      -9.892085      -269.1773
  13   2.0000      -9.891532      -269.1623
  14   2.0000      -9.888025      -269.0668
  15   2.0000      -9.811080      -266.9730
  16   2.0000      -7.909273      -215.2223
  17   2.0000      -5.940528      -161.6500
  18   2.0000      -5.934225      -161.4785
  19   2.0000      -5.932711      -161.4373
  20   2.0000      -1.235413       -33.6173
  21   2.0000      -1.023522       -27.8514
  22   2.0000      -0.930469       -25.3193
  23   2.0000      -0.831313       -22.6212
  24   2.0000      -0.761915       -20.7328
  25   2.0000      -0.736816       -20.0498
  26   2.0000      -0.710056       -19.3216
  27   2.0000      -0.684483       -18.6257
  28   2.0000      -0.651159       -17.7189
  29   2.0000      -0.641319       -17.4512
  30   2.0000      -0.616182       -16.7672
  31   2.0000      -0.591720       -16.1015
  32   2.0000      -0.558819       -15.2062
  33   2.0000      -0.543482       -14.7889
  34   2.0000      -0.526257       -14.3202
  35   2.0000      -0.504203       -13.7201
  36   2.0000      -0.503112       -13.6904
  37   2.0000      -0.488461       -13.2917
  38   2.0000      -0.483524       -13.1574
  39   2.0000      -0.463775       -12.6200
  40   2.0000      -0.445265       -12.1163
  41   2.0000      -0.440226       -11.9792
  42   2.0000      -0.434819       -11.8320
  43   2.0000      -0.421161       -11.4604
  44   2.0000      -0.409429       -11.1411
  45   2.0000      -0.406962       -11.0740
  46   2.0000      -0.400964       -10.9108
  47   2.0000      -0.388854       -10.5813
  48   2.0000      -0.373285       -10.1576
  49   2.0000      -0.368970       -10.0402
  50   2.0000      -0.361828        -9.8458
  51   2.0000      -0.357270        -9.7218
  52   2.0000      -0.333543        -9.0762
  53   2.0000      -0.331059        -9.0086
  54   2.0000      -0.325289        -8.8516
  55   2.0000      -0.319598        -8.6967
  56   2.0000      -0.310043        -8.4367
  57   2.0000      -0.306771        -8.3477
  58   2.0000      -0.298247        -8.1157
  59   2.0000      -0.295289        -8.0352
  60   2.0000      -0.290091        -7.8938
  61   2.0000      -0.285155        -7.7595
  62   2.0000      -0.280015        -7.6196
  63   2.0000      -0.278689        -7.5835
  64   2.0000      -0.274392        -7.4666
  65   2.0000      -0.268810        -7.3147
  66   2.0000      -0.259932        -7.0731
  67   2.0000      -0.154802        -4.2124
  68   0.0000      -0.028764        -0.7827
  69   0.0000      -0.002772        -0.0754
  70   0.0000       0.000753         0.0205
  71   0.0000       0.003564         0.0970
  72   0.0000       0.013000         0.3537

MULLIKEN ATOMIC CHARGES
-----------------------
   0 C :    0.830182
   1 C :    0.524898
   2 C :   -0.017135
   3 H :    0.285597
   4 H :   -0.264777
   5 S :    1.388703
   6 C :    0.191385
   7 N :    0.166814
   8 C :    1.195923
   9 H :   -0.195389
  10 H :   -1.082163
  11 H :   -0.174007
  12 H :   -0.220017
  13 F :   -0.582407
  14 O :   -0.665822
  15 C :    0.235681
  16 C :   -0.033333
  17 C :    0.175715
  18 H :    0.068889
  19 H :   -0.326836
  20 H :    0.075461
  21 H :   -0.005496
  22 C :   -0.136529
  23 H :   -0.141779
  24 H :   -0.496209
  25 C :    0.633842
  26 H :    0.207731
  27 H :   -0.347225
  28 C :    0.103048
  29 H :    0.031358
  30 H :   -0.043886
  31 H :    0.009391
  32 H :   -0.317821
  33 H :   -0.332255
  34 H :    0.104334
  35 O :   -0.729504
  36 H :   -0.140013
  37 H :    0.023652
Sum of atomic charges:    0.0000000

LOEWDIN ATOMIC CHARGES
----------------------
   0 C :    0.012861
   1 C :   -0.033655
   2 C :   -0.044818
   3 H :    0.017483
   4 H :    0.041933
   5 S :    1.088845
   6 C :   -0.241886
   7 N :    0.194119
   8 C :    0.180269
   9 H :   -0.125771
  10 H :   -0.096443
  11 H :   -0.019215
  12 H :   -0.000205
  13 F :   -0.273852
  14 O :   -0.428588
  15 C :   -0.025098
  16 C :   -0.036146
  17 C :   -0.032192
  18 H :    0.016740
  19 H :    0.032624
  20 H :    0.036004
  21 H :    0.030604
  22 C :   -0.033540
  23 H :    0.029746
  24 H :   -0.004239
  25 C :   -0.033623
  26 H :    0.014938
  27 H :    0.024390
  28 C :   -0.035477
  29 H :    0.022765
  30 H :    0.022393
  31 H :    0.041151
  32 H :   -0.013750
  33 H :    0.025569
  34 H :    0.018573
  35 O :   -0.418995
  36 H :    0.032377
  37 H :    0.014109

  Mayer bond orders larger than 0.100000
B(  0-C ,  6-C ) :   0.9277 B(  0-C ,  8-C ) :   0.1860 B(  0-C ,  9-H ) :  -0.1321
B(  0-C , 15-C ) :   1.2452 B(  0-C , 24-H ) :   0.1345 B(  0-C , 36-H ) :   0.5430
B(  0-C , 37-H ) :   0.6586 B(  1-C ,  2-C ) :   1.2584 B(  1-C ,  4-H ) :   0.1719
B(  1-C , 17-C ) :   1.2456 B(  1-C , 20-H ) :   0.6658 B(  1-C , 21-H ) :   0.6452
B(  2-C ,  3-H ) :   0.7857 B(  2-C ,  4-H ) :   0.8100 B(  2-C ,  5-S ) :   0.9924
B(  2-C , 20-H ) :   0.1908 B(  2-C , 21-H ) :   0.1350 B(  2-C , 35-O ) :   0.1395
B(  4-H ,  5-S ) :   0.1325 B(  5-S , 13-F ) :   0.6072 B(  5-S , 14-O ) :   1.5361
B(  5-S , 35-O ) :   1.4697 B(  6-C ,  7-N ) :   0.8196 B(  6-C ,  8-C ) :   1.7476
B(  6-C ,  9-H ) :  -0.1092 B(  6-C , 10-H ) :   0.1693 B(  6-C , 12-H ) :  -0.1679
B(  6-C , 24-H ) :  -0.1052 B(  6-C , 36-H ) :   0.2446 B(  7-N ,  8-C ) :   0.5532
B(  7-N , 10-H ) :  -0.1147 B(  7-N , 11-H ) :   1.1449 B(  7-N , 12-H ) :   1.3298
B(  8-C ,  9-H ) :   0.2669 B(  8-C , 10-H ) :  -0.2126 B(  8-C , 14-O ) :  -0.2616
B(  8-C , 24-H ) :   0.1419 B(  9-H , 10-H ) :  -0.1585 B(  9-H , 14-O ) :   0.1041
B(  9-H , 15-C ) :   0.1094 B(  9-H , 24-H ) :   0.1602 B( 10-H , 14-O ) :   0.3065
B( 10-H , 24-H ) :  -0.1322 B( 11-H , 12-H ) :  -0.1634 B( 13-F , 14-O ) :   0.1081
B( 13-F , 24-H ) :   0.1253 B( 13-F , 35-O ) :   0.1293 B( 15-C , 22-C ) :   1.2306
B( 15-C , 23-H ) :   0.7495 B( 15-C , 24-H ) :   0.7343 B( 15-C , 26-H ) :   0.1395
B( 15-C , 27-H ) :   0.1826 B( 15-C , 36-H ) :   0.3326 B( 15-C , 37-H ) :   0.1582
B( 16-C , 17-C ) :   1.2195 B( 16-C , 18-H ) :   0.1343 B( 16-C , 19-H ) :   0.1925
B( 16-C , 28-C ) :   1.2275 B( 16-C , 31-H ) :   0.7488 B( 16-C , 32-H ) :   1.0357
B( 16-C , 33-H ) :   0.2217 B( 16-C , 34-H ) :   0.1491 B( 17-C , 18-H ) :   0.8388
B( 17-C , 19-H ) :   0.8495 B( 17-C , 20-H ) :   0.1085 B( 17-C , 21-H ) :   0.2541
B( 17-C , 28-C ) :   0.1413 B( 17-C , 31-H ) :   0.1130 B( 22-C , 23-H ) :   0.1701
B( 22-C , 24-H ) :   0.1935 B( 22-C , 25-C ) :   1.0967 B( 22-C , 26-H ) :   0.7878
B( 22-C , 27-H ) :   1.0716 B( 22-C , 28-C ) :   0.1499 B( 22-C , 29-H ) :   0.1687
B( 22-C , 30-H ) :   0.2578 B( 25-C , 28-C ) :   1.1428 B( 25-C , 29-H ) :   0.6335
B( 25-C , 30-H ) :   0.6671 B( 25-C , 34-H ) :   0.1012 B( 26-H , 32-H ) :   0.1559
B( 28-C , 29-H ) :   0.2314 B( 28-C , 30-H ) :   0.1316 B( 28-C , 31-H ) :   0.1213
B( 28-C , 33-H ) :   0.9532 B( 28-C , 34-H ) :   0.7984 B( 29-H , 30-H ) :  -0.1064
B( 36-H , 37-H ) :  -0.1374

Dispersion correction           -0.046115131
FINAL SINGLE POINT ENERGY     -1133.883142872194

DIPOLE MOMENT
-------------
                                X             Y             Z
Electronic contribution:     -7.78202     -16.94699     -13.67232
Nuclear contribution   :      7.91684      17.85507      15.13212
                        -----------------------------------------
Total Dipole Moment    :      0.13482       0.90808       1.45979
                        -----------------------------------------
Magnitude (a.u.)       :      1.72446
Magnitude (Debye)      :      4.38324

Rotational constants in cm-1:     0.018015     0.012410     0.008313
Rotational constants in MHz :   540.084467   372.038374   249.228144

                             ****ORCA TERMINATED NORMALLY****
TOTAL RUN TIME: 0 days 0 hours 0 minutes 59 seconds 711 msec
