                         Program Version 5.0.0 -  RELEASE  -
|  1> !PBE D3BJ RIJCOSX def2-SVPD def2/J TightSCF xyzfile
|  2>
|  3> *xyzfile 0 1 D3.xyz
|  4>
|  5> %MaxCore 64000
|  6>
|  7> %pal nprocs 4
|  8> end
|  9>
| 10> %scf
| 11>   MaxIter 150
| 12> end
| 13>
| 14>
| 15>                          ****END OF INPUT****

CARTESIAN COORDINATES (ANGSTROEM)
---------------------------------
  C      5.558206   -1.992914   -6.215054
  C      4.930199   -7.375319   -2.649623
  C      3.841892   -6.951611   -3.632829
  H      3.458144   -5.954425   -3.407121
  H      2.988484   -7.643606   -3.567078
  S      4.318115   -6.915930   -5.368692
  C      4.181880   -2.589671   -6.298911
  C      3.145873   -1.768431   -6.486753
  N      4.019102   -3.864307   -6.227427
  H      4.768490   -4.591153   -5.990773
  H      3.122405   -4.333392   -6.314620
  H      3.281635   -0.777786   -6.566549
  H      2.212549   -2.134193   -6.562246
  O      5.406154   -5.899480   -5.512972
  F      3.111910   -6.445079   -6.043792
  C      6.419260   -2.542944   -5.077630
  C      5.872267   -5.002756   -2.427819
  C      6.173994   -6.485522   -2.606315
  H      6.734852   -6.613767   -3.534015
  H      6.821463   -6.831018   -1.793617
  H      4.469612   -7.406168   -1.655876
  H      5.230134   -8.398678   -2.885906
  C      5.896512   -2.169314   -3.694552
  H      7.428880   -2.143665   -5.208078
  H      6.505894   -3.627541   -5.175502
  C      6.807804   -2.623428   -2.551019
  H      4.894708   -2.589732   -3.557501
  H      5.778823   -1.081255   -3.635790
  C      7.111544   -4.122463   -2.520363
  H      7.751615   -2.071393   -2.614406
  H      6.345837   -2.326401   -1.604086
  H      5.362882   -4.828697   -1.471335
  H      5.174429   -4.702577   -3.211298
  H      7.778329   -4.329347   -1.677651
  H      7.673189   -4.402845   -3.417586
  O      4.763396   -8.239424   -5.698629
  H      6.036826   -2.198189   -7.176852
  H      5.467610   -0.907371   -6.127968

 Total Charge           Charge          ....    0
 Multiplicity           Mult            ....    1
 Number of Electrons    NEL             ....  136
 Basis Dimension        Dim             ....  512

ORBITAL ENERGIES
----------------

  NO   OCC          E(Eh)            E(eV)
   0   2.0000     -88.336548     -2403.7597
   1   2.0000     -24.404758      -664.0872
   2   2.0000     -18.804722      -511.7025
   3   2.0000     -18.798156      -511.5238
   4   2.0000     -13.973881      -380.2486
   5   2.0000      -9.973127      -271.3826
   6   2.0000      -9.935663      -270.3631
   7   2.0000      -9.906199      -269.5614
   8   2.0000      -9.896935      -269.3093
   9   2.0000      -9.895943      -269.2823
  10   2.0000      -9.890838      -269.1434
  11   2.0000      -9.887099      -269.0416
  12   2.0000      -9.881816      -268.8979
  13   2.0000      -9.881404      -268.8867
  14   2.0000      -9.880000      -268.8485
  15   2.0000      -9.810075      -266.9457
  16   2.0000      -7.940319      -216.0671
  17   2.0000      -5.971562      -162.4945
  18   2.0000      -5.965531      -162.3303
  19   2.0000      -5.963395      -162.2722
  20   2.0000      -1.281850       -34.8809
  21   2.0000      -1.046985       -28.4899
  22   2.0000      -0.951421       -25.8895
  23   2.0000      -0.824659       -22.4401
  24   2.0000      -0.773996       -21.0615
  25   2.0000      -0.734948       -19.9989
  26   2.0000      -0.712694       -19.3934
  27   2.0000      -0.686787       -18.6884
  28   2.0000      -0.666543       -18.1375
  29   2.0000      -0.639157       -17.3923
  30   2.0000      -0.619708       -16.8631
  31   2.0000      -0.588097       -16.0029
  32   2.0000      -0.559233       -15.2175
  33   2.0000      -0.546771       -14.8784
  34   2.0000      -0.537830       -14.6351
  35   2.0000      -0.532229       -14.4827
  36   2.0000      -0.517368       -14.0783
  37   2.0000      -0.503100       -13.6900
  38   2.0000      -0.492381       -13.3984
  39   2.0000      -0.469367       -12.7721
  40   2.0000      -0.456500       -12.4220
  41   2.0000      -0.446469       -12.1490
  42   2.0000      -0.433032       -11.7834
  43   2.0000      -0.418989       -11.4013
  44   2.0000      -0.413025       -11.2390
  45   2.0000      -0.408717       -11.1218
  46   2.0000      -0.398543       -10.8449
  47   2.0000      -0.387034       -10.5317
  48   2.0000      -0.378052       -10.2873
  49   2.0000      -0.372112       -10.1257
  50   2.0000      -0.367322        -9.9953
  51   2.0000      -0.359704        -9.7880
  52   2.0000      -0.348400        -9.4805
  53   2.0000      -0.337629        -9.1874
  54   2.0000      -0.329988        -8.9794
  55   2.0000      -0.321506        -8.7486
  56   2.0000      -0.318403        -8.6642
  57   2.0000      -0.313762        -8.5379
  58   2.0000      -0.309149        -8.4124
  59   2.0000      -0.297397        -8.0926
  60   2.0000      -0.293149        -7.9770
  61   2.0000      -0.287989        -7.8366
  62   2.0000      -0.285013        -7.7556
  63   2.0000      -0.276256        -7.5173
  64   2.0000      -0.271322        -7.3831
  65   2.0000      -0.264081        -7.1860
  66   2.0000      -0.260010        -7.0752
  67   2.0000      -0.139538        -3.7970
  68   0.0000      -0.045212        -1.2303
  69   0.0000      -0.022641        -0.6161
  70   0.0000      -0.002806        -0.0764
  71   0.0000       0.005569         0.1515
  72   0.0000       0.009075         0.2469

MULLIKEN ATOMIC CHARGES
-----------------------
   0 C :    0.765357
   1 C :    0.473319
   2 C :   -0.090889
   3 H :    0.278693
   4 H :   -0.201474
   5 S :    1.443060
   6 C :   -0.413357
   7 C :    0.447176
   8 N :    0.879083
   9 H :   -0.262616
  10 H :   -0.315630
  11 H :   -0.277386
  12 H :   -0.389932
  13 O :   -0.901415
  14 F :   -0.422882
  15 C :    0.332964
  16 C :   -0.076865
  17 C :    0.217897
  18 H :    0.102980
  19 H :   -0.351728
  20 H :    0.077406
  21 H :    0.005377
  22 C :   -0.098727
  23 H :   -0.143915
  24 H :   -0.567169
  25 C :    0.618931
  26 H :    0.174177
  27 H :   -0.341707
  28 C :    0.078642
  29 H :    0.038515
  30 H :   -0.060508
  31 H :    0.010223
  32 H :   -0.243876
  33 H :   -0.347017
  34 H :    0.132964
  35 O :   -0.681150
  36 H :   -0.164211
  37 H :    0.275693
Sum of atomic charges:   -0.0000000

LOEWDIN ATOMIC CHARGES
----------------------
   0 C :    0.016120
   1 C :   -0.017737
   2 C :   -0.052641
   3 H :    0.017794
   4 H :    0.031848
   5 S :    1.127755
   6 C :   -0.264782
   7 C :    0.175550
   8 N :    0.189948
   9 H :   -0.114188
  10 H :   -0.019716
  11 H :   -0.100106
  12 H :   -0.097244
  13 O :   -0.418789
  14 F :   -0.236808
  15 C :   -0.026739
  16 C :   -0.035715
  17 C :   -0.027566
  18 H :    0.017631
  19 H :    0.032822
  20 H :    0.041529
  21 H :    0.033560
  22 C :   -0.032448
  23 H :    0.028537
  24 H :   -0.008520
  25 C :   -0.033982
  26 H :    0.015420
  27 H :    0.026959
  28 C :   -0.033181
  29 H :    0.022839
  30 H :    0.021401
  31 H :    0.039114
  32 H :   -0.014436
  33 H :    0.024685
  34 H :    0.021350
  35 O :   -0.405186
  36 H :    0.029665
  37 H :    0.025257

  Mayer bond orders larger than 0.100000
B(  0-C ,  6-C ) :   0.9678 B(  0-C ,  8-N ) :   0.1842 B(  0-C , 15-C ) :   1.1776
B(  0-C , 23-H ) :   0.1241 B(  0-C , 24-H ) :   0.1825 B(  0-C , 36-H ) :   0.4743
B(  0-C , 37-H ) :   0.6506 B(  1-C ,  2-C ) :   1.3254 B(  1-C ,  3-H ) :   0.1036
B(  1-C ,  4-H ) :   0.1884 B(  1-C , 17-C ) :   1.2433 B(  1-C , 20-H ) :   0.6691
B(  1-C , 21-H ) :   0.6410 B(  2-C ,  3-H ) :   0.7465 B(  2-C ,  4-H ) :   0.8420
B(  2-C ,  5-S ) :   0.9843 B(  2-C , 20-H ) :   0.2019 B(  2-C , 21-H ) :   0.1251
B(  2-C , 35-O ) :   0.1332 B(  5-S , 13-O ) :   1.2708 B(  5-S , 14-F ) :   0.6557
B(  5-S , 35-O ) :   1.5029 B(  6-C ,  7-C ) :   1.5301 B(  6-C ,  8-N ) :   1.4041
B(  6-C , 10-H ) :  -0.1952 B(  6-C , 11-H ) :   0.1473 B(  6-C , 12-H ) :   0.3374
B(  6-C , 15-C ) :   0.1367 B(  6-C , 24-H ) :  -0.1233 B(  6-C , 36-H ) :   0.3089
B(  6-C , 37-H ) :   0.1006 B(  7-C ,  8-N ) :   0.2076 B(  7-C , 10-H ) :  -0.1061
B(  7-C , 11-H ) :   0.8573 B(  7-C , 12-H ) :   0.5922 B(  8-N ,  9-H ) :   0.6620
B(  8-N , 10-H ) :   0.9648 B(  8-N , 13-O ) :  -0.1336 B(  8-N , 24-H ) :   0.1030
B(  9-H , 10-H ) :  -0.2107 B(  9-H , 13-O ) :   0.1747 B( 10-H , 14-F ) :   0.1211
B( 13-O , 24-H ) :   0.2043 B( 13-O , 35-O ) :   0.1765 B( 15-C , 22-C ) :   1.2186
B( 15-C , 23-H ) :   0.7330 B( 15-C , 24-H ) :   0.5978 B( 15-C , 26-H ) :   0.1422
B( 15-C , 27-H ) :   0.2068 B( 15-C , 36-H ) :   0.2692 B( 15-C , 37-H ) :   0.1665
B( 16-C , 17-C ) :   1.2172 B( 16-C , 18-H ) :   0.1344 B( 16-C , 19-H ) :   0.1866
B( 16-C , 28-C ) :   1.2442 B( 16-C , 31-H ) :   0.7623 B( 16-C , 32-H ) :   1.0158
B( 16-C , 33-H ) :   0.2160 B( 16-C , 34-H ) :   0.1452 B( 17-C , 18-H ) :   0.8168
B( 17-C , 19-H ) :   0.8498 B( 17-C , 20-H ) :   0.1139 B( 17-C , 21-H ) :   0.2573
B( 17-C , 28-C ) :   0.1513 B( 17-C , 31-H ) :   0.1098 B( 20-H , 21-H ) :  -0.1037
B( 22-C , 23-H ) :   0.1599 B( 22-C , 24-H ) :   0.2198 B( 22-C , 25-C ) :   1.0866
B( 22-C , 26-H ) :   0.7915 B( 22-C , 27-H ) :   1.0304 B( 22-C , 28-C ) :   0.1391
B( 22-C , 29-H ) :   0.1505 B( 22-C , 30-H ) :   0.2422 B( 24-H , 34-H ) :   0.1036
B( 25-C , 28-C ) :   1.1467 B( 25-C , 29-H ) :   0.6615 B( 25-C , 30-H ) :   0.6807
B( 26-H , 32-H ) :   0.1443 B( 28-C , 29-H ) :   0.2253 B( 28-C , 30-H ) :   0.1414
B( 28-C , 31-H ) :   0.1192 B( 28-C , 33-H ) :   0.9636 B( 28-C , 34-H ) :   0.7847
B( 29-H , 30-H ) :  -0.1134

Dispersion correction           -0.046164624
FINAL SINGLE POINT ENERGY     -1133.888308366304

DIPOLE MOMENT
-------------
                                X             Y             Z
Electronic contribution:    -10.93810     -20.04185     -14.23817
Nuclear contribution   :     10.48431      18.81367      15.71750
                        -----------------------------------------
Total Dipole Moment    :     -0.45378      -1.22818       1.47933
                        -----------------------------------------
Magnitude (a.u.)       :      1.97554
Magnitude (Debye)      :      5.02143

Rotational constants in cm-1:     0.017977     0.012528     0.008321
Rotational constants in MHz :   538.924099   375.570730   249.458530

                             ****ORCA TERMINATED NORMALLY****
TOTAL RUN TIME: 0 days 0 hours 1 minutes 2 seconds 970 msec
