                         Program Version 5.0.0 -  RELEASE  -
|  1> !CAM-B3LYP RIJCOSX def2-TZVPD def2/J TightSCF
|  2> *xyz -1 1
|  3> C          4.93020       -7.37532       -2.64962
|  4> C          3.84189       -6.95161       -3.63283
|  5> H          3.45814       -5.95442       -3.40712
|  6> H          2.98848       -7.64361       -3.56708
|  7> S          4.31812       -6.91593       -5.36869
|  8> O          5.40615       -5.89948       -5.51297
|  9> O          3.11191       -6.44508       -6.04379
| 10> O          4.76340       -8.23942       -5.69863
| 11> H          5.27901       -8.35440       -2.90385
| 12> H          4.53000       -7.38577       -1.65734
| 13> H          5.74437       -6.68276       -2.69856
| 14> *
| 15>
| 16> %MaxCore 64000
| 17>
| 18> %pal nprocs 4
| 19> end
| 20>
| 21> %scf
| 22>   MaxIter 150
| 23> end
| 24>
| 25>
| 26>                          ****END OF INPUT****

CARTESIAN COORDINATES (ANGSTROEM)
---------------------------------
  C      4.930200   -7.375320   -2.649620
  C      3.841890   -6.951610   -3.632830
  H      3.458140   -5.954420   -3.407120
  H      2.988480   -7.643610   -3.567080
  S      4.318120   -6.915930   -5.368690
  O      5.406150   -5.899480   -5.512970
  O      3.111910   -6.445080   -6.043790
  O      4.763400   -8.239420   -5.698630
  H      5.279010   -8.354400   -2.903850
  H      4.530000   -7.385770   -1.657340
  H      5.744370   -6.682760   -2.698560

 Total Charge           Charge          ....   -1
 Multiplicity           Mult            ....    1
 Number of Electrons    NEL             ....   58
 Basis Dimension        Dim             ....  285

ORBITAL ENERGIES
----------------

  NO   OCC          E(Eh)            E(eV)
   0   2.0000     -88.919908     -2419.6337
   1   2.0000     -18.984763      -516.6017
   2   2.0000     -18.975491      -516.3494
   3   2.0000     -18.968120      -516.1488
   4   2.0000     -10.110598      -275.1234
   5   2.0000     -10.101351      -274.8717
   6   2.0000      -7.963165      -216.6887
   7   2.0000      -5.927714      -161.3013
   8   2.0000      -5.926700      -161.2737
   9   2.0000      -5.926377      -161.2649
  10   2.0000      -1.007464       -27.4145
  11   2.0000      -0.876851       -23.8603
  12   2.0000      -0.847396       -23.0588
  13   2.0000      -0.718828       -19.5603
  14   2.0000      -0.588751       -16.0207
  15   2.0000      -0.459233       -12.4964
  16   2.0000      -0.391712       -10.6590
  17   2.0000      -0.387130       -10.5343
  18   2.0000      -0.346780        -9.4364
  19   2.0000      -0.333010        -9.0617
  20   2.0000      -0.324888        -8.8406
  21   2.0000      -0.299411        -8.1474
  22   2.0000      -0.281720        -7.6660
  23   2.0000      -0.221017        -6.0142
  24   2.0000      -0.219598        -5.9756
  25   2.0000      -0.184799        -5.0286
  26   2.0000      -0.174137        -4.7385
  27   2.0000      -0.166940        -4.5427
  28   2.0000      -0.129943        -3.5359
  29   0.0000       0.144347         3.9279
  30   0.0000       0.162862         4.4317
  31   0.0000       0.166038         4.5181
  32   0.0000       0.175807         4.7839
  33   0.0000       0.192875         5.2484

MULLIKEN ATOMIC CHARGES
-----------------------
   0 C :   -1.145794
   1 C :   -0.387102
   2 H :    0.279554
   3 H :    0.275772
   4 S :    1.199148
   5 O :   -0.748668
   6 O :   -0.711671
   7 O :   -0.695078
   8 H :    0.303049
   9 H :    0.323324
  10 H :    0.307466
Sum of atomic charges:   -1.0000000

LOEWDIN ATOMIC CHARGES
----------------------
   0 C :   -0.147351
   1 C :   -0.333587
   2 H :    0.084565
   3 H :    0.088265
   4 S :    0.359324
   5 O :   -0.428647
   6 O :   -0.410356
   7 O :   -0.382513
   8 H :    0.059663
   9 H :    0.049946
  10 H :    0.060690

  Mayer bond orders larger than 0.100000
B(  0-C ,  1-C ) :   0.6210 B(  0-C ,  8-H ) :   0.9793 B(  0-C ,  9-H ) :   0.9319
B(  0-C , 10-H ) :   0.9798 B(  1-C ,  2-H ) :   0.9618 B(  1-C ,  3-H ) :   0.9572
B(  1-C ,  4-S ) :   0.8933 B(  1-C ,  5-O ) :   0.1059 B(  1-C ,  6-O ) :   0.1252
B(  1-C ,  7-O ) :   0.1053 B(  4-S ,  5-O ) :   1.4444 B(  4-S ,  6-O ) :   1.4751
B(  4-S ,  7-O ) :   1.5038

FINAL SINGLE POINT ENERGY      -703.207074300216

DIPOLE MOMENT
-------------
                                X             Y             Z
Electronic contribution:     -0.37288       0.79687      -7.75107
Nuclear contribution   :      0.07504      -1.14369       9.75001
                        -----------------------------------------
Total Dipole Moment    :     -0.29784      -0.34682       1.99894
                        -----------------------------------------
Magnitude (a.u.)       :      2.05055
Magnitude (Debye)      :      5.21208

Rotational constants in cm-1:     0.160553     0.082191     0.080550
Rotational constants in MHz :  4813.250478  2464.013016  2414.833054

                             ****ORCA TERMINATED NORMALLY****
TOTAL RUN TIME: 0 days 0 hours 1 minutes 4 seconds 643 msec
