                         Program Version 5.0.0 -  RELEASE  -
|  1> !CAM-B3LYP RIJCOSX def2-TZVPD def2/J TightSCF
|  2> *xyz 1 1
|  3> C          5.55821       -1.99291       -6.21505
|  4> C          4.18188       -2.58967       -6.29891
|  5> N          3.14587       -1.76843       -6.48675
|  6> N          4.01910       -3.86431       -6.22743
|  7> H          4.76849       -4.59115       -5.99077
|  8> H          3.12241       -4.33339       -6.31462
|  9> H          3.28164       -0.77779       -6.56655
| 10> H          2.21255       -2.13419       -6.56225
| 11> C          6.41926       -2.54294       -5.07763
| 12> H          6.03683       -2.19819       -7.17685
| 13> H          5.46761       -0.90737       -6.12797
| 14> H          6.50056       -3.60553       -5.17358
| 15> H          5.96544       -2.30329       -4.13874
| 16> H          7.39438       -2.10494       -5.12457
| 17> *
| 18>
| 19> %MaxCore 64000
| 20>
| 21> %pal nprocs 4
| 22> end
| 23>
| 24> %scf
| 25>   MaxIter 150
| 26> end
| 27>
| 28>
| 29>                          ****END OF INPUT****

CARTESIAN COORDINATES (ANGSTROEM)
---------------------------------
  C      5.558210   -1.992910   -6.215050
  C      4.181880   -2.589670   -6.298910
  N      3.145870   -1.768430   -6.486750
  N      4.019100   -3.864310   -6.227430
  H      4.768490   -4.591150   -5.990770
  H      3.122410   -4.333390   -6.314620
  H      3.281640   -0.777790   -6.566550
  H      2.212550   -2.134190   -6.562250
  C      6.419260   -2.542940   -5.077630
  H      6.036830   -2.198190   -7.176850
  H      5.467610   -0.907370   -6.127970
  H      6.500560   -3.605530   -5.173580
  H      5.965440   -2.303290   -4.138740
  H      7.394380   -2.104940   -5.124570

 Total Charge           Charge          ....    1
 Multiplicity           Mult            ....    1
 Number of Electrons    NEL             ....   40
 Basis Dimension        Dim             ....  266

ORBITAL ENERGIES
----------------

  NO   OCC          E(Eh)            E(eV)
   0   2.0000     -14.640938      -398.4002
   1   2.0000     -14.629501      -398.0890
   2   2.0000     -10.571582      -287.6674
   3   2.0000     -10.442032      -284.1421
   4   2.0000     -10.397267      -282.9240
   5   2.0000      -1.288153       -35.0524
   6   2.0000      -1.188133       -32.3307
   7   2.0000      -1.051746       -28.6195
   8   2.0000      -0.944839       -25.7104
   9   2.0000      -0.892016       -24.2730
  10   2.0000      -0.846286       -23.0286
  11   2.0000      -0.819660       -22.3041
  12   2.0000      -0.766763       -20.8647
  13   2.0000      -0.726097       -19.7581
  14   2.0000      -0.692176       -18.8351
  15   2.0000      -0.672602       -18.3024
  16   2.0000      -0.615643       -16.7525
  17   2.0000      -0.606438       -16.5020
  18   2.0000      -0.590334       -16.0638
  19   2.0000      -0.556431       -15.1413
  20   0.0000      -0.161046        -4.3823
  21   0.0000      -0.135286        -3.6813
  22   0.0000      -0.101211        -2.7541
  23   0.0000      -0.089854        -2.4451
  24   0.0000      -0.067526        -1.8375

MULLIKEN ATOMIC CHARGES
-----------------------
   0 C :   -0.327225
   1 C :    0.598526
   2 N :   -0.294333
   3 N :   -0.267637
   4 H :    0.237748
   5 H :    0.216102
   6 H :    0.226710
   7 H :    0.190464
   8 C :   -1.244331
   9 H :    0.314302
  10 H :    0.286745
  11 H :    0.378245
  12 H :    0.347482
  13 H :    0.337202
Sum of atomic charges:    1.0000000

LOEWDIN ATOMIC CHARGES
----------------------
   0 C :   -0.146555
   1 C :   -0.358746
   2 N :    0.225096
   3 N :    0.218723
   4 H :    0.188191
   5 H :    0.149884
   6 H :    0.136743
   7 H :    0.138344
   8 C :   -0.062531
   9 H :    0.142576
  10 H :    0.126743
  11 H :    0.065324
  12 H :    0.087541
  13 H :    0.088666

  Mayer bond orders larger than 0.100000
B(  0-C ,  1-C ) :   0.7523 B(  0-C ,  8-C ) :   0.5925 B(  0-C ,  9-H ) :   0.9057
B(  0-C , 10-H ) :   0.9555 B(  1-C ,  2-N ) :   1.1737 B(  1-C ,  3-N ) :   1.2477
B(  2-N ,  6-H ) :   0.9563 B(  2-N ,  7-H ) :   1.0296 B(  3-N ,  4-H ) :   0.9325
B(  3-N ,  5-H ) :   0.9911 B(  8-C , 11-H ) :   0.9062 B(  8-C , 12-H ) :   0.9463
B(  8-C , 13-H ) :   0.9743

FINAL SINGLE POINT ENERGY      -228.994212744490

DIPOLE MOMENT
-------------
                                X             Y             Z
Electronic contribution:     -3.76135      -0.47456      -1.56393
Nuclear contribution   :      2.76041       0.12669       1.26265
                        -----------------------------------------
Total Dipole Moment    :     -1.00094      -0.34786      -0.30128
                        -----------------------------------------
Magnitude (a.u.)       :      1.10167
Magnitude (Debye)      :      2.80021

Rotational constants in cm-1:     0.280918     0.124524     0.094121
Rotational constants in MHz :  8421.697738  3733.133254  2821.684112

                             ****ORCA TERMINATED NORMALLY****
TOTAL RUN TIME: 0 days 0 hours 1 minutes 8 seconds 253 msec
