                         Program Version 5.0.0 -  RELEASE  -
|  1> !CAM-B3LYP RIJCOSX def2-TZVPD def2/J TightSCF xyzfile
|  2>
|  3> *xyzfile 0 1 B.xyz
|  4>
|  5> %MaxCore 64000
|  6>
|  7> %pal nprocs 4
|  8> end
|  9>
| 10> %scf
| 11>   MaxIter 150
| 12> end
| 13>
| 14>
| 15>                          ****END OF INPUT****

CARTESIAN COORDINATES (ANGSTROEM)
---------------------------------
  C      5.558206   -1.992914   -6.215054
  C      4.930199   -7.375319   -2.649623
  C      3.841892   -6.951611   -3.632829
  H      3.458144   -5.954425   -3.407121
  H      2.988484   -7.643606   -3.567078
  S      4.318115   -6.915930   -5.368692
  C      4.181880   -2.589671   -6.298911
  N      3.145873   -1.768431   -6.486753
  N      4.019102   -3.864307   -6.227427
  H      4.768490   -4.591153   -5.990773
  H      3.122405   -4.333392   -6.314620
  H      3.281635   -0.777786   -6.566549
  H      2.212549   -2.134193   -6.562246
  O      5.406154   -5.899480   -5.512972
  O      3.111910   -6.445079   -6.043792
  C      6.419260   -2.542944   -5.077630
  C      5.872267   -5.002756   -2.427819
  C      6.173994   -6.485522   -2.606315
  H      6.734852   -6.613767   -3.534015
  H      6.821463   -6.831018   -1.793617
  H      4.469612   -7.406168   -1.655876
  H      5.230134   -8.398678   -2.885906
  C      5.896512   -2.169314   -3.694552
  H      7.428880   -2.143665   -5.208078
  H      6.505894   -3.627541   -5.175502
  C      6.807804   -2.623428   -2.551019
  H      4.894708   -2.589732   -3.557501
  H      5.778823   -1.081255   -3.635790
  C      7.111544   -4.122463   -2.520363
  H      7.751615   -2.071393   -2.614406
  H      6.345837   -2.326401   -1.604086
  H      5.362882   -4.828697   -1.471335
  H      5.174429   -4.702577   -3.211298
  H      7.778329   -4.329347   -1.677651
  H      7.673189   -4.402845   -3.417586
  O      4.763396   -8.239424   -5.698629
  H      6.036826   -2.198189   -7.176852
  H      5.467610   -0.907371   -6.127968

 Total Charge           Charge          ....    0
 Multiplicity           Mult            ....    1
 Number of Electrons    NEL             ....  136
 Basis Dimension        Dim             ....  808

ORBITAL ENERGIES
----------------

  NO   OCC          E(Eh)            E(eV)
   0   2.0000     -89.073646     -2423.8171
   1   2.0000     -19.143304      -520.9158
   2   2.0000     -19.132491      -520.6215
   3   2.0000     -19.126407      -520.4560
   4   2.0000     -14.480028      -394.0216
   5   2.0000     -14.441710      -392.9789
   6   2.0000     -10.406699      -283.1807
   7   2.0000     -10.302378      -280.3419
   8   2.0000     -10.268545      -279.4213
   9   2.0000     -10.256712      -279.0993
  10   2.0000     -10.245067      -278.7824
  11   2.0000     -10.239049      -278.6187
  12   2.0000     -10.232617      -278.4437
  13   2.0000     -10.226029      -278.2644
  14   2.0000     -10.224245      -278.2159
  15   2.0000     -10.217037      -278.0197
  16   2.0000      -8.117618      -220.8916
  17   2.0000      -6.082214      -165.5055
  18   2.0000      -6.081322      -165.4812
  19   2.0000      -6.080397      -165.4560
  20   2.0000      -1.166326       -31.7373
  21   2.0000      -1.123990       -30.5853
  22   2.0000      -1.032926       -28.1073
  23   2.0000      -1.024568       -27.8799
  24   2.0000      -1.016556       -27.6619
  25   2.0000      -0.926229       -25.2040
  26   2.0000      -0.890376       -24.2284
  27   2.0000      -0.866360       -23.5749
  28   2.0000      -0.825377       -22.4597
  29   2.0000      -0.789152       -21.4739
  30   2.0000      -0.755309       -20.5530
  31   2.0000      -0.733633       -19.9632
  32   2.0000      -0.706022       -19.2118
  33   2.0000      -0.682263       -18.5653
  34   2.0000      -0.671992       -18.2858
  35   2.0000      -0.653485       -17.7822
  36   2.0000      -0.637545       -17.3485
  37   2.0000      -0.614324       -16.7166
  38   2.0000      -0.588191       -16.0055
  39   2.0000      -0.575993       -15.6736
  40   2.0000      -0.560788       -15.2598
  41   2.0000      -0.544794       -14.8246
  42   2.0000      -0.537999       -14.6397
  43   2.0000      -0.524058       -14.2603
  44   2.0000      -0.517230       -14.0745
  45   2.0000      -0.508635       -13.8406
  46   2.0000      -0.500038       -13.6067
  47   2.0000      -0.494319       -13.4511
  48   2.0000      -0.480684       -13.0801
  49   2.0000      -0.468495       -12.7484
  50   2.0000      -0.463823       -12.6213
  51   2.0000      -0.461731       -12.5643
  52   2.0000      -0.441088       -12.0026
  53   2.0000      -0.434509       -11.8236
  54   2.0000      -0.428199       -11.6519
  55   2.0000      -0.410332       -11.1657
  56   2.0000      -0.400738       -10.9046
  57   2.0000      -0.394691       -10.7401
  58   2.0000      -0.392349       -10.6764
  59   2.0000      -0.383802       -10.4438
  60   2.0000      -0.378231       -10.2922
  61   2.0000      -0.375879       -10.2282
  62   2.0000      -0.368242       -10.0204
  63   2.0000      -0.364288        -9.9128
  64   2.0000      -0.333780        -9.0826
  65   2.0000      -0.330936        -9.0052
  66   2.0000      -0.318449        -8.6654
  67   2.0000      -0.297285        -8.0895
  68   0.0000      -0.009435        -0.2567
  69   0.0000      -0.005448        -0.1482
  70   0.0000       0.022562         0.6139
  71   0.0000       0.032908         0.8955
  72   0.0000       0.038430         1.0457

MULLIKEN ATOMIC CHARGES
-----------------------
   0 C :   -0.622460
   1 C :   -0.709942
   2 C :   -0.648646
   3 H :    0.313728
   4 H :    0.391331
   5 S :    1.241632
   6 C :    0.736824
   7 N :   -0.358572
   8 N :   -0.127817
   9 H :    0.176618
  10 H :    0.196901
  11 H :    0.200760
  12 H :    0.183360
  13 O :   -0.872281
  14 O :   -0.817502
  15 C :   -0.516632
  16 C :    0.044030
  17 C :   -0.731175
  18 H :    0.298807
  19 H :    0.360884
  20 H :    0.286843
  21 H :    0.280961
  22 C :   -0.460659
  23 H :    0.298175
  24 H :    0.267326
  25 C :   -0.798786
  26 H :    0.289171
  27 H :    0.283219
  28 C :   -0.684533
  29 H :    0.310238
  30 H :    0.300379
  31 H :    0.296747
  32 H :   -0.012188
  33 H :    0.327269
  34 H :    0.286215
  35 O :   -0.641046
  36 H :    0.315862
  37 H :    0.314959
Sum of atomic charges:   -0.0000000

LOEWDIN ATOMIC CHARGES
----------------------
   0 C :   -0.108988
   1 C :   -0.225918
   2 C :   -0.253361
   3 H :    0.089685
   4 H :    0.108063
   5 S :    0.458089
   6 C :   -0.366829
   7 N :    0.189058
   8 N :    0.227277
   9 H :    0.055979
  10 H :    0.115723
  11 H :    0.116952
  12 H :    0.126109
  13 O :   -0.383927
  14 O :   -0.372909
  15 C :   -0.191882
  16 C :   -0.225767
  17 C :   -0.217780
  18 H :    0.106324
  19 H :    0.115964
  20 H :    0.111482
  21 H :    0.112227
  22 C :   -0.214641
  23 H :    0.127200
  24 H :    0.100434
  25 C :   -0.209405
  26 H :    0.108798
  27 H :    0.114204
  28 C :   -0.213296
  29 H :    0.110823
  30 H :    0.111934
  31 H :    0.127416
  32 H :    0.078836
  33 H :    0.115826
  34 H :    0.112884
  35 O :   -0.312553
  36 H :    0.137702
  37 H :    0.118268

  Mayer bond orders larger than 0.100000
B(  0-C ,  6-C ) :   0.5418 B(  0-C , 15-C ) :   0.6679 B(  0-C , 36-H ) :   0.9371
B(  0-C , 37-H ) :   1.0107 B(  1-C ,  2-C ) :   0.8539 B(  1-C ,  5-S ) :   0.1392
B(  1-C , 17-C ) :   0.8218 B(  1-C , 20-H ) :   0.9736 B(  1-C , 21-H ) :   0.9711
B(  2-C ,  3-H ) :   0.9229 B(  2-C ,  4-H ) :   0.8519 B(  2-C ,  5-S ) :   0.8512
B(  2-C , 14-O ) :   0.1204 B(  2-C , 32-H ) :   0.1003 B(  2-C , 35-O ) :   0.1299
B(  5-S , 13-O ) :   1.4637 B(  5-S , 14-O ) :   1.2895 B(  5-S , 35-O ) :   1.3966
B(  6-C ,  7-N ) :   0.9964 B(  6-C ,  8-N ) :   1.1370 B(  6-C ,  9-H ) :  -0.1473
B(  6-C , 10-H ) :  -0.1080 B(  6-C , 37-H ) :  -0.1611 B(  7-N ,  8-N ) :   0.1122
B(  7-N , 11-H ) :   0.9882 B(  7-N , 12-H ) :   1.0258 B(  8-N ,  9-H ) :   0.9137
B(  8-N , 10-H ) :   1.0376 B(  8-N , 13-O ) :  -0.1343 B( 15-C , 22-C ) :   0.3600
B( 15-C , 23-H ) :   0.9061 B( 15-C , 24-H ) :   1.1288 B( 15-C , 26-H ) :  -0.1171
B( 15-C , 28-C ) :   0.1036 B( 16-C , 17-C ) :   0.4169 B( 16-C , 22-C ) :   0.1193
B( 16-C , 28-C ) :   0.3425 B( 16-C , 31-H ) :   0.8388 B( 16-C , 32-H ) :   1.3372
B( 17-C , 18-H ) :   0.9505 B( 17-C , 19-H ) :   0.8812 B( 17-C , 28-C ) :   0.3768
B( 22-C , 24-H ) :  -0.1008 B( 22-C , 25-C ) :   0.8718 B( 22-C , 26-H ) :   1.0246
B( 22-C , 27-H ) :   0.9254 B( 25-C , 28-C ) :   0.7695 B( 25-C , 29-H ) :   0.9744
B( 25-C , 30-H ) :   0.9642 B( 28-C , 32-H ) :  -0.1112 B( 28-C , 33-H ) :   0.9434
B( 28-C , 34-H ) :   0.9936 B( 31-H , 32-H ) :   0.1765

FINAL SINGLE POINT ENERGY     -1127.678425714179

DIPOLE MOMENT
-------------
                                X             Y             Z
Electronic contribution:     -9.18591     -11.40777     -14.15480
Nuclear contribution   :      8.53517      16.50844      14.36520
                        -----------------------------------------
Total Dipole Moment    :     -0.65075       5.10066       0.21040
                        -----------------------------------------
Magnitude (a.u.)       :      5.14631
Magnitude (Debye)      :     13.08088

Rotational constants in cm-1:     0.017951     0.012436     0.008288
Rotational constants in MHz :   538.163255   372.824050   248.467077

                             ****ORCA TERMINATED NORMALLY****
TOTAL RUN TIME: 0 days 0 hours 15 minutes 47 seconds 689 msec
