                         Program Version 5.0.0 -  RELEASE  -
|  1> !CAM-B3LYP RIJCOSX def2-TZVPD def2/J TightSCF
|  2> *xyz 0 1
|  3> C          4.93020       -7.37532       -2.64962
|  4> C          3.84189       -6.95161       -3.63283
|  5> H          3.45814       -5.95442       -3.40712
|  6> H          2.98848       -7.64361       -3.56708
|  7> S          4.31812       -6.91593       -5.36869
|  8> F          5.40615       -5.89948       -5.51297
|  9> O          3.11191       -6.44508       -6.04379
| 10> O          4.76340       -8.23942       -5.69863
| 11> H          5.27901       -8.35440       -2.90385
| 12> H          4.53000       -7.38577       -1.65734
| 13> H          5.74437       -6.68276       -2.69856
| 14> *
| 15>
| 16> %MaxCore 64000
| 17>
| 18> %pal nprocs 4
| 19> end
| 20>
| 21> %scf
| 22>   MaxIter 150
| 23> end
| 24>
| 25>
| 26>                          ****END OF INPUT****

CARTESIAN COORDINATES (ANGSTROEM)
---------------------------------
  C      4.930200   -7.375320   -2.649620
  C      3.841890   -6.951610   -3.632830
  H      3.458140   -5.954420   -3.407120
  H      2.988480   -7.643610   -3.567080
  S      4.318120   -6.915930   -5.368690
  F      5.406150   -5.899480   -5.512970
  O      3.111910   -6.445080   -6.043790
  O      4.763400   -8.239420   -5.698630
  H      5.279010   -8.354400   -2.903850
  H      4.530000   -7.385770   -1.657340
  H      5.744370   -6.682760   -2.698560

 Total Charge           Charge          ....    0
 Multiplicity           Mult            ....    1
 Number of Electrons    NEL             ....   58
 Basis Dimension        Dim             ....  285

ORBITAL ENERGIES
----------------

  NO   OCC          E(Eh)            E(eV)
   0   2.0000     -89.179489     -2426.6973
   1   2.0000     -24.858057      -676.4221
   2   2.0000     -19.219171      -522.9802
   3   2.0000     -19.209327      -522.7124
   4   2.0000     -10.311000      -280.5766
   5   2.0000     -10.266118      -279.3553
   6   2.0000      -8.223256      -223.7662
   7   2.0000      -6.191197      -168.4710
   8   2.0000      -6.184815      -168.2974
   9   2.0000      -6.184193      -168.2805
  10   2.0000      -1.429174       -38.8898
  11   2.0000      -1.199386       -32.6370
  12   2.0000      -1.104963       -30.0676
  13   2.0000      -0.909550       -24.7501
  14   2.0000      -0.801360       -21.8061
  15   2.0000      -0.751557       -20.4509
  16   2.0000      -0.654387       -17.8068
  17   2.0000      -0.636529       -17.3208
  18   2.0000      -0.621891       -16.9225
  19   2.0000      -0.567779       -15.4500
  20   2.0000      -0.552650       -15.0384
  21   2.0000      -0.528533       -14.3821
  22   2.0000      -0.506631       -13.7861
  23   2.0000      -0.479225       -13.0404
  24   2.0000      -0.474197       -12.9036
  25   2.0000      -0.449958       -12.2440
  26   2.0000      -0.411006       -11.1840
  27   2.0000      -0.398565       -10.8455
  28   2.0000      -0.388715       -10.5775
  29   0.0000       0.013573         0.3694
  30   0.0000       0.039592         1.0774
  31   0.0000       0.042049         1.1442
  32   0.0000       0.045610         1.2411
  33   0.0000       0.068241         1.8569

MULLIKEN ATOMIC CHARGES
-----------------------
   0 C :   -1.170609
   1 C :   -0.395406
   2 H :    0.349451
   3 H :    0.328683
   4 S :    1.163484
   5 F :   -0.181606
   6 O :   -0.569589
   7 O :   -0.554966
   8 H :    0.343981
   9 H :    0.336668
  10 H :    0.349911
Sum of atomic charges:   -0.0000000

LOEWDIN ATOMIC CHARGES
----------------------
   0 C :   -0.113604
   1 C :   -0.281591
   2 H :    0.102732
   3 H :    0.117119
   4 S :    0.608697
   5 F :   -0.089578
   6 O :   -0.294524
   7 O :   -0.268111
   8 H :    0.073229
   9 H :    0.074237
  10 H :    0.071394

  Mayer bond orders larger than 0.100000
B(  0-C ,  1-C ) :   0.6169 B(  0-C ,  8-H ) :   0.9671 B(  0-C ,  9-H ) :   0.9445
B(  0-C , 10-H ) :   0.9207 B(  1-C ,  2-H ) :   0.9086 B(  1-C ,  3-H ) :   0.9121
B(  1-C ,  4-S ) :   0.8777 B(  4-S ,  5-F ) :   0.9570 B(  4-S ,  6-O ) :   1.6724
B(  4-S ,  7-O ) :   1.7059

FINAL SINGLE POINT ENERGY      -727.742900256650

DIPOLE MOMENT
-------------
                                X             Y             Z
Electronic contribution:      1.30694       2.63315      -8.71820
Nuclear contribution   :     -0.98922      -2.24849      10.35711
                        -----------------------------------------
Total Dipole Moment    :      0.31772       0.38466       1.63891
                        -----------------------------------------
Magnitude (a.u.)       :      1.71317
Magnitude (Debye)      :      4.35452

Rotational constants in cm-1:     0.151436     0.080885     0.078670
Rotational constants in MHz :  4539.936009  2424.868817  2358.476812

                             ****ORCA TERMINATED NORMALLY****
TOTAL RUN TIME: 0 days 0 hours 1 minutes 12 seconds 979 msec
