                         Program Version 5.0.0 -  RELEASE  -
|  1> !CAM-B3LYP RIJCOSX def2-TZVPD def2/J TightSCF
|  2> *xyz 0 1
|  3> C          5.55821       -1.99291       -6.21505
|  4> C          4.18188       -2.58967       -6.29891
|  5> C          3.14587       -1.76843       -6.48675
|  6> N          4.01910       -3.86431       -6.22743
|  7> H          4.76849       -4.59115       -5.99077
|  8> H          3.12241       -4.33339       -6.31462
|  9> H          3.28164       -0.77779       -6.56655
| 10> H          2.21255       -2.13419       -6.56225
| 11> C          6.41926       -2.54294       -5.07763
| 12> H          6.03683       -2.19819       -7.17685
| 13> H          5.46761       -0.90737       -6.12797
| 14> H          6.50056       -3.60553       -5.17358
| 15> H          5.96544       -2.30329       -4.13874
| 16> H          7.39438       -2.10494       -5.12457
| 17> *
| 18>
| 19> %MaxCore 64000
| 20>
| 21> %pal nprocs 4
| 22> end
| 23>
| 24> %scf
| 25>   MaxIter 150
| 26> end
| 27>
| 28>
| 29>                          ****END OF INPUT****

CARTESIAN COORDINATES (ANGSTROEM)
---------------------------------
  C      5.558210   -1.992910   -6.215050
  C      4.181880   -2.589670   -6.298910
  C      3.145870   -1.768430   -6.486750
  N      4.019100   -3.864310   -6.227430
  H      4.768490   -4.591150   -5.990770
  H      3.122410   -4.333390   -6.314620
  H      3.281640   -0.777790   -6.566550
  H      2.212550   -2.134190   -6.562250
  C      6.419260   -2.542940   -5.077630
  H      6.036830   -2.198190   -7.176850
  H      5.467610   -0.907370   -6.127970
  H      6.500560   -3.605530   -5.173580
  H      5.965440   -2.303290   -4.138740
  H      7.394380   -2.104940   -5.124570

 Total Charge           Charge          ....    0
 Multiplicity           Mult            ....    1
 Number of Electrons    NEL             ....   40
 Basis Dimension        Dim             ....  266

ORBITAL ENERGIES
----------------

  NO   OCC          E(Eh)            E(eV)
   0   2.0000     -14.397533      -391.7768
   1   2.0000     -10.267527      -279.3936
   2   2.0000     -10.242241      -278.7056
   3   2.0000     -10.230663      -278.3905
   4   2.0000     -10.170599      -276.7561
   5   2.0000      -1.018187       -27.7063
   6   2.0000      -0.860840       -23.4246
   7   2.0000      -0.799081       -21.7441
   8   2.0000      -0.709831       -19.3155
   9   2.0000      -0.657260       -17.8850
  10   2.0000      -0.589041       -16.0286
  11   2.0000      -0.544724       -14.8227
  12   2.0000      -0.513881       -13.9834
  13   2.0000      -0.491709       -13.3801
  14   2.0000      -0.460959       -12.5433
  15   2.0000      -0.450293       -12.2531
  16   2.0000      -0.424444       -11.5497
  17   2.0000      -0.400518       -10.8987
  18   2.0000      -0.394613       -10.7380
  19   2.0000      -0.243930        -6.6377
  20   0.0000       0.027735         0.7547
  21   0.0000       0.054142         1.4733
  22   0.0000       0.057415         1.5623
  23   0.0000       0.069983         1.9043
  24   0.0000       0.087058         2.3690

MULLIKEN ATOMIC CHARGES
-----------------------
   0 C :   -0.281143
   1 C :    0.710109
   2 C :   -1.241990
   3 N :   -0.328576
   4 H :    0.162754
   5 H :    0.163368
   6 H :    0.281794
   7 H :    0.281090
   8 C :   -1.166395
   9 H :    0.252071
  10 H :    0.217099
  11 H :    0.317425
  12 H :    0.313121
  13 H :    0.319272
Sum of atomic charges:    0.0000000

LOEWDIN ATOMIC CHARGES
----------------------
   0 C :   -0.200165
   1 C :   -0.508015
   2 C :    0.022497
   3 N :    0.090127
   4 H :    0.141033
   5 H :    0.114563
   6 H :    0.008812
   7 H :    0.012530
   8 C :   -0.100369
   9 H :    0.117190
  10 H :    0.111254
  11 H :    0.050785
  12 H :    0.074043
  13 H :    0.065713

  Mayer bond orders larger than 0.100000
B(  0-C ,  1-C ) :   0.7878 B(  0-C ,  8-C ) :   0.5559 B(  0-C ,  9-H ) :   0.9265
B(  0-C , 10-H ) :   0.9846 B(  1-C ,  2-C ) :   1.1393 B(  1-C ,  3-N ) :   1.0144
B(  1-C ,  7-H ) :  -0.1383 B(  2-C ,  6-H ) :   0.9463 B(  2-C ,  7-H ) :   1.0832
B(  3-N ,  4-H ) :   1.0068 B(  3-N ,  5-H ) :   1.0105 B(  8-C , 11-H ) :   0.9491
B(  8-C , 12-H ) :   0.9898 B(  8-C , 13-H ) :   0.9804

FINAL SINGLE POINT ENERGY      -212.517294690718

DIPOLE MOMENT
-------------
                                X             Y             Z
Electronic contribution:     -2.02247      -1.05417      -1.02425
Nuclear contribution   :      2.41345       0.31141       1.16343
                        -----------------------------------------
Total Dipole Moment    :      0.39099      -0.74276       0.13918
                        -----------------------------------------
Magnitude (a.u.)       :      0.85084
Magnitude (Debye)      :      2.16268

Rotational constants in cm-1:     0.287957     0.129204     0.097498
Rotational constants in MHz :  8632.737925  3873.424745  2922.919500

                             ****ORCA TERMINATED NORMALLY****
TOTAL RUN TIME: 0 days 0 hours 1 minutes 9 seconds 833 msec
