                         Program Version 5.0.0 -  RELEASE  -
|  1> !CAM-B3LYP RIJCOSX def2-TZVPD def2/J TightSCF
|  2> *xyz 0 1
|  3> C          4.93020       -7.37532       -2.64962
|  4> C          3.84189       -6.95161       -3.63283
|  5> H          3.45814       -5.95442       -3.40712
|  6> H          2.98848       -7.64361       -3.56708
|  7> S          4.31812       -6.91593       -5.36869
|  8> O          5.40615       -5.89948       -5.51297
|  9> F          3.11191       -6.44508       -6.04379
| 10> O          4.76340       -8.23942       -5.69863
| 11> H          5.27901       -8.35440       -2.90385
| 12> H          4.53000       -7.38577       -1.65734
| 13> H          5.74437       -6.68276       -2.69856
| 14> *
| 15>
| 16> %MaxCore 64000
| 17>
| 18> %pal nprocs 4
| 19> end
| 20>
| 21> %scf
| 22>   MaxIter 150
| 23> end
| 24>
| 25>
| 26>                          ****END OF INPUT****

CARTESIAN COORDINATES (ANGSTROEM)
---------------------------------
  C      4.930200   -7.375320   -2.649620
  C      3.841890   -6.951610   -3.632830
  H      3.458140   -5.954420   -3.407120
  H      2.988480   -7.643610   -3.567080
  S      4.318120   -6.915930   -5.368690
  O      5.406150   -5.899480   -5.512970
  F      3.111910   -6.445080   -6.043790
  O      4.763400   -8.239420   -5.698630
  H      5.279010   -8.354400   -2.903850
  H      4.530000   -7.385770   -1.657340
  H      5.744370   -6.682760   -2.698560

 Total Charge           Charge          ....    0
 Multiplicity           Mult            ....    1
 Number of Electrons    NEL             ....   58
 Basis Dimension        Dim             ....  285

ORBITAL ENERGIES
----------------

  NO   OCC          E(Eh)            E(eV)
   0   2.0000     -89.181451     -2426.7507
   1   2.0000     -24.873015      -676.8291
   2   2.0000     -19.218681      -522.9669
   3   2.0000     -19.201674      -522.5041
   4   2.0000     -10.312084      -280.6061
   5   2.0000     -10.264565      -279.3130
   6   2.0000      -8.225187      -223.8187
   7   2.0000      -6.193047      -168.5214
   8   2.0000      -6.186592      -168.3457
   9   2.0000      -6.186276      -168.3371
  10   2.0000      -1.456218       -39.6257
  11   2.0000      -1.192857       -32.4593
  12   2.0000      -1.086562       -29.5669
  13   2.0000      -0.909370       -24.7452
  14   2.0000      -0.815375       -22.1875
  15   2.0000      -0.752070       -20.4649
  16   2.0000      -0.658468       -17.9178
  17   2.0000      -0.656137       -17.8544
  18   2.0000      -0.631673       -17.1887
  19   2.0000      -0.569088       -15.4857
  20   2.0000      -0.556161       -15.1339
  21   2.0000      -0.515382       -14.0243
  22   2.0000      -0.502013       -13.6605
  23   2.0000      -0.481153       -13.0928
  24   2.0000      -0.458879       -12.4867
  25   2.0000      -0.457343       -12.4449
  26   2.0000      -0.406722       -11.0675
  27   2.0000      -0.391757       -10.6602
  28   2.0000      -0.375566       -10.2197
  29   0.0000       0.015680         0.4267
  30   0.0000       0.034159         0.9295
  31   0.0000       0.044315         1.2059
  32   0.0000       0.046511         1.2656
  33   0.0000       0.070855         1.9281

MULLIKEN ATOMIC CHARGES
-----------------------
   0 C :   -1.186122
   1 C :   -0.413089
   2 H :    0.349489
   3 H :    0.346498
   4 S :    1.158534
   5 O :   -0.598250
   6 F :   -0.137703
   7 O :   -0.550587
   8 H :    0.347849
   9 H :    0.336115
  10 H :    0.347266
Sum of atomic charges:    0.0000000

LOEWDIN ATOMIC CHARGES
----------------------
   0 C :   -0.102509
   1 C :   -0.289625
   2 H :    0.101618
   3 H :    0.106130
   4 S :    0.608166
   5 O :   -0.312497
   6 F :   -0.069423
   7 O :   -0.270176
   8 H :    0.075630
   9 H :    0.075879
  10 H :    0.076806

  Mayer bond orders larger than 0.100000
B(  0-C ,  1-C ) :   0.6855 B(  0-C ,  8-H ) :   0.9360 B(  0-C ,  9-H ) :   0.9319
B(  0-C , 10-H ) :   0.9408 B(  1-C ,  2-H ) :   0.8875 B(  1-C ,  3-H ) :   0.8851
B(  1-C ,  4-S ) :   0.8713 B(  4-S ,  5-O ) :   1.6386 B(  4-S ,  6-F ) :   0.9905
B(  4-S ,  7-O ) :   1.7046

FINAL SINGLE POINT ENERGY      -727.731630029049

DIPOLE MOMENT
-------------
                                X             Y             Z
Electronic contribution:     -2.60388       1.69649      -9.63486
Nuclear contribution   :      1.40145      -1.67996      10.91024
                        -----------------------------------------
Total Dipole Moment    :     -1.20243       0.01653       1.27538
                        -----------------------------------------
Magnitude (a.u.)       :      1.75291
Magnitude (Debye)      :      4.45555

Rotational constants in cm-1:     0.155875     0.079864     0.077188
Rotational constants in MHz :  4673.017506  2394.277415  2314.027118

                             ****ORCA TERMINATED NORMALLY****
TOTAL RUN TIME: 0 days 0 hours 1 minutes 12 seconds 339 msec
