                         Program Version 5.0.0 -  RELEASE  -
|  1> !CAM-B3LYP RIJCOSX def2-TZVPD def2/J TightSCF
|  2> *xyz 0 1
|  3> C          5.55821       -1.99291       -6.21505
|  4> C          4.18188       -2.58967       -6.29891
|  5> N          3.14587       -1.76843       -6.48675
|  6> C          4.01910       -3.86431       -6.22743
|  7> H          4.76849       -4.59115       -5.99077
|  8> H          3.12241       -4.33339       -6.31462
|  9> H          3.28164       -0.77779       -6.56655
| 10> H          2.21255       -2.13419       -6.56225
| 11> C          6.41926       -2.54294       -5.07763
| 12> H          6.03683       -2.19819       -7.17685
| 13> H          5.46761       -0.90737       -6.12797
| 14> H          6.50056       -3.60553       -5.17358
| 15> H          5.96544       -2.30329       -4.13874
| 16> H          7.39438       -2.10494       -5.12457
| 17> *
| 18>
| 19> %MaxCore 64000
| 20>
| 21> %pal nprocs 4
| 22> end
| 23>
| 24> %scf
| 25>   MaxIter 150
| 26> end
| 27>
| 28>
| 29>                          ****END OF INPUT****

CARTESIAN COORDINATES (ANGSTROEM)
---------------------------------
  C      5.558210   -1.992910   -6.215050
  C      4.181880   -2.589670   -6.298910
  N      3.145870   -1.768430   -6.486750
  C      4.019100   -3.864310   -6.227430
  H      4.768490   -4.591150   -5.990770
  H      3.122410   -4.333390   -6.314620
  H      3.281640   -0.777790   -6.566550
  H      2.212550   -2.134190   -6.562250
  C      6.419260   -2.542940   -5.077630
  H      6.036830   -2.198190   -7.176850
  H      5.467610   -0.907370   -6.127970
  H      6.500560   -3.605530   -5.173580
  H      5.965440   -2.303290   -4.138740
  H      7.394380   -2.104940   -5.124570

 Total Charge           Charge          ....    0
 Multiplicity           Mult            ....    1
 Number of Electrons    NEL             ....   40
 Basis Dimension        Dim             ....  266

ORBITAL ENERGIES
----------------

  NO   OCC          E(Eh)            E(eV)
   0   2.0000     -14.386668      -391.4811
   1   2.0000     -10.264826      -279.3201
   2   2.0000     -10.243219      -278.7322
   3   2.0000     -10.224617      -278.2260
   4   2.0000     -10.177668      -276.9484
   5   2.0000      -1.007707       -27.4211
   6   2.0000      -0.864467       -23.5233
   7   2.0000      -0.795128       -21.6365
   8   2.0000      -0.720103       -19.5950
   9   2.0000      -0.632062       -17.1993
  10   2.0000      -0.594325       -16.1724
  11   2.0000      -0.558407       -15.1950
  12   2.0000      -0.518468       -14.1082
  13   2.0000      -0.488527       -13.2935
  14   2.0000      -0.452366       -12.3095
  15   2.0000      -0.439752       -11.9663
  16   2.0000      -0.416918       -11.3449
  17   2.0000      -0.401861       -10.9352
  18   2.0000      -0.392332       -10.6759
  19   2.0000      -0.252714        -6.8767
  20   0.0000       0.032782         0.8921
  21   0.0000       0.053088         1.4446
  22   0.0000       0.059647         1.6231
  23   0.0000       0.070078         1.9069
  24   0.0000       0.088974         2.4211

MULLIKEN ATOMIC CHARGES
-----------------------
   0 C :   -0.314457
   1 C :    0.757754
   2 N :   -0.351743
   3 C :   -1.184203
   4 H :    0.189888
   5 H :    0.275092
   6 H :    0.168977
   7 H :    0.146439
   8 C :   -1.097083
   9 H :    0.251139
  10 H :    0.248630
  11 H :    0.289181
  12 H :    0.307196
  13 H :    0.313190
Sum of atomic charges:   -0.0000000

LOEWDIN ATOMIC CHARGES
----------------------
   0 C :   -0.200164
   1 C :   -0.490732
   2 N :    0.099963
   3 C :    0.000088
   4 H :    0.053126
   5 H :    0.022634
   6 H :    0.091926
   7 H :    0.103836
   8 C :   -0.098382
   9 H :    0.118707
  10 H :    0.103757
  11 H :    0.056501
  12 H :    0.074315
  13 H :    0.064426

  Mayer bond orders larger than 0.100000
B(  0-C ,  1-C ) :   0.5865 B(  0-C ,  8-C ) :   0.6003 B(  0-C ,  9-H ) :   0.9434
B(  0-C , 10-H ) :   1.0392 B(  1-C ,  2-N ) :   0.9632 B(  1-C ,  3-C ) :   1.1492
B(  1-C ,  5-H ) :  -0.1600 B(  1-C , 10-H ) :  -0.1302 B(  2-N ,  6-H ) :   1.0326
B(  2-N ,  7-H ) :   1.0460 B(  3-C ,  4-H ) :   1.0200 B(  3-C ,  5-H ) :   1.1115
B(  8-C , 11-H ) :   0.9842 B(  8-C , 12-H ) :   0.9734 B(  8-C , 13-H ) :   0.9715

FINAL SINGLE POINT ENERGY      -212.527260158306

DIPOLE MOMENT
-------------
                                X             Y             Z
Electronic contribution:     -2.78500       0.79293      -1.28106
Nuclear contribution   :      2.61570      -0.17401       1.22349
                        -----------------------------------------
Total Dipole Moment    :     -0.16930       0.61892      -0.05757
                        -----------------------------------------
Magnitude (a.u.)       :      0.64423
Magnitude (Debye)      :      1.63750

Rotational constants in cm-1:     0.298189     0.125314     0.096441
Rotational constants in MHz :  8939.495008  3756.825352  2891.223400

                             ****ORCA TERMINATED NORMALLY****
TOTAL RUN TIME: 0 days 0 hours 1 minutes 5 seconds 425 msec
