                         Program Version 5.0.0 -  RELEASE  -
|  1> !CAM-B3LYP RIJCOSX def2-TZVPD def2/J TightSCF
|  2> *xyz 0 1
|  3> C          4.93020       -7.37532       -2.64962
|  4> C          3.84189       -6.95161       -3.63283
|  5> H          3.45814       -5.95442       -3.40712
|  6> H          2.98848       -7.64361       -3.56708
|  7> S          4.31812       -6.91593       -5.36869
|  8> O          5.40615       -5.89948       -5.51297
|  9> O          3.11191       -6.44508       -6.04379
| 10> F          4.76340       -8.23942       -5.69863
| 11> H          5.27901       -8.35440       -2.90385
| 12> H          4.53000       -7.38577       -1.65734
| 13> H          5.74437       -6.68276       -2.69856
| 14> *
| 15>
| 16> %MaxCore 64000
| 17>
| 18> %pal nprocs 4
| 19> end
| 20>
| 21> %scf
| 22>   MaxIter 150
| 23> end
| 24>
| 25>
| 26>                          ****END OF INPUT****

CARTESIAN COORDINATES (ANGSTROEM)
---------------------------------
  C      4.930200   -7.375320   -2.649620
  C      3.841890   -6.951610   -3.632830
  H      3.458140   -5.954420   -3.407120
  H      2.988480   -7.643610   -3.567080
  S      4.318120   -6.915930   -5.368690
  O      5.406150   -5.899480   -5.512970
  O      3.111910   -6.445080   -6.043790
  F      4.763400   -8.239420   -5.698630
  H      5.279010   -8.354400   -2.903850
  H      4.530000   -7.385770   -1.657340
  H      5.744370   -6.682760   -2.698560

 Total Charge           Charge          ....    0
 Multiplicity           Mult            ....    1
 Number of Electrons    NEL             ....   58
 Basis Dimension        Dim             ....  285

ORBITAL ENERGIES
----------------

  NO   OCC          E(Eh)            E(eV)
   0   2.0000     -89.182911     -2426.7904
   1   2.0000     -24.886751      -677.2029
   2   2.0000     -19.209819      -522.7257
   3   2.0000     -19.202625      -522.5300
   4   2.0000     -10.312221      -280.6098
   5   2.0000     -10.267239      -279.3858
   6   2.0000      -8.226624      -223.8578
   7   2.0000      -6.194619      -168.5641
   8   2.0000      -6.187829      -168.3794
   9   2.0000      -6.187703      -168.3760
  10   2.0000      -1.478439       -40.2304
  11   2.0000      -1.181392       -32.1473
  12   2.0000      -1.079172       -29.3658
  13   2.0000      -0.912073       -24.8188
  14   2.0000      -0.819311       -22.2946
  15   2.0000      -0.762518       -20.7492
  16   2.0000      -0.680197       -18.5091
  17   2.0000      -0.670840       -18.2545
  18   2.0000      -0.625491       -17.0205
  19   2.0000      -0.567925       -15.4540
  20   2.0000      -0.551538       -15.0081
  21   2.0000      -0.522893       -14.2287
  22   2.0000      -0.502488       -13.6734
  23   2.0000      -0.479260       -13.0413
  24   2.0000      -0.467942       -12.7333
  25   2.0000      -0.445247       -12.1158
  26   2.0000      -0.397568       -10.8184
  27   2.0000      -0.391242       -10.6462
  28   2.0000      -0.369847       -10.0640
  29   0.0000       0.012230         0.3328
  30   0.0000       0.037403         1.0178
  31   0.0000       0.041034         1.1166
  32   0.0000       0.046134         1.2554
  33   0.0000       0.070003         1.9049

MULLIKEN ATOMIC CHARGES
-----------------------
   0 C :   -1.173712
   1 C :   -0.391623
   2 H :    0.328792
   3 H :    0.346214
   4 S :    1.138839
   5 O :   -0.593413
   6 O :   -0.559934
   7 F :   -0.128479
   8 H :    0.351340
   9 H :    0.337120
  10 H :    0.344856
Sum of atomic charges:    0.0000000

LOEWDIN ATOMIC CHARGES
----------------------
   0 C :   -0.113834
   1 C :   -0.282394
   2 H :    0.112633
   3 H :    0.107138
   4 S :    0.606126
   5 O :   -0.310094
   6 O :   -0.294099
   7 F :   -0.044439
   8 H :    0.070013
   9 H :    0.074419
  10 H :    0.074531

  Mayer bond orders larger than 0.100000
B(  0-C ,  1-C ) :   0.6105 B(  0-C ,  8-H ) :   0.9141 B(  0-C ,  9-H ) :   0.9454
B(  0-C , 10-H ) :   0.9733 B(  1-C ,  2-H ) :   0.9179 B(  1-C ,  3-H ) :   0.9070
B(  1-C ,  4-S ) :   0.8830 B(  4-S ,  5-O ) :   1.6514 B(  4-S ,  6-O ) :   1.6826
B(  4-S ,  7-F ) :   1.0179

FINAL SINGLE POINT ENERGY      -727.720156762772

DIPOLE MOMENT
-------------
                                X             Y             Z
Electronic contribution:      0.20055      -1.33437      -9.03648
Nuclear contribution   :     -0.31946       0.18980      10.55057
                        -----------------------------------------
Total Dipole Moment    :     -0.11891      -1.14457       1.51409
                        -----------------------------------------
Magnitude (a.u.)       :      1.90175
Magnitude (Debye)      :      4.83386

Rotational constants in cm-1:     0.151421     0.081183     0.078684
Rotational constants in MHz :  4539.489207  2433.790160  2358.892966

                             ****ORCA TERMINATED NORMALLY****
TOTAL RUN TIME: 0 days 0 hours 1 minutes 5 seconds 589 msec
