                         Program Version 5.0.0 -  RELEASE  -
|  1> !CAM-B3LYP RIJCOSX def2-TZVPD def2/J TightSCF xyzfile
|  2>
|  3> *xyzfile 0 1 D1.xyz
|  4>
|  5> %MaxCore 64000
|  6>
|  7> %pal nprocs 4
|  8> end
|  9>
| 10> %scf
| 11>   MaxIter 150
| 12> end
| 13>
| 14>
| 15>                          ****END OF INPUT****

CARTESIAN COORDINATES (ANGSTROEM)
---------------------------------
  C      5.558206   -1.992914   -6.215054
  C      4.930199   -7.375319   -2.649623
  C      3.841892   -6.951611   -3.632829
  H      3.458144   -5.954425   -3.407121
  H      2.988484   -7.643606   -3.567078
  S      4.318115   -6.915930   -5.368692
  C      4.181880   -2.589671   -6.298911
  C      3.145873   -1.768431   -6.486753
  N      4.019102   -3.864307   -6.227427
  H      4.768490   -4.591153   -5.990773
  H      3.122405   -4.333392   -6.314620
  H      3.281635   -0.777786   -6.566549
  H      2.212549   -2.134193   -6.562246
  F      5.406154   -5.899480   -5.512972
  O      3.111910   -6.445079   -6.043792
  C      6.419260   -2.542944   -5.077630
  C      5.872267   -5.002756   -2.427819
  C      6.173994   -6.485522   -2.606315
  H      6.734852   -6.613767   -3.534015
  H      6.821463   -6.831018   -1.793617
  H      4.469612   -7.406168   -1.655876
  H      5.230134   -8.398678   -2.885906
  C      5.896512   -2.169314   -3.694552
  H      7.428880   -2.143665   -5.208078
  H      6.505894   -3.627541   -5.175502
  C      6.807804   -2.623428   -2.551019
  H      4.894708   -2.589732   -3.557501
  H      5.778823   -1.081255   -3.635790
  C      7.111544   -4.122463   -2.520363
  H      7.751615   -2.071393   -2.614406
  H      6.345837   -2.326401   -1.604086
  H      5.362882   -4.828697   -1.471335
  H      5.174429   -4.702577   -3.211298
  H      7.778329   -4.329347   -1.677651
  H      7.673189   -4.402845   -3.417586
  O      4.763396   -8.239424   -5.698629
  H      6.036826   -2.198189   -7.176852
  H      5.467610   -0.907371   -6.127968

 Total Charge           Charge          ....    0
 Multiplicity           Mult            ....    1
 Number of Electrons    NEL             ....  136
 Basis Dimension        Dim             ....  808

ORBITAL ENERGIES
----------------

  NO   OCC          E(Eh)            E(eV)
   0   2.0000     -89.196786     -2427.1680
   1   2.0000     -24.886956      -677.2085
   2   2.0000     -19.235433      -523.4227
   3   2.0000     -19.227626      -523.2103
   4   2.0000     -14.371957      -391.0808
   5   2.0000     -10.318281      -280.7747
   6   2.0000     -10.280249      -279.7398
   7   2.0000     -10.263570      -279.2859
   8   2.0000     -10.255822      -279.0751
   9   2.0000     -10.254451      -279.0378
  10   2.0000     -10.247310      -278.8435
  11   2.0000     -10.242005      -278.6991
  12   2.0000     -10.240956      -278.6706
  13   2.0000     -10.236770      -278.5567
  14   2.0000     -10.235828      -278.5310
  15   2.0000     -10.160406      -276.4787
  16   2.0000      -8.241214      -224.2548
  17   2.0000      -6.209521      -168.9697
  18   2.0000      -6.202326      -168.7739
  19   2.0000      -6.201970      -168.7642
  20   2.0000      -1.464664       -39.8555
  21   2.0000      -1.218412       -33.1547
  22   2.0000      -1.124212       -30.5914
  23   2.0000      -1.003742       -27.3132
  24   2.0000      -0.938131       -25.5278
  25   2.0000      -0.904770       -24.6200
  26   2.0000      -0.876012       -23.8375
  27   2.0000      -0.843293       -22.9472
  28   2.0000      -0.823664       -22.4130
  29   2.0000      -0.793540       -21.5933
  30   2.0000      -0.779608       -21.2142
  31   2.0000      -0.740032       -20.1373
  32   2.0000      -0.703603       -19.1460
  33   2.0000      -0.695662       -18.9299
  34   2.0000      -0.688058       -18.7230
  35   2.0000      -0.664876       -18.0922
  36   2.0000      -0.648255       -17.6399
  37   2.0000      -0.636962       -17.3326
  38   2.0000      -0.632064       -17.1993
  39   2.0000      -0.583728       -15.8841
  40   2.0000      -0.577115       -15.7041
  41   2.0000      -0.563706       -15.3392
  42   2.0000      -0.557712       -15.1761
  43   2.0000      -0.548141       -14.9157
  44   2.0000      -0.537272       -14.6199
  45   2.0000      -0.534165       -14.5354
  46   2.0000      -0.523754       -14.2521
  47   2.0000      -0.505096       -13.7444
  48   2.0000      -0.502075       -13.6622
  49   2.0000      -0.492032       -13.3889
  50   2.0000      -0.480307       -13.0698
  51   2.0000      -0.477565       -12.9952
  52   2.0000      -0.462794       -12.5933
  53   2.0000      -0.447097       -12.1661
  54   2.0000      -0.442982       -12.0541
  55   2.0000      -0.437241       -11.8979
  56   2.0000      -0.435292       -11.8449
  57   2.0000      -0.424385       -11.5481
  58   2.0000      -0.422354       -11.4928
  59   2.0000      -0.411612       -11.2005
  60   2.0000      -0.408169       -11.1068
  61   2.0000      -0.403119       -10.9694
  62   2.0000      -0.402446       -10.9511
  63   2.0000      -0.394812       -10.7434
  64   2.0000      -0.383580       -10.4377
  65   2.0000      -0.377102       -10.2615
  66   2.0000      -0.373054       -10.1513
  67   2.0000      -0.232610        -6.3296
  68   0.0000       0.011336         0.3085
  69   0.0000       0.024751         0.6735
  70   0.0000       0.031702         0.8626
  71   0.0000       0.033934         0.9234
  72   0.0000       0.047786         1.3003

MULLIKEN ATOMIC CHARGES
-----------------------
   0 C :   -0.658981
   1 C :   -0.664936
   2 C :   -0.671894
   3 H :    0.379784
   4 H :    0.436814
   5 S :    1.190591
   6 C :    0.842851
   7 C :   -1.380318
   8 N :   -0.257563
   9 H :    0.258484
  10 H :    0.119752
  11 H :    0.304248
  12 H :    0.326783
  13 F :   -0.301953
  14 O :   -0.667524
  15 C :   -0.372090
  16 C :    0.001288
  17 C :   -0.691911
  18 H :    0.234101
  19 H :    0.360667
  20 H :    0.315726
  21 H :    0.282656
  22 C :   -0.347948
  23 H :    0.286968
  24 H :    0.078316
  25 C :   -0.790269
  26 H :    0.224819
  27 H :    0.301645
  28 C :   -0.665218
  29 H :    0.316682
  30 H :    0.298157
  31 H :    0.303177
  32 H :   -0.008155
  33 H :    0.324484
  34 H :    0.297392
  35 O :   -0.545979
  36 H :    0.274941
  37 H :    0.264414
Sum of atomic charges:    0.0000000

LOEWDIN ATOMIC CHARGES
----------------------
   0 C :   -0.146300
   1 C :   -0.220241
   2 C :   -0.218133
   3 H :    0.106149
   4 H :    0.125297
   5 S :    0.640722
   6 C :   -0.489636
   7 C :    0.026425
   8 N :    0.107515
   9 H :    0.068057
  10 H :    0.095856
  11 H :    0.007414
  12 H :    0.014119
  13 F :   -0.116187
  14 O :   -0.279157
  15 C :   -0.208363
  16 C :   -0.222669
  17 C :   -0.214289
  18 H :    0.106663
  19 H :    0.123037
  20 H :    0.122446
  21 H :    0.115202
  22 C :   -0.211019
  23 H :    0.119934
  24 H :    0.086776
  25 C :   -0.211163
  26 H :    0.109507
  27 H :    0.119781
  28 C :   -0.215594
  29 H :    0.111490
  30 H :    0.111147
  31 H :    0.132600
  32 H :    0.081132
  33 H :    0.116108
  34 H :    0.109410
  35 O :   -0.242504
  36 H :    0.121995
  37 H :    0.116471

  Mayer bond orders larger than 0.100000
B(  0-C ,  6-C ) :   0.6033 B(  0-C , 15-C ) :   0.7483 B(  0-C , 36-H ) :   0.9636
B(  0-C , 37-H ) :   0.9874 B(  1-C ,  2-C ) :   0.8349 B(  1-C ,  5-S ) :   0.1251
B(  1-C , 17-C ) :   0.8198 B(  1-C , 20-H ) :   0.9459 B(  1-C , 21-H ) :   0.9973
B(  2-C ,  3-H ) :   0.9117 B(  2-C ,  4-H ) :   0.7956 B(  2-C ,  5-S ) :   0.8431
B(  2-C , 14-O ) :   0.1013 B(  5-S , 13-F ) :   1.1111 B(  5-S , 14-O ) :   1.5437
B(  5-S , 35-O ) :   1.5007 B(  6-C ,  7-C ) :   1.1314 B(  6-C ,  8-N ) :   0.8375
B(  6-C ,  9-H ) :  -0.1116 B(  6-C , 10-H ) :  -0.1175 B(  6-C , 12-H ) :  -0.1073
B(  7-C ,  8-N ) :   0.1131 B(  7-C , 11-H ) :   1.0188 B(  7-C , 12-H ) :   0.9935
B(  8-N ,  9-H ) :   0.9886 B(  8-N , 10-H ) :   1.0302 B(  8-N , 15-C ) :   0.1169
B( 15-C , 22-C ) :   0.4724 B( 15-C , 23-H ) :   0.9163 B( 15-C , 24-H ) :   1.2017
B( 16-C , 17-C ) :   0.2896 B( 16-C , 18-H ) :  -0.1333 B( 16-C , 25-C ) :   0.1269
B( 16-C , 28-C ) :   0.3759 B( 16-C , 31-H ) :   0.8503 B( 16-C , 32-H ) :   1.3177
B( 17-C , 18-H ) :   1.0546 B( 17-C , 19-H ) :   0.8782 B( 17-C , 28-C ) :   0.3419
B( 22-C , 24-H ) :  -0.1293 B( 22-C , 25-C ) :   0.8083 B( 22-C , 26-H ) :   1.0536
B( 22-C , 27-H ) :   0.9008 B( 25-C , 28-C ) :   0.8113 B( 25-C , 29-H ) :   0.9736
B( 25-C , 30-H ) :   0.9761 B( 28-C , 33-H ) :   0.9384 B( 28-C , 34-H ) :   0.9742
B( 31-H , 32-H ) :   0.1845

FINAL SINGLE POINT ENERGY     -1135.554691769598

DIPOLE MOMENT
-------------
                                X             Y             Z
Electronic contribution:     -6.99085     -18.76583     -13.17805
Nuclear contribution   :      7.78491      18.17172      15.09294
                        -----------------------------------------
Total Dipole Moment    :      0.79406      -0.59411       1.91489
                        -----------------------------------------
Magnitude (a.u.)       :      2.15645
Magnitude (Debye)      :      5.48127

Rotational constants in cm-1:     0.018190     0.012573     0.008405
Rotational constants in MHz :   545.327178   376.916509   251.974803

                             ****ORCA TERMINATED NORMALLY****
TOTAL RUN TIME: 0 days 0 hours 15 minutes 42 seconds 436 msec
