                         Program Version 5.0.0 -  RELEASE  -
|  1> !CAM-B3LYP RIJCOSX def2-TZVPD def2/J TightSCF xyzfile
|  2>
|  3> *xyzfile 0 1 D2.xyz
|  4>
|  5> %MaxCore 64000
|  6>
|  7> %pal nprocs 4
|  8> end
|  9>
| 10> %scf
| 11>   MaxIter 150
| 12> end
| 13>
| 14>
| 15>                          ****END OF INPUT****

CARTESIAN COORDINATES (ANGSTROEM)
---------------------------------
  C      5.558206   -1.992914   -6.215054
  C      4.930199   -7.375319   -2.649623
  C      3.841892   -6.951611   -3.632829
  H      3.458144   -5.954425   -3.407121
  H      2.988484   -7.643606   -3.567078
  S      4.318115   -6.915930   -5.368692
  C      4.181880   -2.589671   -6.298911
  N      3.145873   -1.768431   -6.486753
  C      4.019102   -3.864307   -6.227427
  H      4.768490   -4.591153   -5.990773
  H      3.122405   -4.333392   -6.314620
  H      3.281635   -0.777786   -6.566549
  H      2.212549   -2.134193   -6.562246
  F      5.406154   -5.899480   -5.512972
  O      3.111910   -6.445079   -6.043792
  C      6.419260   -2.542944   -5.077630
  C      5.872267   -5.002756   -2.427819
  C      6.173994   -6.485522   -2.606315
  H      6.734852   -6.613767   -3.534015
  H      6.821463   -6.831018   -1.793617
  H      4.469612   -7.406168   -1.655876
  H      5.230134   -8.398678   -2.885906
  C      5.896512   -2.169314   -3.694552
  H      7.428880   -2.143665   -5.208078
  H      6.505894   -3.627541   -5.175502
  C      6.807804   -2.623428   -2.551019
  H      4.894708   -2.589732   -3.557501
  H      5.778823   -1.081255   -3.635790
  C      7.111544   -4.122463   -2.520363
  H      7.751615   -2.071393   -2.614406
  H      6.345837   -2.326401   -1.604086
  H      5.362882   -4.828697   -1.471335
  H      5.174429   -4.702577   -3.211298
  H      7.778329   -4.329347   -1.677651
  H      7.673189   -4.402845   -3.417586
  O      4.763396   -8.239424   -5.698629
  H      6.036826   -2.198189   -7.176852
  H      5.467610   -0.907371   -6.127968

 Total Charge           Charge          ....    0
 Multiplicity           Mult            ....    1
 Number of Electrons    NEL             ....  136
 Basis Dimension        Dim             ....  808

ORBITAL ENERGIES
----------------

  NO   OCC          E(Eh)            E(eV)
   0   2.0000     -89.175767     -2426.5960
   1   2.0000     -24.856368      -676.3762
   2   2.0000     -19.215891      -522.8910
   3   2.0000     -19.203273      -522.5476
   4   2.0000     -14.379477      -391.2855
   5   2.0000     -10.302966      -280.3579
   6   2.0000     -10.268897      -279.4309
   7   2.0000     -10.254760      -279.0462
   8   2.0000     -10.253699      -279.0173
   9   2.0000     -10.245636      -278.7979
  10   2.0000     -10.241278      -278.6794
  11   2.0000     -10.238924      -278.6153
  12   2.0000     -10.238432      -278.6019
  13   2.0000     -10.237476      -278.5759
  14   2.0000     -10.233950      -278.4799
  15   2.0000     -10.155171      -276.3363
  16   2.0000      -8.219895      -223.6747
  17   2.0000      -6.188010      -168.3843
  18   2.0000      -6.181308      -168.2019
  19   2.0000      -6.180685      -168.1850
  20   2.0000      -1.435780       -39.0696
  21   2.0000      -1.196921       -32.5699
  22   2.0000      -1.102033       -29.9878
  23   2.0000      -1.000338       -27.2206
  24   2.0000      -0.925928       -25.1958
  25   2.0000      -0.899814       -24.4852
  26   2.0000      -0.870020       -23.6745
  27   2.0000      -0.840985       -22.8844
  28   2.0000      -0.803351       -21.8603
  29   2.0000      -0.792384       -21.5619
  30   2.0000      -0.764629       -20.8066
  31   2.0000      -0.739153       -20.1134
  32   2.0000      -0.701150       -19.0793
  33   2.0000      -0.682920       -18.5832
  34   2.0000      -0.668578       -18.1929
  35   2.0000      -0.642913       -17.4946
  36   2.0000      -0.639303       -17.3963
  37   2.0000      -0.620564       -16.8864
  38   2.0000      -0.613282       -16.6883
  39   2.0000      -0.585923       -15.9438
  40   2.0000      -0.567725       -15.4486
  41   2.0000      -0.563330       -15.3290
  42   2.0000      -0.557223       -15.1628
  43   2.0000      -0.541804       -14.7432
  44   2.0000      -0.527976       -14.3670
  45   2.0000      -0.526594       -14.3293
  46   2.0000      -0.519694       -14.1416
  47   2.0000      -0.504401       -13.7254
  48   2.0000      -0.487650       -13.2696
  49   2.0000      -0.482184       -13.1209
  50   2.0000      -0.477297       -12.9879
  51   2.0000      -0.468917       -12.7599
  52   2.0000      -0.447079       -12.1656
  53   2.0000      -0.441088       -12.0026
  54   2.0000      -0.433941       -11.8081
  55   2.0000      -0.428206       -11.6521
  56   2.0000      -0.417958       -11.3732
  57   2.0000      -0.415120       -11.2960
  58   2.0000      -0.410178       -11.1615
  59   2.0000      -0.403611       -10.9828
  60   2.0000      -0.395894       -10.7728
  61   2.0000      -0.395452       -10.7608
  62   2.0000      -0.388177       -10.5628
  63   2.0000      -0.381223       -10.3736
  64   2.0000      -0.377138       -10.2624
  65   2.0000      -0.372396       -10.1334
  66   2.0000      -0.369625       -10.0580
  67   2.0000      -0.243333        -6.6214
  68   0.0000       0.021296         0.5795
  69   0.0000       0.031664         0.8616
  70   0.0000       0.033064         0.8997
  71   0.0000       0.037704         1.0260
  72   0.0000       0.049023         1.3340

MULLIKEN ATOMIC CHARGES
-----------------------
   0 C :   -0.662061
   1 C :   -0.668609
   2 C :   -0.677376
   3 H :    0.376073
   4 H :    0.433981
   5 S :    1.153141
   6 C :    0.767219
   7 N :   -0.375420
   8 C :   -1.340134
   9 H :    0.385834
  10 H :    0.414409
  11 H :    0.152875
  12 H :    0.154390
  13 F :   -0.230169
  14 O :   -0.636304
  15 C :   -0.336893
  16 C :    0.095385
  17 C :   -0.712603
  18 H :    0.242952
  19 H :    0.356264
  20 H :    0.310792
  21 H :    0.279576
  22 C :   -0.403394
  23 H :    0.294129
  24 H :    0.087734
  25 C :   -0.795503
  26 H :    0.230222
  27 H :    0.314159
  28 C :   -0.663034
  29 H :    0.312528
  30 H :    0.290224
  31 H :    0.292834
  32 H :   -0.068389
  33 H :    0.320801
  34 H :    0.306820
  35 O :   -0.563811
  36 H :    0.262026
  37 H :    0.299330
Sum of atomic charges:    0.0000000

LOEWDIN ATOMIC CHARGES
----------------------
   0 C :   -0.144302
   1 C :   -0.222049
   2 C :   -0.219150
   3 H :    0.105294
   4 H :    0.123192
   5 S :    0.633862
   6 C :   -0.461685
   7 N :    0.107175
   8 C :    0.002389
   9 H :    0.008450
  10 H :    0.023534
  11 H :    0.090805
  12 H :    0.105341
  13 F :   -0.129394
  14 O :   -0.285840
  15 C :   -0.204442
  16 C :   -0.221775
  17 C :   -0.214647
  18 H :    0.107057
  19 H :    0.121609
  20 H :    0.120490
  21 H :    0.114205
  22 C :   -0.212614
  23 H :    0.119750
  24 H :    0.092311
  25 C :   -0.211727
  26 H :    0.108916
  27 H :    0.116213
  28 C :   -0.215363
  29 H :    0.110572
  30 H :    0.110413
  31 H :    0.131443
  32 H :    0.083163
  33 H :    0.115440
  34 H :    0.110027
  35 O :   -0.251877
  36 H :    0.123463
  37 H :    0.109751

  Mayer bond orders larger than 0.100000
B(  0-C ,  6-C ) :   0.3241 B(  0-C ,  8-C ) :  -0.1020 B(  0-C , 15-C ) :   0.7714
B(  0-C , 36-H ) :   0.9504 B(  0-C , 37-H ) :   1.0315 B(  1-C ,  2-C ) :   0.8324
B(  1-C ,  5-S ) :   0.1276 B(  1-C , 17-C ) :   0.8134 B(  1-C , 20-H ) :   0.9470
B(  1-C , 21-H ) :   0.9991 B(  2-C ,  3-H ) :   0.9221 B(  2-C ,  4-H ) :   0.8002
B(  2-C ,  5-S ) :   0.8456 B(  2-C , 14-O ) :   0.1039 B(  5-S ,  8-C ) :   0.1105
B(  5-S , 13-F ) :   1.1462 B(  5-S , 14-O ) :   1.5427 B(  5-S , 35-O ) :   1.4614
B(  6-C ,  7-N ) :   0.8806 B(  6-C ,  8-C ) :   0.7818 B(  6-C ,  9-H ) :   0.2552
B(  6-C , 10-H ) :  -0.2844 B(  6-C , 37-H ) :  -0.1909 B(  7-N , 11-H ) :   1.0564
B(  7-N , 12-H ) :   1.0367 B(  8-C ,  9-H ) :   0.8957 B(  8-C , 10-H ) :   1.0589
B(  8-C , 13-F ) :   0.1578 B(  9-H , 13-F ) :  -0.3188 B( 15-C , 22-C ) :   0.4302
B( 15-C , 23-H ) :   0.8999 B( 15-C , 24-H ) :   1.2309 B( 15-C , 26-H ) :  -0.1065
B( 15-C , 28-C ) :   0.1109 B( 16-C , 17-C ) :   0.3078 B( 16-C , 18-H ) :  -0.1098
B( 16-C , 25-C ) :   0.1137 B( 16-C , 28-C ) :   0.3762 B( 16-C , 31-H ) :   0.8643
B( 16-C , 32-H ) :   1.3199 B( 17-C , 18-H ) :   1.0315 B( 17-C , 19-H ) :   0.8891
B( 17-C , 28-C ) :   0.3491 B( 22-C , 24-H ) :  -0.1096 B( 22-C , 25-C ) :   0.7927
B( 22-C , 26-H ) :   1.0826 B( 22-C , 27-H ) :   0.8805 B( 25-C , 28-C ) :   0.8165
B( 25-C , 29-H ) :   0.9775 B( 25-C , 30-H ) :   0.9769 B( 28-C , 33-H ) :   0.9434
B( 28-C , 34-H ) :   0.9700 B( 31-H , 32-H ) :   0.1804

FINAL SINGLE POINT ENERGY     -1135.548592991055

DIPOLE MOMENT
-------------
                                X             Y             Z
Electronic contribution:     -7.71490     -16.95213     -13.58499
Nuclear contribution   :      7.91684      17.85507      15.13212
                        -----------------------------------------
Total Dipole Moment    :      0.20194       0.90294       1.54713
                        -----------------------------------------
Magnitude (a.u.)       :      1.80269
Magnitude (Debye)      :      4.58208

Rotational constants in cm-1:     0.018015     0.012410     0.008313
Rotational constants in MHz :   540.084467   372.038374   249.228144

                             ****ORCA TERMINATED NORMALLY****
TOTAL RUN TIME: 0 days 0 hours 15 minutes 58 seconds 700 msec
