                         Program Version 5.0.0 -  RELEASE  -
|  1> !CAM-B3LYP RIJCOSX def2-TZVPD def2/J TightSCF xyzfile
|  2>
|  3> *xyzfile 0 1 D3.xyz
|  4>
|  5> %MaxCore 64000
|  6>
|  7> %pal nprocs 4
|  8> end
|  9>
| 10> %scf
| 11>   MaxIter 150
| 12> end
| 13>
| 14>
| 15>                          ****END OF INPUT****

CARTESIAN COORDINATES (ANGSTROEM)
---------------------------------
  C      5.558206   -1.992914   -6.215054
  C      4.930199   -7.375319   -2.649623
  C      3.841892   -6.951611   -3.632829
  H      3.458144   -5.954425   -3.407121
  H      2.988484   -7.643606   -3.567078
  S      4.318115   -6.915930   -5.368692
  C      4.181880   -2.589671   -6.298911
  C      3.145873   -1.768431   -6.486753
  N      4.019102   -3.864307   -6.227427
  H      4.768490   -4.591153   -5.990773
  H      3.122405   -4.333392   -6.314620
  H      3.281635   -0.777786   -6.566549
  H      2.212549   -2.134193   -6.562246
  O      5.406154   -5.899480   -5.512972
  F      3.111910   -6.445079   -6.043792
  C      6.419260   -2.542944   -5.077630
  C      5.872267   -5.002756   -2.427819
  C      6.173994   -6.485522   -2.606315
  H      6.734852   -6.613767   -3.534015
  H      6.821463   -6.831018   -1.793617
  H      4.469612   -7.406168   -1.655876
  H      5.230134   -8.398678   -2.885906
  C      5.896512   -2.169314   -3.694552
  H      7.428880   -2.143665   -5.208078
  H      6.505894   -3.627541   -5.175502
  C      6.807804   -2.623428   -2.551019
  H      4.894708   -2.589732   -3.557501
  H      5.778823   -1.081255   -3.635790
  C      7.111544   -4.122463   -2.520363
  H      7.751615   -2.071393   -2.614406
  H      6.345837   -2.326401   -1.604086
  H      5.362882   -4.828697   -1.471335
  H      5.174429   -4.702577   -3.211298
  H      7.778329   -4.329347   -1.677651
  H      7.673189   -4.402845   -3.417586
  O      4.763396   -8.239424   -5.698629
  H      6.036826   -2.198189   -7.176852
  H      5.467610   -0.907371   -6.127968

 Total Charge           Charge          ....    0
 Multiplicity           Mult            ....    1
 Number of Electrons    NEL             ....  136
 Basis Dimension        Dim             ....  808

ORBITAL ENERGIES
----------------

  NO   OCC          E(Eh)            E(eV)
   0   2.0000     -89.206671     -2427.4369
   1   2.0000     -24.896778      -677.4758
   2   2.0000     -19.240976      -523.5736
   3   2.0000     -19.232444      -523.3414
   4   2.0000     -14.360306      -390.7638
   5   2.0000     -10.323327      -280.9120
   6   2.0000     -10.282131      -279.7910
   7   2.0000     -10.251535      -278.9585
   8   2.0000     -10.249825      -278.9119
   9   2.0000     -10.242001      -278.6990
  10   2.0000     -10.236063      -278.5374
  11   2.0000     -10.232629      -278.4440
  12   2.0000     -10.227418      -278.3022
  13   2.0000     -10.227208      -278.2965
  14   2.0000     -10.226933      -278.2890
  15   2.0000     -10.154773      -276.3254
  16   2.0000      -8.250836      -224.5167
  17   2.0000      -6.218689      -169.2191
  18   2.0000      -6.212260      -169.0442
  19   2.0000      -6.211803      -169.0318
  20   2.0000      -1.481583       -40.3159
  21   2.0000      -1.219810       -33.1927
  22   2.0000      -1.123424       -30.5699
  23   2.0000      -0.995530       -27.0898
  24   2.0000      -0.936026       -25.4706
  25   2.0000      -0.896909       -24.4061
  26   2.0000      -0.871016       -23.7016
  27   2.0000      -0.841873       -22.9085
  28   2.0000      -0.819034       -22.2870
  29   2.0000      -0.790380       -21.5073
  30   2.0000      -0.770077       -20.9549
  31   2.0000      -0.733951       -19.9718
  32   2.0000      -0.699916       -19.0457
  33   2.0000      -0.689062       -18.7503
  34   2.0000      -0.679925       -18.5017
  35   2.0000      -0.668105       -18.1801
  36   2.0000      -0.654629       -17.8134
  37   2.0000      -0.634809       -17.2740
  38   2.0000      -0.627156       -17.0658
  39   2.0000      -0.594261       -16.1707
  40   2.0000      -0.579119       -15.7586
  41   2.0000      -0.569236       -15.4897
  42   2.0000      -0.553664       -15.0660
  43   2.0000      -0.537937       -14.6380
  44   2.0000      -0.530867       -14.4456
  45   2.0000      -0.527408       -14.3515
  46   2.0000      -0.517223       -14.0743
  47   2.0000      -0.500815       -13.6279
  48   2.0000      -0.492890       -13.4122
  49   2.0000      -0.487789       -13.2734
  50   2.0000      -0.481318       -13.0973
  51   2.0000      -0.471371       -12.8267
  52   2.0000      -0.458492       -12.4762
  53   2.0000      -0.453130       -12.3303
  54   2.0000      -0.440372       -11.9831
  55   2.0000      -0.430642       -11.7184
  56   2.0000      -0.427650       -11.6370
  57   2.0000      -0.423931       -11.5357
  58   2.0000      -0.416610       -11.3365
  59   2.0000      -0.403628       -10.9833
  60   2.0000      -0.398539       -10.8448
  61   2.0000      -0.395102       -10.7513
  62   2.0000      -0.391481       -10.6528
  63   2.0000      -0.381323       -10.3763
  64   2.0000      -0.373105       -10.1527
  65   2.0000      -0.366599        -9.9757
  66   2.0000      -0.363252        -9.8846
  67   2.0000      -0.226544        -6.1646
  68   0.0000       0.006425         0.1748
  69   0.0000       0.024069         0.6549
  70   0.0000       0.030661         0.8343
  71   0.0000       0.037661         1.0248
  72   0.0000       0.049815         1.3555

MULLIKEN ATOMIC CHARGES
-----------------------
   0 C :   -0.629232
   1 C :   -0.730310
   2 C :   -0.669824
   3 H :    0.430917
   4 H :    0.410372
   5 S :    1.141425
   6 C :    0.773825
   7 C :   -1.386338
   8 N :   -0.218711
   9 H :    0.311354
  10 H :    0.079771
  11 H :    0.303859
  12 H :    0.316774
  13 O :   -0.724971
  14 F :   -0.200674
  15 C :   -0.419251
  16 C :   -0.024587
  17 C :   -0.679075
  18 H :    0.278877
  19 H :    0.369416
  20 H :    0.306152
  21 H :    0.285205
  22 C :   -0.357960
  23 H :    0.281195
  24 H :    0.142770
  25 C :   -0.779356
  26 H :    0.218878
  27 H :    0.300550
  28 C :   -0.696081
  29 H :    0.314067
  30 H :    0.295193
  31 H :    0.300716
  32 H :    0.028585
  33 H :    0.326550
  34 H :    0.309806
  35 O :   -0.543685
  36 H :    0.274606
  37 H :    0.259192
Sum of atomic charges:    0.0000000

LOEWDIN ATOMIC CHARGES
----------------------
   0 C :   -0.144470
   1 C :   -0.210011
   2 C :   -0.222644
   3 H :    0.105533
   4 H :    0.115458
   5 S :    0.666304
   6 C :   -0.492276
   7 C :    0.018313
   8 N :    0.097387
   9 H :    0.037964
  10 H :    0.095346
  11 H :    0.005072
  12 H :    0.009324
  13 O :   -0.304322
  14 F :   -0.060405
  15 C :   -0.205149
  16 C :   -0.222857
  17 C :   -0.213092
  18 H :    0.107749
  19 H :    0.121740
  20 H :    0.124149
  21 H :    0.116503
  22 C :   -0.211704
  23 H :    0.119017
  24 H :    0.089994
  25 C :   -0.212190
  26 H :    0.108750
  27 H :    0.117979
  28 C :   -0.213653
  29 H :    0.110553
  30 H :    0.109633
  31 H :    0.129643
  32 H :    0.081615
  33 H :    0.114690
  34 H :    0.112011
  35 O :   -0.239315
  36 H :    0.122165
  37 H :    0.115198

  Mayer bond orders larger than 0.100000
B(  0-C ,  6-C ) :   0.6005 B(  0-C , 15-C ) :   0.7356 B(  0-C , 36-H ) :   0.9514
B(  0-C , 37-H ) :   0.9978 B(  1-C ,  2-C ) :   0.8920 B(  1-C ,  5-S ) :   0.1529
B(  1-C , 17-C ) :   0.8173 B(  1-C , 20-H ) :   0.9447 B(  1-C , 21-H ) :   0.9692
B(  2-C ,  3-H ) :   0.8313 B(  2-C ,  4-H ) :   0.8202 B(  2-C ,  5-S ) :   0.8218
B(  5-S , 13-O ) :   1.6964 B(  5-S , 14-F ) :   0.9506 B(  5-S , 35-O ) :   1.5575
B(  6-C ,  7-C ) :   1.1335 B(  6-C ,  8-N ) :   0.9682 B(  6-C ,  9-H ) :  -0.1047
B(  6-C , 12-H ) :  -0.1168 B(  7-C ,  8-N ) :   0.1093 B(  7-C , 11-H ) :   1.0149
B(  7-C , 12-H ) :   1.0112 B(  8-N ,  9-H ) :   0.8577 B(  8-N , 10-H ) :   1.0053
B(  8-N , 15-C ) :   0.1438 B( 15-C , 22-C ) :   0.4593 B( 15-C , 23-H ) :   0.9286
B( 15-C , 24-H ) :   1.1515 B( 15-C , 28-C ) :   0.1054 B( 16-C , 17-C ) :   0.3715
B( 16-C , 25-C ) :   0.1172 B( 16-C , 28-C ) :   0.3634 B( 16-C , 31-H ) :   0.8514
B( 16-C , 32-H ) :   1.3147 B( 17-C , 18-H ) :   0.9964 B( 17-C , 19-H ) :   0.8815
B( 17-C , 28-C ) :   0.3661 B( 22-C , 24-H ) :  -0.1137 B( 22-C , 25-C ) :   0.8008
B( 22-C , 26-H ) :   1.0584 B( 22-C , 27-H ) :   0.9048 B( 25-C , 28-C ) :   0.7970
B( 25-C , 29-H ) :   0.9735 B( 25-C , 30-H ) :   0.9764 B( 28-C , 33-H ) :   0.9394
B( 28-C , 34-H ) :   0.9680 B( 31-H , 32-H ) :   0.1729

FINAL SINGLE POINT ENERGY     -1135.552460602763

DIPOLE MOMENT
-------------
                                X             Y             Z
Electronic contribution:    -10.96848     -20.02916     -14.19768
Nuclear contribution   :     10.48431      18.81367      15.71750
                        -----------------------------------------
Total Dipole Moment    :     -0.48416      -1.21549       1.51982
                        -----------------------------------------
Magnitude (a.u.)       :      2.00541
Magnitude (Debye)      :      5.09736

Rotational constants in cm-1:     0.017977     0.012528     0.008321
Rotational constants in MHz :   538.924099   375.570730   249.458530

                             ****ORCA TERMINATED NORMALLY****
TOTAL RUN TIME: 0 days 0 hours 15 minutes 47 seconds 172 msec
