                         Program Version 5.0.0 -  RELEASE  -
|  1> !CAM-B3LYP RIJCOSX def2-TZVPD def2/J TightSCF xyzfile
|  2>
|  3> *xyzfile 0 1 D4.xyz
|  4>
|  5> %MaxCore 64000
|  6>
|  7> %pal nprocs 4
|  8> end
|  9>
| 10> %scf
| 11>   MaxIter 150
| 12> end
| 13>
| 14>
| 15>                          ****END OF INPUT****

CARTESIAN COORDINATES (ANGSTROEM)
---------------------------------
  C      5.558206   -1.992914   -6.215054
  C      4.930199   -7.375319   -2.649623
  C      3.841892   -6.951611   -3.632829
  H      3.458144   -5.954425   -3.407121
  H      2.988484   -7.643606   -3.567078
  S      4.318115   -6.915930   -5.368692
  C      4.181880   -2.589671   -6.298911
  N      3.145873   -1.768431   -6.486753
  C      4.019102   -3.864307   -6.227427
  H      4.768490   -4.591153   -5.990773
  H      3.122405   -4.333392   -6.314620
  H      3.281635   -0.777786   -6.566549
  H      2.212549   -2.134193   -6.562246
  O      5.406154   -5.899480   -5.512972
  F      3.111910   -6.445079   -6.043792
  C      6.419260   -2.542944   -5.077630
  C      5.872267   -5.002756   -2.427819
  C      6.173994   -6.485522   -2.606315
  H      6.734852   -6.613767   -3.534015
  H      6.821463   -6.831018   -1.793617
  H      4.469612   -7.406168   -1.655876
  H      5.230134   -8.398678   -2.885906
  C      5.896512   -2.169314   -3.694552
  H      7.428880   -2.143665   -5.208078
  H      6.505894   -3.627541   -5.175502
  C      6.807804   -2.623428   -2.551019
  H      4.894708   -2.589732   -3.557501
  H      5.778823   -1.081255   -3.635790
  C      7.111544   -4.122463   -2.520363
  H      7.751615   -2.071393   -2.614406
  H      6.345837   -2.326401   -1.604086
  H      5.362882   -4.828697   -1.471335
  H      5.174429   -4.702577   -3.211298
  H      7.778329   -4.329347   -1.677651
  H      7.673189   -4.402845   -3.417586
  O      4.763396   -8.239424   -5.698629
  H      6.036826   -2.198189   -7.176852
  H      5.467610   -0.907371   -6.127968

 Total Charge           Charge          ....    0
 Multiplicity           Mult            ....    1
 Number of Electrons    NEL             ....  136
 Basis Dimension        Dim             ....  808

ORBITAL ENERGIES
----------------

  NO   OCC          E(Eh)            E(eV)
   0   2.0000     -89.183740     -2426.8129
   1   2.0000     -24.871677      -676.7927
   2   2.0000     -19.220088      -523.0052
   3   2.0000     -19.202315      -522.5216
   4   2.0000     -14.375324      -391.1725
   5   2.0000     -10.307335      -280.4768
   6   2.0000     -10.270171      -279.4656
   7   2.0000     -10.248849      -278.8854
   8   2.0000     -10.241205      -278.6774
   9   2.0000     -10.233111      -278.4571
  10   2.0000     -10.230804      -278.3943
  11   2.0000     -10.230072      -278.3744
  12   2.0000     -10.229248      -278.3520
  13   2.0000     -10.224721      -278.2288
  14   2.0000     -10.224494      -278.2226
  15   2.0000     -10.145029      -276.0603
  16   2.0000      -8.227714      -223.8875
  17   2.0000      -6.195420      -168.5860
  18   2.0000      -6.189070      -168.4132
  19   2.0000      -6.188979      -168.4107
  20   2.0000      -1.456641       -39.6372
  21   2.0000      -1.196728       -32.5646
  22   2.0000      -1.097226       -29.8570
  23   2.0000      -0.995790       -27.0968
  24   2.0000      -0.921997       -25.0888
  25   2.0000      -0.891772       -24.2664
  26   2.0000      -0.863630       -23.5006
  27   2.0000      -0.838336       -22.8123
  28   2.0000      -0.804329       -21.8869
  29   2.0000      -0.786086       -21.3905
  30   2.0000      -0.760153       -20.6848
  31   2.0000      -0.730949       -19.8901
  32   2.0000      -0.695755       -18.9325
  33   2.0000      -0.676683       -18.4135
  34   2.0000      -0.662487       -18.0272
  35   2.0000      -0.644579       -17.5399
  36   2.0000      -0.641246       -17.4492
  37   2.0000      -0.626893       -17.0586
  38   2.0000      -0.612217       -16.6593
  39   2.0000      -0.585471       -15.9315
  40   2.0000      -0.568644       -15.4736
  41   2.0000      -0.564851       -15.3704
  42   2.0000      -0.550282       -14.9739
  43   2.0000      -0.538454       -14.6521
  44   2.0000      -0.527847       -14.3634
  45   2.0000      -0.518937       -14.1210
  46   2.0000      -0.513970       -13.9858
  47   2.0000      -0.495558       -13.4848
  48   2.0000      -0.483409       -13.1542
  49   2.0000      -0.478292       -13.0150
  50   2.0000      -0.475614       -12.9421
  51   2.0000      -0.460524       -12.5315
  52   2.0000      -0.455746       -12.4015
  53   2.0000      -0.437677       -11.9098
  54   2.0000      -0.431517       -11.7422
  55   2.0000      -0.423361       -11.5202
  56   2.0000      -0.416930       -11.3453
  57   2.0000      -0.408628       -11.1193
  58   2.0000      -0.405886       -11.0447
  59   2.0000      -0.401024       -10.9124
  60   2.0000      -0.388826       -10.5805
  61   2.0000      -0.387594       -10.5470
  62   2.0000      -0.384904       -10.4738
  63   2.0000      -0.370642       -10.0857
  64   2.0000      -0.366339        -9.9686
  65   2.0000      -0.362608        -9.8671
  66   2.0000      -0.335105        -9.1187
  67   2.0000      -0.237534        -6.4636
  68   0.0000       0.016557         0.4505
  69   0.0000       0.032836         0.8935
  70   0.0000       0.036379         0.9899
  71   0.0000       0.039452         1.0736
  72   0.0000       0.048294         1.3141

MULLIKEN ATOMIC CHARGES
-----------------------
   0 C :   -0.640580
   1 C :   -0.736506
   2 C :   -0.672472
   3 H :    0.421375
   4 H :    0.412587
   5 S :    1.104498
   6 C :    0.518363
   7 N :   -0.375878
   8 C :   -1.060531
   9 H :    0.419848
  10 H :    0.340400
  11 H :    0.152025
  12 H :    0.145030
  13 O :   -0.663979
  14 F :   -0.164265
  15 C :   -0.369725
  16 C :    0.054354
  17 C :   -0.695366
  18 H :    0.288483
  19 H :    0.369441
  20 H :    0.298376
  21 H :    0.282434
  22 C :   -0.409857
  23 H :    0.290190
  24 H :    0.127469
  25 C :   -0.783992
  26 H :    0.220759
  27 H :    0.314834
  28 C :   -0.693879
  29 H :    0.310563
  30 H :    0.288041
  31 H :    0.292677
  32 H :   -0.026940
  33 H :    0.322913
  34 H :    0.317939
  35 O :   -0.560570
  36 H :    0.262514
  37 H :    0.299425
Sum of atomic charges:   -0.0000000

LOEWDIN ATOMIC CHARGES
----------------------
   0 C :   -0.142899
   1 C :   -0.211876
   2 C :   -0.224086
   3 H :    0.104391
   4 H :    0.113216
   5 S :    0.655594
   6 C :   -0.464711
   7 N :    0.101928
   8 C :   -0.007044
   9 H :   -0.019133
  10 H :    0.022271
  11 H :    0.089240
  12 H :    0.101507
  13 O :   -0.317666
  14 F :   -0.067672
  15 C :   -0.200614
  16 C :   -0.222078
  17 C :   -0.213759
  18 H :    0.107951
  19 H :    0.120220
  20 H :    0.122041
  21 H :    0.115506
  22 C :   -0.213179
  23 H :    0.119061
  24 H :    0.095892
  25 C :   -0.212724
  26 H :    0.108187
  27 H :    0.114446
  28 C :   -0.213453
  29 H :    0.109645
  30 H :    0.108935
  31 H :    0.128450
  32 H :    0.083623
  33 H :    0.114055
  34 H :    0.112600
  35 O :   -0.249948
  36 H :    0.123685
  37 H :    0.108401

  Mayer bond orders larger than 0.100000
B(  0-C ,  6-C ) :   0.3198 B(  0-C ,  8-C ) :  -0.1116 B(  0-C , 15-C ) :   0.7595
B(  0-C , 36-H ) :   0.9391 B(  0-C , 37-H ) :   1.0389 B(  1-C ,  2-C ) :   0.8914
B(  1-C ,  5-S ) :   0.1581 B(  1-C , 17-C ) :   0.8091 B(  1-C , 20-H ) :   0.9479
B(  1-C , 21-H ) :   0.9680 B(  2-C ,  3-H ) :   0.8427 B(  2-C ,  4-H ) :   0.8242
B(  2-C ,  5-S ) :   0.8175 B(  2-C , 35-O ) :   0.1140 B(  5-S , 13-O ) :   1.7440
B(  5-S , 14-F ) :   0.9476 B(  5-S , 35-O ) :   1.5358 B(  6-C ,  7-N ) :   0.8692
B(  6-C ,  8-C ) :   1.1768 B(  6-C ,  9-H ) :   0.3184 B(  6-C , 10-H ) :  -0.2177
B(  6-C , 37-H ) :  -0.1982 B(  7-N , 11-H ) :   1.0588 B(  7-N , 12-H ) :   1.0445
B(  8-C ,  9-H ) :   0.8124 B(  8-C , 10-H ) :   1.0687 B(  8-C , 13-O ) :   0.1418
B(  9-H , 13-O ) :  -0.4105 B( 15-C , 22-C ) :   0.4164 B( 15-C , 23-H ) :   0.9099
B( 15-C , 24-H ) :   1.1912 B( 15-C , 26-H ) :  -0.1034 B( 15-C , 28-C ) :   0.1168
B( 16-C , 17-C ) :   0.3894 B( 16-C , 25-C ) :   0.1030 B( 16-C , 28-C ) :   0.3602
B( 16-C , 31-H ) :   0.8652 B( 16-C , 32-H ) :   1.3144 B( 17-C , 18-H ) :   0.9832
B( 17-C , 19-H ) :   0.8854 B( 17-C , 28-C ) :   0.3752 B( 22-C , 24-H ) :  -0.1034
B( 22-C , 25-C ) :   0.7867 B( 22-C , 26-H ) :   1.0865 B( 22-C , 27-H ) :   0.8850
B( 25-C , 28-C ) :   0.8039 B( 25-C , 29-H ) :   0.9767 B( 25-C , 30-H ) :   0.9761
B( 28-C , 33-H ) :   0.9434 B( 28-C , 34-H ) :   0.9630 B( 31-H , 32-H ) :   0.1675

FINAL SINGLE POINT ENERGY     -1135.539826116767

DIPOLE MOMENT
-------------
                                X             Y             Z
Electronic contribution:    -11.69790     -18.16267     -14.61718
Nuclear contribution   :     10.61624      18.49702      15.75668
                        -----------------------------------------
Total Dipole Moment    :     -1.08165       0.33435       1.13950
                        -----------------------------------------
Magnitude (a.u.)       :      1.60631
Magnitude (Debye)      :      4.08292

Rotational constants in cm-1:     0.017796     0.012372     0.008231
Rotational constants in MHz :   533.524905   370.895973   246.762347

                             ****ORCA TERMINATED NORMALLY****
TOTAL RUN TIME: 0 days 0 hours 15 minutes 55 seconds 259 msec
