                         Program Version 5.0.0 -  RELEASE  -
|  1> !CAM-B3LYP RIJCOSX def2-TZVPD def2/J TightSCF xyzfile
|  2>
|  3> *xyzfile 0 1 D5.xyz
|  4>
|  5> %MaxCore 64000
|  6>
|  7> %pal nprocs 4
|  8> end
|  9>
| 10> %scf
| 11>   MaxIter 150
| 12> end
| 13>
| 14>
| 15>                          ****END OF INPUT****

CARTESIAN COORDINATES (ANGSTROEM)
---------------------------------
  C      5.558206   -1.992914   -6.215054
  C      4.930199   -7.375319   -2.649623
  C      3.841892   -6.951611   -3.632829
  H      3.458144   -5.954425   -3.407121
  H      2.988484   -7.643606   -3.567078
  S      4.318115   -6.915930   -5.368692
  C      4.181880   -2.589671   -6.298911
  C      3.145873   -1.768431   -6.486753
  N      4.019102   -3.864307   -6.227427
  H      4.768490   -4.591153   -5.990773
  H      3.122405   -4.333392   -6.314620
  H      3.281635   -0.777786   -6.566549
  H      2.212549   -2.134193   -6.562246
  O      5.406154   -5.899480   -5.512972
  O      3.111910   -6.445079   -6.043792
  C      6.419260   -2.542944   -5.077630
  C      5.872267   -5.002756   -2.427819
  C      6.173994   -6.485522   -2.606315
  H      6.734852   -6.613767   -3.534015
  H      6.821463   -6.831018   -1.793617
  H      4.469612   -7.406168   -1.655876
  H      5.230134   -8.398678   -2.885906
  C      5.896512   -2.169314   -3.694552
  H      7.428880   -2.143665   -5.208078
  H      6.505894   -3.627541   -5.175502
  C      6.807804   -2.623428   -2.551019
  H      4.894708   -2.589732   -3.557501
  H      5.778823   -1.081255   -3.635790
  C      7.111544   -4.122463   -2.520363
  H      7.751615   -2.071393   -2.614406
  H      6.345837   -2.326401   -1.604086
  H      5.362882   -4.828697   -1.471335
  H      5.174429   -4.702577   -3.211298
  H      7.778329   -4.329347   -1.677651
  H      7.673189   -4.402845   -3.417586
  F      4.763396   -8.239424   -5.698629
  H      6.036826   -2.198189   -7.176852
  H      5.467610   -0.907371   -6.127968

 Total Charge           Charge          ....    0
 Multiplicity           Mult            ....    1
 Number of Electrons    NEL             ....  136
 Basis Dimension        Dim             ....  808

ORBITAL ENERGIES
----------------

  NO   OCC          E(Eh)            E(eV)
   0   2.0000     -89.210686     -2427.5462
   1   2.0000     -24.909396      -677.8191
   2   2.0000     -19.235382      -523.4214
   3   2.0000     -19.234533      -523.3983
   4   2.0000     -14.342604      -390.2821
   5   2.0000     -10.324881      -280.9543
   6   2.0000     -10.284988      -279.8688
   7   2.0000     -10.255638      -279.0701
   8   2.0000     -10.243145      -278.7302
   9   2.0000     -10.237566      -278.5783
  10   2.0000     -10.236218      -278.5417
  11   2.0000     -10.230994      -278.3995
  12   2.0000     -10.223267      -278.1892
  13   2.0000     -10.222774      -278.1758
  14   2.0000     -10.219518      -278.0872
  15   2.0000     -10.142456      -275.9902
  16   2.0000      -8.254710      -224.6221
  17   2.0000      -6.222533      -169.3237
  18   2.0000      -6.216272      -169.1534
  19   2.0000      -6.215552      -169.1338
  20   2.0000      -1.501048       -40.8456
  21   2.0000      -1.214721       -33.0542
  22   2.0000      -1.115740       -30.3608
  23   2.0000      -0.979800       -26.6617
  24   2.0000      -0.940072       -25.5807
  25   2.0000      -0.896046       -24.3827
  26   2.0000      -0.869302       -23.6549
  27   2.0000      -0.839817       -22.8526
  28   2.0000      -0.820742       -22.3335
  29   2.0000      -0.789125       -21.4732
  30   2.0000      -0.766745       -20.8642
  31   2.0000      -0.731693       -19.9104
  32   2.0000      -0.706576       -19.2269
  33   2.0000      -0.697195       -18.9716
  34   2.0000      -0.684500       -18.6262
  35   2.0000      -0.670483       -18.2448
  36   2.0000      -0.647859       -17.6291
  37   2.0000      -0.631228       -17.1766
  38   2.0000      -0.620961       -16.8972
  39   2.0000      -0.585226       -15.9248
  40   2.0000      -0.582006       -15.8372
  41   2.0000      -0.574864       -15.6428
  42   2.0000      -0.553265       -15.0551
  43   2.0000      -0.535970       -14.5845
  44   2.0000      -0.531699       -14.4683
  45   2.0000      -0.522540       -14.2190
  46   2.0000      -0.511284       -13.9127
  47   2.0000      -0.500898       -13.6301
  48   2.0000      -0.491267       -13.3681
  49   2.0000      -0.488234       -13.2855
  50   2.0000      -0.473102       -12.8738
  51   2.0000      -0.467115       -12.7109
  52   2.0000      -0.459062       -12.4917
  53   2.0000      -0.444690       -12.1006
  54   2.0000      -0.436540       -11.8789
  55   2.0000      -0.426604       -11.6085
  56   2.0000      -0.423752       -11.5309
  57   2.0000      -0.415697       -11.3117
  58   2.0000      -0.414541       -11.2802
  59   2.0000      -0.405186       -11.0257
  60   2.0000      -0.394094       -10.7238
  61   2.0000      -0.391971       -10.6661
  62   2.0000      -0.387571       -10.5463
  63   2.0000      -0.378196       -10.2912
  64   2.0000      -0.370410       -10.0794
  65   2.0000      -0.360453        -9.8084
  66   2.0000      -0.356220        -9.6932
  67   2.0000      -0.212872        -5.7925
  68   0.0000       0.000956         0.0260
  69   0.0000       0.023963         0.6521
  70   0.0000       0.029974         0.8156
  71   0.0000       0.036760         1.0003
  72   0.0000       0.044189         1.2024

MULLIKEN ATOMIC CHARGES
-----------------------
   0 C :   -0.626263
   1 C :   -0.670891
   2 C :   -0.680443
   3 H :    0.366694
   4 H :    0.421373
   5 S :    1.139012
   6 C :    0.797155
   7 C :   -1.377028
   8 N :   -0.205590
   9 H :    0.237087
  10 H :    0.119172
  11 H :    0.301262
  12 H :    0.321933
  13 O :   -0.715483
  14 O :   -0.674272
  15 C :   -0.426786
  16 C :   -0.020233
  17 C :   -0.627044
  18 H :    0.233802
  19 H :    0.371307
  20 H :    0.305067
  21 H :    0.293765
  22 C :   -0.355490
  23 H :    0.280134
  24 H :    0.149040
  25 C :   -0.775974
  26 H :    0.220047
  27 H :    0.300733
  28 C :   -0.708826
  29 H :    0.313638
  30 H :    0.294250
  31 H :    0.300923
  32 H :    0.011868
  33 H :    0.324826
  34 H :    0.316686
  35 F :   -0.081783
  36 H :    0.271416
  37 H :    0.254916
Sum of atomic charges:   -0.0000000

LOEWDIN ATOMIC CHARGES
----------------------
   0 C :   -0.146435
   1 C :   -0.220847
   2 C :   -0.214271
   3 H :    0.116510
   4 H :    0.116435
   5 S :    0.675522
   6 C :   -0.493748
   7 C :    0.014426
   8 N :    0.106674
   9 H :    0.041061
  10 H :    0.093271
  11 H :    0.001953
  12 H :    0.009042
  13 O :   -0.307709
  14 O :   -0.274480
  15 C :   -0.206458
  16 C :   -0.221202
  17 C :   -0.218476
  18 H :    0.103429
  19 H :    0.121021
  20 H :    0.122612
  21 H :    0.111353
  22 C :   -0.211304
  23 H :    0.117956
  24 H :    0.088940
  25 C :   -0.212446
  26 H :    0.109443
  27 H :    0.118110
  28 C :   -0.214159
  29 H :    0.110358
  30 H :    0.109495
  31 H :    0.130316
  32 H :    0.083507
  33 H :    0.114209
  34 H :    0.111514
  35 F :   -0.020779
  36 H :    0.120993
  37 H :    0.114163

  Mayer bond orders larger than 0.100000
B(  0-C ,  6-C ) :   0.6053 B(  0-C , 15-C ) :   0.7375 B(  0-C , 36-H ) :   0.9501
B(  0-C , 37-H ) :   1.0009 B(  1-C ,  2-C ) :   0.7700 B(  1-C ,  5-S ) :   0.1023
B(  1-C , 17-C ) :   0.7888 B(  1-C , 20-H ) :   0.9578 B(  1-C , 21-H ) :   0.9673
B(  2-C ,  3-H ) :   0.9141 B(  2-C ,  4-H ) :   0.8287 B(  2-C ,  5-S ) :   0.8579
B(  2-C , 14-O ) :   0.1064 B(  5-S , 13-O ) :   1.7297 B(  5-S , 14-O ) :   1.6149
B(  5-S , 35-F ) :   0.9254 B(  6-C ,  7-C ) :   1.1615 B(  6-C ,  8-N ) :   0.9021
B(  6-C ,  9-H ) :  -0.1393 B(  6-C , 10-H ) :  -0.1040 B(  6-C , 12-H ) :  -0.1022
B(  7-C ,  8-N ) :   0.1129 B(  7-C , 11-H ) :   1.0247 B(  7-C , 12-H ) :   0.9954
B(  8-N ,  9-H ) :   0.9223 B(  8-N , 10-H ) :   1.0278 B(  8-N , 15-C ) :   0.1463
B( 13-O , 14-O ) :   0.1099 B( 15-C , 22-C ) :   0.4565 B( 15-C , 23-H ) :   0.9271
B( 15-C , 24-H ) :   1.1500 B( 15-C , 28-C ) :   0.1072 B( 16-C , 17-C ) :   0.3891
B( 16-C , 25-C ) :   0.1180 B( 16-C , 28-C ) :   0.3614 B( 16-C , 31-H ) :   0.8463
B( 16-C , 32-H ) :   1.3036 B( 17-C , 18-H ) :   1.0153 B( 17-C , 19-H ) :   0.8868
B( 17-C , 28-C ) :   0.3752 B( 22-C , 24-H ) :  -0.1144 B( 22-C , 25-C ) :   0.7937
B( 22-C , 26-H ) :   1.0568 B( 22-C , 27-H ) :   0.9036 B( 25-C , 28-C ) :   0.8023
B( 25-C , 29-H ) :   0.9745 B( 25-C , 30-H ) :   0.9758 B( 28-C , 33-H ) :   0.9399
B( 28-C , 34-H ) :   0.9606 B( 31-H , 32-H ) :   0.1813

FINAL SINGLE POINT ENERGY     -1135.543587426379

DIPOLE MOMENT
-------------
                                X             Y             Z
Electronic contribution:     -8.07356     -23.38972     -13.57944
Nuclear contribution   :      8.54118      20.92489      15.31138
                        -----------------------------------------
Total Dipole Moment    :      0.46762      -2.46483       1.73194
                        -----------------------------------------
Magnitude (a.u.)       :      3.04855
Magnitude (Debye)      :      7.74880

Rotational constants in cm-1:     0.018156     0.012306     0.008278
Rotational constants in MHz :   544.309022   368.914527   248.178402

                             ****ORCA TERMINATED NORMALLY****
TOTAL RUN TIME: 0 days 0 hours 15 minutes 51 seconds 355 msec
