                         Program Version 5.0.0 -  RELEASE  -
|  1> !CAM-B3LYP RIJCOSX def2-TZVPD def2/J TightSCF xyzfile
|  2>
|  3> *xyzfile 0 1 D6.xyz
|  4>
|  5> %MaxCore 64000
|  6>
|  7> %pal nprocs 4
|  8> end
|  9>
| 10> %scf
| 11>   MaxIter 150
| 12> end
| 13>
| 14>
| 15>                          ****END OF INPUT****

CARTESIAN COORDINATES (ANGSTROEM)
---------------------------------
  C      5.558206   -1.992914   -6.215054
  C      4.930199   -7.375319   -2.649623
  C      3.841892   -6.951611   -3.632829
  H      3.458144   -5.954425   -3.407121
  H      2.988484   -7.643606   -3.567078
  S      4.318115   -6.915930   -5.368692
  C      4.181880   -2.589671   -6.298911
  N      3.145873   -1.768431   -6.486753
  C      4.019102   -3.864307   -6.227427
  H      4.768490   -4.591153   -5.990773
  H      3.122405   -4.333392   -6.314620
  H      3.281635   -0.777786   -6.566549
  H      2.212549   -2.134193   -6.562246
  O      5.406154   -5.899480   -5.512972
  O      3.111910   -6.445079   -6.043792
  C      6.419260   -2.542944   -5.077630
  C      5.872267   -5.002756   -2.427819
  C      6.173994   -6.485522   -2.606315
  H      6.734852   -6.613767   -3.534015
  H      6.821463   -6.831018   -1.793617
  H      4.469612   -7.406168   -1.655876
  H      5.230134   -8.398678   -2.885906
  C      5.896512   -2.169314   -3.694552
  H      7.428880   -2.143665   -5.208078
  H      6.505894   -3.627541   -5.175502
  C      6.807804   -2.623428   -2.551019
  H      4.894708   -2.589732   -3.557501
  H      5.778823   -1.081255   -3.635790
  C      7.111544   -4.122463   -2.520363
  H      7.751615   -2.071393   -2.614406
  H      6.345837   -2.326401   -1.604086
  H      5.362882   -4.828697   -1.471335
  H      5.174429   -4.702577   -3.211298
  H      7.778329   -4.329347   -1.677651
  H      7.673189   -4.402845   -3.417586
  F      4.763396   -8.239424   -5.698629
  H      6.036826   -2.198189   -7.176852
  H      5.467610   -0.907371   -6.127968

 Total Charge           Charge          ....    0
 Multiplicity           Mult            ....    1
 Number of Electrons    NEL             ....  136
 Basis Dimension        Dim             ....  808

ORBITAL ENERGIES
----------------

  NO   OCC          E(Eh)            E(eV)
   0   2.0000     -89.186097     -2426.8771
   1   2.0000     -24.888009      -677.2372
   2   2.0000     -19.211376      -522.7681
   3   2.0000     -19.206385      -522.6323
   4   2.0000     -14.362979      -390.8365
   5   2.0000     -10.308226      -280.5011
   6   2.0000     -10.272794      -279.5369
   7   2.0000     -10.245087      -278.7830
   8   2.0000     -10.234090      -278.4838
   9   2.0000     -10.233846      -278.4771
  10   2.0000     -10.230017      -278.3729
  11   2.0000     -10.227362      -278.3007
  12   2.0000     -10.222456      -278.1672
  13   2.0000     -10.220517      -278.1144
  14   2.0000     -10.219547      -278.0880
  15   2.0000     -10.129328      -275.6330
  16   2.0000      -8.230100      -223.9524
  17   2.0000      -6.198039      -168.6572
  18   2.0000      -6.191412      -168.4769
  19   2.0000      -6.191104      -168.4685
  20   2.0000      -1.479992       -40.2726
  21   2.0000      -1.189202       -32.3598
  22   2.0000      -1.089639       -29.6506
  23   2.0000      -0.983273       -26.7562
  24   2.0000      -0.925687       -25.1892
  25   2.0000      -0.889952       -24.2168
  26   2.0000      -0.860781       -23.4230
  27   2.0000      -0.836371       -22.7588
  28   2.0000      -0.806544       -21.9472
  29   2.0000      -0.784364       -21.3436
  30   2.0000      -0.758668       -20.6444
  31   2.0000      -0.727688       -19.8014
  32   2.0000      -0.695138       -18.9157
  33   2.0000      -0.682167       -18.5627
  34   2.0000      -0.675868       -18.3913
  35   2.0000      -0.660381       -17.9699
  36   2.0000      -0.633057       -17.2264
  37   2.0000      -0.622863       -16.9490
  38   2.0000      -0.603535       -16.4230
  39   2.0000      -0.575456       -15.6590
  40   2.0000      -0.569654       -15.5011
  41   2.0000      -0.561700       -15.2846
  42   2.0000      -0.544912       -14.8278
  43   2.0000      -0.536916       -14.6102
  44   2.0000      -0.530718       -14.4416
  45   2.0000      -0.519071       -14.1246
  46   2.0000      -0.513849       -13.9826
  47   2.0000      -0.490175       -13.3383
  48   2.0000      -0.485469       -13.2103
  49   2.0000      -0.479856       -13.0575
  50   2.0000      -0.479000       -13.0342
  51   2.0000      -0.458742       -12.4830
  52   2.0000      -0.441393       -12.0109
  53   2.0000      -0.434246       -11.8164
  54   2.0000      -0.422200       -11.4886
  55   2.0000      -0.415305       -11.3010
  56   2.0000      -0.412973       -11.2376
  57   2.0000      -0.405806       -11.0425
  58   2.0000      -0.397717       -10.8224
  59   2.0000      -0.393155       -10.6983
  60   2.0000      -0.386644       -10.5211
  61   2.0000      -0.383380       -10.4323
  62   2.0000      -0.380381       -10.3507
  63   2.0000      -0.368509       -10.0276
  64   2.0000      -0.363420        -9.8892
  65   2.0000      -0.357245        -9.7211
  66   2.0000      -0.332387        -9.0447
  67   2.0000      -0.223269        -6.0754
  68   0.0000       0.011638         0.3167
  69   0.0000       0.031413         0.8548
  70   0.0000       0.037962         1.0330
  71   0.0000       0.040698         1.1075
  72   0.0000       0.051504         1.4015

MULLIKEN ATOMIC CHARGES
-----------------------
   0 C :   -0.639162
   1 C :   -0.673298
   2 C :   -0.677579
   3 H :    0.359936
   4 H :    0.417951
   5 S :    1.084022
   6 C :    0.686498
   7 N :   -0.376239
   8 C :   -1.144445
   9 H :    0.342429
  10 H :    0.361858
  11 H :    0.147336
  12 H :    0.148426
  13 O :   -0.656876
  14 O :   -0.639587
  15 C :   -0.370682
  16 C :    0.072760
  17 C :   -0.652791
  18 H :    0.246450
  19 H :    0.370993
  20 H :    0.299094
  21 H :    0.287192
  22 C :   -0.411102
  23 H :    0.290072
  24 H :    0.129441
  25 C :   -0.782371
  26 H :    0.223994
  27 H :    0.316746
  28 C :   -0.704435
  29 H :    0.310084
  30 H :    0.286677
  31 H :    0.292508
  32 H :   -0.060492
  33 H :    0.321274
  34 H :    0.324300
  35 F :   -0.087433
  36 H :    0.257355
  37 H :    0.299097
Sum of atomic charges:    0.0000000

LOEWDIN ATOMIC CHARGES
----------------------
   0 C :   -0.145817
   1 C :   -0.222678
   2 C :   -0.216619
   3 H :    0.114964
   4 H :    0.113940
   5 S :    0.662440
   6 C :   -0.466742
   7 N :    0.098064
   8 C :    0.001567
   9 H :   -0.014564
  10 H :    0.022723
  11 H :    0.086437
  12 H :    0.101264
  13 O :   -0.318509
  14 O :   -0.281415
  15 C :   -0.202400
  16 C :   -0.220487
  17 C :   -0.219301
  18 H :    0.103453
  19 H :    0.119464
  20 H :    0.120491
  21 H :    0.110316
  22 C :   -0.212900
  23 H :    0.117859
  24 H :    0.094554
  25 C :   -0.213083
  26 H :    0.108749
  27 H :    0.114551
  28 C :   -0.213999
  29 H :    0.109412
  30 H :    0.108743
  31 H :    0.129111
  32 H :    0.085328
  33 H :    0.113547
  34 H :    0.112080
  35 F :   -0.029668
  36 H :    0.121934
  37 H :    0.107194

  Mayer bond orders larger than 0.100000
B(  0-C ,  6-C ) :   0.3072 B(  0-C , 15-C ) :   0.7600 B(  0-C , 36-H ) :   0.9380
B(  0-C , 37-H ) :   1.0389 B(  1-C ,  2-C ) :   0.7696 B(  1-C ,  5-S ) :   0.1052
B(  1-C , 17-C ) :   0.7816 B(  1-C , 20-H ) :   0.9601 B(  1-C , 21-H ) :   0.9701
B(  2-C ,  3-H ) :   0.9238 B(  2-C ,  4-H ) :   0.8330 B(  2-C ,  5-S ) :   0.8524
B(  2-C , 14-O ) :   0.1059 B(  2-C , 32-H ) :   0.1020 B(  5-S , 13-O ) :   1.7869
B(  5-S , 14-O ) :   1.6064 B(  5-S , 35-F ) :   0.9118 B(  6-C ,  7-N ) :   0.8775
B(  6-C ,  8-C ) :   0.8934 B(  6-C ,  9-H ) :   0.2906 B(  6-C , 10-H ) :  -0.2925
B(  6-C , 37-H ) :  -0.1982 B(  7-N , 11-H ) :   1.0635 B(  7-N , 12-H ) :   1.0411
B(  8-C ,  9-H ) :   0.9781 B(  8-C , 10-H ) :   1.1161 B(  8-C , 13-O ) :   0.1345
B(  9-H , 13-O ) :  -0.4200 B( 13-O , 14-O ) :   0.1167 B( 15-C , 22-C ) :   0.4168
B( 15-C , 23-H ) :   0.9096 B( 15-C , 24-H ) :   1.1921 B( 15-C , 26-H ) :  -0.1008
B( 15-C , 28-C ) :   0.1191 B( 16-C , 17-C ) :   0.4047 B( 16-C , 25-C ) :   0.1031
B( 16-C , 28-C ) :   0.3586 B( 16-C , 31-H ) :   0.8623 B( 16-C , 32-H ) :   1.3043
B( 17-C , 18-H ) :   1.0004 B( 17-C , 19-H ) :   0.8908 B( 17-C , 28-C ) :   0.3853
B( 17-C , 31-H ) :  -0.1016 B( 22-C , 24-H ) :  -0.1052 B( 22-C , 25-C ) :   0.7785
B( 22-C , 26-H ) :   1.0859 B( 22-C , 27-H ) :   0.8821 B( 25-C , 28-C ) :   0.8079
B( 25-C , 29-H ) :   0.9781 B( 25-C , 30-H ) :   0.9771 B( 28-C , 33-H ) :   0.9448
B( 28-C , 34-H ) :   0.9563 B( 31-H , 32-H ) :   0.1759

FINAL SINGLE POINT ENERGY     -1135.526854685055

DIPOLE MOMENT
-------------
                                X             Y             Z
Electronic contribution:     -8.81989     -21.52840     -14.01549
Nuclear contribution   :      8.67311      20.60825      15.35056
                        -----------------------------------------
Total Dipole Moment    :     -0.14678      -0.92016       1.33506
                        -----------------------------------------
Magnitude (a.u.)       :      1.62808
Magnitude (Debye)      :      4.13824

Rotational constants in cm-1:     0.017976     0.012151     0.008188
Rotational constants in MHz :   538.898457   364.286417   245.482451

                             ****ORCA TERMINATED NORMALLY****
TOTAL RUN TIME: 0 days 0 hours 18 minutes 19 seconds 558 msec
