                         Program Version 5.0.0 -  RELEASE  -
|  1> !M062X D3Zero RIJCOSX def2-SVPD def2/J TightSCF
|  2> *xyz -1 1
|  3> C          0.64866        1.00359       -3.64560
|  4> C          0.13297        2.38587       -4.02462
|  5> C         -1.36646        2.47911       -4.31393
|  6> C         -2.35773        2.30686       -3.13675
|  7> H         -1.63680        1.72709       -5.06399
|  8> H         -1.58235        3.44561       -4.76869
|  9> O         -3.44376        2.84652       -3.25274
| 10> O         -1.97092        1.58304       -2.15123
| 11> H          0.41484        3.10285       -3.24517
| 12> H          0.68317        2.68756       -4.91972
| 13> H          0.37534        0.30051       -4.40446
| 14> H          0.21856        0.70606       -2.71212
| 15> H          1.71431        1.03324       -3.55398
| 16> *
| 17> %MaxCore 64000
| 18>
| 19> %pal nprocs 4
| 20> end
| 21>
| 22> %scf
| 23>   MaxIter 150
| 24> end
| 25>
| 26>
| 27>                          ****END OF INPUT****

CARTESIAN COORDINATES (ANGSTROEM)
---------------------------------
  C      0.648660    1.003590   -3.645600
  C      0.132970    2.385870   -4.024620
  C     -1.366460    2.479110   -4.313930
  C     -2.357730    2.306860   -3.136750
  H     -1.636800    1.727090   -5.063990
  H     -1.582350    3.445610   -4.768690
  O     -3.443760    2.846520   -3.252740
  O     -1.970920    1.583040   -2.151230
  H      0.414840    3.102850   -3.245170
  H      0.683170    2.687560   -4.919720
  H      0.375340    0.300510   -4.404460
  H      0.218560    0.706060   -2.712120
  H      1.714310    1.033240   -3.553980

 Total Charge           Charge          ....   -1
 Multiplicity           Mult            ....    1
 Number of Electrons    NEL             ....   48
 Basis Dimension        Dim             ....  182

ORBITAL ENERGIES
----------------

  NO   OCC          E(Eh)            E(eV)
   0   2.0000     -19.381354      -527.3935
   1   2.0000     -19.370562      -527.0998
   2   2.0000     -10.442673      -284.1596
   3   2.0000     -10.401067      -283.0274
   4   2.0000     -10.388146      -282.6758
   5   2.0000     -10.377821      -282.3949
   6   2.0000      -0.940484       -25.5919
   7   2.0000      -0.833025       -22.6678
   8   2.0000      -0.724996       -19.7282
   9   2.0000      -0.624148       -16.9839
  10   2.0000      -0.522118       -14.2076
  11   2.0000      -0.400564       -10.8999
  12   2.0000      -0.365797        -9.9538
  13   2.0000      -0.362936        -9.8760
  14   2.0000      -0.328790        -8.9468
  15   2.0000      -0.306716        -8.3462
  16   2.0000      -0.292073        -7.9477
  17   2.0000      -0.273476        -7.4416
  18   2.0000      -0.255784        -6.9602
  19   2.0000      -0.242137        -6.5889
  20   2.0000      -0.229875        -6.2552
  21   2.0000      -0.116216        -3.1624
  22   2.0000      -0.113370        -3.0849
  23   2.0000      -0.105948        -2.8830
  24   0.0000       0.165342         4.4992
  25   0.0000       0.190038         5.1712
  26   0.0000       0.202047         5.4980
  27   0.0000       0.212373         5.7790
  28   0.0000       0.245150         6.6709

MULLIKEN ATOMIC CHARGES
-----------------------
   0 C :    0.727822
   1 C :   -0.332220
   2 C :    0.014256
   3 C :    0.566755
   4 H :    0.045464
   5 H :   -0.043112
   6 O :   -0.716176
   7 O :   -0.796895
   8 H :   -0.115006
   9 H :   -0.075832
  10 H :   -0.067238
  11 H :   -0.149913
  12 H :   -0.057905
Sum of atomic charges:   -1.0000000

LOEWDIN ATOMIC CHARGES
----------------------
   0 C :    0.102531
   1 C :   -0.097163
   2 C :    0.004944
   3 C :   -0.280898
   4 H :    0.014977
   5 H :   -0.000061
   6 O :   -0.309419
   7 O :   -0.341764
   8 H :    0.017310
   9 H :   -0.004082
  10 H :   -0.027270
  11 H :   -0.040267
  12 H :   -0.038837

  Mayer bond orders larger than 0.100000
B(  0-C ,  1-C ) :   1.2808 B(  0-C ,  8-H ) :   0.1034 B(  0-C , 10-H ) :   0.7819
B(  0-C , 11-H ) :   0.8564 B(  0-C , 12-H ) :   0.7545 B(  1-C ,  2-C ) :   1.1787
B(  1-C ,  4-H ) :   0.1171 B(  1-C ,  5-H ) :   0.1142 B(  1-C ,  8-H ) :   0.9633
B(  1-C ,  9-H ) :   0.8744 B(  1-C , 10-H ) :   0.2057 B(  1-C , 11-H ) :   0.2247
B(  1-C , 12-H ) :   0.2159 B(  2-C ,  3-C ) :   0.9728 B(  2-C ,  4-H ) :   0.8430
B(  2-C ,  5-H ) :   0.9384 B(  2-C ,  8-H ) :   0.1289 B(  2-C ,  9-H ) :   0.1078
B(  3-C ,  5-H ) :   0.1382 B(  3-C ,  6-O ) :   1.4277 B(  3-C ,  7-O ) :   1.3470

Dispersion correction           -0.000202209
FINAL SINGLE POINT ENERGY      -306.798099322819

DIPOLE MOMENT
-------------
                                X             Y             Z
Electronic contribution:     -7.20958       1.47223       3.11737
Nuclear contribution   :      9.31936      -1.53308      -4.48293
                        -----------------------------------------
Total Dipole Moment    :      2.10978      -0.06085      -1.36556
                        -----------------------------------------
Magnitude (a.u.)       :      2.51389
Magnitude (Debye)      :      6.38981

Rotational constants in cm-1:     0.250458     0.077448     0.063252
Rotational constants in MHz :  7508.538874  2321.842942  1896.252250

                             ****ORCA TERMINATED NORMALLY****
TOTAL RUN TIME: 0 days 0 hours 0 minutes 18 seconds 515 msec
