                         Program Version 5.0.0 -  RELEASE  -
|  1> !M062X D3Zero RIJCOSX def2-SVPD def2/J TightSCF
|  2> *xyz 1 1
|  3> C          0.64866        1.00359       -3.64560
|  4> N          0.28128        0.67645       -2.24018
|  5> C          0.13297        2.38587       -4.02462
|  6> C         -1.36646        2.47911       -4.31393
|  7> H          0.39079       -0.31925       -2.02649
|  8> H         -0.69269        0.99010       -2.13812
|  9> H          0.85421        1.21221       -1.57528
| 10> H          0.19099        0.23965       -4.27575
| 11> H          1.73157        0.93173       -3.75075
| 12> H          0.41484        3.10285       -3.24517
| 13> H          0.68317        2.68756       -4.91972
| 14> H         -1.62719        1.77449       -5.07580
| 15> H         -1.60483        3.46796       -4.64597
| 16> H         -1.91603        2.26007       -3.42236
| 17> *
| 18> %MaxCore 64000
| 19>
| 20> %pal nprocs 4
| 21> end
| 22>
| 23> %scf
| 24>   MaxIter 150
| 25> end
| 26>
| 27>
| 28>                          ****END OF INPUT****

CARTESIAN COORDINATES (ANGSTROEM)
---------------------------------
  C      0.648660    1.003590   -3.645600
  N      0.281280    0.676450   -2.240180
  C      0.132970    2.385870   -4.024620
  C     -1.366460    2.479110   -4.313930
  H      0.390790   -0.319250   -2.026490
  H     -0.692690    0.990100   -2.138120
  H      0.854210    1.212210   -1.575280
  H      0.190990    0.239650   -4.275750
  H      1.731570    0.931730   -3.750750
  H      0.414840    3.102850   -3.245170
  H      0.683170    2.687560   -4.919720
  H     -1.627190    1.774490   -5.075800
  H     -1.604830    3.467960   -4.645970
  H     -1.916030    2.260070   -3.422360

 Total Charge           Charge          ....    1
 Multiplicity           Mult            ....    1
 Number of Electrons    NEL             ....   34
 Basis Dimension        Dim             ....  160

ORBITAL ENERGIES
----------------

  NO   OCC          E(Eh)            E(eV)
   0   2.0000     -15.090621      -410.6367
   1   2.0000     -10.799231      -293.8620
   2   2.0000     -10.730611      -291.9948
   3   2.0000     -10.697703      -291.0993
   4   2.0000      -1.308756       -35.6131
   5   2.0000      -1.063113       -28.9288
   6   2.0000      -0.966683       -26.3048
   7   2.0000      -0.881973       -23.9997
   8   2.0000      -0.871612       -23.7178
   9   2.0000      -0.843550       -22.9542
  10   2.0000      -0.759378       -20.6637
  11   2.0000      -0.697453       -18.9787
  12   2.0000      -0.677061       -18.4238
  13   2.0000      -0.652253       -17.7487
  14   2.0000      -0.591040       -16.0830
  15   2.0000      -0.579753       -15.7759
  16   2.0000      -0.577168       -15.7055
  17   0.0000      -0.162383        -4.4187
  18   0.0000      -0.105612        -2.8738
  19   0.0000      -0.102254        -2.7825
  20   0.0000      -0.094066        -2.5597
  21   0.0000      -0.067607        -1.8397

MULLIKEN ATOMIC CHARGES
-----------------------
   0 C :    0.586109
   1 N :   -0.891617
   2 C :   -0.373688
   3 C :    0.735840
   4 H :    0.342448
   5 H :    0.414089
   6 H :    0.436150
   7 H :   -0.005267
   8 H :   -0.073921
   9 H :   -0.036046
  10 H :   -0.005837
  11 H :    0.038798
  12 H :    0.005296
  13 H :   -0.172353
Sum of atomic charges:    1.0000000

LOEWDIN ATOMIC CHARGES
----------------------
   0 C :    0.090504
   1 N :    0.328406
   2 C :   -0.051042
   3 C :    0.155313
   4 H :    0.109071
   5 H :    0.085772
   6 H :    0.111512
   7 H :    0.054081
   8 H :    0.052701
   9 H :    0.035090
  10 H :    0.044594
  11 H :   -0.000138
  12 H :    0.007934
  13 H :   -0.023798

  Mayer bond orders larger than 0.100000
B(  0-C ,  1-N ) :   0.7287 B(  0-C ,  2-C ) :   1.1720 B(  0-C ,  7-H ) :   0.9137
B(  0-C ,  8-H ) :   0.9218 B(  1-N ,  4-H ) :   0.7715 B(  1-N ,  5-H ) :   0.6565
B(  1-N ,  6-H ) :   0.6999 B(  1-N ,  8-H ) :   0.1239 B(  2-C ,  3-C ) :   1.2653
B(  2-C ,  9-H ) :   0.9733 B(  2-C , 10-H ) :   0.9403 B(  2-C , 11-H ) :   0.1787
B(  2-C , 12-H ) :   0.2126 B(  2-C , 13-H ) :   0.1782 B(  3-C , 11-H ) :   0.7887
B(  3-C , 12-H ) :   0.7996 B(  3-C , 13-H ) :   0.8345

Dispersion correction           -0.000153829
FINAL SINGLE POINT ENERGY      -174.625823167999

DIPOLE MOMENT
-------------
                                X             Y             Z
Electronic contribution:      1.31233      -1.46429       1.57434
Nuclear contribution   :     -0.74670       0.28200      -0.02386
                        -----------------------------------------
Total Dipole Moment    :      0.56563      -1.18229       1.55048
                        -----------------------------------------
Magnitude (a.u.)       :      2.03021
Magnitude (Debye)      :      5.16037

Rotational constants in cm-1:     0.472563     0.149855     0.132807
Rotational constants in MHz : 14167.078489  4492.544970  3981.441276

                             ****ORCA TERMINATED NORMALLY****
TOTAL RUN TIME: 0 days 0 hours 0 minutes 14 seconds 732 msec
