                         Program Version 5.0.0 -  RELEASE  -
|  1> !M062X D3Zero RIJCOSX def2-SVPD def2/J TightSCF
|  2> *xyz 0 1
|  3> C          0.64866        1.00359       -3.64560
|  4> C          0.13297        2.38587       -4.02462
|  5> C         -1.36646        2.47911       -4.31393
|  6> C         -2.35773        2.30686       -3.13675
|  7> H         -1.63680        1.72709       -5.06399
|  8> H         -1.58235        3.44561       -4.76869
|  9> F         -3.44376        2.84652       -3.25274
| 10> O         -1.97092        1.58304       -2.15123
| 11> H          0.41484        3.10285       -3.24517
| 12> H          0.68317        2.68756       -4.91972
| 13> H          0.37534        0.30051       -4.40446
| 14> H          0.21856        0.70606       -2.71212
| 15> H          1.71431        1.03324       -3.55398
| 16> *
| 17> %MaxCore 64000
| 18>
| 19> %pal nprocs 4
| 20> end
| 21>
| 22> %scf
| 23>   MaxIter 150
| 24> end
| 25>
| 26>
| 27>                          ****END OF INPUT****

CARTESIAN COORDINATES (ANGSTROEM)
---------------------------------
  C      0.648660    1.003590   -3.645600
  C      0.132970    2.385870   -4.024620
  C     -1.366460    2.479110   -4.313930
  C     -2.357730    2.306860   -3.136750
  H     -1.636800    1.727090   -5.063990
  H     -1.582350    3.445610   -4.768690
  F     -3.443760    2.846520   -3.252740
  O     -1.970920    1.583040   -2.151230
  H      0.414840    3.102850   -3.245170
  H      0.683170    2.687560   -4.919720
  H      0.375340    0.300510   -4.404460
  H      0.218560    0.706060   -2.712120
  H      1.714310    1.033240   -3.553980

 Total Charge           Charge          ....    0
 Multiplicity           Mult            ....    1
 Number of Electrons    NEL             ....   48
 Basis Dimension        Dim             ....  182

ORBITAL ENERGIES
----------------

  NO   OCC          E(Eh)            E(eV)
   0   2.0000     -25.345211      -689.6783
   1   2.0000     -19.645842      -534.5905
   2   2.0000     -10.744541      -292.3738
   3   2.0000     -10.584806      -288.0272
   4   2.0000     -10.562539      -287.4213
   5   2.0000     -10.530983      -286.5626
   6   2.0000      -1.477210       -40.1969
   7   2.0000      -1.128072       -30.6964
   8   2.0000      -0.900835       -24.5130
   9   2.0000      -0.822395       -22.3785
  10   2.0000      -0.767886       -20.8952
  11   2.0000      -0.697442       -18.9784
  12   2.0000      -0.664764       -18.0891
  13   2.0000      -0.638880       -17.3848
  14   2.0000      -0.589015       -16.0279
  15   2.0000      -0.534960       -14.5570
  16   2.0000      -0.524890       -14.2830
  17   2.0000      -0.489722       -13.3260
  18   2.0000      -0.462348       -12.5811
  19   2.0000      -0.426678       -11.6105
  20   2.0000      -0.418708       -11.3936
  21   2.0000      -0.411732       -11.2038
  22   2.0000      -0.403585       -10.9821
  23   2.0000      -0.360625        -9.8131
  24   0.0000       0.011207         0.3050
  25   0.0000       0.030862         0.8398
  26   0.0000       0.053120         1.4455
  27   0.0000       0.067416         1.8345
  28   0.0000       0.071355         1.9417

MULLIKEN ATOMIC CHARGES
-----------------------
   0 C :    0.719924
   1 C :   -0.359370
   2 C :   -0.079703
   3 C :    0.826702
   4 H :    0.140218
   5 H :    0.035980
   6 F :   -0.377838
   7 O :   -0.567894
   8 H :   -0.083477
   9 H :   -0.037122
  10 H :   -0.043390
  11 H :   -0.151949
  12 H :   -0.022080
Sum of atomic charges:    0.0000000

LOEWDIN ATOMIC CHARGES
----------------------
   0 C :    0.127264
   1 C :   -0.068118
   2 C :    0.043148
   3 C :    0.020204
   4 H :    0.042685
   5 H :    0.022876
   6 F :   -0.021172
   7 O :   -0.156208
   8 H :    0.030262
   9 H :    0.021715
  10 H :   -0.014548
  11 H :   -0.032038
  12 H :   -0.016070

  Mayer bond orders larger than 0.100000
B(  0-C ,  1-C ) :   1.3072 B(  0-C ,  8-H ) :   0.1010 B(  0-C , 10-H ) :   0.7809
B(  0-C , 11-H ) :   0.8624 B(  0-C , 12-H ) :   0.7656 B(  1-C ,  2-C ) :   1.2366
B(  1-C ,  4-H ) :   0.1119 B(  1-C ,  5-H ) :   0.1208 B(  1-C ,  8-H ) :   0.9700
B(  1-C ,  9-H ) :   0.8863 B(  1-C , 10-H ) :   0.1977 B(  1-C , 11-H ) :   0.2116
B(  1-C , 12-H ) :   0.2070 B(  2-C ,  3-C ) :   1.0769 B(  2-C ,  4-H ) :   0.8245
B(  2-C ,  5-H ) :   0.8982 B(  2-C ,  8-H ) :   0.1188 B(  3-C ,  6-F ) :   0.7116
B(  3-C ,  7-O ) :   1.7290

Dispersion correction           -0.000194830
FINAL SINGLE POINT ENERGY      -331.317054366448

DIPOLE MOMENT
-------------
                                X             Y             Z
Electronic contribution:    -11.43726       2.90492       3.60701
Nuclear contribution   :     11.62992      -2.38586      -4.66016
                        -----------------------------------------
Total Dipole Moment    :      0.19267       0.51906      -1.05316
                        -----------------------------------------
Magnitude (a.u.)       :      1.18982
Magnitude (Debye)      :      3.02429

Rotational constants in cm-1:     0.249088     0.072929     0.060128
Rotational constants in MHz :  7467.482637  2186.350475  1802.579568

                             ****ORCA TERMINATED NORMALLY****
TOTAL RUN TIME: 0 days 0 hours 0 minutes 20 seconds 624 msec
