                         Program Version 5.0.0 -  RELEASE  -
|  1> !M062X D3Zero RIJCOSX def2-SVPD def2/J TightSCF
|  2> *xyz 0 1
|  3> C          0.64866        1.00359       -3.64560
|  4> C          0.28128        0.67645       -2.24018
|  5> C          0.13297        2.38587       -4.02462
|  6> C         -1.36646        2.47911       -4.31393
|  7> H          0.39079       -0.31925       -2.02649
|  8> H         -0.69269        0.99010       -2.13812
|  9> H          0.85421        1.21221       -1.57528
| 10> H          0.19099        0.23965       -4.27575
| 11> H          1.73157        0.93173       -3.75075
| 12> H          0.41484        3.10285       -3.24517
| 13> H          0.68317        2.68756       -4.91972
| 14> H         -1.62719        1.77449       -5.07580
| 15> H         -1.60483        3.46796       -4.64597
| 16> H         -1.91603        2.26007       -3.42236
| 17> *
| 18> %MaxCore 64000
| 19>
| 20> %pal nprocs 4
| 21> end
| 22>
| 23> %scf
| 24>   MaxIter 150
| 25> end
| 26>
| 27>
| 28>                          ****END OF INPUT****

CARTESIAN COORDINATES (ANGSTROEM)
---------------------------------
  C      0.648660    1.003590   -3.645600
  C      0.281280    0.676450   -2.240180
  C      0.132970    2.385870   -4.024620
  C     -1.366460    2.479110   -4.313930
  H      0.390790   -0.319250   -2.026490
  H     -0.692690    0.990100   -2.138120
  H      0.854210    1.212210   -1.575280
  H      0.190990    0.239650   -4.275750
  H      1.731570    0.931730   -3.750750
  H      0.414840    3.102850   -3.245170
  H      0.683170    2.687560   -4.919720
  H     -1.627190    1.774490   -5.075800
  H     -1.604830    3.467960   -4.645970
  H     -1.916030    2.260070   -3.422360

 Total Charge           Charge          ....    0
 Multiplicity           Mult            ....    1
 Number of Electrons    NEL             ....   34
 Basis Dimension        Dim             ....  160

ORBITAL ENERGIES
----------------

  NO   OCC          E(Eh)            E(eV)
   0   2.0000     -10.539538      -286.7954
   1   2.0000     -10.534704      -286.6639
   2   2.0000     -10.531746      -286.5834
   3   2.0000     -10.510800      -286.0134
   4   2.0000      -0.895091       -24.3567
   5   2.0000      -0.816518       -22.2186
   6   2.0000      -0.723435       -19.6857
   7   2.0000      -0.644168       -17.5287
   8   2.0000      -0.540699       -14.7132
   9   2.0000      -0.528248       -14.3744
  10   2.0000      -0.495109       -13.4726
  11   2.0000      -0.460456       -12.5296
  12   2.0000      -0.441092       -12.0027
  13   2.0000      -0.425738       -11.5849
  14   2.0000      -0.385531       -10.4908
  15   2.0000      -0.384023       -10.4498
  16   2.0000      -0.372855       -10.1459
  17   0.0000       0.045252         1.2314
  18   0.0000       0.067014         1.8235
  19   0.0000       0.071326         1.9409
  20   0.0000       0.077644         2.1128
  21   0.0000       0.124658         3.3921

MULLIKEN ATOMIC CHARGES
-----------------------
   0 C :   -0.270762
   1 C :    1.137128
   2 C :   -0.354022
   3 C :    0.725612
   4 H :   -0.205939
   5 H :   -0.431960
   6 H :   -0.059326
   7 H :   -0.036919
   8 H :   -0.156420
   9 H :   -0.058606
  10 H :   -0.104316
  11 H :    0.024317
  12 H :   -0.031831
  13 H :   -0.176954
Sum of atomic charges:    0.0000000

LOEWDIN ATOMIC CHARGES
----------------------
   0 C :   -0.082326
   1 C :    0.126352
   2 C :   -0.086278
   3 C :    0.127169
   4 H :   -0.031452
   5 H :   -0.045929
   6 H :   -0.026539
   7 H :    0.023389
   8 H :    0.020827
   9 H :    0.024412
  10 H :    0.013538
  11 H :   -0.016057
  12 H :   -0.018078
  13 H :   -0.029028

  Mayer bond orders larger than 0.100000
B(  0-C ,  1-C ) :   1.1963 B(  0-C ,  2-C ) :   1.1664 B(  0-C ,  4-H ) :   0.2082
B(  0-C ,  5-H ) :   0.3117 B(  0-C ,  6-H ) :   0.2237 B(  0-C ,  7-H ) :   0.9029
B(  0-C ,  8-H ) :   0.9718 B(  0-C ,  9-H ) :   0.1056 B(  1-C ,  4-H ) :   0.7032
B(  1-C ,  5-H ) :   0.6079 B(  1-C ,  6-H ) :   0.6477 B(  2-C ,  3-C ) :   1.2559
B(  2-C ,  8-H ) :   0.1015 B(  2-C ,  9-H ) :   0.9472 B(  2-C , 10-H ) :   0.9781
B(  2-C , 11-H ) :   0.2040 B(  2-C , 12-H ) :   0.2159 B(  2-C , 13-H ) :   0.1997
B(  3-C , 11-H ) :   0.7752 B(  3-C , 12-H ) :   0.7712 B(  3-C , 13-H ) :   0.8474
B(  5-H ,  6-H ) :   0.1673

Dispersion correction           -0.000148336
FINAL SINGLE POINT ENERGY      -158.227308926085

DIPOLE MOMENT
-------------
                                X             Y             Z
Electronic contribution:      0.65004       0.02013      -0.38661
Nuclear contribution   :     -0.63302      -0.01177       0.37643
                        -----------------------------------------
Total Dipole Moment    :      0.01702       0.00836      -0.01018
                        -----------------------------------------
Magnitude (a.u.)       :      0.02152
Magnitude (Debye)      :      0.05471

Rotational constants in cm-1:     0.480601     0.156500     0.138605
Rotational constants in MHz : 14408.061205  4691.756081  4155.280646

                             ****ORCA TERMINATED NORMALLY****
TOTAL RUN TIME: 0 days 0 hours 0 minutes 13 seconds 509 msec
