                         Program Version 5.0.0 -  RELEASE  -
|  1> !M062X D3Zero RIJCOSX def2-SVPD def2/J TightSCF
|  2> *xyz 0 1
|  3> C          0.64866        1.00359       -3.64560
|  4> C          0.13297        2.38587       -4.02462
|  5> C         -1.36646        2.47911       -4.31393
|  6> C         -2.35773        2.30686       -3.13675
|  7> H         -1.63680        1.72709       -5.06399
|  8> H         -1.58235        3.44561       -4.76869
|  9> O         -3.44376        2.84652       -3.25274
| 10> F         -1.97092        1.58304       -2.15123
| 11> H          0.41484        3.10285       -3.24517
| 12> H          0.68317        2.68756       -4.91972
| 13> H          0.37534        0.30051       -4.40446
| 14> H          0.21856        0.70606       -2.71212
| 15> H          1.71431        1.03324       -3.55398
| 16> *
| 17> %MaxCore 64000
| 18>
| 19> %pal nprocs 4
| 20> end
| 21>
| 22> %scf
| 23>   MaxIter 150
| 24> end
| 25>
| 26>
| 27>                          ****END OF INPUT****

CARTESIAN COORDINATES (ANGSTROEM)
---------------------------------
  C      0.648660    1.003590   -3.645600
  C      0.132970    2.385870   -4.024620
  C     -1.366460    2.479110   -4.313930
  C     -2.357730    2.306860   -3.136750
  H     -1.636800    1.727090   -5.063990
  H     -1.582350    3.445610   -4.768690
  O     -3.443760    2.846520   -3.252740
  F     -1.970920    1.583040   -2.151230
  H      0.414840    3.102850   -3.245170
  H      0.683170    2.687560   -4.919720
  H      0.375340    0.300510   -4.404460
  H      0.218560    0.706060   -2.712120
  H      1.714310    1.033240   -3.553980

 Total Charge           Charge          ....    0
 Multiplicity           Mult            ....    1
 Number of Electrons    NEL             ....   48
 Basis Dimension        Dim             ....  182

ORBITAL ENERGIES
----------------

  NO   OCC          E(Eh)            E(eV)
   0   2.0000     -25.320602      -689.0086
   1   2.0000     -19.654845      -534.8355
   2   2.0000     -10.737961      -292.1948
   3   2.0000     -10.582860      -287.9743
   4   2.0000     -10.567009      -287.5429
   5   2.0000     -10.544802      -286.9387
   6   2.0000      -1.427091       -38.8331
   7   2.0000      -1.169188       -31.8152
   8   2.0000      -0.906284       -24.6612
   9   2.0000      -0.816605       -22.2210
  10   2.0000      -0.747220       -20.3329
  11   2.0000      -0.698529       -19.0079
  12   2.0000      -0.636567       -17.3219
  13   2.0000      -0.626201       -17.0398
  14   2.0000      -0.584431       -15.9032
  15   2.0000      -0.534586       -14.5468
  16   2.0000      -0.528846       -14.3906
  17   2.0000      -0.500512       -13.6196
  18   2.0000      -0.485382       -13.2079
  19   2.0000      -0.445477       -12.1221
  20   2.0000      -0.434915       -11.8346
  21   2.0000      -0.412528       -11.2255
  22   2.0000      -0.410874       -11.1804
  23   2.0000      -0.371493       -10.1088
  24   0.0000       0.015979         0.4348
  25   0.0000       0.032250         0.8776
  26   0.0000       0.056096         1.5265
  27   0.0000       0.060807         1.6547
  28   0.0000       0.068242         1.8570

MULLIKEN ATOMIC CHARGES
-----------------------
   0 C :    0.720726
   1 C :   -0.323633
   2 C :   -0.080253
   3 C :    0.810015
   4 H :    0.130532
   5 H :    0.026954
   6 O :   -0.487911
   7 F :   -0.453607
   8 H :   -0.090691
   9 H :   -0.030673
  10 H :   -0.038601
  11 H :   -0.163451
  12 H :   -0.019408
Sum of atomic charges:    0.0000000

LOEWDIN ATOMIC CHARGES
----------------------
   0 C :    0.123333
   1 C :   -0.078413
   2 C :    0.053722
   3 C :    0.020092
   4 H :    0.043725
   5 H :    0.032984
   6 O :   -0.121686
   7 F :   -0.065289
   8 H :    0.027663
   9 H :    0.022376
  10 H :   -0.013590
  11 H :   -0.030636
  12 H :   -0.014281

  Mayer bond orders larger than 0.100000
B(  0-C ,  1-C ) :   1.2936 B(  0-C , 10-H ) :   0.7880 B(  0-C , 11-H ) :   0.8557
B(  0-C , 12-H ) :   0.7756 B(  1-C ,  2-C ) :   1.2113 B(  1-C ,  4-H ) :   0.1163
B(  1-C ,  5-H ) :   0.1064 B(  1-C ,  8-H ) :   0.9680 B(  1-C ,  9-H ) :   0.8764
B(  1-C , 10-H ) :   0.1985 B(  1-C , 11-H ) :   0.2033 B(  1-C , 12-H ) :   0.2069
B(  2-C ,  3-C ) :   1.0458 B(  2-C ,  4-H ) :   0.8222 B(  2-C ,  5-H ) :   0.9419
B(  2-C ,  8-H ) :   0.1237 B(  2-C ,  9-H ) :   0.1105 B(  3-C ,  5-H ) :   0.1191
B(  3-C ,  6-O ) :   1.8092 B(  3-C ,  7-F ) :   0.6480

Dispersion correction           -0.000209822
FINAL SINGLE POINT ENERGY      -331.334986682591

DIPOLE MOMENT
-------------
                                X             Y             Z
Electronic contribution:     -8.87022       0.75908       5.43062
Nuclear contribution   :      9.96624      -0.95867      -5.90440
                        -----------------------------------------
Total Dipole Moment    :      1.09603      -0.19959      -0.47378
                        -----------------------------------------
Magnitude (a.u.)       :      1.21061
Magnitude (Debye)      :      3.07712

Rotational constants in cm-1:     0.233484     0.076940     0.061803
Rotational constants in MHz :  6999.682494  2306.588565  1852.797552

                             ****ORCA TERMINATED NORMALLY****
TOTAL RUN TIME: 0 days 0 hours 0 minutes 20 seconds 530 msec
