                         Program Version 5.0.0 -  RELEASE  -
|  1> !PBE D3BJ RIJCOSX def2-SVPD def2/J TightSCF
|  2> *xyz -1 1
|  3> C         -2.79070       -0.78527        5.70281
|  4> C         -2.45380        0.05510        6.94145
|  5> C         -2.07842        1.48042        6.56410
|  6> H         -1.62558       -0.38216        7.49891
|  7> H         -3.32527        0.08775        7.59917
|  8> O         -0.90125        1.85816        6.82810
|  9> O         -2.93658        2.17731        5.96415
| 10> H         -1.94052       -0.82114        5.05412
| 11> H         -3.61590       -0.34261        5.18514
| 12> H         -3.05063       -1.77815        6.00536
| 13> *
| 14> %MaxCore 64000
| 15>
| 16> %pal nprocs 4
| 17> end
| 18>
| 19> %scf
| 20>   MaxIter 150
| 21> end
| 22>
| 23>
| 24>                          ****END OF INPUT****

CARTESIAN COORDINATES (ANGSTROEM)
---------------------------------
  C     -2.790700   -0.785270    5.702810
  C     -2.453800    0.055100    6.941450
  C     -2.078420    1.480420    6.564100
  H     -1.625580   -0.382160    7.498910
  H     -3.325270    0.087750    7.599170
  O     -0.901250    1.858160    6.828100
  O     -2.936580    2.177310    5.964150
  H     -1.940520   -0.821140    5.054120
  H     -3.615900   -0.342610    5.185140
  H     -3.050630   -1.778150    6.005360

 Total Charge           Charge          ....   -1
 Multiplicity           Mult            ....    1
 Number of Electrons    NEL             ....   40
 Basis Dimension        Dim             ....  146

ORBITAL ENERGIES
----------------

  NO   OCC          E(Eh)            E(eV)
   0   2.0000     -18.506169      -503.5785
   1   2.0000     -18.504542      -503.5342
   2   2.0000      -9.772099      -265.9123
   3   2.0000      -9.734797      -264.8973
   4   2.0000      -9.722217      -264.5550
   5   2.0000      -0.723167       -19.6784
   6   2.0000      -0.633678       -17.2433
   7   2.0000      -0.529203       -14.4004
   8   2.0000      -0.406524       -11.0621
   9   2.0000      -0.267182        -7.2704
  10   2.0000      -0.243990        -6.6393
  11   2.0000      -0.207834        -5.6554
  12   2.0000      -0.184897        -5.0313
  13   2.0000      -0.167512        -4.5582
  14   2.0000      -0.159738        -4.3467
  15   2.0000      -0.131014        -3.5651
  16   2.0000      -0.120590        -3.2814
  17   2.0000      -0.013428        -0.3654
  18   2.0000      -0.000070        -0.0019
  19   2.0000       0.018579         0.5056
  20   0.0000       0.138926         3.7804
  21   0.0000       0.172350         4.6899
  22   0.0000       0.186700         5.0804
  23   0.0000       0.198911         5.4126
  24   0.0000       0.213489         5.8093

MULLIKEN ATOMIC CHARGES
-----------------------
   0 C :    0.535041
   1 C :   -0.310121
   2 C :    0.383649
   3 H :   -0.042876
   4 H :   -0.007076
   5 O :   -0.668750
   6 O :   -0.684691
   7 H :   -0.080670
   8 H :   -0.037616
   9 H :   -0.086890
Sum of atomic charges:   -1.0000000

LOEWDIN ATOMIC CHARGES
----------------------
   0 C :    0.100288
   1 C :   -0.046559
   2 C :   -0.326984
   3 H :   -0.003253
   4 H :    0.005984
   5 O :   -0.321335
   6 O :   -0.309591
   7 H :   -0.023275
   8 H :   -0.029294
   9 H :   -0.045981

  Mayer bond orders larger than 0.100000
B(  0-C ,  1-C ) :   1.3262 B(  0-C ,  7-H ) :   0.8508 B(  0-C ,  8-H ) :   0.8277
B(  0-C ,  9-H ) :   0.8496 B(  1-C ,  2-C ) :   1.0789 B(  1-C ,  3-H ) :   0.9593
B(  1-C ,  4-H ) :   0.8873 B(  1-C ,  7-H ) :   0.1811 B(  1-C ,  8-H ) :   0.2007
B(  1-C ,  9-H ) :   0.1661 B(  2-C ,  3-H ) :   0.1858 B(  2-C ,  5-O ) :   1.4336
B(  2-C ,  6-O ) :   1.4804

Dispersion correction           -0.006548795
FINAL SINGLE POINT ENERGY      -267.356897716389

DIPOLE MOMENT
-------------
                                X             Y             Z
Electronic contribution:      1.64918       5.61226       0.66605
Nuclear contribution   :     -2.24498      -7.51881      -0.57245
                        -----------------------------------------
Total Dipole Moment    :     -0.59581      -1.90655       0.09359
                        -----------------------------------------
Magnitude (a.u.)       :      1.99967
Magnitude (Debye)      :      5.08276

Rotational constants in cm-1:     0.305589     0.135336     0.107479
Rotational constants in MHz :  9161.317320  4057.276612  3222.126231

                             ****ORCA TERMINATED NORMALLY****
TOTAL RUN TIME: 0 days 0 hours 0 minutes 8 seconds 664 msec
