                         Program Version 5.0.0 -  RELEASE  -
|  1> !PBE D3BJ RIJCOSX def2-SVPD def2/J TightSCF
|  2> *xyz 1 1
|  3> C         -0.69912        3.48945        3.75516
|  4> H         -0.96672        4.34901        3.14049
|  5> N         -1.08067        3.79296        5.15686
|  6> C          0.77696        3.13839        3.61741
|  7> H         -1.33146        2.65651        3.44632
|  8> H         -0.87449        4.76274        5.42734
|  9> H         -0.68079        3.13476        5.83900
| 10> H         -2.05755        3.53169        5.34620
| 11> H          0.99957        2.92898        2.59199
| 12> H          0.99576        2.27685        4.21303
| 13> H          1.37223        3.96279        3.95046
| 14> *
| 15> %MaxCore 64000
| 16>
| 17> %pal nprocs 4
| 18> end
| 19>
| 20> %scf
| 21>   MaxIter 150
| 22> end
| 23>
| 24>
| 25>                          ****END OF INPUT****

CARTESIAN COORDINATES (ANGSTROEM)
---------------------------------
  C     -0.699120    3.489450    3.755160
  H     -0.966720    4.349010    3.140490
  N     -1.080670    3.792960    5.156860
  C      0.776960    3.138390    3.617410
  H     -1.331460    2.656510    3.446320
  H     -0.874490    4.762740    5.427340
  H     -0.680790    3.134760    5.839000
  H     -2.057550    3.531690    5.346200
  H      0.999570    2.928980    2.591990
  H      0.995760    2.276850    4.213030
  H      1.372230    3.962790    3.950460

 Total Charge           Charge          ....    1
 Multiplicity           Mult            ....    1
 Number of Electrons    NEL             ....   26
 Basis Dimension        Dim             ....  124

ORBITAL ENERGIES
----------------

  NO   OCC          E(Eh)            E(eV)
   0   2.0000     -14.335221      -390.0812
   1   2.0000     -10.150325      -276.2044
   2   2.0000     -10.072000      -274.0730
   3   2.0000      -1.131880       -30.8000
   4   2.0000      -0.894240       -24.3335
   5   2.0000      -0.783308       -21.3149
   6   2.0000      -0.765201       -20.8222
   7   2.0000      -0.717689       -19.5293
   8   2.0000      -0.653051       -17.7704
   9   2.0000      -0.596744       -16.2382
  10   2.0000      -0.539985       -14.6937
  11   2.0000      -0.525995       -14.3130
  12   2.0000      -0.507900       -13.8207
  13   0.0000      -0.219490        -5.9726
  14   0.0000      -0.164551        -4.4777
  15   0.0000      -0.160059        -4.3554
  16   0.0000      -0.145468        -3.9584
  17   0.0000      -0.113850        -3.0980

MULLIKEN ATOMIC CHARGES
-----------------------
   0 C :    0.252899
   1 H :   -0.103358
   2 N :   -0.798236
   3 C :    0.640922
   4 H :   -0.060247
   5 H :    0.396902
   6 H :    0.376541
   7 H :    0.349280
   8 H :   -0.024135
   9 H :   -0.039780
  10 H :    0.009212
Sum of atomic charges:    1.0000000

LOEWDIN ATOMIC CHARGES
----------------------
   0 C :    0.049452
   1 H :    0.055456
   2 N :    0.328933
   3 C :    0.174841
   4 H :    0.053290
   5 H :    0.112560
   6 H :    0.102483
   7 H :    0.104294
   8 H :    0.016020
   9 H :    0.000328
  10 H :    0.002343

  Mayer bond orders larger than 0.100000
B(  0-C ,  1-H ) :   0.9058 B(  0-C ,  2-N ) :   0.7541 B(  0-C ,  3-C ) :   1.3658
B(  0-C ,  4-H ) :   0.8966 B(  0-C ,  8-H ) :   0.1905 B(  0-C ,  9-H ) :   0.1776
B(  0-C , 10-H ) :   0.1575 B(  1-H ,  2-N ) :   0.1223 B(  2-N ,  5-H ) :   0.6933
B(  2-N ,  6-H ) :   0.7359 B(  2-N ,  7-H ) :   0.7625 B(  3-C ,  8-H ) :   0.8156
B(  3-C ,  9-H ) :   0.8337 B(  3-C , 10-H ) :   0.8060

Dispersion correction           -0.006131728
FINAL SINGLE POINT ENERGY      -135.254178760286

DIPOLE MOMENT
-------------
                                X             Y             Z
Electronic contribution:     -1.31542       0.57025       1.08626
Nuclear contribution   :      0.33986      -0.24565       0.10678
                        -----------------------------------------
Total Dipole Moment    :     -0.97556       0.32460       1.19304
                        -----------------------------------------
Magnitude (a.u.)       :      1.57494
Magnitude (Debye)      :      4.00318

Rotational constants in cm-1:     1.016237     0.277523     0.247812
Rotational constants in MHz : 30466.024354  8319.937961  7429.230177

                             ****ORCA TERMINATED NORMALLY****
TOTAL RUN TIME: 0 days 0 hours 0 minutes 7 seconds 408 msec
