                         Program Version 5.0.0 -  RELEASE  -
|  1> !PBE D3BJ RIJCOSX def2-SVPD def2/J TightSCF xyzfile
|  2>
|  3> *xyzfile 0 1 B.xyz
|  4>
|  5> %MaxCore 64000
|  6>
|  7> %pal nprocs 4
|  8> end
|  9>
| 10> %scf
| 11>   MaxIter 150
| 12> end
| 13>
| 14>
| 15>                          ****END OF INPUT****

CARTESIAN COORDINATES (ANGSTROEM)
---------------------------------
  C     -0.699123    3.489451    3.755163
  H     -0.966716    4.349013    3.140491
  N     -1.080669    3.792957    5.156857
  C      0.776956    3.138391    3.617408
  H     -1.331455    2.656510    3.446323
  H      1.371398    3.888342    4.149744
  H      1.046926    3.232057    2.561331
  C      1.118917    1.731170    4.115155
  H      2.200573    1.654226    4.254882
  C      0.659466    0.635182    3.153306
  H      0.677024    1.576674    5.103150
  H      1.312288    0.638870    2.274207
  H     -0.339563    0.868049    2.772876
  C      0.639957   -0.771175    3.755619
  C     -0.341821   -0.965537    4.915046
  H      1.648266   -1.028665    4.097015
  H      0.398568   -1.482386    2.958453
  H     -0.279892   -2.005646    5.252547
  C     -1.789164   -0.639231    4.557496
  H     -0.032380   -0.352918    5.765118
  H     -2.107151   -1.270102    3.719619
  H     -1.856352    0.391636    4.197604
  C     -2.790700   -0.785275    5.702812
  H     -2.867308   -1.835651    6.001675
  H     -3.774554   -0.486577    5.334807
  C     -2.453797    0.055101    6.941445
  C     -2.078419    1.480421    6.564098
  H     -1.625584   -0.382163    7.498914
  H     -3.325274    0.087746    7.599175
  H     -0.874488    4.762737    5.427344
  H     -0.680793    3.134762    5.839000
  H     -2.057550    3.531691    5.346197
  O     -0.901252    1.858156    6.828104
  O     -2.936582    2.177309    5.964151

 Total Charge           Charge          ....    0
 Multiplicity           Mult            ....    1
 Number of Electrons    NEL             ....  104
 Basis Dimension        Dim             ....  434

ORBITAL ENERGIES
----------------

  NO   OCC          E(Eh)            E(eV)
   0   2.0000     -18.706690      -509.0349
   1   2.0000     -18.705284      -508.9966
   2   2.0000     -14.078504      -383.0956
   3   2.0000      -9.964347      -271.1437
   4   2.0000      -9.964190      -271.1394
   5   2.0000      -9.919547      -269.9246
   6   2.0000      -9.895964      -269.2829
   7   2.0000      -9.892811      -269.1971
   8   2.0000      -9.886211      -269.0175
   9   2.0000      -9.877302      -268.7750
  10   2.0000      -9.877247      -268.7736
  11   2.0000      -9.876001      -268.7397
  12   2.0000      -9.868686      -268.5406
  13   2.0000      -0.934487       -25.4287
  14   2.0000      -0.893933       -24.3252
  15   2.0000      -0.838038       -22.8042
  16   2.0000      -0.743709       -20.2373
  17   2.0000      -0.716515       -19.4974
  18   2.0000      -0.690339       -18.7851
  19   2.0000      -0.647453       -17.6181
  20   2.0000      -0.617713       -16.8088
  21   2.0000      -0.581927       -15.8350
  22   2.0000      -0.547775       -14.9057
  23   2.0000      -0.539320       -14.6756
  24   2.0000      -0.516214       -14.0469
  25   2.0000      -0.497481       -13.5371
  26   2.0000      -0.485976       -13.2241
  27   2.0000      -0.454507       -12.3678
  28   2.0000      -0.427770       -11.6402
  29   2.0000      -0.425235       -11.5712
  30   2.0000      -0.422547       -11.4981
  31   2.0000      -0.397978       -10.8295
  32   2.0000      -0.392951       -10.6927
  33   2.0000      -0.386956       -10.5296
  34   2.0000      -0.374290       -10.1850
  35   2.0000      -0.364831        -9.9275
  36   2.0000      -0.354798        -9.6545
  37   2.0000      -0.351613        -9.5679
  38   2.0000      -0.343871        -9.3572
  39   2.0000      -0.335873        -9.1396
  40   2.0000      -0.320532        -8.7221
  41   2.0000      -0.316055        -8.6003
  42   2.0000      -0.309302        -8.4165
  43   2.0000      -0.295043        -8.0285
  44   2.0000      -0.286578        -7.7982
  45   2.0000      -0.282238        -7.6801
  46   2.0000      -0.269734        -7.3398
  47   2.0000      -0.263664        -7.1747
  48   2.0000      -0.258073        -7.0225
  49   2.0000      -0.213835        -5.8188
  50   2.0000      -0.195849        -5.3293
  51   2.0000      -0.189169        -5.1476
  52   0.0000      -0.026115        -0.7106
  53   0.0000       0.003049         0.0830
  54   0.0000       0.007403         0.2015
  55   0.0000       0.011943         0.3250
  56   0.0000       0.018653         0.5076

MULLIKEN ATOMIC CHARGES
-----------------------
   0 C :    1.082678
   1 H :   -0.237760
   2 N :   -0.690529
   3 C :    0.327901
   4 H :   -0.282617
   5 H :   -0.079455
   6 H :   -0.068824
   7 C :    0.695299
   8 H :   -0.005108
   9 C :    0.005025
  10 H :   -0.691518
  11 H :   -0.277279
  12 H :   -0.102967
  13 C :    0.725202
  14 C :   -0.017637
  15 H :   -0.139901
  16 H :    0.034811
  17 H :   -0.300768
  18 C :    0.239097
  19 H :    0.032054
  20 H :   -0.094202
  21 H :   -0.488903
  22 C :    0.458547
  23 H :   -0.204867
  24 H :    0.080513
  25 C :    0.325641
  26 C :    0.309049
  27 H :    0.133135
  28 H :   -0.189719
  29 H :    0.322241
  30 H :    0.273022
  31 H :    0.242428
  32 O :   -0.721081
  33 O :   -0.693508
Sum of atomic charges:   -0.0000000

LOEWDIN ATOMIC CHARGES
----------------------
   0 C :    0.093082
   1 H :    0.032437
   2 N :    0.327880
   3 C :   -0.012524
   4 H :    0.024865
   5 H :    0.024808
   6 H :    0.028664
   7 C :   -0.009425
   8 H :    0.031242
   9 C :   -0.033699
  10 H :   -0.012343
  11 H :    0.023966
  12 H :    0.000207
  13 C :   -0.028601
  14 C :   -0.023685
  15 H :    0.023564
  16 H :    0.022277
  17 H :    0.027329
  18 C :   -0.029580
  19 H :    0.000779
  20 H :    0.027943
  21 H :   -0.004122
  22 C :   -0.019719
  23 H :    0.020104
  24 H :    0.024547
  25 C :    0.034112
  26 C :   -0.211689
  27 H :    0.018391
  28 H :    0.029250
  29 H :    0.089692
  30 H :   -0.059697
  31 H :   -0.024616
  32 O :   -0.222136
  33 O :   -0.213304

  Mayer bond orders larger than 0.100000
B(  0-C ,  1-H ) :   0.6904 B(  0-C ,  2-N ) :   0.6594 B(  0-C ,  3-C ) :   1.1675
B(  0-C ,  4-H ) :   0.6456 B(  0-C ,  6-H ) :   0.1261 B(  0-C ,  7-C ) :   0.2405
B(  0-C , 10-H ) :  -0.1901 B(  0-C , 18-C ) :   0.1105 B(  1-H ,  3-C ) :   0.1512
B(  2-N ,  4-H ) :   0.2983 B(  2-N , 26-C ) :   0.1203 B(  2-N , 29-H ) :   0.8426
B(  2-N , 30-H ) :   0.7209 B(  2-N , 31-H ) :   0.7369 B(  3-C ,  4-H ) :   0.1506
B(  3-C ,  5-H ) :   0.7131 B(  3-C ,  6-H ) :   0.7741 B(  3-C ,  7-C ) :   1.1531
B(  3-C , 10-H ) :   0.2238 B(  4-H , 12-H ) :   0.1227 B(  4-H , 21-H ) :   0.1810
B(  5-H ,  7-C ) :   0.1315 B(  7-C ,  8-H ) :   0.6682 B(  7-C ,  9-C ) :   1.1261
B(  7-C , 10-H ) :   0.3788 B(  7-C , 11-H ) :   0.2112 B(  7-C , 12-H ) :   0.1248
B(  8-H ,  9-C ) :   0.1961 B(  9-C , 10-H ) :   0.2947 B(  9-C , 11-H ) :   0.8720
B(  9-C , 12-H ) :   0.8559 B(  9-C , 13-C ) :   1.1995 B(  9-C , 14-C ) :   0.1400
B(  9-C , 15-H ) :   0.1465 B(  9-C , 16-H ) :   0.2475 B( 10-H , 13-C ) :  -0.1044
B( 10-H , 19-H ) :   0.1305 B( 13-C , 14-C ) :   1.1472 B( 13-C , 15-H ) :   0.6407
B( 13-C , 16-H ) :   0.6454 B( 14-C , 15-H ) :   0.2979 B( 14-C , 16-H ) :   0.1013
B( 14-C , 17-H ) :   0.8929 B( 14-C , 18-C ) :   1.1835 B( 14-C , 19-H ) :   0.8480
B( 14-C , 20-H ) :   0.1840 B( 14-C , 21-H ) :   0.2450 B( 15-H , 16-H ) :  -0.1345
B( 17-H , 18-C ) :   0.1679 B( 18-C , 19-H ) :   0.1159 B( 18-C , 20-H ) :   0.6647
B( 18-C , 21-H ) :   0.7445 B( 18-C , 22-C ) :   1.2492 B( 18-C , 23-H ) :   0.1934
B( 18-C , 24-H ) :   0.2549 B( 18-C , 25-C ) :   0.1393 B( 20-H , 21-H ) :   0.1371
B( 21-H , 22-C ) :   0.1664 B( 22-C , 23-H ) :   0.7794 B( 22-C , 24-H ) :   0.6265
B( 22-C , 25-C ) :   1.1679 B( 22-C , 28-H ) :   0.1732 B( 23-H , 24-H ) :  -0.1509
B( 23-H , 25-C ) :   0.1483 B( 24-H , 25-C ) :   0.1131 B( 25-C , 26-C ) :   1.1683
B( 25-C , 27-H ) :   0.7627 B( 25-C , 28-H ) :   0.6408 B( 25-C , 33-O ) :   0.1089
B( 26-C , 27-H ) :   0.1989 B( 26-C , 28-H ) :   0.2832 B( 26-C , 32-O ) :   1.3154
B( 26-C , 33-O ) :   1.2774 B( 30-H , 32-O ) :   0.2334 B( 31-H , 33-O ) :   0.2193
B( 32-O , 33-O ) :   0.1030

Dispersion correction           -0.038482729
FINAL SINGLE POINT ENERGY      -597.816770967122

DIPOLE MOMENT
-------------
                                X             Y             Z
Electronic contribution:     -4.67809       4.81176       6.73380
Nuclear contribution   :      5.60885      -3.40606      -8.06960
                        -----------------------------------------
Total Dipole Moment    :      0.93075       1.40570      -1.33580
                        -----------------------------------------
Magnitude (a.u.)       :      2.15097
Magnitude (Debye)      :      5.46732

Rotational constants in cm-1:     0.028465     0.023505     0.015110
Rotational constants in MHz :   853.363165   704.655786   452.976312

                             ****ORCA TERMINATED NORMALLY****
TOTAL RUN TIME: 0 days 0 hours 0 minutes 46 seconds 341 msec
