                         Program Version 5.0.0 -  RELEASE  -
|  1> !PBE D3BJ RIJCOSX def2-SVPD def2/J TightSCF
|  2> *xyz 0 1
|  3> C         -2.79070       -0.78527        5.70281
|  4> C         -2.45380        0.05510        6.94145
|  5> C         -2.07842        1.48042        6.56410
|  6> H         -1.62558       -0.38216        7.49891
|  7> H         -3.32527        0.08775        7.59917
|  8> F         -0.90125        1.85816        6.82810
|  9> O         -2.93658        2.17731        5.96415
| 10> H         -1.94052       -0.82114        5.05412
| 11> H         -3.61590       -0.34261        5.18514
| 12> H         -3.05063       -1.77815        6.00536
| 13> *
| 14> %MaxCore 64000
| 15>
| 16> %pal nprocs 4
| 17> end
| 18>
| 19> %scf
| 20>   MaxIter 150
| 21> end
| 22>
| 23>
| 24>                          ****END OF INPUT****

CARTESIAN COORDINATES (ANGSTROEM)
---------------------------------
  C     -2.790700   -0.785270    5.702810
  C     -2.453800    0.055100    6.941450
  C     -2.078420    1.480420    6.564100
  H     -1.625580   -0.382160    7.498910
  H     -3.325270    0.087750    7.599170
  F     -0.901250    1.858160    6.828100
  O     -2.936580    2.177310    5.964150
  H     -1.940520   -0.821140    5.054120
  H     -3.615900   -0.342610    5.185140
  H     -3.050630   -1.778150    6.005360

 Total Charge           Charge          ....    0
 Multiplicity           Mult            ....    1
 Number of Electrons    NEL             ....   40
 Basis Dimension        Dim             ....  146

ORBITAL ENERGIES
----------------

  NO   OCC          E(Eh)            E(eV)
   0   2.0000     -24.342828      -662.4020
   1   2.0000     -18.773599      -510.8556
   2   2.0000     -10.066970      -273.9362
   3   2.0000      -9.929673      -270.2001
   4   2.0000      -9.904443      -269.5136
   5   2.0000      -1.199101       -32.6292
   6   2.0000      -0.938717       -25.5438
   7   2.0000      -0.725944       -19.7540
   8   2.0000      -0.620483       -16.8842
   9   2.0000      -0.574723       -15.6390
  10   2.0000      -0.490505       -13.3473
  11   2.0000      -0.474528       -12.9126
  12   2.0000      -0.451177       -12.2771
  13   2.0000      -0.417284       -11.3549
  14   2.0000      -0.386538       -10.5182
  15   2.0000      -0.358814        -9.7638
  16   2.0000      -0.336317        -9.1516
  17   2.0000      -0.332071        -9.0361
  18   2.0000      -0.310869        -8.4592
  19   2.0000      -0.248449        -6.7606
  20   0.0000      -0.073921        -2.0115
  21   0.0000      -0.003756        -0.1022
  22   0.0000       0.028246         0.7686
  23   0.0000       0.040046         1.0897
  24   0.0000       0.053254         1.4491

MULLIKEN ATOMIC CHARGES
-----------------------
   0 C :    0.580831
   1 C :   -0.340238
   2 C :    0.684156
   3 H :   -0.022099
   4 H :    0.046415
   5 F :   -0.332844
   6 O :   -0.475084
   7 H :   -0.061022
   8 H :   -0.026730
   9 H :   -0.053385
Sum of atomic charges:    0.0000000

LOEWDIN ATOMIC CHARGES
----------------------
   0 C :    0.143849
   1 C :   -0.001298
   2 C :   -0.036634
   3 H :    0.021609
   4 H :    0.040757
   5 F :   -0.022327
   6 O :   -0.116917
   7 H :   -0.008482
   8 H :   -0.008143
   9 H :   -0.012413

  Mayer bond orders larger than 0.100000
B(  0-C ,  1-C ) :   1.3566 B(  0-C ,  7-H ) :   0.8444 B(  0-C ,  8-H ) :   0.8241
B(  0-C ,  9-H ) :   0.8423 B(  1-C ,  2-C ) :   1.1062 B(  1-C ,  3-H ) :   0.9496
B(  1-C ,  4-H ) :   0.8662 B(  1-C ,  7-H ) :   0.1663 B(  1-C ,  8-H ) :   0.1802
B(  1-C ,  9-H ) :   0.1556 B(  2-C ,  3-H ) :   0.1033 B(  2-C ,  5-F ) :   0.7668
B(  2-C ,  6-O ) :   1.7944 B(  5-F ,  6-O ) :   0.1061

Dispersion correction           -0.006221859
FINAL SINGLE POINT ENERGY      -291.875811947333

DIPOLE MOMENT
-------------
                                X             Y             Z
Electronic contribution:      3.96152       7.45195       1.47471
Nuclear contribution   :     -3.69486      -8.49563      -1.04945
                        -----------------------------------------
Total Dipole Moment    :      0.26667      -1.04368       0.42526
                        -----------------------------------------
Magnitude (a.u.)       :      1.15811
Magnitude (Debye)      :      2.94368

Rotational constants in cm-1:     0.293725     0.129218     0.102393
Rotational constants in MHz :  8805.653529  3873.869810  3069.666716

                             ****ORCA TERMINATED NORMALLY****
TOTAL RUN TIME: 0 days 0 hours 0 minutes 8 seconds 517 msec
