                         Program Version 5.0.0 -  RELEASE  -
|  1> !PBE D3BJ RIJCOSX def2-SVPD def2/J TightSCF
|  2> *xyz 0 1
|  3> C         -0.69912        3.48945        3.75516
|  4> H         -0.96672        4.34901        3.14049
|  5> C         -1.08067        3.79296        5.15686
|  6> C          0.77696        3.13839        3.61741
|  7> H         -1.33146        2.65651        3.44632
|  8> H         -0.87449        4.76274        5.42734
|  9> H         -0.68079        3.13476        5.83900
| 10> H         -2.05755        3.53169        5.34620
| 11> H          0.99957        2.92898        2.59199
| 12> H          0.99576        2.27685        4.21303
| 13> H          1.37223        3.96279        3.95046
| 14> *
| 15> %MaxCore 64000
| 16>
| 17> %pal nprocs 4
| 18> end
| 19>
| 20> %scf
| 21>   MaxIter 150
| 22> end
| 23>
| 24>
| 25>                          ****END OF INPUT****

CARTESIAN COORDINATES (ANGSTROEM)
---------------------------------
  C     -0.699120    3.489450    3.755160
  H     -0.966720    4.349010    3.140490
  C     -1.080670    3.792960    5.156860
  C      0.776960    3.138390    3.617410
  H     -1.331460    2.656510    3.446320
  H     -0.874490    4.762740    5.427340
  H     -0.680790    3.134760    5.839000
  H     -2.057550    3.531690    5.346200
  H      0.999570    2.928980    2.591990
  H      0.995760    2.276850    4.213030
  H      1.372230    3.962790    3.950460

 Total Charge           Charge          ....    0
 Multiplicity           Mult            ....    1
 Number of Electrons    NEL             ....   26
 Basis Dimension        Dim             ....  124

ORBITAL ENERGIES
----------------

  NO   OCC          E(Eh)            E(eV)
   0   2.0000      -9.884568      -268.9728
   1   2.0000      -9.874886      -268.7093
   2   2.0000      -9.858529      -268.2642
   3   2.0000      -0.712890       -19.3987
   4   2.0000      -0.619318       -16.8525
   5   2.0000      -0.523669       -14.2498
   6   2.0000      -0.422435       -11.4950
   7   2.0000      -0.391818       -10.6619
   8   2.0000      -0.355015        -9.6605
   9   2.0000      -0.350838        -9.5468
  10   2.0000      -0.298850        -8.1321
  11   2.0000      -0.286597        -7.7987
  12   2.0000      -0.284396        -7.7388
  13   0.0000       0.008951         0.2436
  14   0.0000       0.039900         1.0857
  15   0.0000       0.045891         1.2488
  16   0.0000       0.062561         1.7024
  17   0.0000       0.084423         2.2973

MULLIKEN ATOMIC CHARGES
-----------------------
   0 C :   -0.572486
   1 H :   -0.128034
   2 C :    0.954811
   3 C :    0.652251
   4 H :   -0.045328
   5 H :   -0.215049
   6 H :   -0.246282
   7 H :   -0.212057
   8 H :   -0.092732
   9 H :   -0.034119
  10 H :   -0.060974
Sum of atomic charges:   -0.0000000

LOEWDIN ATOMIC CHARGES
----------------------
   0 C :   -0.118329
   1 H :    0.022154
   2 C :    0.110790
   3 C :    0.117297
   4 H :    0.021275
   5 H :   -0.025699
   6 H :   -0.035214
   7 H :   -0.036589
   8 H :   -0.022765
   9 H :   -0.017074
  10 H :   -0.015847

  Mayer bond orders larger than 0.100000
B(  0-C ,  1-H ) :   0.9495 B(  0-C ,  2-C ) :   1.3368 B(  0-C ,  3-C ) :   1.3005
B(  0-C ,  4-H ) :   0.8989 B(  0-C ,  5-H ) :   0.2370 B(  0-C ,  6-H ) :   0.2107
B(  0-C ,  7-H ) :   0.2194 B(  0-C ,  8-H ) :   0.1992 B(  0-C ,  9-H ) :   0.1659
B(  0-C , 10-H ) :   0.1896 B(  1-H ,  2-C ) :   0.1156 B(  2-C ,  4-H ) :   0.1219
B(  2-C ,  5-H ) :   0.7183 B(  2-C ,  6-H ) :   0.6535 B(  2-C ,  7-H ) :   0.6219
B(  3-C ,  8-H ) :   0.8152 B(  3-C ,  9-H ) :   0.8289 B(  3-C , 10-H ) :   0.8230
B(  6-H ,  7-H ) :   0.2854

Dispersion correction           -0.006129553
FINAL SINGLE POINT ENERGY      -118.860284933589

DIPOLE MOMENT
-------------
                                X             Y             Z
Electronic contribution:     -0.14594       0.12078      -0.39689
Nuclear contribution   :      0.10024      -0.14218       0.41628
                        -----------------------------------------
Total Dipole Moment    :     -0.04569      -0.02140       0.01940
                        -----------------------------------------
Magnitude (a.u.)       :      0.05406
Magnitude (Debye)      :      0.13740

Rotational constants in cm-1:     1.024179     0.291605     0.259489
Rotational constants in MHz : 30704.103454  8742.106283  7779.285909

                             ****ORCA TERMINATED NORMALLY****
TOTAL RUN TIME: 0 days 0 hours 0 minutes 7 seconds 429 msec
