                         Program Version 5.0.0 -  RELEASE  -
|  1> !PBE D3BJ RIJCOSX def2-SVPD def2/J TightSCF
|  2> *xyz 0 1
|  3> C         -2.79070       -0.78527        5.70281
|  4> C         -2.45380        0.05510        6.94145
|  5> C         -2.07842        1.48042        6.56410
|  6> H         -1.62558       -0.38216        7.49891
|  7> H         -3.32527        0.08775        7.59917
|  8> O         -0.90125        1.85816        6.82810
|  9> F         -2.93658        2.17731        5.96415
| 10> H         -1.94052       -0.82114        5.05412
| 11> H         -3.61590       -0.34261        5.18514
| 12> H         -3.05063       -1.77815        6.00536
| 13> *
| 14> %MaxCore 64000
| 15>
| 16> %pal nprocs 4
| 17> end
| 18>
| 19> %scf
| 20>   MaxIter 150
| 21> end
| 22>
| 23>
| 24>                          ****END OF INPUT****

CARTESIAN COORDINATES (ANGSTROEM)
---------------------------------
  C     -2.790700   -0.785270    5.702810
  C     -2.453800    0.055100    6.941450
  C     -2.078420    1.480420    6.564100
  H     -1.625580   -0.382160    7.498910
  H     -3.325270    0.087750    7.599170
  O     -0.901250    1.858160    6.828100
  F     -2.936580    2.177310    5.964150
  H     -1.940520   -0.821140    5.054120
  H     -3.615900   -0.342610    5.185140
  H     -3.050630   -1.778150    6.005360

 Total Charge           Charge          ....    0
 Multiplicity           Mult            ....    1
 Number of Electrons    NEL             ....   40
 Basis Dimension        Dim             ....  146

ORBITAL ENERGIES
----------------

  NO   OCC          E(Eh)            E(eV)
   0   2.0000     -24.346024      -662.4890
   1   2.0000     -18.771529      -510.7993
   2   2.0000     -10.066837      -273.9326
   3   2.0000      -9.929317      -270.1905
   4   2.0000      -9.908421      -269.6218
   5   2.0000      -1.204325       -32.7713
   6   2.0000      -0.933920       -25.4133
   7   2.0000      -0.728994       -19.8369
   8   2.0000      -0.618440       -16.8286
   9   2.0000      -0.580907       -15.8073
  10   2.0000      -0.494174       -13.4472
  11   2.0000      -0.480289       -13.0693
  12   2.0000      -0.446826       -12.1588
  13   2.0000      -0.417300       -11.3553
  14   2.0000      -0.388206       -10.5636
  15   2.0000      -0.360866        -9.8197
  16   2.0000      -0.338820        -9.2198
  17   2.0000      -0.334658        -9.1065
  18   2.0000      -0.313249        -8.5239
  19   2.0000      -0.242075        -6.5872
  20   0.0000      -0.071797        -1.9537
  21   0.0000      -0.005998        -0.1632
  22   0.0000       0.029072         0.7911
  23   0.0000       0.039261         1.0684
  24   0.0000       0.054213         1.4752

MULLIKEN ATOMIC CHARGES
-----------------------
   0 C :    0.569784
   1 C :   -0.313919
   2 C :    0.703881
   3 H :   -0.033202
   4 H :    0.034007
   5 O :   -0.464405
   6 F :   -0.348894
   7 H :   -0.058054
   8 H :   -0.037799
   9 H :   -0.051400
Sum of atomic charges:   -0.0000000

LOEWDIN ATOMIC CHARGES
----------------------
   0 C :    0.139076
   1 C :    0.002234
   2 C :   -0.040088
   3 H :    0.033727
   4 H :    0.034913
   5 O :   -0.123153
   6 F :   -0.014544
   7 H :   -0.006551
   8 H :   -0.013495
   9 H :   -0.012119

  Mayer bond orders larger than 0.100000
B(  0-C ,  1-C ) :   1.3349 B(  0-C ,  7-H ) :   0.8566 B(  0-C ,  8-H ) :   0.8179
B(  0-C ,  9-H ) :   0.8487 B(  1-C ,  2-C ) :   1.0808 B(  1-C ,  3-H ) :   0.9681
B(  1-C ,  4-H ) :   0.8658 B(  1-C ,  7-H ) :   0.1612 B(  1-C ,  8-H ) :   0.1737
B(  1-C ,  9-H ) :   0.1551 B(  2-C ,  3-H ) :   0.1339 B(  2-C ,  5-O ) :   1.7761
B(  2-C ,  6-F ) :   0.7508 B(  5-O ,  6-F ) :   0.1147

Dispersion correction           -0.006189703
FINAL SINGLE POINT ENERGY      -291.873420234005

DIPOLE MOMENT
-------------
                                X             Y             Z
Electronic contribution:      0.59508       7.95529       0.05024
Nuclear contribution   :     -1.47571      -8.84360      -0.10748
                        -----------------------------------------
Total Dipole Moment    :     -0.88063      -0.88832      -0.05724
                        -----------------------------------------
Magnitude (a.u.)       :      1.25216
Magnitude (Debye)      :      3.18273

Rotational constants in cm-1:     0.283081     0.133379     0.103386
Rotational constants in MHz :  8486.545774  3998.599544  3099.448040

                             ****ORCA TERMINATED NORMALLY****
TOTAL RUN TIME: 0 days 0 hours 0 minutes 8 seconds 497 msec
