                         Program Version 5.0.0 -  RELEASE  -
|  1> !PBE D3BJ RIJCOSX def2-SVPD def2/J TightSCF xyzfile
|  2>
|  3> *xyzfile 0 1 D1.xyz
|  4>
|  5> %MaxCore 64000
|  6>
|  7> %pal nprocs 4
|  8> end
|  9>
| 10> %scf
| 11>   MaxIter 150
| 12> end
| 13>
| 14>
| 15>                          ****END OF INPUT****

CARTESIAN COORDINATES (ANGSTROEM)
---------------------------------
  C     -0.699123    3.489451    3.755163
  H     -0.966716    4.349013    3.140491
  C     -1.080669    3.792957    5.156857
  C      0.776956    3.138391    3.617408
  H     -1.331455    2.656510    3.446323
  H      1.371398    3.888342    4.149744
  H      1.046926    3.232057    2.561331
  C      1.118917    1.731170    4.115155
  H      2.200573    1.654226    4.254882
  C      0.659466    0.635182    3.153306
  H      0.677024    1.576674    5.103150
  H      1.312288    0.638870    2.274207
  H     -0.339563    0.868049    2.772876
  C      0.639957   -0.771175    3.755619
  C     -0.341821   -0.965537    4.915046
  H      1.648266   -1.028665    4.097015
  H      0.398568   -1.482386    2.958453
  H     -0.279892   -2.005646    5.252547
  C     -1.789164   -0.639231    4.557496
  H     -0.032380   -0.352918    5.765118
  H     -2.107151   -1.270102    3.719619
  H     -1.856352    0.391636    4.197604
  C     -2.790700   -0.785275    5.702812
  H     -2.867308   -1.835651    6.001675
  H     -3.774554   -0.486577    5.334807
  C     -2.453797    0.055101    6.941445
  C     -2.078419    1.480421    6.564098
  H     -1.625584   -0.382163    7.498914
  H     -3.325274    0.087746    7.599175
  H     -0.874488    4.762737    5.427344
  H     -0.680793    3.134762    5.839000
  H     -2.057550    3.531691    5.346197
  F     -0.901252    1.858156    6.828104
  O     -2.936582    2.177309    5.964151

 Total Charge           Charge          ....    0
 Multiplicity           Mult            ....    1
 Number of Electrons    NEL             ....  104
 Basis Dimension        Dim             ....  434

ORBITAL ENERGIES
----------------

  NO   OCC          E(Eh)            E(eV)
   0   2.0000     -24.353692      -662.6977
   1   2.0000     -18.780367      -511.0398
   2   2.0000     -10.076825      -274.2044
   3   2.0000      -9.930206      -270.2147
   4   2.0000      -9.914410      -269.7848
   5   2.0000      -9.900071      -269.3946
   6   2.0000      -9.897077      -269.3132
   7   2.0000      -9.891711      -269.1671
   8   2.0000      -9.884934      -268.9827
   9   2.0000      -9.882386      -268.9134
  10   2.0000      -9.874899      -268.7097
  11   2.0000      -9.866008      -268.4677
  12   2.0000      -9.814162      -267.0569
  13   2.0000      -1.214966       -33.0609
  14   2.0000      -0.951926       -25.9032
  15   2.0000      -0.752634       -20.4802
  16   2.0000      -0.729205       -19.8427
  17   2.0000      -0.700790       -19.0695
  18   2.0000      -0.674670       -18.3587
  19   2.0000      -0.635964       -17.3055
  20   2.0000      -0.616135       -16.7659
  21   2.0000      -0.591617       -16.0987
  22   2.0000      -0.558963       -15.2102
  23   2.0000      -0.544689       -14.8217
  24   2.0000      -0.505330       -13.7507
  25   2.0000      -0.504778       -13.7357
  26   2.0000      -0.493568       -13.4307
  27   2.0000      -0.475733       -12.9454
  28   2.0000      -0.462874       -12.5954
  29   2.0000      -0.430326       -11.7098
  30   2.0000      -0.427637       -11.6366
  31   2.0000      -0.411577       -11.1996
  32   2.0000      -0.408967       -11.1285
  33   2.0000      -0.391738       -10.6597
  34   2.0000      -0.380293       -10.3483
  35   2.0000      -0.366891        -9.9836
  36   2.0000      -0.363428        -9.8894
  37   2.0000      -0.355739        -9.6801
  38   2.0000      -0.346726        -9.4349
  39   2.0000      -0.335328        -9.1248
  40   2.0000      -0.325097        -8.8464
  41   2.0000      -0.320437        -8.7195
  42   2.0000      -0.312450        -8.5022
  43   2.0000      -0.304325        -8.2811
  44   2.0000      -0.296332        -8.0636
  45   2.0000      -0.289467        -7.8768
  46   2.0000      -0.283631        -7.7180
  47   2.0000      -0.273286        -7.4365
  48   2.0000      -0.269014        -7.3202
  49   2.0000      -0.260201        -7.0804
  50   2.0000      -0.255079        -6.9410
  51   2.0000      -0.224295        -6.1034
  52   0.0000      -0.084683        -2.3043
  53   0.0000      -0.004666        -0.1270
  54   0.0000       0.010727         0.2919
  55   0.0000       0.013909         0.3785
  56   0.0000       0.020329         0.5532

MULLIKEN ATOMIC CHARGES
-----------------------
   0 C :    0.003734
   1 H :   -0.329314
   2 C :    1.899302
   3 C :    0.556175
   4 H :   -0.212235
   5 H :   -0.090617
   6 H :   -0.118956
   7 C :    0.607682
   8 H :    0.002572
   9 C :    0.013042
  10 H :   -0.718632
  11 H :   -0.260406
  12 H :   -0.087451
  13 C :    0.711114
  14 C :   -0.022763
  15 H :   -0.140756
  16 H :    0.035622
  17 H :   -0.301853
  18 C :    0.274106
  19 H :    0.008536
  20 H :   -0.069888
  21 H :   -0.506573
  22 C :    0.480946
  23 H :   -0.186788
  24 H :    0.088406
  25 C :    0.286371
  26 C :    0.510508
  27 H :    0.152569
  28 H :   -0.193631
  29 H :   -0.304357
  30 H :   -0.729651
  31 H :   -0.295024
  32 F :   -0.505665
  33 O :   -0.556126
Sum of atomic charges:    0.0000000

LOEWDIN ATOMIC CHARGES
----------------------
   0 C :   -0.040862
   1 H :    0.022738
   2 C :    0.132911
   3 C :   -0.028439
   4 H :    0.004393
   5 H :    0.025014
   6 H :    0.017664
   7 C :   -0.016963
   8 H :    0.025895
   9 C :   -0.033054
  10 H :   -0.014114
  11 H :    0.025981
  12 H :    0.001763
  13 C :   -0.029318
  14 C :   -0.029697
  15 H :    0.024058
  16 H :    0.023154
  17 H :    0.027582
  18 C :   -0.025055
  19 H :   -0.003452
  20 H :    0.035279
  21 H :    0.001884
  22 C :   -0.009988
  23 H :    0.028564
  24 H :    0.031807
  25 C :    0.053073
  26 C :    0.017097
  27 H :    0.023522
  28 H :    0.042399
  29 H :   -0.018065
  30 H :   -0.097225
  31 H :   -0.098346
  32 F :   -0.029303
  33 O :   -0.090898

  Mayer bond orders larger than 0.100000
B(  0-C ,  1-H ) :   0.8753 B(  0-C ,  2-C ) :   0.8694 B(  0-C ,  3-C ) :   1.1908
B(  0-C ,  4-H ) :   0.7169 B(  0-C ,  5-H ) :   0.1643 B(  0-C ,  6-H ) :   0.1783
B(  0-C ,  7-C ) :   0.2068 B(  0-C , 10-H ) :  -0.1554 B(  0-C , 29-H ) :   0.1476
B(  0-C , 30-H ) :   0.5852 B(  0-C , 31-H ) :   0.3656 B(  1-H ,  5-H ) :   0.1056
B(  1-H ,  8-H ) :   0.1062 B(  1-H , 30-H ) :   0.1334 B(  2-C ,  4-H ) :   0.2371
B(  2-C , 29-H ) :   0.4949 B(  2-C , 30-H ) :  -0.3311 B(  2-C , 31-H ) :   0.2511
B(  2-C , 32-F ) :  -0.1022 B(  3-C ,  4-H ) :   0.1336 B(  3-C ,  5-H ) :   0.6683
B(  3-C ,  6-H ) :   0.7025 B(  3-C ,  7-C ) :   1.1813 B(  3-C , 10-H ) :   0.2359
B(  3-C , 30-H ) :  -0.1373 B(  4-H , 12-H ) :   0.1181 B(  4-H , 21-H ) :   0.1689
B(  5-H ,  6-H ) :  -0.1441 B(  5-H ,  7-C ) :   0.1641 B(  5-H , 10-H ) :   0.1204
B(  6-H ,  7-C ) :   0.1483 B(  7-C ,  8-H ) :   0.6517 B(  7-C ,  9-C ) :   1.1360
B(  7-C , 10-H ) :   0.4566 B(  7-C , 11-H ) :   0.2092 B(  7-C , 12-H ) :   0.1261
B(  8-H ,  9-C ) :   0.2171 B(  9-C , 10-H ) :   0.2665 B(  9-C , 11-H ) :   0.8579
B(  9-C , 12-H ) :   0.8734 B(  9-C , 13-C ) :   1.2024 B(  9-C , 14-C ) :   0.1421
B(  9-C , 15-H ) :   0.1545 B(  9-C , 16-H ) :   0.2424 B( 10-H , 19-H ) :   0.1196
B( 10-H , 30-H ) :   0.1173 B( 13-C , 14-C ) :   1.1535 B( 13-C , 15-H ) :   0.6409
B( 13-C , 16-H ) :   0.6457 B( 14-C , 15-H ) :   0.3045 B( 14-C , 16-H ) :   0.1004
B( 14-C , 17-H ) :   0.9058 B( 14-C , 18-C ) :   1.1758 B( 14-C , 19-H ) :   0.8343
B( 14-C , 20-H ) :   0.1776 B( 14-C , 21-H ) :   0.2548 B( 15-H , 16-H ) :  -0.1354
B( 17-H , 18-C ) :   0.1617 B( 18-C , 19-H ) :   0.1154 B( 18-C , 20-H ) :   0.6756
B( 18-C , 21-H ) :   0.7187 B( 18-C , 22-C ) :   1.2549 B( 18-C , 23-H ) :   0.1722
B( 18-C , 24-H ) :   0.2594 B( 18-C , 25-C ) :   0.1580 B( 21-H , 22-C ) :   0.1593
B( 22-C , 23-H ) :   0.7737 B( 22-C , 24-H ) :   0.6388 B( 22-C , 25-C ) :   1.1578
B( 22-C , 28-H ) :   0.1815 B( 23-H , 24-H ) :  -0.1513 B( 23-H , 25-C ) :   0.1432
B( 24-H , 25-C ) :   0.1003 B( 25-C , 26-C ) :   1.2427 B( 25-C , 27-H ) :   0.7723
B( 25-C , 28-H ) :   0.6249 B( 25-C , 33-O ) :   0.1109 B( 26-C , 27-H ) :   0.1520
B( 26-C , 28-H ) :   0.3080 B( 26-C , 30-H ) :   0.1086 B( 26-C , 32-F ) :   0.6517
B( 26-C , 33-O ) :   1.6588 B( 29-H , 30-H ) :   0.1975 B( 30-H , 31-H ) :   0.4132
B( 30-H , 32-F ) :   0.2749 B( 31-H , 33-O ) :   0.2256

Dispersion correction           -0.037706765
FINAL SINGLE POINT ENERGY      -605.686410728972

DIPOLE MOMENT
-------------
                                X             Y             Z
Electronic contribution:     -5.47828       2.52131      10.82421
Nuclear contribution   :      5.54676      -3.70047     -10.28793
                        -----------------------------------------
Total Dipole Moment    :      0.06848      -1.17916       0.53628
                        -----------------------------------------
Magnitude (a.u.)       :      1.29719
Magnitude (Debye)      :      3.29720

Rotational constants in cm-1:     0.028503     0.023389     0.015214
Rotational constants in MHz :   854.502405   701.197575   456.108322

                             ****ORCA TERMINATED NORMALLY****
TOTAL RUN TIME: 0 days 0 hours 0 minutes 43 seconds 193 msec
