                         Program Version 5.0.0 -  RELEASE  -
|  1> !wB97X-D3 RIJCOSX def2-SVP def2/J TightSCF
|  2> *xyz -1 1
|  3> C         -0.98480        1.28474       -2.92869
|  4> C         -0.10608        1.76991       -4.08984
|  5> H         -0.34774        2.82220       -4.26294
|  6> H          0.94968        1.74588       -3.80878
|  7> C         -0.25875        1.00432       -5.40983
|  8> C          0.39596       -0.37070       -5.33994
|  9> H          0.23915        1.56939       -6.20125
| 10> H         -1.30936        0.88869       -5.68245
| 11> O         -0.32633       -1.39040       -5.49128
| 12> O          1.61941       -0.40073       -5.03683
| 13> H         -2.01317        1.31546       -3.22263
| 14> H         -0.83724        1.91975       -2.08023
| 15> H         -0.71656        0.28077       -2.67373
| 16> *
| 17> %MaxCore 64000
| 18>
| 19> %pal nprocs 18
| 20> end
| 21>
| 22> %scf
| 23>   MaxIter 150
| 24> end
| 25>
| 26>
| 27>                          ****END OF INPUT****

CARTESIAN COORDINATES (ANGSTROEM)
---------------------------------
  C     -0.984800    1.284740   -2.928690
  C     -0.106080    1.769910   -4.089840
  H     -0.347740    2.822200   -4.262940
  H      0.949680    1.745880   -3.808780
  C     -0.258750    1.004320   -5.409830
  C      0.395960   -0.370700   -5.339940
  H      0.239150    1.569390   -6.201250
  H     -1.309360    0.888690   -5.682450
  O     -0.326330   -1.390400   -5.491280
  O      1.619410   -0.400730   -5.036830
  H     -2.013170    1.315460   -3.222630
  H     -0.837240    1.919750   -2.080230
  H     -0.716560    0.280770   -2.673730

 Total Charge           Charge          ....   -1
 Multiplicity           Mult            ....    1
 Number of Electrons    NEL             ....   48
 Basis Dimension        Dim             ....  119

ORBITAL ENERGIES
----------------

  NO   OCC          E(Eh)            E(eV)
   0   2.0000     -18.941567      -515.4262
   1   2.0000     -18.941064      -515.4126
   2   2.0000     -10.146213      -276.0925
   3   2.0000     -10.135589      -275.8034
   4   2.0000     -10.132301      -275.7139
   5   2.0000     -10.101499      -274.8758
   6   2.0000      -0.893823       -24.3222
   7   2.0000      -0.795810       -21.6551
   8   2.0000      -0.739930       -20.1345
   9   2.0000      -0.643388       -17.5075
  10   2.0000      -0.541340       -14.7306
  11   2.0000      -0.421235       -11.4624
  12   2.0000      -0.397983       -10.8297
  13   2.0000      -0.372875       -10.1464
  14   2.0000      -0.348248        -9.4763
  15   2.0000      -0.312425        -8.5015
  16   2.0000      -0.300553        -8.1785
  17   2.0000      -0.287831        -7.8323
  18   2.0000      -0.272629        -7.4186
  19   2.0000      -0.249105        -6.7785
  20   2.0000      -0.236343        -6.4312
  21   2.0000      -0.108692        -2.9577
  22   2.0000      -0.107342        -2.9209
  23   2.0000      -0.090883        -2.4731
  24   0.0000       0.281251         7.6532
  25   0.0000       0.324266         8.8237
  26   0.0000       0.336050         9.1444
  27   0.0000       0.362661         9.8685
  28   0.0000       0.363932         9.9031

MULLIKEN ATOMIC CHARGES
-----------------------
   0 C :    0.001792
   1 C :   -0.085130
   2 H :   -0.038938
   3 H :    0.012351
   4 C :    0.015896
   5 C :    0.049963
   6 H :   -0.023625
   7 H :   -0.040638
   8 O :   -0.445634
   9 O :   -0.459224
  10 H :   -0.007607
  11 H :   -0.019285
  12 H :    0.040077
Sum of atomic charges:   -1.0000000

LOEWDIN ATOMIC CHARGES
----------------------
   0 C :   -0.061284
   1 C :   -0.044040
   2 H :   -0.006758
   3 H :    0.015218
   4 C :   -0.090516
   5 C :   -0.042172
   6 H :    0.009270
   7 H :   -0.001753
   8 O :   -0.404156
   9 O :   -0.413895
  10 H :    0.009285
  11 H :    0.003274
  12 H :    0.027528

  Mayer bond orders larger than 0.100000
B(  0-C ,  1-C ) :   1.0798 B(  0-C , 10-H ) :   0.9716 B(  0-C , 11-H ) :   0.9719
B(  0-C , 12-H ) :   0.9741 B(  1-C ,  2-H ) :   0.9542 B(  1-C ,  3-H ) :   0.9429
B(  1-C ,  4-C ) :   1.0807 B(  4-C ,  5-C ) :   0.9165 B(  4-C ,  6-H ) :   0.9323
B(  4-C ,  7-H ) :   0.9390 B(  5-C ,  8-O ) :   1.8662 B(  5-C ,  9-O ) :   1.8149
B(  8-O ,  9-O ) :   0.1079

Dispersion correction           -0.003300744
FINAL SINGLE POINT ENERGY      -306.821113056443

DIPOLE MOMENT
-------------
                                X             Y             Z
Electronic contribution:      3.18338      -5.84318      -3.88175
Nuclear contribution   :     -4.15791       7.87420       4.69333
                        -----------------------------------------
Total Dipole Moment    :     -0.97454       2.03102       0.81158
                        -----------------------------------------
Magnitude (a.u.)       :      2.39446
Magnitude (Debye)      :      6.08623

Rotational constants in cm-1:     0.200385     0.078723     0.072676
Rotational constants in MHz :  6007.394681  2360.059351  2178.761275

                             ****ORCA TERMINATED NORMALLY****
TOTAL RUN TIME: 0 days 0 hours 0 minutes 8 seconds 525 msec
