                         Program Version 5.0.0 -  RELEASE  -
|  1> !wB97X-D3 RIJCOSX def2-SVP def2/J TightSCF
|  2> *xyz 1 1
|  3> C          0.81607       -2.10149       -2.18655
|  4> H          1.69623       -2.36869       -1.60046
|  5> N          1.10055       -2.46749       -3.59927
|  6> C          0.51624       -0.61363       -2.03937
|  7> H         -0.02007       -2.71285       -1.84084
|  8> C         -0.86862       -0.19392       -2.54630
|  9> H          1.70061       -1.75723       -4.07838
| 10> H          0.29386       -2.35977       -4.25632
| 11> H          1.50132       -3.42848       -3.69491
| 12> H          1.29904       -0.05680       -2.55898
| 13> H          0.61239       -0.36558       -0.97917
| 14> H         -0.95781       -0.43872       -3.58410
| 15> H         -0.99113        0.86113       -2.41690
| 16> H         -1.62334       -0.71130       -1.99167
| 17> *
| 18> %MaxCore 64000
| 19>
| 20> %pal nprocs 18
| 21> end
| 22>
| 23> %scf
| 24>   MaxIter 150
| 25> end
| 26>
| 27>
| 28>                          ****END OF INPUT****

CARTESIAN COORDINATES (ANGSTROEM)
---------------------------------
  C      0.816070   -2.101490   -2.186550
  H      1.696230   -2.368690   -1.600460
  N      1.100550   -2.467490   -3.599270
  C      0.516240   -0.613630   -2.039370
  H     -0.020070   -2.712850   -1.840840
  C     -0.868620   -0.193920   -2.546300
  H      1.700610   -1.757230   -4.078380
  H      0.293860   -2.359770   -4.256320
  H      1.501320   -3.428480   -3.694910
  H      1.299040   -0.056800   -2.558980
  H      0.612390   -0.365580   -0.979170
  H     -0.957810   -0.438720   -3.584100
  H     -0.991130    0.861130   -2.416900
  H     -1.623340   -0.711300   -1.991670

 Total Charge           Charge          ....    1
 Multiplicity           Mult            ....    1
 Number of Electrons    NEL             ....   34
 Basis Dimension        Dim             ....  106

ORBITAL ENERGIES
----------------

  NO   OCC          E(Eh)            E(eV)
   0   2.0000     -14.774563      -402.0363
   1   2.0000     -10.536841      -286.7220
   2   2.0000     -10.467620      -284.8384
   3   2.0000     -10.432721      -283.8888
   4   2.0000      -1.317205       -35.8430
   5   2.0000      -1.083947       -29.4957
   6   2.0000      -0.992863       -27.0172
   7   2.0000      -0.911997       -24.8167
   8   2.0000      -0.882563       -24.0158
   9   2.0000      -0.864103       -23.5134
  10   2.0000      -0.796514       -21.6743
  11   2.0000      -0.726486       -19.7687
  12   2.0000      -0.707606       -19.2550
  13   2.0000      -0.682799       -18.5799
  14   2.0000      -0.618818       -16.8389
  15   2.0000      -0.612589       -16.6694
  16   2.0000      -0.608240       -16.5510
  17   0.0000      -0.094902        -2.5824
  18   0.0000      -0.040696        -1.1074
  19   0.0000      -0.033197        -0.9033
  20   0.0000      -0.000833        -0.0227
  21   0.0000       0.033148         0.9020

MULLIKEN ATOMIC CHARGES
-----------------------
   0 C :    0.001482
   1 H :    0.114156
   2 N :   -0.051903
   3 C :   -0.161909
   4 H :    0.111322
   5 C :   -0.028696
   6 H :    0.216705
   7 H :    0.219079
   8 H :    0.242686
   9 H :    0.063294
  10 H :    0.104213
  11 H :    0.011943
  12 H :    0.091408
  13 H :    0.066221
Sum of atomic charges:    1.0000000

LOEWDIN ATOMIC CHARGES
----------------------
   0 C :    0.051059
   1 H :    0.057156
   2 N :    0.269397
   3 C :   -0.048093
   4 H :    0.055155
   5 C :   -0.045678
   6 H :    0.151067
   7 H :    0.150500
   8 H :    0.158125
   9 H :    0.034519
  10 H :    0.061117
  11 H :    0.014682
  12 H :    0.052046
  13 H :    0.038949

  Mayer bond orders larger than 0.100000
B(  0-C ,  1-H ) :   0.9537 B(  0-C ,  2-N ) :   0.9006 B(  0-C ,  3-C ) :   1.0584
B(  0-C ,  4-H ) :   0.9516 B(  2-N ,  6-H ) :   0.9255 B(  2-N ,  7-H ) :   0.9247
B(  2-N ,  8-H ) :   0.9209 B(  3-C ,  5-C ) :   1.0648 B(  3-C ,  9-H ) :   0.9534
B(  3-C , 10-H ) :   0.9420 B(  5-C , 11-H ) :   0.9750 B(  5-C , 12-H ) :   0.9676
B(  5-C , 13-H ) :   0.9749

Dispersion correction           -0.002840577
FINAL SINGLE POINT ENERGY      -174.675089335818

DIPOLE MOMENT
-------------
                                X             Y             Z
Electronic contribution:      1.51673      -1.89591      -0.75252
Nuclear contribution   :     -0.52914       0.42437      -0.52967
                        -----------------------------------------
Total Dipole Moment    :      0.98759      -1.47154      -1.28219
                        -----------------------------------------
Magnitude (a.u.)       :      2.18742
Magnitude (Debye)      :      5.55997

Rotational constants in cm-1:     0.462856     0.150885     0.132529
Rotational constants in MHz : 13876.083919  4523.416930  3973.119974

                             ****ORCA TERMINATED NORMALLY****
TOTAL RUN TIME: 0 days 0 hours 0 minutes 6 seconds 121 msec
