                         Program Version 5.0.0 -  RELEASE  -
|  1> !wB97X-D3 RIJCOSX def2-SVP def2/J TightSCF
|  2> *xyz 0 1
|  3> C         -0.98480        1.28474       -2.92869
|  4> C         -0.10608        1.76991       -4.08984
|  5> H         -0.34774        2.82220       -4.26294
|  6> H          0.94968        1.74588       -3.80878
|  7> C         -0.25875        1.00432       -5.40983
|  8> C          0.39596       -0.37070       -5.33994
|  9> H          0.23915        1.56939       -6.20125
| 10> H         -1.30936        0.88869       -5.68245
| 11> F         -0.32633       -1.39040       -5.49128
| 12> O          1.61941       -0.40073       -5.03683
| 13> H         -2.01317        1.31546       -3.22263
| 14> H         -0.83724        1.91975       -2.08023
| 15> H         -0.71656        0.28077       -2.67373
| 16> *
| 17> %MaxCore 64000
| 18>
| 19> %pal nprocs 18
| 20> end
| 21>
| 22> %scf
| 23>   MaxIter 150
| 24> end
| 25>
| 26>
| 27>                          ****END OF INPUT****

CARTESIAN COORDINATES (ANGSTROEM)
---------------------------------
  C     -0.984800    1.284740   -2.928690
  C     -0.106080    1.769910   -4.089840
  H     -0.347740    2.822200   -4.262940
  H      0.949680    1.745880   -3.808780
  C     -0.258750    1.004320   -5.409830
  C      0.395960   -0.370700   -5.339940
  H      0.239150    1.569390   -6.201250
  H     -1.309360    0.888690   -5.682450
  F     -0.326330   -1.390400   -5.491280
  O      1.619410   -0.400730   -5.036830
  H     -2.013170    1.315460   -3.222630
  H     -0.837240    1.919750   -2.080230
  H     -0.716560    0.280770   -2.673730

 Total Charge           Charge          ....    0
 Multiplicity           Mult            ....    1
 Number of Electrons    NEL             ....   48
 Basis Dimension        Dim             ....  119

ORBITAL ENERGIES
----------------

  NO   OCC          E(Eh)            E(eV)
   0   2.0000     -24.857673      -676.4117
   1   2.0000     -19.239521      -523.5340
   2   2.0000     -10.462802      -284.7073
   3   2.0000     -10.317027      -280.7406
   4   2.0000     -10.302053      -280.3331
   5   2.0000     -10.284221      -279.8479
   6   2.0000      -1.411623       -38.4122
   7   2.0000      -1.129390       -30.7323
   8   2.0000      -0.922655       -25.1067
   9   2.0000      -0.837577       -22.7916
  10   2.0000      -0.762414       -20.7463
  11   2.0000      -0.713396       -19.4125
  12   2.0000      -0.648519       -17.6471
  13   2.0000      -0.632806       -17.2195
  14   2.0000      -0.606662       -16.5081
  15   2.0000      -0.562026       -15.2935
  16   2.0000      -0.551887       -15.0176
  17   2.0000      -0.519119       -14.1259
  18   2.0000      -0.495557       -13.4848
  19   2.0000      -0.471083       -12.8188
  20   2.0000      -0.446622       -12.1532
  21   2.0000      -0.440750       -11.9934
  22   2.0000      -0.431777       -11.7492
  23   2.0000      -0.383110       -10.4249
  24   0.0000       0.060740         1.6528
  25   0.0000       0.141160         3.8412
  26   0.0000       0.182135         4.9561
  27   0.0000       0.183948         5.0055
  28   0.0000       0.202169         5.5013

MULLIKEN ATOMIC CHARGES
-----------------------
   0 C :   -0.020614
   1 C :   -0.117968
   2 H :    0.035326
   3 H :    0.058415
   4 C :   -0.065724
   5 C :    0.259570
   6 H :    0.076382
   7 H :    0.037083
   8 F :   -0.083739
   9 O :   -0.278971
  10 H :    0.025940
  11 H :    0.040237
  12 H :    0.034065
Sum of atomic charges:    0.0000000

LOEWDIN ATOMIC CHARGES
----------------------
   0 C :   -0.054765
   1 C :   -0.034057
   2 H :    0.027219
   3 H :    0.032749
   4 C :   -0.072088
   5 C :    0.116616
   6 H :    0.054694
   7 H :    0.028138
   8 F :    0.037325
   9 O :   -0.210205
  10 H :    0.021869
  11 H :    0.029689
  12 H :    0.022816

  Mayer bond orders larger than 0.100000
B(  0-C ,  1-C ) :   1.0784 B(  0-C , 10-H ) :   0.9738 B(  0-C , 11-H ) :   0.9729
B(  0-C , 12-H ) :   0.9775 B(  1-C ,  2-H ) :   0.9575 B(  1-C ,  3-H ) :   0.9522
B(  1-C ,  4-C ) :   1.0703 B(  4-C ,  5-C ) :   0.9843 B(  4-C ,  6-H ) :   0.9316
B(  4-C ,  7-H ) :   0.9422 B(  5-C ,  8-F ) :   1.1923 B(  5-C ,  9-O ) :   2.0555

Dispersion correction           -0.003212515
FINAL SINGLE POINT ENERGY      -331.372526021951

DIPOLE MOMENT
-------------
                                X             Y             Z
Electronic contribution:      2.79875      -9.14918      -5.68294
Nuclear contribution   :     -3.72230       9.78546       5.57872
                        -----------------------------------------
Total Dipole Moment    :     -0.92355       0.63627      -0.10421
                        -----------------------------------------
Magnitude (a.u.)       :      1.12634
Magnitude (Debye)      :      2.86293

Rotational constants in cm-1:     0.192703     0.076176     0.069525
Rotational constants in MHz :  5777.081080  2283.698999  2084.312921

                             ****ORCA TERMINATED NORMALLY****
TOTAL RUN TIME: 0 days 0 hours 0 minutes 7 seconds 508 msec
