                         Program Version 5.0.0 -  RELEASE  -
|  1> !wB97X-D3 RIJCOSX def2-SVP def2/J TightSCF
|  2> *xyz 0 1
|  3> C          0.81607       -2.10149       -2.18655
|  4> H          1.69623       -2.36869       -1.60046
|  5> C          1.10055       -2.46749       -3.59927
|  6> C          0.51624       -0.61363       -2.03937
|  7> H         -0.02007       -2.71285       -1.84084
|  8> C         -0.86862       -0.19392       -2.54630
|  9> H          1.70061       -1.75723       -4.07838
| 10> H          0.29386       -2.35977       -4.25632
| 11> H          1.50132       -3.42848       -3.69491
| 12> H          1.29904       -0.05680       -2.55898
| 13> H          0.61239       -0.36558       -0.97917
| 14> H         -0.95781       -0.43872       -3.58410
| 15> H         -0.99113        0.86113       -2.41690
| 16> H         -1.62334       -0.71130       -1.99167
| 17> *
| 18> %MaxCore 64000
| 19>
| 20> %pal nprocs 18
| 21> end
| 22>
| 23> %scf
| 24>   MaxIter 150
| 25> end
| 26>
| 27>
| 28>                          ****END OF INPUT****

CARTESIAN COORDINATES (ANGSTROEM)
---------------------------------
  C      0.816070   -2.101490   -2.186550
  H      1.696230   -2.368690   -1.600460
  C      1.100550   -2.467490   -3.599270
  C      0.516240   -0.613630   -2.039370
  H     -0.020070   -2.712850   -1.840840
  C     -0.868620   -0.193920   -2.546300
  H      1.700610   -1.757230   -4.078380
  H      0.293860   -2.359770   -4.256320
  H      1.501320   -3.428480   -3.694910
  H      1.299040   -0.056800   -2.558980
  H      0.612390   -0.365580   -0.979170
  H     -0.957810   -0.438720   -3.584100
  H     -0.991130    0.861130   -2.416900
  H     -1.623340   -0.711300   -1.991670

 Total Charge           Charge          ....    0
 Multiplicity           Mult            ....    1
 Number of Electrons    NEL             ....   34
 Basis Dimension        Dim             ....  106

ORBITAL ENERGIES
----------------

  NO   OCC          E(Eh)            E(eV)
   0   2.0000     -10.277474      -279.6643
   1   2.0000     -10.274445      -279.5819
   2   2.0000     -10.269464      -279.4463
   3   2.0000     -10.255131      -279.0563
   4   2.0000      -0.910971       -24.7888
   5   2.0000      -0.834838       -22.7171
   6   2.0000      -0.748835       -20.3768
   7   2.0000      -0.674358       -18.3502
   8   2.0000      -0.563811       -15.3421
   9   2.0000      -0.557603       -15.1731
  10   2.0000      -0.520792       -14.1715
  11   2.0000      -0.490956       -13.3596
  12   2.0000      -0.480687       -13.0802
  13   2.0000      -0.449150       -12.2220
  14   2.0000      -0.419394       -11.4123
  15   2.0000      -0.413876       -11.2621
  16   2.0000      -0.406276       -11.0553
  17   0.0000       0.145891         3.9699
  18   0.0000       0.182865         4.9760
  19   0.0000       0.186829         5.0839
  20   0.0000       0.194769         5.2999
  21   0.0000       0.221405         6.0247

MULLIKEN ATOMIC CHARGES
-----------------------
   0 C :   -0.068364
   1 H :    0.023618
   2 C :    0.011631
   3 C :   -0.099173
   4 H :    0.020349
   5 C :   -0.015699
   6 H :   -0.007113
   7 H :   -0.000552
   8 H :    0.020938
   9 H :    0.020273
  10 H :    0.021594
  11 H :    0.019806
  12 H :    0.028841
  13 H :    0.023850
Sum of atomic charges:   -0.0000000

LOEWDIN ATOMIC CHARGES
----------------------
   0 C :   -0.043381
   1 H :    0.023341
   2 C :   -0.059510
   3 C :   -0.043429
   4 H :    0.020861
   5 C :   -0.055067
   6 H :    0.017418
   7 H :    0.016543
   8 H :    0.019531
   9 H :    0.019011
  10 H :    0.020277
  11 H :    0.018939
  12 H :    0.023704
  13 H :    0.021761

  Mayer bond orders larger than 0.100000
B(  0-C ,  1-H ) :   0.9563 B(  0-C ,  2-C ) :   1.0851 B(  0-C ,  3-C ) :   1.0746
B(  0-C ,  4-H ) :   0.9562 B(  2-C ,  6-H ) :   0.9662 B(  2-C ,  7-H ) :   0.9666
B(  2-C ,  8-H ) :   0.9714 B(  3-C ,  5-C ) :   1.0780 B(  3-C ,  9-H ) :   0.9584
B(  3-C , 10-H ) :   0.9579 B(  5-C , 11-H ) :   0.9773 B(  5-C , 12-H ) :   0.9732
B(  5-C , 13-H ) :   0.9752

Dispersion correction           -0.002742926
FINAL SINGLE POINT ENERGY      -158.284575004365

DIPOLE MOMENT
-------------
                                X             Y             Z
Electronic contribution:      0.31023      -0.06462       0.81865
Nuclear contribution   :     -0.30980       0.07990      -0.83209
                        -----------------------------------------
Total Dipole Moment    :      0.00043       0.01528      -0.01344
                        -----------------------------------------
Magnitude (a.u.)       :      0.02035
Magnitude (Debye)      :      0.05172

Rotational constants in cm-1:     0.470198     0.157622     0.138278
Rotational constants in MHz : 14096.185772  4725.380109  4145.481686

                             ****ORCA TERMINATED NORMALLY****
TOTAL RUN TIME: 0 days 0 hours 0 minutes 5 seconds 901 msec
