                         Program Version 5.0.0 -  RELEASE  -
|  1> !wB97X-D3 RIJCOSX def2-SVP def2/J TightSCF
|  2> *xyz 0 1
|  3> C         -0.98480        1.28474       -2.92869
|  4> C         -0.10608        1.76991       -4.08984
|  5> H         -0.34774        2.82220       -4.26294
|  6> H          0.94968        1.74588       -3.80878
|  7> C         -0.25875        1.00432       -5.40983
|  8> C          0.39596       -0.37070       -5.33994
|  9> H          0.23915        1.56939       -6.20125
| 10> H         -1.30936        0.88869       -5.68245
| 11> O         -0.32633       -1.39040       -5.49128
| 12> F          1.61941       -0.40073       -5.03683
| 13> H         -2.01317        1.31546       -3.22263
| 14> H         -0.83724        1.91975       -2.08023
| 15> H         -0.71656        0.28077       -2.67373
| 16> *
| 17> %MaxCore 64000
| 18>
| 19> %pal nprocs 18
| 20> end
| 21>
| 22> %scf
| 23>   MaxIter 150
| 24> end
| 25>
| 26>
| 27>                          ****END OF INPUT****

CARTESIAN COORDINATES (ANGSTROEM)
---------------------------------
  C     -0.984800    1.284740   -2.928690
  C     -0.106080    1.769910   -4.089840
  H     -0.347740    2.822200   -4.262940
  H      0.949680    1.745880   -3.808780
  C     -0.258750    1.004320   -5.409830
  C      0.395960   -0.370700   -5.339940
  H      0.239150    1.569390   -6.201250
  H     -1.309360    0.888690   -5.682450
  O     -0.326330   -1.390400   -5.491280
  F      1.619410   -0.400730   -5.036830
  H     -2.013170    1.315460   -3.222630
  H     -0.837240    1.919750   -2.080230
  H     -0.716560    0.280770   -2.673730

 Total Charge           Charge          ....    0
 Multiplicity           Mult            ....    1
 Number of Electrons    NEL             ....   48
 Basis Dimension        Dim             ....  119

ORBITAL ENERGIES
----------------

  NO   OCC          E(Eh)            E(eV)
   0   2.0000     -24.857120      -676.3966
   1   2.0000     -19.239660      -523.5378
   2   2.0000     -10.461649      -284.6760
   3   2.0000     -10.316394      -280.7234
   4   2.0000     -10.307241      -280.4743
   5   2.0000     -10.284901      -279.8664
   6   2.0000      -1.410683       -38.3866
   7   2.0000      -1.128720       -30.7140
   8   2.0000      -0.926881       -25.2217
   9   2.0000      -0.837869       -22.7996
  10   2.0000      -0.758621       -20.6431
  11   2.0000      -0.718318       -19.5464
  12   2.0000      -0.651513       -17.7286
  13   2.0000      -0.638933       -17.3862
  14   2.0000      -0.591567       -16.0974
  15   2.0000      -0.564140       -15.3510
  16   2.0000      -0.557613       -15.1734
  17   2.0000      -0.518260       -14.1026
  18   2.0000      -0.492960       -13.4141
  19   2.0000      -0.470993       -12.8164
  20   2.0000      -0.454637       -12.3713
  21   2.0000      -0.448978       -12.2173
  22   2.0000      -0.434706       -11.8289
  23   2.0000      -0.377727       -10.2785
  24   0.0000       0.065440         1.7807
  25   0.0000       0.137424         3.7395
  26   0.0000       0.181317         4.9339
  27   0.0000       0.185082         5.0363
  28   0.0000       0.202804         5.5186

MULLIKEN ATOMIC CHARGES
-----------------------
   0 C :   -0.010001
   1 C :   -0.143151
   2 H :    0.040182
   3 H :    0.041735
   4 C :   -0.059502
   5 C :    0.257501
   6 H :    0.060508
   7 H :    0.062764
   8 O :   -0.266330
   9 F :   -0.091853
  10 H :    0.032216
  11 H :    0.038346
  12 H :    0.037585
Sum of atomic charges:    0.0000000

LOEWDIN ATOMIC CHARGES
----------------------
   0 C :   -0.052366
   1 C :   -0.043388
   2 H :    0.028766
   3 H :    0.024272
   4 C :   -0.068186
   5 C :    0.114453
   6 H :    0.043906
   7 H :    0.044669
   8 O :   -0.203565
   9 F :    0.033037
  10 H :    0.025534
  11 H :    0.028305
  12 H :    0.024561

  Mayer bond orders larger than 0.100000
B(  0-C ,  1-C ) :   1.0736 B(  0-C , 10-H ) :   0.9739 B(  0-C , 11-H ) :   0.9734
B(  0-C , 12-H ) :   0.9759 B(  1-C ,  2-H ) :   0.9567 B(  1-C ,  3-H ) :   0.9572
B(  1-C ,  4-C ) :   1.0564 B(  4-C ,  5-C ) :   0.9955 B(  4-C ,  6-H ) :   0.9318
B(  4-C ,  7-H ) :   0.9513 B(  5-C ,  8-O ) :   2.0843 B(  5-C ,  9-F ) :   1.1724

Dispersion correction           -0.003240728
FINAL SINGLE POINT ENERGY      -331.373570608350

DIPOLE MOMENT
-------------
                                X             Y             Z
Electronic contribution:      6.05775      -7.47061      -4.90601
Nuclear contribution   :     -5.92016       8.66755       5.06539
                        -----------------------------------------
Total Dipole Moment    :      0.13760       1.19695       0.15938
                        -----------------------------------------
Magnitude (a.u.)       :      1.21532
Magnitude (Debye)      :      3.08911

Rotational constants in cm-1:     0.191324     0.076691     0.070269
Rotational constants in MHz :  5735.753800  2299.148675  2106.608556

                             ****ORCA TERMINATED NORMALLY****
TOTAL RUN TIME: 0 days 0 hours 0 minutes 6 seconds 435 msec
