                         Program Version 5.0.0 -  RELEASE  -
|  1> !wB97X-D3 RIJCOSX def2-SVP def2/J TightSCF xyzfile
|  2>
|  3> *xyzfile 0 1 D2.xyz
|  4>
|  5> %MaxCore 64000
|  6>
|  7> %pal nprocs 18
|  8> end
|  9>
| 10> %scf
| 11>   MaxIter 150
| 12> end
| 13>
| 14>
| 15>                          ****END OF INPUT****

CARTESIAN COORDINATES (ANGSTROEM)
---------------------------------
  C      0.816067   -2.101491   -2.186546
  H      1.696232   -2.368691   -1.600457
  C      1.100552   -2.467492   -3.599269
  C      0.516243   -0.613634   -2.039373
  H     -0.020066   -2.712849   -1.840844
  C     -0.868621   -0.193925   -2.546303
  C     -0.984801    1.284739   -2.928686
  H     -0.764939    1.904116   -2.051568
  H     -2.032613    1.478953   -3.178952
  C     -0.106085    1.769914   -4.089836
  H     -0.347744    2.822196   -4.262942
  H      0.949683    1.745875   -3.808781
  C     -0.258747    1.004323   -5.409829
  C      0.395958   -0.370696   -5.339939
  H      0.239150    1.569393   -6.201253
  H     -1.309360    0.888694   -5.682455
  H      1.700606   -1.757225   -4.078378
  H      0.293855   -2.359766   -4.256324
  H      1.501324   -3.428479   -3.694915
  O     -0.326329   -1.390398   -5.491279
  F      1.619412   -0.400726   -5.036827
  H     -1.607271   -0.412651   -1.768955
  H     -1.157234   -0.796164   -3.409254
  H      1.299044   -0.056805   -2.558982
  H      0.612393   -0.365579   -0.979171

 Total Charge           Charge          ....    0
 Multiplicity           Mult            ....    1
 Number of Electrons    NEL             ....   80
 Basis Dimension        Dim             ....  215

ORBITAL ENERGIES
----------------

  NO   OCC          E(Eh)            E(eV)
   0   2.0000     -24.873383      -676.8392
   1   2.0000     -19.252042      -523.8747
   2   2.0000     -10.476254      -285.0734
   3   2.0000     -10.323093      -280.9056
   4   2.0000     -10.308473      -280.5078
   5   2.0000     -10.292241      -280.0661
   6   2.0000     -10.279421      -279.7173
   7   2.0000     -10.274537      -279.5844
   8   2.0000     -10.261549      -279.2309
   9   2.0000     -10.212506      -277.8964
  10   2.0000      -1.431413       -38.9507
  11   2.0000      -1.149546       -31.2807
  12   2.0000      -0.940842       -25.6016
  13   2.0000      -0.905796       -24.6480
  14   2.0000      -0.855044       -23.2669
  15   2.0000      -0.813577       -22.1386
  16   2.0000      -0.769770       -20.9465
  17   2.0000      -0.745085       -20.2748
  18   2.0000      -0.706319       -19.2199
  19   2.0000      -0.668610       -18.1938
  20   2.0000      -0.664363       -18.0782
  21   2.0000      -0.649038       -17.6612
  22   2.0000      -0.612299       -16.6615
  23   2.0000      -0.581877       -15.8337
  24   2.0000      -0.558199       -15.1894
  25   2.0000      -0.544782       -14.8243
  26   2.0000      -0.539889       -14.6911
  27   2.0000      -0.529250       -14.4016
  28   2.0000      -0.513065       -13.9612
  29   2.0000      -0.489167       -13.3109
  30   2.0000      -0.481189       -13.0938
  31   2.0000      -0.472775       -12.8649
  32   2.0000      -0.463672       -12.6172
  33   2.0000      -0.444125       -12.0853
  34   2.0000      -0.425091       -11.5673
  35   2.0000      -0.422166       -11.4877
  36   2.0000      -0.409170       -11.1341
  37   2.0000      -0.393938       -10.7196
  38   2.0000      -0.392173       -10.6716
  39   2.0000      -0.355867        -9.6836
  40   0.0000       0.045525         1.2388
  41   0.0000       0.132016         3.5923
  42   0.0000       0.163985         4.4623
  43   0.0000       0.165120         4.4931
  44   0.0000       0.179007         4.8710

MULLIKEN ATOMIC CHARGES
-----------------------
   0 C :   -0.027560
   1 H :    0.011293
   2 C :   -0.054128
   3 C :   -0.071290
   4 H :    0.013503
   5 C :   -0.065592
   6 C :   -0.007048
   7 H :    0.026702
   8 H :    0.022651
   9 C :   -0.095252
  10 H :    0.040729
  11 H :    0.041479
  12 C :   -0.013109
  13 C :    0.255575
  14 H :    0.062108
  15 H :    0.063533
  16 H :    0.004408
  17 H :    0.041706
  18 H :   -0.002999
  19 O :   -0.252778
  20 F :   -0.079821
  21 H :    0.026936
  22 H :    0.037237
  23 H :    0.004275
  24 H :    0.017443
Sum of atomic charges:   -0.0000000

LOEWDIN ATOMIC CHARGES
----------------------
   0 C :   -0.037901
   1 H :    0.018001
   2 C :   -0.092804
   3 C :   -0.047767
   4 H :    0.018052
   5 C :   -0.051042
   6 C :   -0.038188
   7 H :    0.026263
   8 H :    0.024603
   9 C :   -0.040187
  10 H :    0.033124
  11 H :    0.022858
  12 C :   -0.057271
  13 C :    0.140291
  14 H :    0.047130
  15 H :    0.046576
  16 H :   -0.006051
  17 H :    0.001738
  18 H :    0.010957
  19 O :   -0.166935
  20 F :    0.068597
  21 H :    0.028397
  22 H :    0.020479
  23 H :    0.009099
  24 H :    0.021980

  Mayer bond orders larger than 0.100000
B(  0-C ,  1-H ) :   0.9523 B(  0-C ,  2-C ) :   1.0870 B(  0-C ,  3-C ) :   1.0799
B(  0-C ,  4-H ) :   0.9542 B(  2-C , 16-H ) :   0.9552 B(  2-C , 17-H ) :   0.9392
B(  2-C , 18-H ) :   0.9466 B(  3-C ,  5-C ) :   1.0335 B(  3-C , 23-H ) :   0.9596
B(  3-C , 24-H ) :   0.9459 B(  5-C ,  6-C ) :   1.0834 B(  5-C , 21-H ) :   0.9402
B(  5-C , 22-H ) :   0.9458 B(  6-C ,  7-H ) :   0.9468 B(  6-C ,  8-H ) :   0.9473
B(  6-C ,  9-C ) :   1.0640 B(  9-C , 10-H ) :   0.9467 B(  9-C , 11-H ) :   0.9508
B(  9-C , 12-C ) :   1.0467 B( 12-C , 13-C ) :   1.0057 B( 12-C , 14-H ) :   0.9268
B( 12-C , 15-H ) :   0.9461 B( 13-C , 19-O ) :   1.9877 B( 13-C , 20-F ) :   1.1310

Dispersion correction           -0.010991985
FINAL SINGLE POINT ENERGY      -488.427086727305

DIPOLE MOMENT
-------------
                                X             Y             Z
Electronic contribution:      3.60397      -0.30979      -9.86319
Nuclear contribution   :     -3.57245       1.60200       9.69133
                        -----------------------------------------
Total Dipole Moment    :      0.03152       1.29221      -0.17185
                        -----------------------------------------
Magnitude (a.u.)       :      1.30397
Magnitude (Debye)      :      3.31442

Rotational constants in cm-1:     0.051520     0.042563     0.028962
Rotational constants in MHz :  1544.537298  1275.996546   868.258224

                             ****ORCA TERMINATED NORMALLY****
TOTAL RUN TIME: 0 days 0 hours 0 minutes 20 seconds 589 msec
