                         Program Version 5.0.0 -  RELEASE  -
|  1> !wB97X-D3 RIJCOSX def2-TZVP def2/J TightSCF
|  2> *xyz -1 1
|  3> C          0.84888        2.66797       -4.30235
|  4> C          2.09343        1.86104       -4.65684
|  5> H          2.44481        2.04157       -5.67499
|  6> H          2.90175        2.13786       -3.98034
|  7> S          1.87964        0.07859       -4.46297
|  8> O          3.20757       -0.46611       -4.42026
|  9> O          1.07506       -0.05616       -3.26876
| 10> O          1.13166       -0.31996       -5.67903
| 11> H          0.05064        2.40112       -4.96303
| 12> H          1.06043        3.71210       -4.40203
| 13> H          0.56237        2.45684       -3.29327
| 14> *
| 15>
| 16> %MaxCore 64000
| 17>
| 18> %pal nprocs 4
| 19> end
| 20>
| 21> %scf
| 22>   MaxIter 150
| 23> end
| 24>
| 25>
| 26>                          ****END OF INPUT****

CARTESIAN COORDINATES (ANGSTROEM)
---------------------------------
  C      0.848880    2.667970   -4.302350
  C      2.093430    1.861040   -4.656840
  H      2.444810    2.041570   -5.674990
  H      2.901750    2.137860   -3.980340
  S      1.879640    0.078590   -4.462970
  O      3.207570   -0.466110   -4.420260
  O      1.075060   -0.056160   -3.268760
  O      1.131660   -0.319960   -5.679030
  H      0.050640    2.401120   -4.963030
  H      1.060430    3.712100   -4.402030
  H      0.562370    2.456840   -3.293270

 Total Charge           Charge          ....   -1
 Multiplicity           Mult            ....    1
 Number of Electrons    NEL             ....   58
 Basis Dimension        Dim             ....  222

ORBITAL ENERGIES
----------------

  NO   OCC          E(Eh)            E(eV)
   0   2.0000     -88.927624     -2419.8437
   1   2.0000     -19.005902      -517.1769
   2   2.0000     -19.002537      -517.0853
   3   2.0000     -18.989070      -516.7189
   4   2.0000     -10.129439      -275.6360
   5   2.0000     -10.123072      -275.4628
   6   2.0000      -7.990407      -217.4300
   7   2.0000      -5.944799      -161.7662
   8   2.0000      -5.943370      -161.7273
   9   2.0000      -5.943042      -161.7184
  10   2.0000      -1.036258       -28.1980
  11   2.0000      -0.906125       -24.6569
  12   2.0000      -0.879965       -23.9451
  13   2.0000      -0.742922       -20.2159
  14   2.0000      -0.610902       -16.6235
  15   2.0000      -0.481999       -13.1159
  16   2.0000      -0.415186       -11.2978
  17   2.0000      -0.413243       -11.2449
  18   2.0000      -0.370413       -10.0795
  19   2.0000      -0.357191        -9.7196
  20   2.0000      -0.348169        -9.4742
  21   2.0000      -0.320056        -8.7092
  22   2.0000      -0.303865        -8.2686
  23   2.0000      -0.245040        -6.6679
  24   2.0000      -0.244752        -6.6601
  25   2.0000      -0.208484        -5.6731
  26   2.0000      -0.197331        -5.3696
  27   2.0000      -0.186811        -5.0834
  28   2.0000      -0.153938        -4.1889
  29   0.0000       0.255891         6.9631
  30   0.0000       0.298797         8.1307
  31   0.0000       0.314841         8.5673
  32   0.0000       0.320238         8.7141
  33   0.0000       0.348090         9.4720

MULLIKEN ATOMIC CHARGES
-----------------------
   0 C :   -0.323839
   1 C :   -0.243317
   2 H :    0.082176
   3 H :    0.073525
   4 S :    0.861211
   5 O :   -0.555916
   6 O :   -0.571016
   7 O :   -0.608723
   8 H :    0.106743
   9 H :    0.061163
  10 H :    0.117993
Sum of atomic charges:   -1.0000000

LOEWDIN ATOMIC CHARGES
----------------------
   0 C :   -0.343511
   1 C :   -0.427568
   2 H :    0.115585
   3 H :    0.114429
   4 S :    0.408492
   5 O :   -0.373925
   6 O :   -0.381997
   7 O :   -0.436395
   8 H :    0.113326
   9 H :    0.097077
  10 H :    0.114485

  Mayer bond orders larger than 0.100000
B(  0-C ,  1-C ) :   0.9677 B(  0-C ,  8-H ) :   0.9785 B(  0-C ,  9-H ) :   0.9697
B(  0-C , 10-H ) :   0.9763 B(  1-C ,  2-H ) :   0.9679 B(  1-C ,  3-H ) :   0.9612
B(  1-C ,  4-S ) :   0.8833 B(  4-S ,  5-O ) :   1.8235 B(  4-S ,  6-O ) :   1.7541
B(  4-S ,  7-O ) :   1.7449

Dispersion correction           -0.002879580
FINAL SINGLE POINT ENERGY      -703.218322966414

DIPOLE MOMENT
-------------
                                X             Y             Z
Electronic contribution:      1.62135      -7.72154       0.05797
Nuclear contribution   :     -1.55288       9.51857       0.00420
                        -----------------------------------------
Total Dipole Moment    :      0.06847       1.79703       0.06217
                        -----------------------------------------
Magnitude (a.u.)       :      1.79941
Magnitude (Debye)      :      4.57374

Rotational constants in cm-1:     0.163401     0.083833     0.082462
Rotational constants in MHz :  4898.624208  2513.264548  2472.149188

                             ****ORCA TERMINATED NORMALLY****
TOTAL RUN TIME: 0 days 0 hours 0 minutes 40 seconds 556 msec
