                         Program Version 5.0.0 -  RELEASE  -
|  1> !wB97X-D3 RIJCOSX def2-TZVP def2/J TightSCF
|  2> *xyz 1 1
|  3> C         -0.46129        2.23469       -4.98962
|  4> C          0.84888        2.66797       -4.30235
|  5> C         -0.42384        2.39877       -6.47432
|  6> N         -0.95947        3.49265       -7.00740
|  7> N          0.14558        1.48689       -7.20399
|  8> H          0.56537        0.69681       -6.72386
|  9> H          0.22068        1.58177       -8.20752
| 10> H         -1.40624        4.18151       -6.40326
| 11> H         -0.93421        3.68160       -7.99947
| 12> H         -1.28888        2.82674       -4.59500
| 13> H         -0.65170        1.18634       -4.75655
| 14> H          1.66208        2.08894       -4.68750
| 15> H          0.76716        2.51042       -3.24717
| 16> H          1.02677        3.70527       -4.49537
| 17> *
| 18>
| 19> %MaxCore 64000
| 20>
| 21> %pal nprocs 4
| 22> end
| 23>
| 24> %scf
| 25>   MaxIter 150
| 26> end
| 27>
| 28>
| 29>                          ****END OF INPUT****

CARTESIAN COORDINATES (ANGSTROEM)
---------------------------------
  C     -0.461290    2.234690   -4.989620
  C      0.848880    2.667970   -4.302350
  C     -0.423840    2.398770   -6.474320
  N     -0.959470    3.492650   -7.007400
  N      0.145580    1.486890   -7.203990
  H      0.565370    0.696810   -6.723860
  H      0.220680    1.581770   -8.207520
  H     -1.406240    4.181510   -6.403260
  H     -0.934210    3.681600   -7.999470
  H     -1.288880    2.826740   -4.595000
  H     -0.651700    1.186340   -4.756550
  H      1.662080    2.088940   -4.687500
  H      0.767160    2.510420   -3.247170
  H      1.026770    3.705270   -4.495370

 Total Charge           Charge          ....    1
 Multiplicity           Mult            ....    1
 Number of Electrons    NEL             ....   40
 Basis Dimension        Dim             ....  209

ORBITAL ENERGIES
----------------

  NO   OCC          E(Eh)            E(eV)
   0   2.0000     -14.668907      -399.1612
   1   2.0000     -14.664858      -399.0511
   2   2.0000     -10.600409      -288.4518
   3   2.0000     -10.473815      -285.0070
   4   2.0000     -10.428673      -283.7786
   5   2.0000      -1.322831       -35.9961
   6   2.0000      -1.225099       -33.3366
   7   2.0000      -1.085476       -29.5373
   8   2.0000      -0.972068       -26.4513
   9   2.0000      -0.923752       -25.1366
  10   2.0000      -0.880417       -23.9574
  11   2.0000      -0.855521       -23.2799
  12   2.0000      -0.799402       -21.7528
  13   2.0000      -0.751428       -20.4474
  14   2.0000      -0.723685       -19.6925
  15   2.0000      -0.713548       -19.4166
  16   2.0000      -0.639812       -17.4102
  17   2.0000      -0.630223       -17.1492
  18   2.0000      -0.623944       -16.9784
  19   2.0000      -0.585459       -15.9311
  20   0.0000      -0.123730        -3.3669
  21   0.0000      -0.075413        -2.0521
  22   0.0000      -0.028703        -0.7810
  23   0.0000      -0.027375        -0.7449
  24   0.0000       0.001019         0.0277

MULLIKEN ATOMIC CHARGES
-----------------------
   0 C :   -0.272606
   1 C :   -0.330857
   2 C :    0.369439
   3 N :   -0.401622
   4 N :   -0.370714
   5 H :    0.316341
   6 H :    0.298438
   7 H :    0.314948
   8 H :    0.296320
   9 H :    0.153834
  10 H :    0.173550
  11 H :    0.134193
  12 H :    0.176276
  13 H :    0.142460
Sum of atomic charges:    1.0000000

LOEWDIN ATOMIC CHARGES
----------------------
   0 C :   -0.221027
   1 C :   -0.257858
   2 C :   -0.287420
   3 N :    0.098400
   4 N :    0.123299
   5 H :    0.216234
   6 H :    0.203542
   7 H :    0.211990
   8 H :    0.197120
   9 H :    0.160821
  10 H :    0.164488
  11 H :    0.124371
  12 H :    0.138253
  13 H :    0.127788

  Mayer bond orders larger than 0.100000
B(  0-C ,  1-C ) :   0.9637 B(  0-C ,  2-C ) :   0.9700 B(  0-C ,  9-H ) :   0.9655
B(  0-C , 10-H ) :   0.9561 B(  1-C , 11-H ) :   0.9680 B(  1-C , 12-H ) :   0.9664
B(  1-C , 13-H ) :   0.9618 B(  2-C ,  3-N ) :   1.4430 B(  2-C ,  4-N ) :   1.4765
B(  3-N ,  7-H ) :   0.8800 B(  3-N ,  8-H ) :   0.8873 B(  4-N ,  5-H ) :   0.8786
B(  4-N ,  6-H ) :   0.8850

Dispersion correction           -0.003018431
FINAL SINGLE POINT ENERGY      -229.058151044007

DIPOLE MOMENT
-------------
                                X             Y             Z
Electronic contribution:     -1.56019      -0.27029      -3.88924
Nuclear contribution   :      1.33202       0.27544       2.83701
                        -----------------------------------------
Total Dipole Moment    :     -0.22817       0.00515      -1.05223
                        -----------------------------------------
Magnitude (a.u.)       :      1.07670
Magnitude (Debye)      :      2.73675

Rotational constants in cm-1:     0.258570     0.126296     0.098869
Rotational constants in MHz :  7751.748523  3786.267300  2964.011691

                             ****ORCA TERMINATED NORMALLY****
TOTAL RUN TIME: 0 days 0 hours 0 minutes 38 seconds 401 msec
