                         Program Version 5.0.0 -  RELEASE  -
|  1> !wB97X-D3 RIJCOSX def2-TZVP def2/J TightSCF
|  2> *xyz 0 1
|  3> C          0.84888        2.66797       -4.30235
|  4> C          2.09343        1.86104       -4.65684
|  5> H          2.44481        2.04157       -5.67499
|  6> H          2.90175        2.13786       -3.98034
|  7> S          1.87964        0.07859       -4.46297
|  8> F          3.20757       -0.46611       -4.42026
|  9> O          1.07506       -0.05616       -3.26876
| 10> O          1.13166       -0.31996       -5.67903
| 11> H          0.05064        2.40112       -4.96303
| 12> H          1.06043        3.71210       -4.40203
| 13> H          0.56237        2.45684       -3.29327
| 14> *
| 15>
| 16> %MaxCore 64000
| 17>
| 18> %pal nprocs 4
| 19> end
| 20>
| 21> %scf
| 22>   MaxIter 150
| 23> end
| 24>
| 25>
| 26>                          ****END OF INPUT****

CARTESIAN COORDINATES (ANGSTROEM)
---------------------------------
  C      0.848880    2.667970   -4.302350
  C      2.093430    1.861040   -4.656840
  H      2.444810    2.041570   -5.674990
  H      2.901750    2.137860   -3.980340
  S      1.879640    0.078590   -4.462970
  F      3.207570   -0.466110   -4.420260
  O      1.075060   -0.056160   -3.268760
  O      1.131660   -0.319960   -5.679030
  H      0.050640    2.401120   -4.963030
  H      1.060430    3.712100   -4.402030
  H      0.562370    2.456840   -3.293270

 Total Charge           Charge          ....    0
 Multiplicity           Mult            ....    1
 Number of Electrons    NEL             ....   58
 Basis Dimension        Dim             ....  222

ORBITAL ENERGIES
----------------

  NO   OCC          E(Eh)            E(eV)
   0   2.0000     -89.195113     -2427.1224
   1   2.0000     -24.911954      -677.8887
   2   2.0000     -19.242346      -523.6109
   3   2.0000     -19.229582      -523.2635
   4   2.0000     -10.334412      -281.2136
   5   2.0000     -10.288339      -279.9599
   6   2.0000      -8.258549      -224.7266
   7   2.0000      -6.215787      -169.1402
   8   2.0000      -6.209620      -168.9724
   9   2.0000      -6.209145      -168.9594
  10   2.0000      -1.507505       -41.0213
  11   2.0000      -1.219501       -33.1843
  12   2.0000      -1.118135       -30.4260
  13   2.0000      -0.935245       -25.4493
  14   2.0000      -0.849468       -23.1152
  15   2.0000      -0.784204       -21.3393
  16   2.0000      -0.697511       -18.9802
  17   2.0000      -0.696712       -18.9585
  18   2.0000      -0.660072       -17.9615
  19   2.0000      -0.594073       -16.1655
  20   2.0000      -0.584215       -15.8973
  21   2.0000      -0.541149       -14.7254
  22   2.0000      -0.525852       -14.3092
  23   2.0000      -0.502655       -13.6780
  24   2.0000      -0.483400       -13.1540
  25   2.0000      -0.479456       -13.0467
  26   2.0000      -0.429173       -11.6784
  27   2.0000      -0.413399       -11.2492
  28   2.0000      -0.400661       -10.9025
  29   0.0000       0.104073         2.8320
  30   0.0000       0.119082         3.2404
  31   0.0000       0.146559         3.9881
  32   0.0000       0.148966         4.0536
  33   0.0000       0.159768         4.3475

MULLIKEN ATOMIC CHARGES
-----------------------
   0 C :   -0.352429
   1 C :   -0.254357
   2 H :    0.150693
   3 H :    0.130389
   4 S :    0.882351
   5 F :   -0.092571
   6 O :   -0.424992
   7 O :   -0.458833
   8 H :    0.145208
   9 H :    0.127855
  10 H :    0.146685
Sum of atomic charges:   -0.0000000

LOEWDIN ATOMIC CHARGES
----------------------
   0 C :   -0.303982
   1 C :   -0.395210
   2 H :    0.137648
   3 H :    0.132466
   4 S :    0.530123
   5 F :    0.106706
   6 O :   -0.267623
   7 O :   -0.316601
   8 H :    0.126903
   9 H :    0.123420
  10 H :    0.126150

  Mayer bond orders larger than 0.100000
B(  0-C ,  1-C ) :   0.9830 B(  0-C ,  8-H ) :   0.9705 B(  0-C ,  9-H ) :   0.9624
B(  0-C , 10-H ) :   0.9681 B(  1-C ,  2-H ) :   0.9436 B(  1-C ,  3-H ) :   0.9421
B(  1-C ,  4-S ) :   0.9195 B(  4-S ,  5-F ) :   1.1561 B(  4-S ,  6-O ) :   1.9029
B(  4-S ,  7-O ) :   1.8810

Dispersion correction           -0.002877013
FINAL SINGLE POINT ENERGY      -727.734669814447

DIPOLE MOMENT
-------------
                                X             Y             Z
Electronic contribution:      4.19859      -9.34594       0.10583
Nuclear contribution   :     -3.08754      10.54185      -0.04092
                        -----------------------------------------
Total Dipole Moment    :      1.11105       1.19591       0.06492
                        -----------------------------------------
Magnitude (a.u.)       :      1.63366
Magnitude (Debye)      :      4.15244

Rotational constants in cm-1:     0.158925     0.081210     0.079022
Rotational constants in MHz :  4764.450166  2434.603461  2369.014434

                             ****ORCA TERMINATED NORMALLY****
TOTAL RUN TIME: 0 days 0 hours 0 minutes 44 seconds 203 msec
