                         Program Version 5.0.0 -  RELEASE  -
|  1> !wB97X-D3 RIJCOSX def2-TZVP def2/J TightSCF
|  2> *xyz 0 1
|  3> C         -0.46129        2.23469       -4.98962
|  4> C          0.84888        2.66797       -4.30235
|  5> C         -0.42384        2.39877       -6.47432
|  6> C         -0.95947        3.49265       -7.00740
|  7> N          0.14558        1.48689       -7.20399
|  8> H          0.56537        0.69681       -6.72386
|  9> H          0.22068        1.58177       -8.20752
| 10> H         -1.40624        4.18151       -6.40326
| 11> H         -0.93421        3.68160       -7.99947
| 12> H         -1.28888        2.82674       -4.59500
| 13> H         -0.65170        1.18634       -4.75655
| 14> H          1.66208        2.08894       -4.68750
| 15> H          0.76716        2.51042       -3.24717
| 16> H          1.02677        3.70527       -4.49537
| 17> *
| 18>
| 19> %MaxCore 64000
| 20>
| 21> %pal nprocs 4
| 22> end
| 23>
| 24> %scf
| 25>   MaxIter 150
| 26> end
| 27>
| 28>
| 29>                          ****END OF INPUT****

CARTESIAN COORDINATES (ANGSTROEM)
---------------------------------
  C     -0.461290    2.234690   -4.989620
  C      0.848880    2.667970   -4.302350
  C     -0.423840    2.398770   -6.474320
  C     -0.959470    3.492650   -7.007400
  N      0.145580    1.486890   -7.203990
  H      0.565370    0.696810   -6.723860
  H      0.220680    1.581770   -8.207520
  H     -1.406240    4.181510   -6.403260
  H     -0.934210    3.681600   -7.999470
  H     -1.288880    2.826740   -4.595000
  H     -0.651700    1.186340   -4.756550
  H      1.662080    2.088940   -4.687500
  H      0.767160    2.510420   -3.247170
  H      1.026770    3.705270   -4.495370

 Total Charge           Charge          ....    0
 Multiplicity           Mult            ....    1
 Number of Electrons    NEL             ....   40
 Basis Dimension        Dim             ....  209

ORBITAL ENERGIES
----------------

  NO   OCC          E(Eh)            E(eV)
   0   2.0000     -14.421797      -392.4371
   1   2.0000     -10.294582      -280.1298
   2   2.0000     -10.273965      -279.5688
   3   2.0000     -10.258574      -279.1500
   4   2.0000     -10.201146      -277.5873
   5   2.0000      -1.052481       -28.6395
   6   2.0000      -0.894704       -24.3461
   7   2.0000      -0.827119       -22.5071
   8   2.0000      -0.747045       -20.3281
   9   2.0000      -0.674963       -18.3667
  10   2.0000      -0.631994       -17.1974
  11   2.0000      -0.582147       -15.8410
  12   2.0000      -0.537434       -14.6243
  13   2.0000      -0.519093       -14.1252
  14   2.0000      -0.488762       -13.2999
  15   2.0000      -0.478465       -13.0197
  16   2.0000      -0.446942       -12.1619
  17   2.0000      -0.428120       -11.6497
  18   2.0000      -0.426445       -11.6042
  19   2.0000      -0.273301        -7.4369
  20   0.0000       0.104829         2.8525
  21   0.0000       0.129088         3.5127
  22   0.0000       0.150502         4.0954
  23   0.0000       0.159441         4.3386
  24   0.0000       0.169087         4.6011

MULLIKEN ATOMIC CHARGES
-----------------------
   0 C :   -0.230385
   1 C :   -0.312221
   2 C :    0.245662
   3 C :   -0.451579
   4 N :   -0.486307
   5 H :    0.240607
   6 H :    0.244865
   7 H :    0.103859
   8 H :    0.097164
   9 H :    0.116959
  10 H :    0.095208
  11 H :    0.098956
  12 H :    0.115113
  13 H :    0.122100
Sum of atomic charges:   -0.0000000

LOEWDIN ATOMIC CHARGES
----------------------
   0 C :   -0.237202
   1 C :   -0.289987
   2 C :   -0.375617
   3 C :   -0.282963
   4 N :    0.008445
   5 H :    0.175234
   6 H :    0.176942
   7 H :    0.105183
   8 H :    0.093807
   9 H :    0.147601
  10 H :    0.133860
  11 H :    0.111998
  12 H :    0.113797
  13 H :    0.118903

  Mayer bond orders larger than 0.100000
B(  0-C ,  1-C ) :   0.9650 B(  0-C ,  2-C ) :   0.9441 B(  0-C ,  9-H ) :   0.9902
B(  0-C , 10-H ) :   0.9808 B(  1-C , 11-H ) :   0.9765 B(  1-C , 12-H ) :   0.9800
B(  1-C , 13-H ) :   0.9771 B(  2-C ,  3-C ) :   1.7389 B(  2-C ,  4-N ) :   1.1772
B(  3-C ,  7-H ) :   0.9999 B(  3-C ,  8-H ) :   0.9966 B(  4-N ,  5-H ) :   0.9210
B(  4-N ,  6-H ) :   0.9166

Dispersion correction           -0.003017054
FINAL SINGLE POINT ENERGY      -212.584672890171

DIPOLE MOMENT
-------------
                                X             Y             Z
Electronic contribution:     -0.70243      -1.20125      -2.58118
Nuclear contribution   :      1.14741       0.51394       2.60761
                        -----------------------------------------
Total Dipole Moment    :      0.44498      -0.68730       0.02643
                        -----------------------------------------
Magnitude (a.u.)       :      0.81921
Magnitude (Debye)      :      2.08225

Rotational constants in cm-1:     0.269157     0.129188     0.102123
Rotational constants in MHz :  8069.118715  3872.945231  3061.580645

                             ****ORCA TERMINATED NORMALLY****
TOTAL RUN TIME: 0 days 0 hours 0 minutes 40 seconds 334 msec
