                         Program Version 5.0.0 -  RELEASE  -
|  1> !wB97X-D3 RIJCOSX def2-TZVP def2/J TightSCF
|  2> *xyz 0 1
|  3> C          0.84888        2.66797       -4.30235
|  4> C          2.09343        1.86104       -4.65684
|  5> H          2.44481        2.04157       -5.67499
|  6> H          2.90175        2.13786       -3.98034
|  7> S          1.87964        0.07859       -4.46297
|  8> O          3.20757       -0.46611       -4.42026
|  9> F          1.07506       -0.05616       -3.26876
| 10> O          1.13166       -0.31996       -5.67903
| 11> H          0.05064        2.40112       -4.96303
| 12> H          1.06043        3.71210       -4.40203
| 13> H          0.56237        2.45684       -3.29327
| 14> *
| 15>
| 16> %MaxCore 64000
| 17>
| 18> %pal nprocs 4
| 19> end
| 20>
| 21> %scf
| 22>   MaxIter 150
| 23> end
| 24>
| 25>
| 26>                          ****END OF INPUT****

CARTESIAN COORDINATES (ANGSTROEM)
---------------------------------
  C      0.848880    2.667970   -4.302350
  C      2.093430    1.861040   -4.656840
  H      2.444810    2.041570   -5.674990
  H      2.901750    2.137860   -3.980340
  S      1.879640    0.078590   -4.462970
  O      3.207570   -0.466110   -4.420260
  F      1.075060   -0.056160   -3.268760
  O      1.131660   -0.319960   -5.679030
  H      0.050640    2.401120   -4.963030
  H      1.060430    3.712100   -4.402030
  H      0.562370    2.456840   -3.293270

 Total Charge           Charge          ....    0
 Multiplicity           Mult            ....    1
 Number of Electrons    NEL             ....   58
 Basis Dimension        Dim             ....  222

ORBITAL ENERGIES
----------------

  NO   OCC          E(Eh)            E(eV)
   0   2.0000     -89.194481     -2427.1052
   1   2.0000     -24.906144      -677.7306
   2   2.0000     -19.246078      -523.7124
   3   2.0000     -19.229648      -523.2653
   4   2.0000     -10.334391      -281.2131
   5   2.0000     -10.295442      -280.1532
   6   2.0000      -8.257905      -224.7090
   7   2.0000      -6.215369      -169.1288
   8   2.0000      -6.208885      -168.9524
   9   2.0000      -6.208423      -168.9398
  10   2.0000      -1.498687       -40.7813
  11   2.0000      -1.223665       -33.2976
  12   2.0000      -1.121245       -30.5106
  13   2.0000      -0.940772       -25.5997
  14   2.0000      -0.842580       -22.9278
  15   2.0000      -0.787775       -21.4364
  16   2.0000      -0.704314       -19.1654
  17   2.0000      -0.690550       -18.7908
  18   2.0000      -0.650706       -17.7066
  19   2.0000      -0.596226       -16.2241
  20   2.0000      -0.576881       -15.6977
  21   2.0000      -0.550743       -14.9865
  22   2.0000      -0.536590       -14.6013
  23   2.0000      -0.508991       -13.8503
  24   2.0000      -0.492519       -13.4021
  25   2.0000      -0.480276       -13.0690
  26   2.0000      -0.429990       -11.7006
  27   2.0000      -0.414235       -11.2719
  28   2.0000      -0.403801       -10.9880
  29   0.0000       0.093609         2.5472
  30   0.0000       0.129957         3.5363
  31   0.0000       0.141960         3.8629
  32   0.0000       0.152013         4.1365
  33   0.0000       0.159620         4.3435

MULLIKEN ATOMIC CHARGES
-----------------------
   0 C :   -0.361023
   1 C :   -0.256880
   2 H :    0.166317
   3 H :    0.143889
   4 S :    0.880736
   5 O :   -0.408657
   6 F :   -0.105243
   7 O :   -0.461477
   8 H :    0.147490
   9 H :    0.131746
  10 H :    0.123101
Sum of atomic charges:   -0.0000000

LOEWDIN ATOMIC CHARGES
----------------------
   0 C :   -0.318301
   1 C :   -0.387429
   2 H :    0.147843
   3 H :    0.137188
   4 S :    0.532085
   5 O :   -0.257958
   6 F :    0.097077
   7 O :   -0.317455
   8 H :    0.125103
   9 H :    0.124450
  10 H :    0.117399

  Mayer bond orders larger than 0.100000
B(  0-C ,  1-C ) :   0.9715 B(  0-C ,  8-H ) :   0.9692 B(  0-C ,  9-H ) :   0.9658
B(  0-C , 10-H ) :   0.9724 B(  1-C ,  2-H ) :   0.9453 B(  1-C ,  3-H ) :   0.9465
B(  1-C ,  4-S ) :   0.9137 B(  4-S ,  5-O ) :   1.9512 B(  4-S ,  6-F ) :   1.1314
B(  4-S ,  7-O ) :   1.8776

Dispersion correction           -0.002881376
FINAL SINGLE POINT ENERGY      -727.739238384556

DIPOLE MOMENT
-------------
                                X             Y             Z
Electronic contribution:      0.56129      -8.61631       2.05401
Nuclear contribution   :     -0.86540      10.11467      -1.24082
                        -----------------------------------------
Total Dipole Moment    :     -0.30411       1.49836       0.81319
                        -----------------------------------------
Magnitude (a.u.)       :      1.73172
Magnitude (Debye)      :      4.40168

Rotational constants in cm-1:     0.154065     0.083345     0.080357
Rotational constants in MHz :  4618.752213  2498.631937  2409.037217

                             ****ORCA TERMINATED NORMALLY****
TOTAL RUN TIME: 0 days 0 hours 0 minutes 35 seconds 242 msec
