                         Program Version 5.0.0 -  RELEASE  -
|  1> !wB97X-D3 RIJCOSX def2-TZVP def2/J TightSCF
|  2> *xyz 0 1
|  3> C         -0.46129        2.23469       -4.98962
|  4> C          0.84888        2.66797       -4.30235
|  5> C         -0.42384        2.39877       -6.47432
|  6> N         -0.95947        3.49265       -7.00740
|  7> C          0.14558        1.48689       -7.20399
|  8> H          0.56537        0.69681       -6.72386
|  9> H          0.22068        1.58177       -8.20752
| 10> H         -1.40624        4.18151       -6.40326
| 11> H         -0.93421        3.68160       -7.99947
| 12> H         -1.28888        2.82674       -4.59500
| 13> H         -0.65170        1.18634       -4.75655
| 14> H          1.66208        2.08894       -4.68750
| 15> H          0.76716        2.51042       -3.24717
| 16> H          1.02677        3.70527       -4.49537
| 17> *
| 18>
| 19> %MaxCore 64000
| 20>
| 21> %pal nprocs 4
| 22> end
| 23>
| 24> %scf
| 25>   MaxIter 150
| 26> end
| 27>
| 28>
| 29>                          ****END OF INPUT****

CARTESIAN COORDINATES (ANGSTROEM)
---------------------------------
  C     -0.461290    2.234690   -4.989620
  C      0.848880    2.667970   -4.302350
  C     -0.423840    2.398770   -6.474320
  N     -0.959470    3.492650   -7.007400
  C      0.145580    1.486890   -7.203990
  H      0.565370    0.696810   -6.723860
  H      0.220680    1.581770   -8.207520
  H     -1.406240    4.181510   -6.403260
  H     -0.934210    3.681600   -7.999470
  H     -1.288880    2.826740   -4.595000
  H     -0.651700    1.186340   -4.756550
  H      1.662080    2.088940   -4.687500
  H      0.767160    2.510420   -3.247170
  H      1.026770    3.705270   -4.495370

 Total Charge           Charge          ....    0
 Multiplicity           Mult            ....    1
 Number of Electrons    NEL             ....   40
 Basis Dimension        Dim             ....  209

ORBITAL ENERGIES
----------------

  NO   OCC          E(Eh)            E(eV)
   0   2.0000     -14.418299      -392.3418
   1   2.0000     -10.292095      -280.0621
   2   2.0000     -10.273573      -279.5581
   3   2.0000     -10.257040      -279.1083
   4   2.0000     -10.199765      -277.5497
   5   2.0000      -1.039775       -28.2937
   6   2.0000      -0.896122       -24.3847
   7   2.0000      -0.830977       -22.6120
   8   2.0000      -0.748022       -20.3547
   9   2.0000      -0.669075       -18.2064
  10   2.0000      -0.621616       -16.9150
  11   2.0000      -0.584514       -15.9054
  12   2.0000      -0.539144       -14.6709
  13   2.0000      -0.513630       -13.9766
  14   2.0000      -0.489332       -13.3154
  15   2.0000      -0.479249       -13.0410
  16   2.0000      -0.444276       -12.0894
  17   2.0000      -0.430632       -11.7181
  18   2.0000      -0.422834       -11.5059
  19   2.0000      -0.277827        -7.5601
  20   0.0000       0.106975         2.9109
  21   0.0000       0.129445         3.5224
  22   0.0000       0.150662         4.0997
  23   0.0000       0.157926         4.2974
  24   0.0000       0.172138         4.6841

MULLIKEN ATOMIC CHARGES
-----------------------
   0 C :   -0.220412
   1 C :   -0.317971
   2 C :    0.261821
   3 N :   -0.512959
   4 C :   -0.441458
   5 H :    0.108713
   6 H :    0.097776
   7 H :    0.238025
   8 H :    0.241414
   9 H :    0.083227
  10 H :    0.121934
  11 H :    0.120431
  12 H :    0.112560
  13 H :    0.106899
Sum of atomic charges:   -0.0000000

LOEWDIN ATOMIC CHARGES
----------------------
   0 C :   -0.235662
   1 C :   -0.288190
   2 C :   -0.366954
   3 N :   -0.014923
   4 C :   -0.269224
   5 H :    0.110253
   6 H :    0.098938
   7 H :    0.170241
   8 H :    0.170223
   9 H :    0.132387
  10 H :    0.147121
  11 H :    0.118021
  12 H :    0.112881
  13 H :    0.114886

  Mayer bond orders larger than 0.100000
B(  0-C ,  1-C ) :   0.9691 B(  0-C ,  2-C ) :   0.9265 B(  0-C ,  9-H ) :   0.9848
B(  0-C , 10-H ) :   0.9906 B(  1-C , 11-H ) :   0.9781 B(  1-C , 12-H ) :   0.9802
B(  1-C , 13-H ) :   0.9766 B(  2-C ,  3-N ) :   1.1425 B(  2-C ,  4-C ) :   1.7669
B(  3-N ,  7-H ) :   0.9221 B(  3-N ,  8-H ) :   0.9188 B(  4-C ,  5-H ) :   1.0004
B(  4-C ,  6-H ) :   0.9965

Dispersion correction           -0.003006437
FINAL SINGLE POINT ENERGY      -212.584953446619

DIPOLE MOMENT
-------------
                                X             Y             Z
Electronic contribution:     -1.71363       0.60707      -2.40271
Nuclear contribution   :      1.40335       0.04939       2.56207
                        -----------------------------------------
Total Dipole Moment    :     -0.31028       0.65646       0.15936
                        -----------------------------------------
Magnitude (a.u.)       :      0.74338
Magnitude (Debye)      :      1.88952

Rotational constants in cm-1:     0.271383     0.128194     0.101873
Rotational constants in MHz :  8135.853259  3843.152748  3054.074278

                             ****ORCA TERMINATED NORMALLY****
TOTAL RUN TIME: 0 days 0 hours 0 minutes 33 seconds 438 msec
