                         Program Version 5.0.0 -  RELEASE  -
|  1> !wB97X-D3 RIJCOSX def2-TZVP def2/J TightSCF
|  2> *xyz 0 1
|  3> C          0.84888        2.66797       -4.30235
|  4> C          2.09343        1.86104       -4.65684
|  5> H          2.44481        2.04157       -5.67499
|  6> H          2.90175        2.13786       -3.98034
|  7> S          1.87964        0.07859       -4.46297
|  8> O          3.20757       -0.46611       -4.42026
|  9> O          1.07506       -0.05616       -3.26876
| 10> F          1.13166       -0.31996       -5.67903
| 11> H          0.05064        2.40112       -4.96303
| 12> H          1.06043        3.71210       -4.40203
| 13> H          0.56237        2.45684       -3.29327
| 14> *
| 15>
| 16> %MaxCore 64000
| 17>
| 18> %pal nprocs 4
| 19> end
| 20>
| 21> %scf
| 22>   MaxIter 150
| 23> end
| 24>
| 25>
| 26>                          ****END OF INPUT****

CARTESIAN COORDINATES (ANGSTROEM)
---------------------------------
  C      0.848880    2.667970   -4.302350
  C      2.093430    1.861040   -4.656840
  H      2.444810    2.041570   -5.674990
  H      2.901750    2.137860   -3.980340
  S      1.879640    0.078590   -4.462970
  O      3.207570   -0.466110   -4.420260
  O      1.075060   -0.056160   -3.268760
  F      1.131660   -0.319960   -5.679030
  H      0.050640    2.401120   -4.963030
  H      1.060430    3.712100   -4.402030
  H      0.562370    2.456840   -3.293270

 Total Charge           Charge          ....    0
 Multiplicity           Mult            ....    1
 Number of Electrons    NEL             ....   58
 Basis Dimension        Dim             ....  222

ORBITAL ENERGIES
----------------

  NO   OCC          E(Eh)            E(eV)
   0   2.0000     -89.192802     -2427.0595
   1   2.0000     -24.887380      -677.2200
   2   2.0000     -19.245855      -523.7063
   3   2.0000     -19.242365      -523.6114
   4   2.0000     -10.333611      -281.1919
   5   2.0000     -10.289715      -279.9974
   6   2.0000      -8.256248      -224.6639
   7   2.0000      -6.213705      -169.0835
   8   2.0000      -6.207455      -168.9134
   9   2.0000      -6.206656      -168.8917
  10   2.0000      -1.468412       -39.9575
  11   2.0000      -1.232429       -33.5361
  12   2.0000      -1.140508       -31.0348
  13   2.0000      -0.936742       -25.4900
  14   2.0000      -0.832059       -22.6415
  15   2.0000      -0.778845       -21.1935
  16   2.0000      -0.684133       -18.6162
  17   2.0000      -0.668996       -18.2043
  18   2.0000      -0.652697       -17.7608
  19   2.0000      -0.595625       -16.2078
  20   2.0000      -0.579528       -15.7698
  21   2.0000      -0.556899       -15.1540
  22   2.0000      -0.529780       -14.4160
  23   2.0000      -0.502178       -13.6650
  24   2.0000      -0.498296       -13.5593
  25   2.0000      -0.477634       -12.9971
  26   2.0000      -0.437472       -11.9042
  27   2.0000      -0.424799       -11.5594
  28   2.0000      -0.417714       -11.3666
  29   0.0000       0.098615         2.6835
  30   0.0000       0.128849         3.5062
  31   0.0000       0.140619         3.8264
  32   0.0000       0.152682         4.1547
  33   0.0000       0.165299         4.4980

MULLIKEN ATOMIC CHARGES
-----------------------
   0 C :   -0.347798
   1 C :   -0.269067
   2 H :    0.143608
   3 H :    0.159387
   4 S :    0.887342
   5 O :   -0.416799
   6 O :   -0.433131
   7 F :   -0.128582
   8 H :    0.123246
   9 H :    0.127789
  10 H :    0.154004
Sum of atomic charges:    0.0000000

LOEWDIN ATOMIC CHARGES
----------------------
   0 C :   -0.315196
   1 C :   -0.391021
   2 H :    0.134494
   3 H :    0.147498
   4 S :    0.537706
   5 O :   -0.261408
   6 O :   -0.270321
   7 F :    0.049541
   8 H :    0.119527
   9 H :    0.122629
  10 H :    0.126550

  Mayer bond orders larger than 0.100000
B(  0-C ,  1-C ) :   0.9718 B(  0-C ,  8-H ) :   0.9738 B(  0-C ,  9-H ) :   0.9641
B(  0-C , 10-H ) :   0.9672 B(  1-C ,  2-H ) :   0.9500 B(  1-C ,  3-H ) :   0.9448
B(  1-C ,  4-S ) :   0.9139 B(  4-S ,  5-O ) :   1.9480 B(  4-S ,  6-O ) :   1.8988
B(  4-S ,  7-F ) :   1.1054

Dispersion correction           -0.002844617
FINAL SINGLE POINT ENERGY      -727.754919289977

DIPOLE MOMENT
-------------
                                X             Y             Z
Electronic contribution:      0.64496      -9.09778      -2.06729
Nuclear contribution   :     -0.92438      10.38956       1.27076
                        -----------------------------------------
Total Dipole Moment    :     -0.27942       1.29178      -0.79653
                        -----------------------------------------
Magnitude (a.u.)       :      1.54312
Magnitude (Debye)      :      3.92231

Rotational constants in cm-1:     0.154243     0.082247     0.080562
Rotational constants in MHz :  4624.087322  2465.703680  2415.175852

                             ****ORCA TERMINATED NORMALLY****
TOTAL RUN TIME: 0 days 0 hours 0 minutes 33 seconds 888 msec
