                         Program Version 5.0.0 -  RELEASE  -
|  1> !wB97X-D3 RIJCOSX def2-TZVP def2/J TightSCF xyzfile
|  2>
|  3> *xyzfile 0 1 D4.xyz
|  4>
|  5> %MaxCore 64000
|  6>
|  7> %pal nprocs 18
|  8> end
|  9>
| 10> %scf
| 11>   MaxIter 150
| 12> end
| 13>
| 14>
| 15>                          ****END OF INPUT****

CARTESIAN COORDINATES (ANGSTROEM)
---------------------------------
  C     -0.461293    2.234686   -4.989619
  C      0.848883    2.667967   -4.302351
  C      2.093434    1.861037   -4.656845
  H      2.444814    2.041567   -5.674990
  H      2.901748    2.137864   -3.980338
  S      1.879644    0.078594   -4.462965
  C     -0.423841    2.398772   -6.474317
  N     -0.959467    3.492647   -7.007401
  C      0.145585    1.486891   -7.203987
  H      0.565371    0.696807   -6.723858
  H      0.220682    1.581768   -8.207520
  H     -1.406243    4.181507   -6.403261
  H     -0.934215    3.681601   -7.999468
  O      3.207574   -0.466111   -4.420259
  F      1.075064   -0.056160   -3.268758
  O      1.131661   -0.319960   -5.679031
  H      0.668432    2.559427   -3.232850
  H      1.034074    3.729426   -4.497081
  H     -1.288884    2.826737   -4.594997
  H     -0.651696    1.186343   -4.756552

 Total Charge           Charge          ....    0
 Multiplicity           Mult            ....    1
 Number of Electrons    NEL             ....   88
 Basis Dimension        Dim             ....  376

ORBITAL ENERGIES
----------------

  NO   OCC          E(Eh)            E(eV)
   0   2.0000     -89.196428     -2427.1582
   1   2.0000     -24.907776      -677.7750
   2   2.0000     -19.246828      -523.7328
   3   2.0000     -19.231906      -523.3268
   4   2.0000     -14.415759      -392.2727
   5   2.0000     -10.329874      -281.0902
   6   2.0000     -10.306280      -280.4481
   7   2.0000     -10.287741      -279.9437
   8   2.0000     -10.286303      -279.9045
   9   2.0000     -10.180619      -277.0287
  10   2.0000      -8.260038      -224.7671
  11   2.0000      -6.217577      -169.1889
  12   2.0000      -6.210870      -169.0064
  13   2.0000      -6.210588      -168.9987
  14   2.0000      -1.500520       -40.8312
  15   2.0000      -1.226954       -33.3871
  16   2.0000      -1.129059       -30.7233
  17   2.0000      -1.038648       -28.2631
  18   2.0000      -0.951278       -25.8856
  19   2.0000      -0.881540       -23.9879
  20   2.0000      -0.835012       -22.7218
  21   2.0000      -0.816524       -22.2188
  22   2.0000      -0.749800       -20.4031
  23   2.0000      -0.705395       -19.1948
  24   2.0000      -0.695450       -18.9242
  25   2.0000      -0.671303       -18.2671
  26   2.0000      -0.657943       -17.9035
  27   2.0000      -0.618007       -16.8168
  28   2.0000      -0.598470       -16.2852
  29   2.0000      -0.581179       -15.8147
  30   2.0000      -0.577385       -15.7115
  31   2.0000      -0.561480       -15.2787
  32   2.0000      -0.541601       -14.7377
  33   2.0000      -0.510438       -13.8897
  34   2.0000      -0.498989       -13.5782
  35   2.0000      -0.491475       -13.3737
  36   2.0000      -0.474808       -12.9202
  37   2.0000      -0.468519       -12.7491
  38   2.0000      -0.436637       -11.8815
  39   2.0000      -0.427702       -11.6384
  40   2.0000      -0.419700       -11.4206
  41   2.0000      -0.415617       -11.3095
  42   2.0000      -0.383693       -10.4408
  43   2.0000      -0.272701        -7.4206
  44   0.0000       0.093098         2.5333
  45   0.0000       0.113213         3.0807
  46   0.0000       0.122917         3.3447
  47   0.0000       0.130883         3.5615
  48   0.0000       0.140365         3.8195

MULLIKEN ATOMIC CHARGES
-----------------------
   0 C :   -0.280286
   1 C :   -0.200274
   2 C :   -0.318924
   3 H :    0.193317
   4 H :    0.159548
   5 S :    0.888414
   6 C :    0.243851
   7 N :   -0.520032
   8 C :   -0.484984
   9 H :    0.186839
  10 H :    0.087756
  11 H :    0.230104
  12 H :    0.242552
  13 O :   -0.412692
  14 F :   -0.099816
  15 O :   -0.433204
  16 H :    0.126112
  17 H :    0.126130
  18 H :    0.107838
  19 H :    0.157749
Sum of atomic charges:   -0.0000000

LOEWDIN ATOMIC CHARGES
----------------------
   0 C :   -0.219659
   1 C :   -0.278662
   2 C :   -0.356648
   3 H :    0.154816
   4 H :    0.141046
   5 S :    0.546707
   6 C :   -0.378820
   7 N :   -0.022832
   8 C :   -0.254360
   9 H :    0.091104
  10 H :    0.096340
  11 H :    0.166143
  12 H :    0.170011
  13 O :   -0.254431
  14 F :    0.100617
  15 O :   -0.271512
  16 H :    0.138238
  17 H :    0.145735
  18 H :    0.138631
  19 H :    0.147537

  Mayer bond orders larger than 0.100000
B(  0-C ,  1-C ) :   0.9279 B(  0-C ,  6-C ) :   0.8978 B(  0-C , 18-H ) :   0.9852
B(  0-C , 19-H ) :   1.0130 B(  1-C ,  2-C ) :   0.9814 B(  1-C , 16-H ) :   0.9830
B(  1-C , 17-H ) :   0.9486 B(  2-C ,  3-H ) :   0.9335 B(  2-C ,  4-H ) :   0.9541
B(  2-C ,  5-S ) :   0.9265 B(  5-S , 13-O ) :   1.9660 B(  5-S , 14-F ) :   1.1297
B(  5-S , 15-O ) :   1.7921 B(  6-C ,  7-N ) :   1.1145 B(  6-C ,  8-C ) :   1.7504
B(  7-N , 11-H ) :   0.9237 B(  7-N , 12-H ) :   0.9203 B(  8-C ,  9-H ) :   0.9789
B(  8-C , 10-H ) :   1.0023

Dispersion correction           -0.008575530
FINAL SINGLE POINT ENERGY      -899.783762002767

DIPOLE MOMENT
-------------
                                X             Y             Z
Electronic contribution:      5.55303     -11.68510       7.35822
Nuclear contribution   :     -6.09390      13.51614      -6.45360
                        -----------------------------------------
Total Dipole Moment    :     -0.54087       1.83103       0.90461
                        -----------------------------------------
Magnitude (a.u.)       :      2.11271
Magnitude (Debye)      :      5.37009

Rotational constants in cm-1:     0.081469     0.024519     0.022336
Rotational constants in MHz :  2442.393231   735.066768   669.628729

                             ****ORCA TERMINATED NORMALLY****
TOTAL RUN TIME: 0 days 0 hours 0 minutes 49 seconds 7 msec
