                         Program Version 5.0.0 -  RELEASE  -
|  1> !M062X D3Zero RIJCOSX def2-SVPD def2/J TightSCF
|  2> *xyz -1 1
|  3> C          0.69721        3.22791       -0.52513
|  4> O          1.48929        2.37470        0.19919
|  5> H          0.26505        2.70007       -1.34946
|  6> H          1.28994        4.03943       -0.89255
|  7> H         -0.08148        3.61005        0.10138
|  8> *
|  9>
| 10> %MaxCore 64000
| 11> %pal nprocs 8
| 12> end
| 13>
| 14> %scf
| 15>   MaxIter 150
| 16> end
| 17>
| 18>
| 19>                          ****END OF INPUT****

CARTESIAN COORDINATES (ANGSTROEM)
---------------------------------
  C      0.697210    3.227910   -0.525130
  O      1.489290    2.374700    0.199190
  H      0.265050    2.700070   -1.349460
  H      1.289940    4.039430   -0.892550
  H     -0.081480    3.610050    0.101380

 Total Charge           Charge          ....   -1
 Multiplicity           Mult            ....    1
 Number of Electrons    NEL             ....   18
 Basis Dimension        Dim             ....   67

ORBITAL ENERGIES
----------------

  NO   OCC          E(Eh)            E(eV)
   0   2.0000     -19.277084      -524.5561
   1   2.0000     -10.334071      -281.2044
   2   2.0000      -0.755308       -20.5530
   3   2.0000      -0.476031       -12.9535
   4   2.0000      -0.262766        -7.1502
   5   2.0000      -0.262730        -7.1492
   6   2.0000      -0.163091        -4.4379
   7   2.0000      -0.012614        -0.3432
   8   2.0000      -0.012569        -0.3420
   9   0.0000       0.217816         5.9271
  10   0.0000       0.296625         8.0716
  11   0.0000       0.296634         8.0718
  12   0.0000       0.304848         8.2953
  13   0.0000       0.338887         9.2216

MULLIKEN ATOMIC CHARGES
-----------------------
   0 C :    0.757962
   1 O :   -1.039514
   2 H :   -0.240354
   3 H :   -0.239026
   4 H :   -0.239068
Sum of atomic charges:   -1.0000000

LOEWDIN ATOMIC CHARGES
----------------------
   0 C :   -0.107735
   1 O :   -0.663318
   2 H :   -0.076338
   3 H :   -0.076283
   4 H :   -0.076326

  Mayer bond orders larger than 0.100000
B(  0-C ,  1-O ) :   1.1850 B(  0-C ,  2-H ) :   0.9219 B(  0-C ,  3-H ) :   0.9214
B(  0-C ,  4-H ) :   0.9204

Dispersion correction           -0.000000442
FINAL SINGLE POINT ENERGY      -114.953731989585

DIPOLE MOMENT
-------------
                                X             Y             Z
Electronic contribution:      1.07228      -1.15490       0.98007
Nuclear contribution   :     -1.66672       1.79535      -1.52413
                        -----------------------------------------
Total Dipole Moment    :     -0.59444       0.64045      -0.54406
                        -----------------------------------------
Magnitude (a.u.)       :      1.02934
Magnitude (Debye)      :      2.61637

Rotational constants in cm-1:     5.477728     0.937442     0.937441
Rotational constants in MHz : 164218.159175 28103.818547 28103.787504

                             ****ORCA TERMINATED NORMALLY****
TOTAL RUN TIME: 0 days 0 hours 0 minutes 3 seconds 34 msec
