                         Program Version 5.0.0 -  RELEASE  -
|  1> !M062X D3Zero RIJCOSX def2-SVPD def2/J TightSCF
|  2> *xyz 1 1
|  3> C          3.95643        0.50147       -0.37910
|  4> N          3.80389        1.96157       -0.15675
|  5> H          4.20643        2.24441        0.74536
|  6> H          2.80827        2.21132       -0.09610
|  7> H          4.28076        2.50155       -0.89104
|  8> H          3.52890        0.23799       -1.32393
|  9> H          3.45469       -0.03240        0.40073
| 10> H          4.99562        0.24661       -0.37434
| 11> *
| 12>
| 13> %MaxCore 64000
| 14> %pal nprocs 8
| 15> end
| 16>
| 17> %scf
| 18>   MaxIter 150
| 19> end
| 20>
| 21>
| 22>                          ****END OF INPUT****

CARTESIAN COORDINATES (ANGSTROEM)
---------------------------------
  C      3.956430    0.501470   -0.379100
  N      3.803890    1.961570   -0.156750
  H      4.206430    2.244410    0.745360
  H      2.808270    2.211320   -0.096100
  H      4.280760    2.501550   -0.891040
  H      3.528900    0.237990   -1.323930
  H      3.454690   -0.032400    0.400730
  H      4.995620    0.246610   -0.374340

 Total Charge           Charge          ....    1
 Multiplicity           Mult            ....    1
 Number of Electrons    NEL             ....   18
 Basis Dimension        Dim             ....   88

ORBITAL ENERGIES
----------------

  NO   OCC          E(Eh)            E(eV)
   0   2.0000     -15.110745      -411.1843
   1   2.0000     -10.810201      -294.1605
   2   2.0000      -1.323908       -36.0254
   3   2.0000      -1.024291       -27.8724
   4   2.0000      -0.890466       -24.2308
   5   2.0000      -0.878936       -23.9171
   6   2.0000      -0.783357       -21.3162
   7   2.0000      -0.693417       -18.8688
   8   2.0000      -0.691580       -18.8189
   9   0.0000      -0.178416        -4.8549
  10   0.0000      -0.109533        -2.9806
  11   0.0000      -0.106818        -2.9067
  12   0.0000      -0.106735        -2.9044
  13   0.0000      -0.061681        -1.6784

MULLIKEN ATOMIC CHARGES
-----------------------
   0 C :    0.830714
   1 N :   -0.926231
   2 H :    0.385091
   3 H :    0.393997
   4 H :    0.391618
   5 H :   -0.024583
   6 H :   -0.024175
   7 H :   -0.026431
Sum of atomic charges:    1.0000000

LOEWDIN ATOMIC CHARGES
----------------------
   0 C :    0.286615
   1 N :    0.301226
   2 H :    0.109471
   3 H :    0.111363
   4 H :    0.113288
   5 H :    0.026062
   6 H :    0.026161
   7 H :    0.025813

  Mayer bond orders larger than 0.100000
B(  0-C ,  1-N ) :   0.7834 B(  0-C ,  5-H ) :   0.9134 B(  0-C ,  6-H ) :   0.9098
B(  0-C ,  7-H ) :   0.9145 B(  1-N ,  2-H ) :   0.7634 B(  1-N ,  3-H ) :   0.7460
B(  1-N ,  4-H ) :   0.7465

Dispersion correction           -0.000006265
FINAL SINGLE POINT ENERGY       -96.087715409274

DIPOLE MOMENT
-------------
                                X             Y             Z
Electronic contribution:     -0.10974       1.06774       0.14005
Nuclear contribution   :      0.02154      -0.23654       0.01355
                        -----------------------------------------
Total Dipole Moment    :     -0.08820       0.83120       0.15360
                        -----------------------------------------
Magnitude (a.u.)       :      0.84986
Magnitude (Debye)      :      2.16018

Rotational constants in cm-1:     2.873586     0.687737     0.684128
Rotational constants in MHz : 86147.950763 20617.847271 20509.632222

                             ****ORCA TERMINATED NORMALLY****
TOTAL RUN TIME: 0 days 0 hours 0 minutes 3 seconds 762 msec
