                         Program Version 5.0.0 -  RELEASE  -
|  1> !M062X D3Zero RIJCOSX def2-SVPD def2/J TightSCF
|  2> *xyz 0 1
|  3> C          0.69721        3.22791       -0.52513
|  4> F          1.48929        2.37470        0.19919
|  5> H          0.26505        2.70007       -1.34946
|  6> H          1.28994        4.03943       -0.89255
|  7> H         -0.08148        3.61005        0.10138
|  8> *
|  9>
| 10> %MaxCore 64000
| 11> %pal nprocs 8
| 12> end
| 13>
| 14> %scf
| 15>   MaxIter 150
| 16> end
| 17>
| 18>
| 19>                          ****END OF INPUT****

CARTESIAN COORDINATES (ANGSTROEM)
---------------------------------
  C      0.697210    3.227910   -0.525130
  F      1.489290    2.374700    0.199190
  H      0.265050    2.700070   -1.349460
  H      1.289940    4.039430   -0.892550
  H     -0.081480    3.610050    0.101380

 Total Charge           Charge          ....    0
 Multiplicity           Mult            ....    1
 Number of Electrons    NEL             ....   18
 Basis Dimension        Dim             ....   67

ORBITAL ENERGIES
----------------

  NO   OCC          E(Eh)            E(eV)
   0   2.0000     -25.240294      -686.8233
   1   2.0000     -10.622085      -289.0416
   2   2.0000      -1.317226       -35.8435
   3   2.0000      -0.796842       -21.6832
   4   2.0000      -0.577254       -15.7079
   5   2.0000      -0.577227       -15.7071
   6   2.0000      -0.577115       -15.7041
   7   2.0000      -0.429487       -11.6869
   8   2.0000      -0.429478       -11.6867
   9   0.0000       0.040243         1.0951
  10   0.0000       0.094108         2.5608
  11   0.0000       0.120647         3.2830
  12   0.0000       0.120655         3.2832
  13   0.0000       0.156377         4.2552

MULLIKEN ATOMIC CHARGES
-----------------------
   0 C :    0.800079
   1 F :   -0.513884
   2 H :   -0.096475
   3 H :   -0.094910
   4 H :   -0.094809
Sum of atomic charges:   -0.0000000

LOEWDIN ATOMIC CHARGES
----------------------
   0 C :    0.282237
   1 F :   -0.267521
   2 H :   -0.004962
   3 H :   -0.004874
   4 H :   -0.004880

  Mayer bond orders larger than 0.100000
B(  0-C ,  1-F ) :   0.7923 B(  0-C ,  2-H ) :   0.9564 B(  0-C ,  3-H ) :   0.9559
B(  0-C ,  4-H ) :   0.9546

Dispersion correction           -0.000000625
FINAL SINGLE POINT ENERGY      -139.580608617845

DIPOLE MOMENT
-------------
                                X             Y             Z
Electronic contribution:      1.68381      -1.81362       1.53925
Nuclear contribution   :     -2.11402       2.27717      -1.93317
                        -----------------------------------------
Total Dipole Moment    :     -0.43021       0.46355      -0.39392
                        -----------------------------------------
Magnitude (a.u.)       :      0.74507
Magnitude (Debye)      :      1.89382

Rotational constants in cm-1:     5.477728     0.872600     0.872599
Rotational constants in MHz : 164218.159175 26159.886777 26159.859881

                             ****ORCA TERMINATED NORMALLY****
TOTAL RUN TIME: 0 days 0 hours 0 minutes 2 seconds 684 msec
