                         Program Version 5.0.0 -  RELEASE  -
|  1> !M062X D3Zero RIJCOSX def2-SVPD def2/J TightSCF
|  2> *xyz 0 1
|  3> C          3.95643        0.50147       -0.37910
|  4> C          3.80389        1.96157       -0.15675
|  5> H          4.20643        2.24441        0.74536
|  6> H          2.80827        2.21132       -0.09610
|  7> H          4.28076        2.50155       -0.89104
|  8> H          3.52890        0.23799       -1.32393
|  9> H          3.45469       -0.03240        0.40073
| 10> H          4.99562        0.24661       -0.37434
| 11> *
| 12>
| 13> %MaxCore 64000
| 14> %pal nprocs 8
| 15> end
| 16>
| 17> %scf
| 18>   MaxIter 150
| 19> end
| 20>
| 21>
| 22>                          ****END OF INPUT****

CARTESIAN COORDINATES (ANGSTROEM)
---------------------------------
  C      3.956430    0.501470   -0.379100
  C      3.803890    1.961570   -0.156750
  H      4.206430    2.244410    0.745360
  H      2.808270    2.211320   -0.096100
  H      4.280760    2.501550   -0.891040
  H      3.528900    0.237990   -1.323930
  H      3.454690   -0.032400    0.400730
  H      4.995620    0.246610   -0.374340

 Total Charge           Charge          ....    0
 Multiplicity           Mult            ....    1
 Number of Electrons    NEL             ....   18
 Basis Dimension        Dim             ....   88

ORBITAL ENERGIES
----------------

  NO   OCC          E(Eh)            E(eV)
   0   2.0000     -10.526767      -286.4479
   1   2.0000     -10.513827      -286.0958
   2   2.0000      -0.859163       -23.3790
   3   2.0000      -0.701076       -19.0772
   4   2.0000      -0.521336       -14.1863
   5   2.0000      -0.514453       -13.9990
   6   2.0000      -0.430369       -11.7109
   7   2.0000      -0.410593       -11.1728
   8   2.0000      -0.404006       -10.9936
   9   0.0000       0.045621         1.2414
  10   0.0000       0.075808         2.0628
  11   0.0000       0.128210         3.4888
  12   0.0000       0.130162         3.5419
  13   0.0000       0.148436         4.0392

MULLIKEN ATOMIC CHARGES
-----------------------
   0 C :    0.154153
   1 C :    0.444802
   2 H :   -0.156732
   3 H :   -0.152968
   4 H :   -0.156057
   5 H :   -0.047338
   6 H :   -0.040288
   7 H :   -0.045572
Sum of atomic charges:    0.0000000

LOEWDIN ATOMIC CHARGES
----------------------
   0 C :    0.073305
   1 C :    0.075483
   2 H :   -0.035580
   3 H :   -0.033420
   4 H :   -0.031605
   5 H :   -0.016192
   6 H :   -0.015660
   7 H :   -0.016332

  Mayer bond orders larger than 0.100000
B(  0-C ,  1-C ) :   1.4690 B(  0-C ,  2-H ) :   0.1573 B(  0-C ,  3-H ) :   0.1640
B(  0-C ,  4-H ) :   0.1612 B(  0-C ,  5-H ) :   0.8750 B(  0-C ,  6-H ) :   0.8739
B(  0-C ,  7-H ) :   0.8788 B(  1-C ,  2-H ) :   0.7982 B(  1-C ,  3-H ) :   0.8042
B(  1-C ,  4-H ) :   0.8132 B(  1-C ,  5-H ) :   0.1449 B(  1-C ,  6-H ) :   0.1458
B(  1-C ,  7-H ) :   0.1432 B(  2-H ,  3-H ) :   0.1001

Dispersion correction           -0.000006199
FINAL SINGLE POINT ENERGY       -79.700807100531

DIPOLE MOMENT
-------------
                                X             Y             Z
Electronic contribution:      0.00222       0.00946      -0.03642
Nuclear contribution   :     -0.00471       0.01526       0.05114
                        -----------------------------------------
Total Dipole Moment    :     -0.00249       0.02471       0.01471
                        -----------------------------------------
Magnitude (a.u.)       :      0.02887
Magnitude (Debye)      :      0.07338

Rotational constants in cm-1:     2.873610     0.717865     0.713933
Rotational constants in MHz : 86148.646881 21521.066032 21403.176468

                             ****ORCA TERMINATED NORMALLY****
TOTAL RUN TIME: 0 days 0 hours 0 minutes 3 seconds 665 msec
