                         Program Version 5.0.0 -  RELEASE  -
|  1> !wB97X-D3 RIJCOSX def2-SVP def2/J TightSCF
|  2> *xyz -1 1
|  3> C          0.13297        2.38587       -4.02462
|  4> C         -1.36646        2.47911       -4.31393
|  5> C         -2.35773        2.30686       -3.13675
|  6> H         -1.63680        1.72709       -5.06399
|  7> H         -1.58235        3.44561       -4.76869
|  8> O         -3.44376        2.84652       -3.25274
|  9> O         -1.97092        1.58304       -2.15123
| 10> H          0.68084        2.52514       -4.93310
| 11> H          0.35823        1.42282       -3.61633
| 12> H          0.40851        3.14443       -3.32208
| 13> *
| 14> %MaxCore 64000
| 15>
| 16> %pal nprocs 4
| 17> end
| 18>
| 19> %scf
| 20>   MaxIter 150
| 21> end
| 22>
| 23>
| 24>                          ****END OF INPUT****

CARTESIAN COORDINATES (ANGSTROEM)
---------------------------------
  C      0.132970    2.385870   -4.024620
  C     -1.366460    2.479110   -4.313930
  C     -2.357730    2.306860   -3.136750
  H     -1.636800    1.727090   -5.063990
  H     -1.582350    3.445610   -4.768690
  O     -3.443760    2.846520   -3.252740
  O     -1.970920    1.583040   -2.151230
  H      0.680840    2.525140   -4.933100
  H      0.358230    1.422820   -3.616330
  H      0.408510    3.144430   -3.322080

 Total Charge           Charge          ....   -1
 Multiplicity           Mult            ....    1
 Number of Electrons    NEL             ....   40
 Basis Dimension        Dim             ....   95

ORBITAL ENERGIES
----------------

  NO   OCC          E(Eh)            E(eV)
   0   2.0000     -18.944924      -515.5176
   1   2.0000     -18.934071      -515.2223
   2   2.0000     -10.144833      -276.0549
   3   2.0000     -10.116702      -275.2894
   4   2.0000     -10.098542      -274.7953
   5   2.0000      -0.899887       -24.4872
   6   2.0000      -0.795632       -21.6502
   7   2.0000      -0.700459       -19.0605
   8   2.0000      -0.565510       -15.3883
   9   2.0000      -0.399499       -10.8709
  10   2.0000      -0.383370       -10.4320
  11   2.0000      -0.340308        -9.2602
  12   2.0000      -0.307515        -8.3679
  13   2.0000      -0.296807        -8.0765
  14   2.0000      -0.284227        -7.7342
  15   2.0000      -0.251115        -6.8332
  16   2.0000      -0.236101        -6.4246
  17   2.0000      -0.107175        -2.9164
  18   2.0000      -0.104792        -2.8515
  19   2.0000      -0.090766        -2.4699
  20   0.0000       0.299919         8.1612
  21   0.0000       0.351227         9.5574
  22   0.0000       0.357125         9.7179
  23   0.0000       0.368063        10.0155
  24   0.0000       0.376879        10.2554

MULLIKEN ATOMIC CHARGES
-----------------------
   0 C :    0.009067
   1 C :   -0.091044
   2 C :    0.064811
   3 H :   -0.016920
   4 H :   -0.031669
   5 O :   -0.404974
   6 O :   -0.487895
   7 H :   -0.042181
   8 H :    0.004387
   9 H :   -0.003583
Sum of atomic charges:   -1.0000000

LOEWDIN ATOMIC CHARGES
----------------------
   0 C :   -0.068500
   1 C :   -0.104496
   2 C :   -0.047285
   3 H :    0.009050
   4 H :   -0.000499
   5 O :   -0.361421
   6 O :   -0.442939
   7 H :   -0.006549
   8 H :    0.012029
   9 H :    0.010609

  Mayer bond orders larger than 0.100000
B(  0-C ,  1-C ) :   1.0612 B(  0-C ,  7-H ) :   0.9642 B(  0-C ,  8-H ) :   0.9667
B(  0-C ,  9-H ) :   0.9779 B(  1-C ,  2-C ) :   0.8992 B(  1-C ,  3-H ) :   0.9486
B(  1-C ,  4-H ) :   0.9512 B(  2-C ,  5-O ) :   1.8994 B(  2-C ,  6-O ) :   1.8218
B(  5-O ,  6-O ) :   0.1098

Dispersion correction           -0.001941517
FINAL SINGLE POINT ENERGY      -267.543034345713

DIPOLE MOMENT
-------------
                                X             Y             Z
Electronic contribution:     -5.36947      -0.41406       3.31508
Nuclear contribution   :      6.75610       0.63068      -4.53972
                        -----------------------------------------
Total Dipole Moment    :      1.38663       0.21662      -1.22465
                        -----------------------------------------
Magnitude (a.u.)       :      1.86264
Magnitude (Debye)      :      4.73444

Rotational constants in cm-1:     0.335096     0.130241     0.099025
Rotational constants in MHz : 10045.924902  3904.536250  2968.708333

                             ****ORCA TERMINATED NORMALLY****
TOTAL RUN TIME: 0 days 0 hours 0 minutes 13 seconds 69 msec
