                         Program Version 5.0.0 -  RELEASE  -
|  1> !wB97X-D3 RIJCOSX def2-SVP def2/J TightSCF
|  2> *xyz 1 1
|  3> C          0.64866        1.00359       -3.64560
|  4> N          0.28128        0.67645       -2.24018
|  5> C          0.13297        2.38587       -4.02462
|  6> H          0.39079       -0.31925       -2.02649
|  7> H         -0.69269        0.99010       -2.13812
|  8> H          0.85421        1.21221       -1.57528
|  9> H          0.19099        0.23965       -4.27575
| 10> H          1.73157        0.93173       -3.75075
| 11> H          0.40589        2.60338       -5.03610
| 12> H          0.56342        3.11797       -3.37374
| 13> H         -0.93265        2.40724       -3.93025
| 14> *
| 15> %MaxCore 64000
| 16>
| 17> %pal nprocs 4
| 18> end
| 19>
| 20> %scf
| 21>   MaxIter 150
| 22> end
| 23>
| 24>
| 25>                          ****END OF INPUT****

CARTESIAN COORDINATES (ANGSTROEM)
---------------------------------
  C      0.648660    1.003590   -3.645600
  N      0.281280    0.676450   -2.240180
  C      0.132970    2.385870   -4.024620
  H      0.390790   -0.319250   -2.026490
  H     -0.692690    0.990100   -2.138120
  H      0.854210    1.212210   -1.575280
  H      0.190990    0.239650   -4.275750
  H      1.731570    0.931730   -3.750750
  H      0.405890    2.603380   -5.036100
  H      0.563420    3.117970   -3.373740
  H     -0.932650    2.407240   -3.930250

 Total Charge           Charge          ....    1
 Multiplicity           Mult            ....    1
 Number of Electrons    NEL             ....   26
 Basis Dimension        Dim             ....   82

ORBITAL ENERGIES
----------------

  NO   OCC          E(Eh)            E(eV)
   0   2.0000     -14.776495      -402.0889
   1   2.0000     -10.543676      -286.9080
   2   2.0000     -10.466855      -284.8176
   3   2.0000      -1.328950       -36.1626
   4   2.0000      -1.076514       -29.2934
   5   2.0000      -0.952681       -25.9238
   6   2.0000      -0.907110       -24.6837
   7   2.0000      -0.899379       -24.4733
   8   2.0000      -0.796893       -21.6846
   9   2.0000      -0.743189       -20.2232
  10   2.0000      -0.681859       -18.5543
  11   2.0000      -0.667270       -18.1573
  12   2.0000      -0.648568       -17.6484
  13   0.0000      -0.093153        -2.5348
  14   0.0000      -0.033722        -0.9176
  15   0.0000      -0.029962        -0.8153
  16   0.0000      -0.001020        -0.0278
  17   0.0000       0.039054         1.0627

MULLIKEN ATOMIC CHARGES
-----------------------
   0 C :   -0.073094
   1 N :   -0.022468
   2 C :   -0.081508
   3 H :    0.230169
   4 H :    0.220282
   5 H :    0.223839
   6 H :    0.118423
   7 H :    0.122024
   8 H :    0.114096
   9 H :    0.074636
  10 H :    0.073600
Sum of atomic charges:    1.0000000

LOEWDIN ATOMIC CHARGES
----------------------
   0 C :    0.049373
   1 N :    0.293479
   2 C :   -0.044979
   3 H :    0.148756
   4 H :    0.145604
   5 H :    0.147731
   6 H :    0.056125
   7 H :    0.056443
   8 H :    0.066411
   9 H :    0.040991
  10 H :    0.040067

  Mayer bond orders larger than 0.100000
B(  0-C ,  1-N ) :   0.9113 B(  0-C ,  2-C ) :   1.0811 B(  0-C ,  6-H ) :   0.9548
B(  0-C ,  7-H ) :   0.9547 B(  1-N ,  3-H ) :   0.9283 B(  1-N ,  4-H ) :   0.9331
B(  1-N ,  5-H ) :   0.9324 B(  2-C ,  8-H ) :   0.9601 B(  2-C ,  9-H ) :   0.9735
B(  2-C , 10-H ) :   0.9676

Dispersion correction           -0.001486574
FINAL SINGLE POINT ENERGY      -135.400354034882

DIPOLE MOMENT
-------------
                                X             Y             Z
Electronic contribution:      0.16280      -1.33455       1.37774
Nuclear contribution   :     -0.22655       0.48066      -0.09136
                        -----------------------------------------
Total Dipole Moment    :     -0.06374      -0.85389       1.28639
                        -----------------------------------------
Magnitude (a.u.)       :      1.54531
Magnitude (Debye)      :      3.92787

Rotational constants in cm-1:     0.998155     0.284845     0.251232
Rotational constants in MHz : 29923.943568  8539.431565  7531.732866

                             ****ORCA TERMINATED NORMALLY****
TOTAL RUN TIME: 0 days 0 hours 0 minutes 10 seconds 713 msec
