                         Program Version 5.0.0 -  RELEASE  -
|  1> !wB97X-D3 RIJCOSX def2-SVP def2/J TightSCF
|  2> *xyz 0 1
|  3> C          0.13297        2.38587       -4.02462
|  4> C         -1.36646        2.47911       -4.31393
|  5> C         -2.35773        2.30686       -3.13675
|  6> H         -1.63680        1.72709       -5.06399
|  7> H         -1.58235        3.44561       -4.76869
|  8> F         -3.44376        2.84652       -3.25274
|  9> O         -1.97092        1.58304       -2.15123
| 10> H          0.68084        2.52514       -4.93310
| 11> H          0.35823        1.42282       -3.61633
| 12> H          0.40851        3.14443       -3.32208
| 13> *
| 14> %MaxCore 64000
| 15>
| 16> %pal nprocs 4
| 17> end
| 18>
| 19> %scf
| 20>   MaxIter 150
| 21> end
| 22>
| 23>
| 24>                          ****END OF INPUT****

CARTESIAN COORDINATES (ANGSTROEM)
---------------------------------
  C      0.132970    2.385870   -4.024620
  C     -1.366460    2.479110   -4.313930
  C     -2.357730    2.306860   -3.136750
  H     -1.636800    1.727090   -5.063990
  H     -1.582350    3.445610   -4.768690
  F     -3.443760    2.846520   -3.252740
  O     -1.970920    1.583040   -2.151230
  H      0.680840    2.525140   -4.933100
  H      0.358230    1.422820   -3.616330
  H      0.408510    3.144430   -3.322080

 Total Charge           Charge          ....    0
 Multiplicity           Mult            ....    1
 Number of Electrons    NEL             ....   40
 Basis Dimension        Dim             ....   95

ORBITAL ENERGIES
----------------

  NO   OCC          E(Eh)            E(eV)
   0   2.0000     -24.873546      -676.8436
   1   2.0000     -19.235912      -523.4358
   2   2.0000     -10.466601      -284.8107
   3   2.0000     -10.318905      -280.7917
   4   2.0000     -10.289346      -279.9873
   5   2.0000      -1.444280       -39.3009
   6   2.0000      -1.114871       -30.3372
   7   2.0000      -0.904515       -24.6131
   8   2.0000      -0.801060       -21.7980
   9   2.0000      -0.748172       -20.3588
  10   2.0000      -0.666657       -18.1407
  11   2.0000      -0.648381       -17.6434
  12   2.0000      -0.602775       -16.4024
  13   2.0000      -0.565430       -15.3861
  14   2.0000      -0.524996       -14.2859
  15   2.0000      -0.486815       -13.2469
  16   2.0000      -0.467158       -12.7120
  17   2.0000      -0.464004       -12.6262
  18   2.0000      -0.430962       -11.7271
  19   2.0000      -0.376368       -10.2415
  20   0.0000       0.066146         1.7999
  21   0.0000       0.144542         3.9332
  22   0.0000       0.192252         5.2314
  23   0.0000       0.202020         5.4972
  24   0.0000       0.215494         5.8639

MULLIKEN ATOMIC CHARGES
-----------------------
   0 C :   -0.009194
   1 C :   -0.167994
   2 C :    0.264165
   3 H :    0.074005
   4 H :    0.047105
   5 F :   -0.035956
   6 O :   -0.300167
   7 H :    0.033990
   8 H :    0.053599
   9 H :    0.040447
Sum of atomic charges:   -0.0000000

LOEWDIN ATOMIC CHARGES
----------------------
   0 C :   -0.042688
   1 C :   -0.083843
   2 C :    0.102026
   3 H :    0.050183
   4 H :    0.031580
   5 F :    0.087184
   6 O :   -0.235181
   7 H :    0.028883
   8 H :    0.032790
   9 H :    0.029065

  Mayer bond orders larger than 0.100000
B(  0-C ,  1-C ) :   1.0813 B(  0-C ,  7-H ) :   0.9687 B(  0-C ,  8-H ) :   0.9714
B(  0-C ,  9-H ) :   0.9814 B(  1-C ,  2-C ) :   0.9850 B(  1-C ,  3-H ) :   0.9320
B(  1-C ,  4-H ) :   0.9468 B(  2-C ,  5-F ) :   1.2355 B(  2-C ,  6-O ) :   2.0477

Dispersion correction           -0.001917193
FINAL SINGLE POINT ENERGY      -292.084795454076

DIPOLE MOMENT
-------------
                                X             Y             Z
Electronic contribution:     -8.42425       0.45089       3.62207
Nuclear contribution   :      8.54799       0.05434      -4.66633
                        -----------------------------------------
Total Dipole Moment    :      0.12374       0.50523      -1.04425
                        -----------------------------------------
Magnitude (a.u.)       :      1.16663
Magnitude (Debye)      :      2.96534

Rotational constants in cm-1:     0.325803     0.123345     0.094275
Rotational constants in MHz :  9767.324172  3697.779805  2826.305733

                             ****ORCA TERMINATED NORMALLY****
TOTAL RUN TIME: 0 days 0 hours 0 minutes 14 seconds 113 msec
