                         Program Version 5.0.0 -  RELEASE  -
|  1> !wB97X-D3 RIJCOSX def2-SVP def2/J TightSCF
|  2> *xyz 0 1
|  3> C          0.64866        1.00359       -3.64560
|  4> C          0.28128        0.67645       -2.24018
|  5> C          0.13297        2.38587       -4.02462
|  6> H          0.39079       -0.31925       -2.02649
|  7> H         -0.69269        0.99010       -2.13812
|  8> H          0.85421        1.21221       -1.57528
|  9> H          0.19099        0.23965       -4.27575
| 10> H          1.73157        0.93173       -3.75075
| 11> H          0.40589        2.60338       -5.03610
| 12> H          0.56342        3.11797       -3.37374
| 13> H         -0.93265        2.40724       -3.93025
| 14> *
| 15> %MaxCore 64000
| 16>
| 17> %pal nprocs 4
| 18> end
| 19>
| 20> %scf
| 21>   MaxIter 150
| 22> end
| 23>
| 24>
| 25>                          ****END OF INPUT****

CARTESIAN COORDINATES (ANGSTROEM)
---------------------------------
  C      0.648660    1.003590   -3.645600
  C      0.281280    0.676450   -2.240180
  C      0.132970    2.385870   -4.024620
  H      0.390790   -0.319250   -2.026490
  H     -0.692690    0.990100   -2.138120
  H      0.854210    1.212210   -1.575280
  H      0.190990    0.239650   -4.275750
  H      1.731570    0.931730   -3.750750
  H      0.405890    2.603380   -5.036100
  H      0.563420    3.117970   -3.373740
  H     -0.932650    2.407240   -3.930250

 Total Charge           Charge          ....    0
 Multiplicity           Mult            ....    1
 Number of Electrons    NEL             ....   26
 Basis Dimension        Dim             ....   82

ORBITAL ENERGIES
----------------

  NO   OCC          E(Eh)            E(eV)
   0   2.0000     -10.273592      -279.5587
   1   2.0000     -10.267499      -279.3929
   2   2.0000     -10.249179      -278.8943
   3   2.0000      -0.902503       -24.5584
   4   2.0000      -0.794675       -21.6242
   5   2.0000      -0.688366       -18.7314
   6   2.0000      -0.569106       -15.4862
   7   2.0000      -0.549486       -14.9523
   8   2.0000      -0.499490       -13.5918
   9   2.0000      -0.482311       -13.1243
  10   2.0000      -0.431333       -11.7372
  11   2.0000      -0.427208       -11.6249
  12   2.0000      -0.419203       -11.4071
  13   0.0000       0.151083         4.1112
  14   0.0000       0.199903         5.4396
  15   0.0000       0.201073         5.4715
  16   0.0000       0.206972         5.6320
  17   0.0000       0.234243         6.3741

MULLIKEN ATOMIC CHARGES
-----------------------
   0 C :   -0.128687
   1 C :    0.036934
   2 C :   -0.037744
   3 H :    0.009031
   4 H :   -0.003669
   5 H :    0.002886
   6 H :    0.023089
   7 H :    0.024379
   8 H :    0.026980
   9 H :    0.022970
  10 H :    0.023831
Sum of atomic charges:   -0.0000000

LOEWDIN ATOMIC CHARGES
----------------------
   0 C :   -0.044564
   1 C :   -0.045305
   2 C :   -0.055625
   3 H :    0.014661
   4 H :    0.014190
   5 H :    0.014382
   6 H :    0.020028
   7 H :    0.018887
   8 H :    0.021998
   9 H :    0.020843
  10 H :    0.020506

  Mayer bond orders larger than 0.100000
B(  0-C ,  1-C ) :   1.0852 B(  0-C ,  2-C ) :   1.0865 B(  0-C ,  6-H ) :   0.9622
B(  0-C ,  7-H ) :   0.9616 B(  1-C ,  3-H ) :   0.9708 B(  1-C ,  4-H ) :   0.9745
B(  1-C ,  5-H ) :   0.9727 B(  2-C ,  8-H ) :   0.9749 B(  2-C ,  9-H ) :   0.9791
B(  2-C , 10-H ) :   0.9754

Dispersion correction           -0.001434332
FINAL SINGLE POINT ENERGY      -119.006123559195

DIPOLE MOMENT
-------------
                                X             Y             Z
Electronic contribution:      0.25110      -0.27040      -0.23728
Nuclear contribution   :     -0.24754       0.26111       0.24628
                        -----------------------------------------
Total Dipole Moment    :      0.00357      -0.00928       0.00899
                        -----------------------------------------
Magnitude (a.u.)       :      0.01341
Magnitude (Debye)      :      0.03409

Rotational constants in cm-1:     1.006509     0.299509     0.263145
Rotational constants in MHz : 30174.379724  8979.049324  7888.875355

                             ****ORCA TERMINATED NORMALLY****
TOTAL RUN TIME: 0 days 0 hours 0 minutes 10 seconds 613 msec
