                         Program Version 5.0.0 -  RELEASE  -
|  1> !wB97X-D3 RIJCOSX def2-SVP def2/J TightSCF
|  2> *xyz 0 1
|  3> C          0.13297        2.38587       -4.02462
|  4> C         -1.36646        2.47911       -4.31393
|  5> C         -2.35773        2.30686       -3.13675
|  6> H         -1.63680        1.72709       -5.06399
|  7> H         -1.58235        3.44561       -4.76869
|  8> O         -3.44376        2.84652       -3.25274
|  9> F         -1.97092        1.58304       -2.15123
| 10> H          0.68084        2.52514       -4.93310
| 11> H          0.35823        1.42282       -3.61633
| 12> H          0.40851        3.14443       -3.32208
| 13> *
| 14> %MaxCore 64000
| 15>
| 16> %pal nprocs 4
| 17> end
| 18>
| 19> %scf
| 20>   MaxIter 150
| 21> end
| 22>
| 23>
| 24>                          ****END OF INPUT****

CARTESIAN COORDINATES (ANGSTROEM)
---------------------------------
  C      0.132970    2.385870   -4.024620
  C     -1.366460    2.479110   -4.313930
  C     -2.357730    2.306860   -3.136750
  H     -1.636800    1.727090   -5.063990
  H     -1.582350    3.445610   -4.768690
  O     -3.443760    2.846520   -3.252740
  F     -1.970920    1.583040   -2.151230
  H      0.680840    2.525140   -4.933100
  H      0.358230    1.422820   -3.616330
  H      0.408510    3.144430   -3.322080

 Total Charge           Charge          ....    0
 Multiplicity           Mult            ....    1
 Number of Electrons    NEL             ....   40
 Basis Dimension        Dim             ....   95

ORBITAL ENERGIES
----------------

  NO   OCC          E(Eh)            E(eV)
   0   2.0000     -24.849409      -676.1868
   1   2.0000     -19.245628      -523.7002
   2   2.0000     -10.461884      -284.6823
   3   2.0000     -10.317428      -280.7515
   4   2.0000     -10.294473      -280.1268
   5   2.0000      -1.394806       -37.9546
   6   2.0000      -1.155633       -31.4464
   7   2.0000      -0.907429       -24.6924
   8   2.0000      -0.783495       -21.3200
   9   2.0000      -0.737612       -20.0714
  10   2.0000      -0.641357       -17.4522
  11   2.0000      -0.635584       -17.2951
  12   2.0000      -0.591287       -16.0897
  13   2.0000      -0.564793       -15.3688
  14   2.0000      -0.529916       -14.4198
  15   2.0000      -0.500697       -13.6246
  16   2.0000      -0.483932       -13.1685
  17   2.0000      -0.468310       -12.7434
  18   2.0000      -0.445484       -12.1222
  19   2.0000      -0.387395       -10.5416
  20   0.0000       0.071572         1.9476
  21   0.0000       0.139644         3.7999
  22   0.0000       0.191720         5.2170
  23   0.0000       0.202412         5.5079
  24   0.0000       0.213758         5.8166

MULLIKEN ATOMIC CHARGES
-----------------------
   0 C :   -0.033555
   1 C :   -0.167946
   2 C :    0.274819
   3 H :    0.076745
   4 H :    0.072180
   5 O :   -0.228532
   6 F :   -0.117618
   7 H :    0.040883
   8 H :    0.041560
   9 H :    0.041465
Sum of atomic charges:    0.0000000

LOEWDIN ATOMIC CHARGES
----------------------
   0 C :   -0.056088
   1 C :   -0.080571
   2 C :    0.112656
   3 H :    0.050640
   4 H :    0.047039
   5 O :   -0.163687
   6 F :    0.005223
   7 H :    0.031604
   8 H :    0.026090
   9 H :    0.027095

  Mayer bond orders larger than 0.100000
B(  0-C ,  1-C ) :   1.0552 B(  0-C ,  7-H ) :   0.9688 B(  0-C ,  8-H ) :   0.9751
B(  0-C ,  9-H ) :   0.9813 B(  1-C ,  2-C ) :   0.9844 B(  1-C ,  3-H ) :   0.9392
B(  1-C ,  4-H ) :   0.9552 B(  2-C ,  5-O ) :   2.1216 B(  2-C ,  6-F ) :   1.1548

Dispersion correction           -0.001886654
FINAL SINGLE POINT ENERGY      -292.102679704905

DIPOLE MOMENT
-------------
                                X             Y             Z
Electronic contribution:     -5.95645      -1.63491       5.42738
Nuclear contribution   :      6.94213       1.43193      -5.86732
                        -----------------------------------------
Total Dipole Moment    :      0.98568      -0.20298      -0.43994
                        -----------------------------------------
Magnitude (a.u.)       :      1.09832
Magnitude (Debye)      :      2.79171

Rotational constants in cm-1:     0.306336     0.129048     0.095707
Rotational constants in MHz :  9183.725605  3868.769583  2869.236577

                             ****ORCA TERMINATED NORMALLY****
TOTAL RUN TIME: 0 days 0 hours 0 minutes 14 seconds 1 msec
