                         Program Version 5.0.0 -  RELEASE  -
|  1> !BLYP D3BJ RIJCOSX def2-TZVPD def2/J TightSCF
|  2> *xyz -1 1
|  3> C          3.80351        1.37472       -3.26081
|  4> C          3.93993        0.32036       -4.36773
|  5> H          4.10504       -0.65508       -3.90773
|  6> H          3.02280        0.28052       -4.95712
|  7> C          5.10585        0.66802       -5.30546
|  8> O          4.80913        1.15019       -6.41436
|  9> O          6.26737        0.56500       -4.81948
| 10> H          3.64113        2.33595       -3.70189
| 11> H          4.69995        1.39701       -2.67703
| 12> H          2.97435        1.12625       -2.63180
| 13> *
| 14>
| 15> %MaxCore 64000
| 16>
| 17> %pal nprocs 4
| 18> end
| 19>
| 20> %scf
| 21>   MaxIter 150
| 22> end
| 23>
| 24>
| 25>                          ****END OF INPUT****

CARTESIAN COORDINATES (ANGSTROEM)
---------------------------------
  C      3.803510    1.374720   -3.260810
  C      3.939930    0.320360   -4.367730
  H      4.105040   -0.655080   -3.907730
  H      3.022800    0.280520   -4.957120
  C      5.105850    0.668020   -5.305460
  O      4.809130    1.150190   -6.414360
  O      6.267370    0.565000   -4.819480
  H      3.641130    2.335950   -3.701890
  H      4.699950    1.397010   -2.677030
  H      2.974350    1.126250   -2.631800

 Total Charge           Charge          ....   -1
 Multiplicity           Mult            ....    1
 Number of Electrons    NEL             ....   40
 Basis Dimension        Dim             ....  236

ORBITAL ENERGIES
----------------

  NO   OCC          E(Eh)            E(eV)
   0   2.0000     -18.513690      -503.7831
   1   2.0000     -18.510662      -503.7007
   2   2.0000      -9.781885      -266.1786
   3   2.0000      -9.740204      -265.0444
   4   2.0000      -9.727895      -264.7095
   5   2.0000      -0.727348       -19.7921
   6   2.0000      -0.641343       -17.4518
   7   2.0000      -0.525538       -14.3006
   8   2.0000      -0.402157       -10.9432
   9   2.0000      -0.262489        -7.1427
  10   2.0000      -0.238192        -6.4815
  11   2.0000      -0.205404        -5.5893
  12   2.0000      -0.178247        -4.8503
  13   2.0000      -0.162556        -4.4234
  14   2.0000      -0.157029        -4.2730
  15   2.0000      -0.128580        -3.4988
  16   2.0000      -0.117482        -3.1968
  17   2.0000      -0.009914        -0.2698
  18   2.0000       0.005297         0.1441
  19   2.0000       0.018919         0.5148
  20   0.0000       0.121057         3.2941
  21   0.0000       0.146833         3.9955
  22   0.0000       0.162535         4.4228
  23   0.0000       0.170658         4.6439
  24   0.0000       0.196489         5.3467

MULLIKEN ATOMIC CHARGES
-----------------------
   0 C :   -1.229172
   1 C :   -0.085843
   2 H :    0.215252
   3 H :    0.204046
   4 C :    0.427942
   5 O :   -0.700967
   6 O :   -0.737438
   7 H :    0.333072
   8 H :    0.288953
   9 H :    0.284155
Sum of atomic charges:   -1.0000000

LOEWDIN ATOMIC CHARGES
----------------------
   0 C :   -0.125103
   1 C :   -0.211044
   2 H :    0.083004
   3 H :    0.079519
   4 C :   -0.790450
   5 O :   -0.082762
   6 O :   -0.099548
   7 H :    0.057555
   8 H :    0.052060
   9 H :    0.036771

  Mayer bond orders larger than 0.100000
B(  0-C ,  1-C ) :   0.4943 B(  0-C ,  4-C ) :   0.1205 B(  0-C ,  6-O ) :   0.1020
B(  0-C ,  7-H ) :   0.9403 B(  0-C ,  8-H ) :   1.0134 B(  0-C ,  9-H ) :   0.9301
B(  1-C ,  2-H ) :   0.9699 B(  1-C ,  3-H ) :   1.0126 B(  1-C ,  4-C ) :   0.8788
B(  4-C ,  5-O ) :   1.4078 B(  4-C ,  6-O ) :   1.3782

Dispersion correction           -0.013615532
FINAL SINGLE POINT ENERGY      -267.885216720020

DIPOLE MOMENT
-------------
                                X             Y             Z
Electronic contribution:      3.78521      -0.47623      -4.54913
Nuclear contribution   :     -5.15232       0.33441       5.87398
                        -----------------------------------------
Total Dipole Moment    :     -1.36711      -0.14182       1.32485
                        -----------------------------------------
Magnitude (a.u.)       :      1.90901
Magnitude (Debye)      :      4.85232

Rotational constants in cm-1:     0.295355     0.137164     0.110193
Rotational constants in MHz :  8854.523706  4112.077980  3303.490503

                             ****ORCA TERMINATED NORMALLY****
TOTAL RUN TIME: 0 days 0 hours 0 minutes 14 seconds 338 msec
