                         Program Version 5.0.0 -  RELEASE  -
|  1> !BLYP D3BJ RIJCOSX def2-TZVPD def2/J TightSCF
|  2> *xyz 1 1
|  3> C          3.90595        2.81985       -3.75292
|  4> N          5.29562        3.13151       -4.10533
|  5> C          3.80351        1.37472       -3.26081
|  6> C          5.70862        3.46889       -5.32419
|  7> N          6.90470        3.03895       -5.71708
|  8> N          4.98188        4.29357       -6.09746
|  9> H          5.00055        4.10131       -7.08776
| 10> H          4.08469        4.59690       -5.73965
| 11> H          5.96336        2.52611       -3.64239
| 12> H          7.04716        2.06686       -5.47360
| 13> H          7.19815        3.30799       -6.64523
| 14> H          3.28202        2.94919       -4.64026
| 15> H          3.56525        3.51457       -2.98252
| 16> H          4.14157        0.71142       -4.02935
| 17> H          2.78528        1.15146       -3.01944
| 18> H          4.41205        1.25066       -2.38949
| 19> *
| 20>
| 21> %MaxCore 64000
| 22>
| 23> %pal nprocs 4
| 24> end
| 25>
| 26> %scf
| 27>   MaxIter 150
| 28> end
| 29>
| 30>
| 31>                          ****END OF INPUT****

CARTESIAN COORDINATES (ANGSTROEM)
---------------------------------
  C      3.905950    2.819850   -3.752920
  N      5.295620    3.131510   -4.105330
  C      3.803510    1.374720   -3.260810
  C      5.708620    3.468890   -5.324190
  N      6.904700    3.038950   -5.717080
  N      4.981880    4.293570   -6.097460
  H      5.000550    4.101310   -7.087760
  H      4.084690    4.596900   -5.739650
  H      5.963360    2.526110   -3.642390
  H      7.047160    2.066860   -5.473600
  H      7.198150    3.307990   -6.645230
  H      3.282020    2.949190   -4.640260
  H      3.565250    3.514570   -2.982520
  H      4.141570    0.711420   -4.029350
  H      2.785280    1.151460   -3.019440
  H      4.412050    1.250660   -2.389490

 Total Charge           Charge          ....    1
 Multiplicity           Mult            ....    1
 Number of Electrons    NEL             ....   48
 Basis Dimension        Dim             ....  312

ORBITAL ENERGIES
----------------

  NO   OCC          E(Eh)            E(eV)
   0   2.0000     -14.231192      -387.2504
   1   2.0000     -14.230766      -387.2388
   2   2.0000     -14.229912      -387.2156
   3   2.0000     -10.230127      -278.3759
   4   2.0000     -10.114278      -275.2235
   5   2.0000     -10.048597      -273.4362
   6   2.0000      -1.127625       -30.6842
   7   2.0000      -1.023185       -27.8423
   8   2.0000      -1.016172       -27.6514
   9   2.0000      -0.858694       -23.3662
  10   2.0000      -0.769341       -20.9348
  11   2.0000      -0.744303       -20.2535
  12   2.0000      -0.717476       -19.5235
  13   2.0000      -0.687526       -18.7085
  14   2.0000      -0.646971       -17.6050
  15   2.0000      -0.635789       -17.3007
  16   2.0000      -0.598029       -16.2732
  17   2.0000      -0.577440       -15.7129
  18   2.0000      -0.544467       -14.8157
  19   2.0000      -0.512750       -13.9526
  20   2.0000      -0.491824       -13.3832
  21   2.0000      -0.477405       -12.9908
  22   2.0000      -0.444891       -12.1061
  23   2.0000      -0.418603       -11.3908
  24   0.0000      -0.222558        -6.0561
  25   0.0000      -0.186089        -5.0637
  26   0.0000      -0.152787        -4.1575
  27   0.0000      -0.140154        -3.8138
  28   0.0000      -0.123716        -3.3665

MULLIKEN ATOMIC CHARGES
-----------------------
   0 C :   -0.260063
   1 N :   -0.095535
   2 C :   -1.340390
   3 C :    0.514995
   4 N :   -0.302169
   5 N :   -0.319819
   6 H :    0.209141
   7 H :    0.235242
   8 H :    0.208844
   9 H :    0.224646
  10 H :    0.218428
  11 H :    0.309165
  12 H :    0.280890
  13 H :    0.380474
  14 H :    0.351722
  15 H :    0.384429
Sum of atomic charges:    1.0000000

LOEWDIN ATOMIC CHARGES
----------------------
   0 C :   -0.197688
   1 N :    0.100282
   2 C :   -0.048937
   3 C :   -0.457228
   4 N :    0.220911
   5 N :    0.231044
   6 H :    0.133117
   7 H :    0.124322
   8 H :    0.151642
   9 H :    0.135078
  10 H :    0.132148
  11 H :    0.114236
  12 H :    0.126117
  13 H :    0.074577
  14 H :    0.083066
  15 H :    0.077312

  Mayer bond orders larger than 0.100000
B(  0-C ,  1-N ) :   0.8281 B(  0-C ,  2-C ) :   0.5191 B(  0-C , 11-H ) :   0.8620
B(  0-C , 12-H ) :   0.9537 B(  1-N ,  3-C ) :   1.3005 B(  1-N ,  8-H ) :   0.9051
B(  2-C , 13-H ) :   0.9306 B(  2-C , 14-H ) :   0.9424 B(  2-C , 15-H ) :   0.9270
B(  3-C ,  4-N ) :   1.1808 B(  3-C ,  5-N ) :   1.1386 B(  4-N ,  9-H ) :   0.9398
B(  4-N , 10-H ) :   0.9253 B(  5-N ,  6-H ) :   0.9548 B(  5-N ,  7-H ) :   0.9196

Dispersion correction           -0.024721872
FINAL SINGLE POINT ENERGY      -284.399964818112

DIPOLE MOMENT
-------------
                                X             Y             Z
Electronic contribution:      3.50925       3.42133      -2.61616
Nuclear contribution   :     -3.31456      -3.64300       1.57303
                        -----------------------------------------
Total Dipole Moment    :      0.19469      -0.22167      -1.04313
                        -----------------------------------------
Magnitude (a.u.)       :      1.08404
Magnitude (Debye)      :      2.75542

Rotational constants in cm-1:     0.229487     0.071000     0.059428
Rotational constants in MHz :  6879.840828  2128.520047  1781.605314

                             ****ORCA TERMINATED NORMALLY****
TOTAL RUN TIME: 0 days 0 hours 0 minutes 25 seconds 273 msec
