                         Program Version 5.0.0 -  RELEASE  -
|  1> !BLYP D3BJ RIJCOSX def2-TZVPD def2/J TightSCF xyzfile
|  2>
|  3> *xyzfile 0 1 B.xyz
|  4>
|  5> %MaxCore 64000
|  6>
|  7> %pal nprocs 4
|  8> end
|  9>
| 10> %scf
| 11>   MaxIter 150
| 12> end
| 13>
| 14>
| 15>                          ****END OF INPUT****

CARTESIAN COORDINATES (ANGSTROEM)
---------------------------------
  C      3.905947    2.819855   -3.752920
  N      5.295615    3.131515   -4.105334
  C      3.803511    1.374716   -3.260807
  C      3.939934    0.320362   -4.367729
  H      4.105043   -0.655085   -3.907733
  H      3.022801    0.280517   -4.957117
  C      5.105846    0.668022   -5.305463
  C      5.708619    3.468885   -5.324190
  N      6.904696    3.038954   -5.717084
  N      4.981884    4.293570   -6.097457
  H      5.000546    4.101311   -7.087761
  H      4.084693    4.596899   -5.739652
  H      5.963358    2.526112   -3.642391
  H      7.047164    2.066861   -5.473604
  H      7.198145    3.307994   -6.645225
  H      3.282025    2.949187   -4.640259
  H      3.565254    3.514574   -2.982523
  H      4.574833    1.215157   -2.500443
  H      2.843514    1.260845   -2.751465
  O      4.809132    1.150187   -6.414361
  O      6.267366    0.564999   -4.819481

 Total Charge           Charge          ....    0
 Multiplicity           Mult            ....    1
 Number of Electrons    NEL             ....   78
 Basis Dimension        Dim             ....  475

ORBITAL ENERGIES
----------------

  NO   OCC          E(Eh)            E(eV)
   0   2.0000     -18.693517      -508.6765
   1   2.0000     -18.689044      -508.5548
   2   2.0000     -14.067969      -382.8089
   3   2.0000     -14.060280      -382.5997
   4   2.0000     -14.038194      -381.9987
   5   2.0000     -10.058731      -273.7120
   6   2.0000      -9.964709      -271.1535
   7   2.0000      -9.957661      -270.9617
   8   2.0000      -9.915714      -269.8203
   9   2.0000      -9.883216      -268.9360
  10   2.0000      -0.956674       -26.0324
  11   2.0000      -0.909803       -24.7570
  12   2.0000      -0.857497       -23.3337
  13   2.0000      -0.839796       -22.8520
  14   2.0000      -0.823673       -22.4133
  15   2.0000      -0.717505       -19.5243
  16   2.0000      -0.641575       -17.4581
  17   2.0000      -0.593432       -16.1481
  18   2.0000      -0.559073       -15.2132
  19   2.0000      -0.547132       -14.8882
  20   2.0000      -0.516635       -14.0584
  21   2.0000      -0.480072       -13.0634
  22   2.0000      -0.462221       -12.5777
  23   2.0000      -0.442215       -12.0333
  24   2.0000      -0.428326       -11.6553
  25   2.0000      -0.417720       -11.3667
  26   2.0000      -0.378862       -10.3094
  27   2.0000      -0.370242       -10.0748
  28   2.0000      -0.359282        -9.7766
  29   2.0000      -0.339617        -9.2414
  30   2.0000      -0.331632        -9.0242
  31   2.0000      -0.324928        -8.8417
  32   2.0000      -0.294804        -8.0220
  33   2.0000      -0.291253        -7.9254
  34   2.0000      -0.271733        -7.3942
  35   2.0000      -0.250505        -6.8166
  36   2.0000      -0.193916        -5.2767
  37   2.0000      -0.173037        -4.7086
  38   2.0000      -0.160548        -4.3687
  39   0.0000      -0.051184        -1.3928
  40   0.0000      -0.035748        -0.9727
  41   0.0000      -0.011333        -0.3084
  42   0.0000      -0.001922        -0.0523
  43   0.0000       0.015548         0.4231

MULLIKEN ATOMIC CHARGES
-----------------------
   0 C :   -0.418936
   1 N :   -0.157168
   2 C :   -0.645460
   3 C :   -0.432165
   4 H :    0.232881
   5 H :    0.244546
   6 C :    0.871528
   7 C :    0.566874
   8 N :   -0.355124
   9 N :   -0.414802
  10 H :    0.182490
  11 H :    0.206650
  12 H :    0.243827
  13 H :    0.301601
  14 H :    0.174357
  15 H :    0.273653
  16 H :    0.187050
  17 H :    0.262591
  18 H :    0.204397
  19 O :   -0.720542
  20 O :   -0.808248
Sum of atomic charges:    0.0000000

LOEWDIN ATOMIC CHARGES
----------------------
   0 C :   -0.160927
   1 N :    0.099083
   2 C :   -0.175823
   3 C :   -0.117027
   4 H :    0.108278
   5 H :    0.104914
   6 C :   -0.720654
   7 C :   -0.491091
   8 N :    0.208759
   9 N :    0.205913
  10 H :    0.119952
  11 H :    0.108619
  12 H :    0.139118
  13 H :    0.069047
  14 H :    0.120659
  15 H :    0.117235
  16 H :    0.112700
  17 H :    0.111820
  18 H :    0.107208
  19 O :   -0.015113
  20 O :   -0.052672

  Mayer bond orders larger than 0.100000
B(  0-C ,  1-N ) :   0.8359 B(  0-C ,  2-C ) :   0.8541 B(  0-C , 15-H ) :   0.8485
B(  0-C , 16-H ) :   1.0272 B(  1-N ,  7-C ) :   1.2862 B(  1-N , 12-H ) :   0.8291
B(  2-C ,  3-C ) :   0.8744 B(  2-C , 17-H ) :   0.9122 B(  2-C , 18-H ) :   1.0096
B(  3-C ,  4-H ) :   0.9435 B(  3-C ,  5-H ) :   0.9797 B(  3-C ,  6-C ) :   0.8750
B(  6-C , 19-O ) :   1.2694 B(  6-C , 20-O ) :   1.0894 B(  7-C ,  8-N ) :   1.1322
B(  7-C ,  9-N ) :   0.8956 B(  8-N , 13-H ) :   0.7640 B(  8-N , 14-H ) :   0.9242
B(  9-N , 10-H ) :   0.9660 B(  9-N , 11-H ) :   0.9215 B( 13-H , 20-O ) :   0.1656
B( 19-O , 20-O ) :   0.1069

Dispersion correction           -0.046531852
FINAL SINGLE POINT ENERGY      -511.961274939874

DIPOLE MOMENT
-------------
                                X             Y             Z
Electronic contribution:      4.20904       0.34426      -3.43921
Nuclear contribution   :     -4.94498       2.03334       3.78956
                        -----------------------------------------
Total Dipole Moment    :     -0.73594       2.37760       0.35034
                        -----------------------------------------
Magnitude (a.u.)       :      2.51343
Magnitude (Debye)      :      6.38863

Rotational constants in cm-1:     0.062533     0.042832     0.033687
Rotational constants in MHz :  1874.701390  1284.063603  1009.911042

                             ****ORCA TERMINATED NORMALLY****
TOTAL RUN TIME: 0 days 0 hours 0 minutes 44 seconds 311 msec
