                         Program Version 5.0.0 -  RELEASE  -
|  1> !BLYP D3BJ RIJCOSX def2-TZVPD def2/J TightSCF
|  2> *xyz 0 1
|  3> C          3.80351        1.37472       -3.26081
|  4> C          3.93993        0.32036       -4.36773
|  5> H          4.10504       -0.65508       -3.90773
|  6> H          3.02280        0.28052       -4.95712
|  7> C          5.10585        0.66802       -5.30546
|  8> F          4.80913        1.15019       -6.41436
|  9> O          6.26737        0.56500       -4.81948
| 10> H          3.64113        2.33595       -3.70189
| 11> H          4.69995        1.39701       -2.67703
| 12> H          2.97435        1.12625       -2.63180
| 13> *
| 14>
| 15> %MaxCore 64000
| 16>
| 17> %pal nprocs 4
| 18> end
| 19>
| 20> %scf
| 21>   MaxIter 150
| 22> end
| 23>
| 24>
| 25>                          ****END OF INPUT****

CARTESIAN COORDINATES (ANGSTROEM)
---------------------------------
  C      3.803510    1.374720   -3.260810
  C      3.939930    0.320360   -4.367730
  H      4.105040   -0.655080   -3.907730
  H      3.022800    0.280520   -4.957120
  C      5.105850    0.668020   -5.305460
  F      4.809130    1.150190   -6.414360
  O      6.267370    0.565000   -4.819480
  H      3.641130    2.335950   -3.701890
  H      4.699950    1.397010   -2.677030
  H      2.974350    1.126250   -2.631800

 Total Charge           Charge          ....    0
 Multiplicity           Mult            ....    1
 Number of Electrons    NEL             ....   40
 Basis Dimension        Dim             ....  236

ORBITAL ENERGIES
----------------

  NO   OCC          E(Eh)            E(eV)
   0   2.0000     -24.358448      -662.8271
   1   2.0000     -18.776771      -510.9419
   2   2.0000     -10.075929      -274.1800
   3   2.0000      -9.934582      -270.3337
   4   2.0000      -9.910583      -269.6807
   5   2.0000      -1.217274       -33.1237
   6   2.0000      -0.934902       -25.4400
   7   2.0000      -0.721041       -19.6205
   8   2.0000      -0.618723       -16.8363
   9   2.0000      -0.574993       -15.6463
  10   2.0000      -0.489953       -13.3323
  11   2.0000      -0.474308       -12.9066
  12   2.0000      -0.446798       -12.1580
  13   2.0000      -0.412452       -11.2234
  14   2.0000      -0.382629       -10.4119
  15   2.0000      -0.351575        -9.5668
  16   2.0000      -0.331177        -9.0118
  17   2.0000      -0.327192        -8.9034
  18   2.0000      -0.302441        -8.2298
  19   2.0000      -0.239646        -6.5211
  20   0.0000      -0.066722        -1.8156
  21   0.0000      -0.014899        -0.4054
  22   0.0000       0.013479         0.3668
  23   0.0000       0.024649         0.6707
  24   0.0000       0.032707         0.8900

MULLIKEN ATOMIC CHARGES
-----------------------
   0 C :   -1.203586
   1 C :   -0.109716
   2 H :    0.231446
   3 H :    0.237555
   4 C :    0.555954
   5 F :   -0.197697
   6 O :   -0.492764
   7 H :    0.359839
   8 H :    0.320049
   9 H :    0.298919
Sum of atomic charges:    0.0000000

LOEWDIN ATOMIC CHARGES
----------------------
   0 C :   -0.079538
   1 C :   -0.152888
   2 H :    0.114154
   3 H :    0.102348
   4 C :   -0.513675
   5 F :    0.234829
   6 O :    0.087014
   7 H :    0.070944
   8 H :    0.070794
   9 H :    0.066017

  Mayer bond orders larger than 0.100000
B(  0-C ,  1-C ) :   0.5662 B(  0-C ,  4-C ) :   0.1071 B(  0-C ,  7-H ) :   0.8983
B(  0-C ,  8-H ) :   0.9961 B(  0-C ,  9-H ) :   0.9454 B(  1-C ,  2-H ) :   0.9662
B(  1-C ,  3-H ) :   0.9695 B(  1-C ,  4-C ) :   0.8748 B(  4-C ,  5-F ) :   1.0172
B(  4-C ,  6-O ) :   1.7043

Dispersion correction           -0.012893687
FINAL SINGLE POINT ENERGY      -292.450811021363

DIPOLE MOMENT
-------------
                                X             Y             Z
Electronic contribution:      4.03039      -0.00483      -7.44119
Nuclear contribution   :     -5.17129      -0.01923       7.59895
                        -----------------------------------------
Total Dipole Moment    :     -1.14090      -0.02406       0.15776
                        -----------------------------------------
Magnitude (a.u.)       :      1.15201
Magnitude (Debye)      :      2.92817

Rotational constants in cm-1:     0.282073     0.131822     0.105134
Rotational constants in MHz :  8456.328792  3951.925810  3151.840112

                             ****ORCA TERMINATED NORMALLY****
TOTAL RUN TIME: 0 days 0 hours 0 minutes 13 seconds 145 msec
