                         Program Version 5.0.0 -  RELEASE  -
|  1> !BLYP D3BJ RIJCOSX def2-TZVPD def2/J TightSCF
|  2> *xyz 0 1
|  3> C          3.90595        2.81985       -3.75292
|  4> C          5.29562        3.13151       -4.10533
|  5> C          3.80351        1.37472       -3.26081
|  6> C          5.70862        3.46889       -5.32419
|  7> N          6.90470        3.03895       -5.71708
|  8> N          4.98188        4.29357       -6.09746
|  9> H          5.00055        4.10131       -7.08776
| 10> H          4.08469        4.59690       -5.73965
| 11> H          5.96336        2.52611       -3.64239
| 12> H          7.04716        2.06686       -5.47360
| 13> H          7.19815        3.30799       -6.64523
| 14> H          3.28202        2.94919       -4.64026
| 15> H          3.56525        3.51457       -2.98252
| 16> H          4.14157        0.71142       -4.02935
| 17> H          2.78528        1.15146       -3.01944
| 18> H          4.41205        1.25066       -2.38949
| 19> *
| 20>
| 21> %MaxCore 64000
| 22>
| 23> %pal nprocs 4
| 24> end
| 25>
| 26> %scf
| 27>   MaxIter 150
| 28> end
| 29>
| 30>
| 31>                          ****END OF INPUT****

CARTESIAN COORDINATES (ANGSTROEM)
---------------------------------
  C      3.905950    2.819850   -3.752920
  C      5.295620    3.131510   -4.105330
  C      3.803510    1.374720   -3.260810
  C      5.708620    3.468890   -5.324190
  N      6.904700    3.038950   -5.717080
  N      4.981880    4.293570   -6.097460
  H      5.000550    4.101310   -7.087760
  H      4.084690    4.596900   -5.739650
  H      5.963360    2.526110   -3.642390
  H      7.047160    2.066860   -5.473600
  H      7.198150    3.307990   -6.645230
  H      3.282020    2.949190   -4.640260
  H      3.565250    3.514570   -2.982520
  H      4.141570    0.711420   -4.029350
  H      2.785280    1.151460   -3.019440
  H      4.412050    1.250660   -2.389490

 Total Charge           Charge          ....    0
 Multiplicity           Mult            ....    1
 Number of Electrons    NEL             ....   48
 Basis Dimension        Dim             ....  312

ORBITAL ENERGIES
----------------

  NO   OCC          E(Eh)            E(eV)
   0   2.0000     -14.010677      -381.2499
   1   2.0000     -14.008075      -381.1791
   2   2.0000      -9.942243      -270.5422
   3   2.0000      -9.882511      -268.9168
   4   2.0000      -9.874982      -268.7119
   5   2.0000      -9.832771      -267.5633
   6   2.0000      -0.876897       -23.8616
   7   2.0000      -0.795503       -21.6467
   8   2.0000      -0.697722       -18.9860
   9   2.0000      -0.622922       -16.9506
  10   2.0000      -0.548665       -14.9299
  11   2.0000      -0.516696       -14.0600
  12   2.0000      -0.479919       -13.0593
  13   2.0000      -0.455434       -12.3930
  14   2.0000      -0.426605       -11.6085
  15   2.0000      -0.394545       -10.7361
  16   2.0000      -0.371520       -10.1096
  17   2.0000      -0.340259        -9.2589
  18   2.0000      -0.321343        -8.7442
  19   2.0000      -0.305846        -8.3225
  20   2.0000      -0.283790        -7.7223
  21   2.0000      -0.280362        -7.6290
  22   2.0000      -0.229675        -6.2498
  23   2.0000      -0.138020        -3.7557
  24   0.0000      -0.023455        -0.6382
  25   0.0000       0.005529         0.1504
  26   0.0000       0.010418         0.2835
  27   0.0000       0.019742         0.5372
  28   0.0000       0.033705         0.9172

MULLIKEN ATOMIC CHARGES
-----------------------
   0 C :    0.028788
   1 C :   -0.447783
   2 C :   -1.421533
   3 C :    0.061819
   4 N :   -0.350996
   5 N :   -0.388445
   6 H :    0.135801
   7 H :    0.179763
   8 H :    0.389920
   9 H :    0.178151
  10 H :    0.175572
  11 H :    0.230729
  12 H :    0.190686
  13 H :    0.364424
  14 H :    0.336372
  15 H :    0.336732
Sum of atomic charges:    0.0000000

LOEWDIN ATOMIC CHARGES
----------------------
   0 C :   -0.278956
   1 C :   -0.130899
   2 C :   -0.102109
   3 C :   -0.560915
   4 N :    0.127721
   5 N :    0.138449
   6 H :    0.088138
   7 H :    0.095270
   8 H :    0.060822
   9 H :    0.103565
  10 H :    0.089465
  11 H :    0.091518
  12 H :    0.095618
  13 H :    0.063588
  14 H :    0.056048
  15 H :    0.062678

  Mayer bond orders larger than 0.100000
B(  0-C ,  1-C ) :   0.5671 B(  0-C ,  2-C ) :   0.3754 B(  0-C , 11-H ) :   0.9457
B(  0-C , 12-H ) :   1.0114 B(  1-C ,  2-C ) :   0.2202 B(  1-C ,  3-C ) :   1.6756
B(  1-C ,  5-N ) :   0.1350 B(  1-C ,  8-H ) :   0.8973 B(  2-C , 13-H ) :   0.9477
B(  2-C , 14-H ) :   0.9487 B(  2-C , 15-H ) :   0.9661 B(  3-C ,  4-N ) :   0.9986
B(  3-C ,  5-N ) :   0.8740 B(  4-N ,  9-H ) :   0.9713 B(  4-N , 10-H ) :   0.9500
B(  5-N ,  6-H ) :   1.0282 B(  5-N ,  7-H ) :   0.9248

Dispersion correction           -0.025850729
FINAL SINGLE POINT ENERGY      -267.907977601019

DIPOLE MOMENT
-------------
                                X             Y             Z
Electronic contribution:      3.19571       3.28123      -2.78426
Nuclear contribution   :     -3.27358      -3.61654       1.70633
                        -----------------------------------------
Total Dipole Moment    :     -0.07787      -0.33531      -1.07793
                        -----------------------------------------
Magnitude (a.u.)       :      1.13156
Magnitude (Debye)      :      2.87620

Rotational constants in cm-1:     0.231961     0.071249     0.059473
Rotational constants in MHz :  6954.024434  2135.976855  1782.962814

                             ****ORCA TERMINATED NORMALLY****
TOTAL RUN TIME: 0 days 0 hours 0 minutes 23 seconds 850 msec
