                         Program Version 5.0.0 -  RELEASE  -
|  1> !BLYP D3BJ RIJCOSX def2-TZVPD def2/J TightSCF
|  2> *xyz 0 1
|  3> C          3.80351        1.37472       -3.26081
|  4> C          3.93993        0.32036       -4.36773
|  5> H          4.10504       -0.65508       -3.90773
|  6> H          3.02280        0.28052       -4.95712
|  7> C          5.10585        0.66802       -5.30546
|  8> O          4.80913        1.15019       -6.41436
|  9> F          6.26737        0.56500       -4.81948
| 10> H          3.64113        2.33595       -3.70189
| 11> H          4.69995        1.39701       -2.67703
| 12> H          2.97435        1.12625       -2.63180
| 13> *
| 14>
| 15> %MaxCore 64000
| 16>
| 17> %pal nprocs 4
| 18> end
| 19>
| 20> %scf
| 21>   MaxIter 150
| 22> end
| 23>
| 24>
| 25>                          ****END OF INPUT****

CARTESIAN COORDINATES (ANGSTROEM)
---------------------------------
  C      3.803510    1.374720   -3.260810
  C      3.939930    0.320360   -4.367730
  H      4.105040   -0.655080   -3.907730
  H      3.022800    0.280520   -4.957120
  C      5.105850    0.668020   -5.305460
  O      4.809130    1.150190   -6.414360
  F      6.267370    0.565000   -4.819480
  H      3.641130    2.335950   -3.701890
  H      4.699950    1.397010   -2.677030
  H      2.974350    1.126250   -2.631800

 Total Charge           Charge          ....    0
 Multiplicity           Mult            ....    1
 Number of Electrons    NEL             ....   40
 Basis Dimension        Dim             ....  236

ORBITAL ENERGIES
----------------

  NO   OCC          E(Eh)            E(eV)
   0   2.0000     -24.351786      -662.6458
   1   2.0000     -18.779198      -511.0080
   2   2.0000     -10.074062      -274.1292
   3   2.0000      -9.934158      -270.3222
   4   2.0000      -9.913216      -269.7523
   5   2.0000      -1.204087       -32.7649
   6   2.0000      -0.945317       -25.7234
   7   2.0000      -0.722852       -19.6698
   8   2.0000      -0.613669       -16.6988
   9   2.0000      -0.573294       -15.6001
  10   2.0000      -0.484674       -13.1887
  11   2.0000      -0.470265       -12.7966
  12   2.0000      -0.443735       -12.0746
  13   2.0000      -0.411989       -11.2108
  14   2.0000      -0.383516       -10.4360
  15   2.0000      -0.353941        -9.6312
  16   2.0000      -0.335558        -9.1310
  17   2.0000      -0.328386        -8.9358
  18   2.0000      -0.310863        -8.4590
  19   2.0000      -0.240606        -6.5472
  20   0.0000      -0.063094        -1.7169
  21   0.0000      -0.015814        -0.4303
  22   0.0000       0.013416         0.3651
  23   0.0000       0.024730         0.6729
  24   0.0000       0.033218         0.9039

MULLIKEN ATOMIC CHARGES
-----------------------
   0 C :   -1.214508
   1 C :   -0.102881
   2 H :    0.259053
   3 H :    0.214889
   4 C :    0.549965
   5 O :   -0.468659
   6 F :   -0.222946
   7 H :    0.365372
   8 H :    0.325699
   9 H :    0.294017
Sum of atomic charges:    0.0000000

LOEWDIN ATOMIC CHARGES
----------------------
   0 C :   -0.080882
   1 C :   -0.150788
   2 H :    0.108287
   3 H :    0.111749
   4 C :   -0.514141
   5 O :    0.103939
   6 F :    0.215115
   7 H :    0.073475
   8 H :    0.066891
   9 H :    0.066354

  Mayer bond orders larger than 0.100000
B(  0-C ,  1-C ) :   0.5328 B(  0-C ,  4-C ) :   0.1087 B(  0-C ,  7-H ) :   0.9275
B(  0-C ,  8-H ) :   0.9547 B(  0-C ,  9-H ) :   0.9548 B(  1-C ,  2-H ) :   0.9410
B(  1-C ,  3-H ) :   0.9986 B(  1-C ,  4-C ) :   0.8708 B(  4-C ,  5-O ) :   1.7212
B(  4-C ,  6-F ) :   0.9862

Dispersion correction           -0.012845332
FINAL SINGLE POINT ENERGY      -292.455906636347

DIPOLE MOMENT
-------------
                                X             Y             Z
Electronic contribution:      6.42328      -0.97436      -4.79501
Nuclear contribution   :     -6.76123       0.61881       5.86003
                        -----------------------------------------
Total Dipole Moment    :     -0.33795      -0.35555       1.06501
                        -----------------------------------------
Magnitude (a.u.)       :      1.17255
Magnitude (Debye)      :      2.98040

Rotational constants in cm-1:     0.275298     0.134631     0.105723
Rotational constants in MHz :  8253.224169  4036.137572  3169.487264

                             ****ORCA TERMINATED NORMALLY****
TOTAL RUN TIME: 0 days 0 hours 0 minutes 15 seconds 681 msec
