                         Program Version 5.0.0 -  RELEASE  -
|  1> !BLYP D3BJ RIJCOSX def2-TZVPD def2/J TightSCF
|  2> *xyz 0 1
|  3> C          3.90595        2.81985       -3.75292
|  4> N          5.29562        3.13151       -4.10533
|  5> C          3.80351        1.37472       -3.26081
|  6> C          5.70862        3.46889       -5.32419
|  7> C          6.90470        3.03895       -5.71708
|  8> N          4.98188        4.29357       -6.09746
|  9> H          5.00055        4.10131       -7.08776
| 10> H          4.08469        4.59690       -5.73965
| 11> H          5.96336        2.52611       -3.64239
| 12> H          7.04716        2.06686       -5.47360
| 13> H          7.19815        3.30799       -6.64523
| 14> H          3.28202        2.94919       -4.64026
| 15> H          3.56525        3.51457       -2.98252
| 16> H          4.14157        0.71142       -4.02935
| 17> H          2.78528        1.15146       -3.01944
| 18> H          4.41205        1.25066       -2.38949
| 19> *
| 20>
| 21> %MaxCore 64000
| 22>
| 23> %pal nprocs 4
| 24> end
| 25>
| 26> %scf
| 27>   MaxIter 150
| 28> end
| 29>
| 30>
| 31>                          ****END OF INPUT****

CARTESIAN COORDINATES (ANGSTROEM)
---------------------------------
  C      3.905950    2.819850   -3.752920
  N      5.295620    3.131510   -4.105330
  C      3.803510    1.374720   -3.260810
  C      5.708620    3.468890   -5.324190
  C      6.904700    3.038950   -5.717080
  N      4.981880    4.293570   -6.097460
  H      5.000550    4.101310   -7.087760
  H      4.084690    4.596900   -5.739650
  H      5.963360    2.526110   -3.642390
  H      7.047160    2.066860   -5.473600
  H      7.198150    3.307990   -6.645230
  H      3.282020    2.949190   -4.640260
  H      3.565250    3.514570   -2.982520
  H      4.141570    0.711420   -4.029350
  H      2.785280    1.151460   -3.019440
  H      4.412050    1.250660   -2.389490

 Total Charge           Charge          ....    0
 Multiplicity           Mult            ....    1
 Number of Electrons    NEL             ....   48
 Basis Dimension        Dim             ....  312

ORBITAL ENERGIES
----------------

  NO   OCC          E(Eh)            E(eV)
   0   2.0000     -14.010050      -381.2328
   1   2.0000     -14.008369      -381.1871
   2   2.0000      -9.946031      -270.6453
   3   2.0000      -9.943843      -270.5857
   4   2.0000      -9.903604      -269.4908
   5   2.0000      -9.818624      -267.1784
   6   2.0000      -0.880760       -23.9667
   7   2.0000      -0.805279       -21.9127
   8   2.0000      -0.697122       -18.9696
   9   2.0000      -0.632992       -17.2246
  10   2.0000      -0.564764       -15.3680
  11   2.0000      -0.536173       -14.5900
  12   2.0000      -0.478374       -13.0172
  13   2.0000      -0.442264       -12.0346
  14   2.0000      -0.431015       -11.7285
  15   2.0000      -0.402922       -10.9641
  16   2.0000      -0.372976       -10.1492
  17   2.0000      -0.352634        -9.5957
  18   2.0000      -0.334832        -9.1112
  19   2.0000      -0.328944        -8.9510
  20   2.0000      -0.326897        -8.8953
  21   2.0000      -0.291326        -7.9274
  22   2.0000      -0.217938        -5.9304
  23   2.0000      -0.140561        -3.8249
  24   0.0000      -0.019996        -0.5441
  25   0.0000       0.000067         0.0018
  26   0.0000       0.011839         0.3222
  27   0.0000       0.014922         0.4060
  28   0.0000       0.032861         0.8942

MULLIKEN ATOMIC CHARGES
-----------------------
   0 C :   -0.251821
   1 N :   -0.194665
   2 C :   -1.309202
   3 C :    0.475806
   4 C :   -0.970463
   5 N :   -0.365791
   6 H :    0.175722
   7 H :    0.179103
   8 H :    0.173525
   9 H :    0.234595
  10 H :    0.295638
  11 H :    0.288937
  12 H :    0.229657
  13 H :    0.357165
  14 H :    0.343356
  15 H :    0.338437
Sum of atomic charges:   -0.0000000

LOEWDIN ATOMIC CHARGES
----------------------
   0 C :   -0.235772
   1 N :    0.030183
   2 C :   -0.078980
   3 C :   -0.576160
   4 C :    0.002319
   5 N :    0.139627
   6 H :    0.102671
   7 H :    0.085744
   8 H :    0.124687
   9 H :    0.005432
  10 H :    0.001060
  11 H :    0.101440
  12 H :    0.103496
  13 H :    0.068199
  14 H :    0.062126
  15 H :    0.063930

  Mayer bond orders larger than 0.100000
B(  0-C ,  1-N ) :   0.7866 B(  0-C ,  2-C ) :   0.4739 B(  0-C , 11-H ) :   0.8976
B(  0-C , 12-H ) :   0.9819 B(  1-N ,  3-C ) :   1.1801 B(  1-N ,  4-C ) :   0.1097
B(  1-N ,  8-H ) :   0.9224 B(  2-C , 13-H ) :   0.9726 B(  2-C , 14-H ) :   0.9435
B(  2-C , 15-H ) :   0.9534 B(  3-C ,  4-C ) :   1.2638 B(  3-C ,  5-N ) :   0.9390
B(  4-C ,  9-H ) :   1.0254 B(  4-C , 10-H ) :   1.1069 B(  5-N ,  6-H ) :   0.9796
B(  5-N ,  7-H ) :   0.9365

Dispersion correction           -0.025564756
FINAL SINGLE POINT ENERGY      -267.898068570777

DIPOLE MOMENT
-------------
                                X             Y             Z
Electronic contribution:      1.55221       3.25845      -1.25935
Nuclear contribution   :     -2.93222      -3.63618       1.36440
                        -----------------------------------------
Total Dipole Moment    :     -1.38001      -0.37773       0.10505
                        -----------------------------------------
Magnitude (a.u.)       :      1.43462
Magnitude (Debye)      :      3.64651

Rotational constants in cm-1:     0.237993     0.072843     0.061284
Rotational constants in MHz :  7134.860770  2183.763760  1837.240960

                             ****ORCA TERMINATED NORMALLY****
TOTAL RUN TIME: 0 days 0 hours 0 minutes 28 seconds 377 msec
