                         Program Version 5.0.0 -  RELEASE  -
|  1> !BLYP D3BJ RIJCOSX def2-TZVPD def2/J TightSCF
|  2> *xyz 0 1
|  3> C          3.90595        2.81985       -3.75292
|  4> N          5.29562        3.13151       -4.10533
|  5> C          3.80351        1.37472       -3.26081
|  6> C          5.70862        3.46889       -5.32419
|  7> N          6.90470        3.03895       -5.71708
|  8> C          4.98188        4.29357       -6.09746
|  9> H          5.00055        4.10131       -7.08776
| 10> H          4.08469        4.59690       -5.73965
| 11> H          5.96336        2.52611       -3.64239
| 12> H          7.04716        2.06686       -5.47360
| 13> H          7.19815        3.30799       -6.64523
| 14> H          3.28202        2.94919       -4.64026
| 15> H          3.56525        3.51457       -2.98252
| 16> H          4.14157        0.71142       -4.02935
| 17> H          2.78528        1.15146       -3.01944
| 18> H          4.41205        1.25066       -2.38949
| 19> *
| 20>
| 21> %MaxCore 64000
| 22>
| 23> %pal nprocs 4
| 24> end
| 25>
| 26> %scf
| 27>   MaxIter 150
| 28> end
| 29>
| 30>
| 31>                          ****END OF INPUT****

CARTESIAN COORDINATES (ANGSTROEM)
---------------------------------
  C      3.905950    2.819850   -3.752920
  N      5.295620    3.131510   -4.105330
  C      3.803510    1.374720   -3.260810
  C      5.708620    3.468890   -5.324190
  N      6.904700    3.038950   -5.717080
  C      4.981880    4.293570   -6.097460
  H      5.000550    4.101310   -7.087760
  H      4.084690    4.596900   -5.739650
  H      5.963360    2.526110   -3.642390
  H      7.047160    2.066860   -5.473600
  H      7.198150    3.307990   -6.645230
  H      3.282020    2.949190   -4.640260
  H      3.565250    3.514570   -2.982520
  H      4.141570    0.711420   -4.029350
  H      2.785280    1.151460   -3.019440
  H      4.412050    1.250660   -2.389490

 Total Charge           Charge          ....    0
 Multiplicity           Mult            ....    1
 Number of Electrons    NEL             ....   48
 Basis Dimension        Dim             ....  312

ORBITAL ENERGIES
----------------

  NO   OCC          E(Eh)            E(eV)
   0   2.0000     -14.010910      -381.2562
   1   2.0000     -14.008989      -381.2040
   2   2.0000      -9.945322      -270.6260
   3   2.0000      -9.938813      -270.4488
   4   2.0000      -9.901662      -269.4379
   5   2.0000      -9.824127      -267.3281
   6   2.0000      -0.885718       -24.1016
   7   2.0000      -0.806957       -21.9584
   8   2.0000      -0.687208       -18.6999
   9   2.0000      -0.634330       -17.2610
  10   2.0000      -0.578182       -15.7331
  11   2.0000      -0.507904       -13.8208
  12   2.0000      -0.480876       -13.0853
  13   2.0000      -0.462948       -12.5974
  14   2.0000      -0.419337       -11.4107
  15   2.0000      -0.407160       -11.0794
  16   2.0000      -0.356088        -9.6897
  17   2.0000      -0.355785        -9.6814
  18   2.0000      -0.344905        -9.3854
  19   2.0000      -0.328474        -8.9382
  20   2.0000      -0.319183        -8.6854
  21   2.0000      -0.293251        -7.9798
  22   2.0000      -0.215800        -5.8722
  23   2.0000      -0.144584        -3.9343
  24   0.0000      -0.020519        -0.5583
  25   0.0000       0.002055         0.0559
  26   0.0000       0.014447         0.3931
  27   0.0000       0.016425         0.4469
  28   0.0000       0.030507         0.8301

MULLIKEN ATOMIC CHARGES
-----------------------
   0 C :   -0.206526
   1 N :   -0.180507
   2 C :   -1.311518
   3 C :    0.467167
   4 N :   -0.378740
   5 C :   -1.058703
   6 H :    0.190278
   7 H :    0.387172
   8 H :    0.191450
   9 H :    0.158748
  10 H :    0.180185
  11 H :    0.294685
  12 H :    0.232587
  13 H :    0.352683
  14 H :    0.345159
  15 H :    0.335881
Sum of atomic charges:   -0.0000000

LOEWDIN ATOMIC CHARGES
----------------------
   0 C :   -0.228550
   1 N :    0.031116
   2 C :   -0.081443
   3 C :   -0.582945
   4 N :    0.127999
   5 C :    0.016987
   6 H :    0.002817
   7 H :   -0.000557
   8 H :    0.120088
   9 H :    0.092137
  10 H :    0.100116
  11 H :    0.105575
  12 H :    0.108017
  13 H :    0.064799
  14 H :    0.062784
  15 H :    0.061059

  Mayer bond orders larger than 0.100000
B(  0-C ,  1-N ) :   0.7938 B(  0-C ,  2-C ) :   0.4150 B(  0-C , 11-H ) :   0.9041
B(  0-C , 12-H ) :   0.9719 B(  1-N ,  3-C ) :   1.0437 B(  1-N ,  8-H ) :   0.9203
B(  2-C , 13-H ) :   0.9770 B(  2-C , 14-H ) :   0.9412 B(  2-C , 15-H ) :   0.9583
B(  3-C ,  4-N ) :   0.9931 B(  3-C ,  5-C ) :   1.3498 B(  4-N ,  9-H ) :   0.9830
B(  4-N , 10-H ) :   0.9501 B(  5-C ,  6-H ) :   1.1858 B(  5-C ,  7-H ) :   0.8529

Dispersion correction           -0.025646923
FINAL SINGLE POINT ENERGY      -267.902571947890

DIPOLE MOMENT
-------------
                                X             Y             Z
Electronic contribution:      3.37639       2.11417      -0.97026
Nuclear contribution   :     -3.34013      -3.37002       1.28371
                        -----------------------------------------
Total Dipole Moment    :      0.03625      -1.25585       0.31345
                        -----------------------------------------
Magnitude (a.u.)       :      1.29488
Magnitude (Debye)      :      3.29132

Rotational constants in cm-1:     0.239537     0.072280     0.060961
Rotational constants in MHz :  7181.153552  2166.902802  1827.551447

                             ****ORCA TERMINATED NORMALLY****
TOTAL RUN TIME: 0 days 0 hours 0 minutes 24 seconds 810 msec
