                         Program Version 5.0.0 -  RELEASE  -
|  1> !BLYP D3BJ RIJCOSX def2-TZVPD def2/J TightSCF xyzfile
|  2>
|  3> *xyzfile 0 1 D1.xyz
|  4>
|  5> %MaxCore 64000
|  6>
|  7> %pal nprocs 4
|  8> end
|  9>
| 10> %scf
| 11>   MaxIter 150
| 12> end
| 13>
| 14>
| 15>                          ****END OF INPUT****

CARTESIAN COORDINATES (ANGSTROEM)
---------------------------------
  C      3.905947    2.819855   -3.752920
  C      5.295615    3.131515   -4.105334
  C      3.803511    1.374716   -3.260807
  C      3.939934    0.320362   -4.367729
  H      4.105043   -0.655085   -3.907733
  H      3.022801    0.280517   -4.957117
  C      5.105846    0.668022   -5.305463
  C      5.708619    3.468885   -5.324190
  N      6.904696    3.038954   -5.717084
  N      4.981884    4.293570   -6.097457
  H      5.000546    4.101311   -7.087761
  H      4.084693    4.596899   -5.739652
  H      5.963358    2.526112   -3.642391
  H      7.047164    2.066861   -5.473604
  H      7.198145    3.307994   -6.645225
  H      3.282025    2.949187   -4.640259
  H      3.565254    3.514574   -2.982523
  H      4.574833    1.215157   -2.500443
  H      2.843514    1.260845   -2.751465
  F      4.809132    1.150187   -6.414361
  O      6.267366    0.564999   -4.819481

 Total Charge           Charge          ....    0
 Multiplicity           Mult            ....    1
 Number of Electrons    NEL             ....   78
 Basis Dimension        Dim             ....  475

ORBITAL ENERGIES
----------------

  NO   OCC          E(Eh)            E(eV)
   0   2.0000     -24.359357      -662.8518
   1   2.0000     -18.776457      -510.9334
   2   2.0000     -14.010772      -381.2525
   3   2.0000     -13.989994      -380.6871
   4   2.0000     -10.078302      -274.2445
   5   2.0000      -9.942237      -270.5420
   6   2.0000      -9.930204      -270.2146
   7   2.0000      -9.910559      -269.6800
   8   2.0000      -9.894385      -269.2399
   9   2.0000      -9.835440      -267.6359
  10   2.0000      -1.220024       -33.1985
  11   2.0000      -0.942698       -25.6521
  12   2.0000      -0.872326       -23.7372
  13   2.0000      -0.789514       -21.4838
  14   2.0000      -0.735853       -20.0236
  15   2.0000      -0.675015       -18.3681
  16   2.0000      -0.622594       -16.9416
  17   2.0000      -0.591083       -16.0842
  18   2.0000      -0.543864       -14.7993
  19   2.0000      -0.519054       -14.1242
  20   2.0000      -0.493847       -13.4382
  21   2.0000      -0.481631       -13.1058
  22   2.0000      -0.470300       -12.7975
  23   2.0000      -0.462241       -12.5782
  24   2.0000      -0.444986       -12.1087
  25   2.0000      -0.415507       -11.3065
  26   2.0000      -0.407740       -11.0952
  27   2.0000      -0.388586       -10.5740
  28   2.0000      -0.380464       -10.3529
  29   2.0000      -0.344375        -9.3709
  30   2.0000      -0.338147        -9.2015
  31   2.0000      -0.322897        -8.7865
  32   2.0000      -0.314656        -8.5622
  33   2.0000      -0.302938        -8.2434
  34   2.0000      -0.291748        -7.9389
  35   2.0000      -0.279568        -7.6074
  36   2.0000      -0.248084        -6.7507
  37   2.0000      -0.220975        -6.0130
  38   2.0000      -0.140843        -3.8325
  39   0.0000      -0.068215        -1.8562
  40   0.0000      -0.020551        -0.5592
  41   0.0000      -0.001076        -0.0293
  42   0.0000       0.007455         0.2029
  43   0.0000       0.014416         0.3923

MULLIKEN ATOMIC CHARGES
-----------------------
   0 C :   -0.216176
   1 C :   -0.450554
   2 C :   -0.593298
   3 C :   -0.567394
   4 H :    0.248418
   5 H :    0.270456
   6 C :    0.975171
   7 C :   -0.071416
   8 N :   -0.375966
   9 N :   -0.425602
  10 H :    0.131683
  11 H :    0.186288
  12 H :    0.447635
  13 H :    0.308471
  14 H :    0.137756
  15 H :    0.253966
  16 H :    0.139649
  17 H :    0.267012
  18 H :    0.225203
  19 F :   -0.282844
  20 O :   -0.608460
Sum of atomic charges:   -0.0000000

LOEWDIN ATOMIC CHARGES
----------------------
   0 C :   -0.215517
   1 C :   -0.121705
   2 C :   -0.183088
   3 C :   -0.084892
   4 H :    0.118893
   5 H :    0.109933
   6 C :   -0.494247
   7 C :   -0.568795
   8 N :    0.149059
   9 N :    0.149471
  10 H :    0.090843
  11 H :    0.096142
  12 H :    0.070258
  13 H :    0.060225
  14 H :    0.098226
  15 H :    0.102219
  16 H :    0.102162
  17 H :    0.116613
  18 H :    0.106538
  19 F :    0.238510
  20 O :    0.059154

  Mayer bond orders larger than 0.100000
B(  0-C ,  1-C ) :   0.5627 B(  0-C ,  2-C ) :   0.7502 B(  0-C , 15-H ) :   0.8946
B(  0-C , 16-H ) :   1.1095 B(  1-C ,  2-C ) :   0.1495 B(  1-C ,  7-C ) :   1.6223
B(  1-C , 12-H ) :   0.9015 B(  2-C ,  3-C ) :   0.8922 B(  2-C , 17-H ) :   0.9003
B(  2-C , 18-H ) :   1.0039 B(  3-C ,  4-H ) :   0.9229 B(  3-C ,  5-H ) :   0.9593
B(  3-C ,  6-C ) :   0.8712 B(  6-C , 19-F ) :   0.8536 B(  6-C , 20-O ) :   1.4546
B(  7-C ,  8-N ) :   0.8933 B(  7-C ,  9-N ) :   0.7529 B(  8-N , 13-H ) :   0.7642
B(  8-N , 14-H ) :   0.9564 B(  9-N , 10-H ) :   1.0073 B(  9-N , 11-H ) :   0.9314

Dispersion correction           -0.046480141
FINAL SINGLE POINT ENERGY      -519.859336622879

DIPOLE MOMENT
-------------
                                X             Y             Z
Electronic contribution:      3.48512      -3.54443      -6.41892
Nuclear contribution   :     -4.60158       3.22721       5.56005
                        -----------------------------------------
Total Dipole Moment    :     -1.11647      -0.31722      -0.85887
                        -----------------------------------------
Magnitude (a.u.)       :      1.44388
Magnitude (Debye)      :      3.67005

Rotational constants in cm-1:     0.061224     0.042534     0.033552
Rotational constants in MHz :  1835.464095  1275.135177  1005.856966

                             ****ORCA TERMINATED NORMALLY****
TOTAL RUN TIME: 0 days 0 hours 0 minutes 41 seconds 860 msec
