                         Program Version 5.0.0 -  RELEASE  -
|  1> !BLYP D3BJ RIJCOSX def2-TZVPD def2/J TightSCF xyzfile
|  2>
|  3> *xyzfile 0 1 D2.xyz
|  4>
|  5> %MaxCore 64000
|  6>
|  7> %pal nprocs 4
|  8> end
|  9>
| 10> %scf
| 11>   MaxIter 150
| 12> end
| 13>
| 14>
| 15>                          ****END OF INPUT****

CARTESIAN COORDINATES (ANGSTROEM)
---------------------------------
  C      3.905947    2.819855   -3.752920
  N      5.295615    3.131515   -4.105334
  C      3.803511    1.374716   -3.260807
  C      3.939934    0.320362   -4.367729
  H      4.105043   -0.655085   -3.907733
  H      3.022801    0.280517   -4.957117
  C      5.105846    0.668022   -5.305463
  C      5.708619    3.468885   -5.324190
  C      6.904696    3.038954   -5.717084
  N      4.981884    4.293570   -6.097457
  H      5.000546    4.101311   -7.087761
  H      4.084693    4.596899   -5.739652
  H      5.963358    2.526112   -3.642391
  H      7.047164    2.066861   -5.473604
  H      7.198145    3.307994   -6.645225
  H      3.282025    2.949187   -4.640259
  H      3.565254    3.514574   -2.982523
  H      4.574833    1.215157   -2.500443
  H      2.843514    1.260845   -2.751465
  F      4.809132    1.150187   -6.414361
  O      6.267366    0.564999   -4.819481

 Total Charge           Charge          ....    0
 Multiplicity           Mult            ....    1
 Number of Electrons    NEL             ....   78
 Basis Dimension        Dim             ....  475

ORBITAL ENERGIES
----------------

  NO   OCC          E(Eh)            E(eV)
   0   2.0000     -24.361335      -662.9056
   1   2.0000     -18.778275      -510.9828
   2   2.0000     -14.008511      -381.1910
   3   2.0000     -14.005938      -381.1209
   4   2.0000     -10.081917      -274.3429
   5   2.0000      -9.951578      -270.7962
   6   2.0000      -9.942409      -270.5467
   7   2.0000      -9.937346      -270.4089
   8   2.0000      -9.934236      -270.3243
   9   2.0000      -9.802655      -266.7438
  10   2.0000      -1.221569       -33.2406
  11   2.0000      -0.944377       -25.6978
  12   2.0000      -0.880485       -23.9592
  13   2.0000      -0.805996       -21.9323
  14   2.0000      -0.739367       -20.1192
  15   2.0000      -0.669155       -18.2086
  16   2.0000      -0.627369       -17.0716
  17   2.0000      -0.596021       -16.2186
  18   2.0000      -0.557116       -15.1599
  19   2.0000      -0.534539       -14.5455
  20   2.0000      -0.498381       -13.5616
  21   2.0000      -0.485293       -13.2055
  22   2.0000      -0.474617       -12.9150
  23   2.0000      -0.452880       -12.3235
  24   2.0000      -0.443613       -12.0713
  25   2.0000      -0.428816       -11.6687
  26   2.0000      -0.417961       -11.3733
  27   2.0000      -0.390846       -10.6355
  28   2.0000      -0.369413       -10.0522
  29   2.0000      -0.357275        -9.7219
  30   2.0000      -0.343778        -9.3547
  31   2.0000      -0.342967        -9.3326
  32   2.0000      -0.324198        -8.8219
  33   2.0000      -0.321758        -8.7555
  34   2.0000      -0.300319        -8.1721
  35   2.0000      -0.289432        -7.8758
  36   2.0000      -0.234409        -6.3786
  37   2.0000      -0.216154        -5.8819
  38   2.0000      -0.133088        -3.6215
  39   0.0000      -0.074307        -2.0220
  40   0.0000      -0.024189        -0.6582
  41   0.0000      -0.005937        -0.1616
  42   0.0000       0.002385         0.0649
  43   0.0000       0.009243         0.2515

MULLIKEN ATOMIC CHARGES
-----------------------
   0 C :   -0.536997
   1 N :   -0.238996
   2 C :   -0.539478
   3 C :   -0.484297
   4 H :    0.236330
   5 H :    0.276812
   6 C :    0.883263
   7 C :    0.426083
   8 C :   -1.100986
   9 N :   -0.463045
  10 H :    0.166144
  11 H :    0.179750
  12 H :    0.212664
  13 H :    0.545042
  14 H :    0.268958
  15 H :    0.287579
  16 H :    0.208176
  17 H :    0.267505
  18 H :    0.226377
  19 F :   -0.264651
  20 O :   -0.556233
Sum of atomic charges:   -0.0000000

LOEWDIN ATOMIC CHARGES
----------------------
   0 C :   -0.179351
   1 N :    0.048951
   2 C :   -0.170114
   3 C :   -0.085707
   4 H :    0.120039
   5 H :    0.110751
   6 C :   -0.493191
   7 C :   -0.587447
   8 C :    0.009608
   9 N :    0.145150
  10 H :    0.102247
  11 H :    0.085176
  12 H :    0.128287
  13 H :   -0.013896
  14 H :    0.016112
  15 H :    0.111057
  16 H :    0.109697
  17 H :    0.116623
  18 H :    0.109824
  19 F :    0.248092
  20 O :    0.068092

  Mayer bond orders larger than 0.100000
B(  0-C ,  1-N ) :   0.7842 B(  0-C ,  2-C ) :   0.8080 B(  0-C ,  7-C ) :  -0.1312
B(  0-C , 15-H ) :   0.9156 B(  0-C , 16-H ) :   1.0149 B(  1-N ,  7-C ) :   0.9778
B(  1-N , 12-H ) :   0.8561 B(  2-C ,  3-C ) :   0.8602 B(  2-C , 17-H ) :   0.9197
B(  2-C , 18-H ) :   1.0165 B(  3-C ,  4-H ) :   0.9427 B(  3-C ,  5-H ) :   0.9602
B(  3-C ,  6-C ) :   0.8938 B(  6-C , 19-F ) :   0.8854 B(  6-C , 20-O ) :   1.5591
B(  7-C ,  8-C ) :   1.4529 B(  7-C ,  9-N ) :   0.7217 B(  7-C , 14-H ) :  -0.1484
B(  8-C , 13-H ) :   0.6679 B(  8-C , 14-H ) :   1.3263 B(  9-N , 10-H ) :   0.9768
B(  9-N , 11-H ) :   0.9421 B( 19-F , 20-O ) :   0.1019

Dispersion correction           -0.046167353
FINAL SINGLE POINT ENERGY      -519.831114239098

DIPOLE MOMENT
-------------
                                X             Y             Z
Electronic contribution:      2.16246      -3.73828      -5.18448
Nuclear contribution   :     -4.40347       3.21582       5.36161
                        -----------------------------------------
Total Dipole Moment    :     -2.24101      -0.52246       0.17713
                        -----------------------------------------
Magnitude (a.u.)       :      2.30791
Magnitude (Debye)      :      5.86625

Rotational constants in cm-1:     0.061226     0.043199     0.033926
Rotational constants in MHz :  1835.503528  1295.087558  1017.061512

                             ****ORCA TERMINATED NORMALLY****
TOTAL RUN TIME: 0 days 0 hours 0 minutes 46 seconds 665 msec
