                         Program Version 5.0.0 -  RELEASE  -
|  1> !BLYP D3BJ RIJCOSX def2-TZVPD def2/J TightSCF xyzfile
|  2>
|  3> *xyzfile 0 1 D3.xyz
|  4>
|  5> %MaxCore 64000
|  6>
|  7> %pal nprocs 4
|  8> end
|  9>
| 10> %scf
| 11>   MaxIter 150
| 12> end
| 13>
| 14>
| 15>                          ****END OF INPUT****

CARTESIAN COORDINATES (ANGSTROEM)
---------------------------------
  C      3.905947    2.819855   -3.752920
  N      5.295615    3.131515   -4.105334
  C      3.803511    1.374716   -3.260807
  C      3.939934    0.320362   -4.367729
  H      4.105043   -0.655085   -3.907733
  H      3.022801    0.280517   -4.957117
  C      5.105846    0.668022   -5.305463
  C      5.708619    3.468885   -5.324190
  N      6.904696    3.038954   -5.717084
  C      4.981884    4.293570   -6.097457
  H      5.000546    4.101311   -7.087761
  H      4.084693    4.596899   -5.739652
  H      5.963358    2.526112   -3.642391
  H      7.047164    2.066861   -5.473604
  H      7.198145    3.307994   -6.645225
  H      3.282025    2.949187   -4.640259
  H      3.565254    3.514574   -2.982523
  H      4.574833    1.215157   -2.500443
  H      2.843514    1.260845   -2.751465
  F      4.809132    1.150187   -6.414361
  O      6.267366    0.564999   -4.819481

 Total Charge           Charge          ....    0
 Multiplicity           Mult            ....    1
 Number of Electrons    NEL             ....   78
 Basis Dimension        Dim             ....  475

ORBITAL ENERGIES
----------------

  NO   OCC          E(Eh)            E(eV)
   0   2.0000     -24.371702      -663.1877
   1   2.0000     -18.795244      -511.4446
   2   2.0000     -14.011009      -381.2589
   3   2.0000     -13.987144      -380.6095
   4   2.0000     -10.096508      -274.7399
   5   2.0000      -9.948836      -270.7216
   6   2.0000      -9.948011      -270.6991
   7   2.0000      -9.939655      -270.4718
   8   2.0000      -9.935712      -270.3645
   9   2.0000      -9.819202      -267.1941
  10   2.0000      -1.231691       -33.5160
  11   2.0000      -0.961806       -26.1721
  12   2.0000      -0.881707       -23.9925
  13   2.0000      -0.803451       -21.8630
  14   2.0000      -0.739094       -20.1118
  15   2.0000      -0.664758       -18.0890
  16   2.0000      -0.630371       -17.1533
  17   2.0000      -0.609494       -16.5852
  18   2.0000      -0.568694       -15.4749
  19   2.0000      -0.509528       -13.8650
  20   2.0000      -0.508347       -13.8328
  21   2.0000      -0.493672       -13.4335
  22   2.0000      -0.477900       -13.0043
  23   2.0000      -0.460135       -12.5209
  24   2.0000      -0.447744       -12.1837
  25   2.0000      -0.430600       -11.7172
  26   2.0000      -0.421237       -11.4625
  27   2.0000      -0.387107       -10.5337
  28   2.0000      -0.375806       -10.2262
  29   2.0000      -0.360689        -9.8148
  30   2.0000      -0.344062        -9.3624
  31   2.0000      -0.342418        -9.3177
  32   2.0000      -0.331348        -9.0164
  33   2.0000      -0.325715        -8.8631
  34   2.0000      -0.314929        -8.5697
  35   2.0000      -0.287563        -7.8250
  36   2.0000      -0.262771        -7.1504
  37   2.0000      -0.210030        -5.7152
  38   2.0000      -0.139243        -3.7890
  39   0.0000      -0.087011        -2.3677
  40   0.0000      -0.020506        -0.5580
  41   0.0000       0.001354         0.0368
  42   0.0000       0.004332         0.1179
  43   0.0000       0.011063         0.3011

MULLIKEN ATOMIC CHARGES
-----------------------
   0 C :   -0.500169
   1 N :   -0.218031
   2 C :   -0.562881
   3 C :   -0.506059
   4 H :    0.244502
   5 H :    0.282613
   6 C :    0.942514
   7 C :    0.347307
   8 N :   -0.398152
   9 C :   -1.261610
  10 H :    0.294901
  11 H :    0.423393
  12 H :    0.238133
  13 H :    0.340197
  14 H :    0.164112
  15 H :    0.310075
  16 H :    0.222140
  17 H :    0.270293
  18 H :    0.217100
  19 F :   -0.233312
  20 O :   -0.617065
Sum of atomic charges:    0.0000000

LOEWDIN ATOMIC CHARGES
----------------------
   0 C :   -0.170568
   1 N :    0.049167
   2 C :   -0.168186
   3 C :   -0.082891
   4 H :    0.120926
   5 H :    0.113378
   6 C :   -0.486941
   7 C :   -0.596823
   8 N :    0.145235
   9 C :    0.012317
  10 H :    0.005885
  11 H :   -0.000357
  12 H :    0.124101
  13 H :    0.051715
  14 H :    0.106825
  15 H :    0.115460
  16 H :    0.114410
  17 H :    0.114793
  18 H :    0.111774
  19 F :    0.256609
  20 O :    0.063171

  Mayer bond orders larger than 0.100000
B(  0-C ,  1-N ) :   0.7959 B(  0-C ,  2-C ) :   0.7900 B(  0-C ,  9-C ) :   0.1081
B(  0-C , 15-H ) :   0.9178 B(  0-C , 16-H ) :   0.9673 B(  1-N ,  7-C ) :   1.0091
B(  1-N , 12-H ) :   0.8061 B(  2-C ,  3-C ) :   0.8598 B(  2-C , 17-H ) :   0.9118
B(  2-C , 18-H ) :   1.0226 B(  3-C ,  4-H ) :   0.9365 B(  3-C ,  5-H ) :   0.9574
B(  3-C ,  6-C ) :   0.9022 B(  6-C , 19-F ) :   0.9202 B(  6-C , 20-O ) :   1.4160
B(  7-C ,  8-N ) :   0.8691 B(  7-C ,  9-C ) :   1.3157 B(  7-C , 10-H ) :  -0.1152
B(  7-C , 11-H ) :  -0.1017 B(  8-N ,  9-C ) :   0.1180 B(  8-N , 13-H ) :   0.7308
B(  8-N , 14-H ) :   0.9379 B(  9-C , 10-H ) :   1.0420 B(  9-C , 11-H ) :   0.8966
B( 19-F , 20-O ) :   0.1003

Dispersion correction           -0.046134549
FINAL SINGLE POINT ENERGY      -519.849714114551

DIPOLE MOMENT
-------------
                                X             Y             Z
Electronic contribution:      3.62011      -4.79945      -4.87741
Nuclear contribution   :     -4.64021       3.37029       5.31478
                        -----------------------------------------
Total Dipole Moment    :     -1.02010      -1.42916       0.43737
                        -----------------------------------------
Magnitude (a.u.)       :      1.80953
Magnitude (Debye)      :      4.59946

Rotational constants in cm-1:     0.061077     0.043622     0.034103
Rotational constants in MHz :  1831.041375  1307.759852  1022.388536

                             ****ORCA TERMINATED NORMALLY****
TOTAL RUN TIME: 0 days 0 hours 0 minutes 46 seconds 877 msec
