                         Program Version 5.0.0 -  RELEASE  -
|  1> !BLYP D3BJ RIJCOSX def2-TZVPD def2/J TightSCF xyzfile
|  2>
|  3> *xyzfile 0 1 D4.xyz
|  4>
|  5> %MaxCore 64000
|  6>
|  7> %pal nprocs 4
|  8> end
|  9>
| 10> %scf
| 11>   MaxIter 150
| 12> end
| 13>
| 14>
| 15>                          ****END OF INPUT****

CARTESIAN COORDINATES (ANGSTROEM)
---------------------------------
  C      3.905947    2.819855   -3.752920
  C      5.295615    3.131515   -4.105334
  C      3.803511    1.374716   -3.260807
  C      3.939934    0.320362   -4.367729
  H      4.105043   -0.655085   -3.907733
  H      3.022801    0.280517   -4.957117
  C      5.105846    0.668022   -5.305463
  C      5.708619    3.468885   -5.324190
  N      6.904696    3.038954   -5.717084
  N      4.981884    4.293570   -6.097457
  H      5.000546    4.101311   -7.087761
  H      4.084693    4.596899   -5.739652
  H      5.963358    2.526112   -3.642391
  H      7.047164    2.066861   -5.473604
  H      7.198145    3.307994   -6.645225
  H      3.282025    2.949187   -4.640259
  H      3.565254    3.514574   -2.982523
  H      4.574833    1.215157   -2.500443
  H      2.843514    1.260845   -2.751465
  O      4.809132    1.150187   -6.414361
  F      6.267366    0.564999   -4.819481

 Total Charge           Charge          ....    0
 Multiplicity           Mult            ....    1
 Number of Electrons    NEL             ....   78
 Basis Dimension        Dim             ....  475

ORBITAL ENERGIES
----------------

  NO   OCC          E(Eh)            E(eV)
   0   2.0000     -24.356292      -662.7684
   1   2.0000     -18.772961      -510.8382
   2   2.0000     -14.009338      -381.2135
   3   2.0000     -13.998434      -380.9168
   4   2.0000     -10.071253      -274.0527
   5   2.0000      -9.944941      -270.6156
   6   2.0000      -9.927245      -270.1341
   7   2.0000      -9.910651      -269.6825
   8   2.0000      -9.892009      -269.1752
   9   2.0000      -9.836478      -267.6642
  10   2.0000      -1.212522       -32.9944
  11   2.0000      -0.943969       -25.6867
  12   2.0000      -0.873870       -23.7792
  13   2.0000      -0.792151       -21.5555
  14   2.0000      -0.735219       -20.0063
  15   2.0000      -0.673895       -18.3376
  16   2.0000      -0.621736       -16.9183
  17   2.0000      -0.589099       -16.0302
  18   2.0000      -0.544350       -14.8125
  19   2.0000      -0.526258       -14.3202
  20   2.0000      -0.490970       -13.3600
  21   2.0000      -0.479794       -13.0559
  22   2.0000      -0.471769       -12.8375
  23   2.0000      -0.454017       -12.3544
  24   2.0000      -0.438160       -11.9230
  25   2.0000      -0.417736       -11.3672
  26   2.0000      -0.409806       -11.1514
  27   2.0000      -0.390086       -10.6148
  28   2.0000      -0.377081       -10.2609
  29   2.0000      -0.344399        -9.3716
  30   2.0000      -0.335917        -9.1408
  31   2.0000      -0.325610        -8.8603
  32   2.0000      -0.316872        -8.6225
  33   2.0000      -0.300637        -8.1808
  34   2.0000      -0.292020        -7.9463
  35   2.0000      -0.284144        -7.7320
  36   2.0000      -0.240385        -6.5412
  37   2.0000      -0.220971        -6.0129
  38   2.0000      -0.142731        -3.8839
  39   0.0000      -0.060211        -1.6384
  40   0.0000      -0.015435        -0.4200
  41   0.0000      -0.001842        -0.0501
  42   0.0000       0.007875         0.2143
  43   0.0000       0.013831         0.3764

MULLIKEN ATOMIC CHARGES
-----------------------
   0 C :   -0.116356
   1 C :   -0.581661
   2 C :   -0.686802
   3 C :   -0.556557
   4 H :    0.281859
   5 H :    0.240910
   6 C :    0.936973
   7 C :    0.039382
   8 N :   -0.378839
   9 N :   -0.424450
  10 H :    0.130794
  11 H :    0.190823
  12 H :    0.507709
  13 H :    0.278338
  14 H :    0.134823
  15 H :    0.242341
  16 H :    0.136996
  17 H :    0.275412
  18 H :    0.222625
  19 O :   -0.567815
  20 F :   -0.306503
Sum of atomic charges:   -0.0000000

LOEWDIN ATOMIC CHARGES
----------------------
   0 C :   -0.214456
   1 C :   -0.130457
   2 C :   -0.187309
   3 C :   -0.085825
   4 H :    0.112324
   5 H :    0.117918
   6 C :   -0.508428
   7 C :   -0.566317
   8 N :    0.150909
   9 N :    0.162695
  10 H :    0.096550
  11 H :    0.099020
  12 H :    0.065864
  13 H :    0.075871
  14 H :    0.102244
  15 H :    0.105614
  16 H :    0.101735
  17 H :    0.112256
  18 H :    0.106500
  19 O :    0.094363
  20 F :    0.188930

  Mayer bond orders larger than 0.100000
B(  0-C ,  1-C ) :   0.5787 B(  0-C ,  2-C ) :   0.7204 B(  0-C , 15-H ) :   0.8865
B(  0-C , 16-H ) :   1.1178 B(  1-C ,  2-C ) :   0.1985 B(  1-C ,  7-C ) :   1.5798
B(  1-C ,  9-N ) :   0.1105 B(  1-C , 12-H ) :   0.8242 B(  2-C ,  3-C ) :   0.8988
B(  2-C , 17-H ) :   0.9154 B(  2-C , 18-H ) :   1.0032 B(  3-C ,  4-H ) :   0.9159
B(  3-C ,  5-H ) :   0.9770 B(  3-C ,  6-C ) :   0.8700 B(  6-C , 19-O ) :   1.5380
B(  6-C , 20-F ) :   0.7652 B(  7-C ,  8-N ) :   0.9114 B(  7-C ,  9-N ) :   0.7755
B(  8-N , 13-H ) :   0.8151 B(  8-N , 14-H ) :   0.9426 B(  9-N , 10-H ) :   0.9992
B(  9-N , 11-H ) :   0.9277

Dispersion correction           -0.046553744
FINAL SINGLE POINT ENERGY      -519.860140809933

DIPOLE MOMENT
-------------
                                X             Y             Z
Electronic contribution:      5.88653      -4.40820      -3.89906
Nuclear contribution   :     -6.25608       3.89116       3.75052
                        -----------------------------------------
Total Dipole Moment    :     -0.36954      -0.51705      -0.14853
                        -----------------------------------------
Magnitude (a.u.)       :      0.65266
Magnitude (Debye)      :      1.65892

Rotational constants in cm-1:     0.061229     0.042568     0.033282
Rotational constants in MHz :  1835.590871  1276.154029   997.769927

                             ****ORCA TERMINATED NORMALLY****
TOTAL RUN TIME: 0 days 0 hours 0 minutes 41 seconds 142 msec
