                         Program Version 5.0.0 -  RELEASE  -
|  1> !BLYP D3BJ RIJCOSX def2-TZVPD def2/J TightSCF xyzfile
|  2>
|  3> *xyzfile 0 1 D5.xyz
|  4>
|  5> %MaxCore 64000
|  6>
|  7> %pal nprocs 4
|  8> end
|  9>
| 10> %scf
| 11>   MaxIter 150
| 12> end
| 13>
| 14>
| 15>                          ****END OF INPUT****

CARTESIAN COORDINATES (ANGSTROEM)
---------------------------------
  C      3.905947    2.819855   -3.752920
  N      5.295615    3.131515   -4.105334
  C      3.803511    1.374716   -3.260807
  C      3.939934    0.320362   -4.367729
  H      4.105043   -0.655085   -3.907733
  H      3.022801    0.280517   -4.957117
  C      5.105846    0.668022   -5.305463
  C      5.708619    3.468885   -5.324190
  C      6.904696    3.038954   -5.717084
  N      4.981884    4.293570   -6.097457
  H      5.000546    4.101311   -7.087761
  H      4.084693    4.596899   -5.739652
  H      5.963358    2.526112   -3.642391
  H      7.047164    2.066861   -5.473604
  H      7.198145    3.307994   -6.645225
  H      3.282025    2.949187   -4.640259
  H      3.565254    3.514574   -2.982523
  H      4.574833    1.215157   -2.500443
  H      2.843514    1.260845   -2.751465
  O      4.809132    1.150187   -6.414361
  F      6.267366    0.564999   -4.819481

 Total Charge           Charge          ....    0
 Multiplicity           Mult            ....    1
 Number of Electrons    NEL             ....   78
 Basis Dimension        Dim             ....  475

ORBITAL ENERGIES
----------------

  NO   OCC          E(Eh)            E(eV)
   0   2.0000     -24.353797      -662.7005
   1   2.0000     -18.778647      -510.9930
   2   2.0000     -14.013949      -381.3389
   3   2.0000     -14.003499      -381.0546
   4   2.0000     -10.075307      -274.1630
   5   2.0000      -9.951141      -270.7843
   6   2.0000      -9.940254      -270.4881
   7   2.0000      -9.939915      -270.4788
   8   2.0000      -9.935429      -270.3568
   9   2.0000      -9.808718      -266.9088
  10   2.0000      -1.210600       -32.9421
  11   2.0000      -0.948067       -25.7982
  12   2.0000      -0.882298       -24.0086
  13   2.0000      -0.805817       -21.9274
  14   2.0000      -0.739456       -20.1216
  15   2.0000      -0.669010       -18.2047
  16   2.0000      -0.628332       -17.0978
  17   2.0000      -0.590879       -16.0786
  18   2.0000      -0.558146       -15.1879
  19   2.0000      -0.538265       -14.6469
  20   2.0000      -0.493066       -13.4170
  21   2.0000      -0.489360       -13.3162
  22   2.0000      -0.464888       -12.6502
  23   2.0000      -0.447851       -12.1866
  24   2.0000      -0.444078       -12.0840
  25   2.0000      -0.432060       -11.7570
  26   2.0000      -0.415265       -11.2999
  27   2.0000      -0.390652       -10.6302
  28   2.0000      -0.370253       -10.0751
  29   2.0000      -0.356623        -9.7042
  30   2.0000      -0.345099        -9.3906
  31   2.0000      -0.334270        -9.0959
  32   2.0000      -0.328747        -8.9457
  33   2.0000      -0.320469        -8.7204
  34   2.0000      -0.314265        -8.5516
  35   2.0000      -0.279681        -7.6105
  36   2.0000      -0.242051        -6.5865
  37   2.0000      -0.219049        -5.9606
  38   2.0000      -0.134261        -3.6534
  39   0.0000      -0.065879        -1.7927
  40   0.0000      -0.022320        -0.6074
  41   0.0000      -0.006666        -0.1814
  42   0.0000       0.004230         0.1151
  43   0.0000       0.009276         0.2524

MULLIKEN ATOMIC CHARGES
-----------------------
   0 C :   -0.450112
   1 N :   -0.248311
   2 C :   -0.634386
   3 C :   -0.464761
   4 H :    0.272155
   5 H :    0.247106
   6 C :    0.847287
   7 C :    0.454841
   8 C :   -0.968414
   9 N :   -0.466426
  10 H :    0.161781
  11 H :    0.179263
  12 H :    0.199389
  13 H :    0.419775
  14 H :    0.266631
  15 H :    0.273105
  16 H :    0.205502
  17 H :    0.278752
  18 H :    0.225990
  19 O :   -0.521157
  20 F :   -0.278011
Sum of atomic charges:    0.0000000

LOEWDIN ATOMIC CHARGES
----------------------
   0 C :   -0.177428
   1 N :    0.049778
   2 C :   -0.173569
   3 C :   -0.085816
   4 H :    0.114209
   5 H :    0.118679
   6 C :   -0.507774
   7 C :   -0.583925
   8 C :    0.006599
   9 N :    0.154870
  10 H :    0.106454
  11 H :    0.087761
  12 H :    0.125686
  13 H :   -0.003666
  14 H :    0.019052
  15 H :    0.114654
  16 H :    0.109935
  17 H :    0.112892
  18 H :    0.109627
  19 O :    0.113300
  20 F :    0.188684

  Mayer bond orders larger than 0.100000
B(  0-C ,  1-N ) :   0.8078 B(  0-C ,  2-C ) :   0.8045 B(  0-C ,  7-C ) :  -0.1101
B(  0-C , 15-H ) :   0.9005 B(  0-C , 16-H ) :   1.0219 B(  1-N ,  7-C ) :   0.9553
B(  1-N , 12-H ) :   0.8663 B(  2-C ,  3-C ) :   0.8505 B(  2-C , 17-H ) :   0.9323
B(  2-C , 18-H ) :   1.0171 B(  3-C ,  4-H ) :   0.9332 B(  3-C ,  5-H ) :   0.9786
B(  3-C ,  6-C ) :   0.8954 B(  6-C , 19-O ) :   1.5993 B(  6-C , 20-F ) :   0.8124
B(  7-C ,  8-C ) :   1.4926 B(  7-C ,  9-N ) :   0.7399 B(  7-C , 14-H ) :  -0.1449
B(  8-C , 13-H ) :   0.7440 B(  8-C , 14-H ) :   1.2800 B(  9-N , 10-H ) :   0.9691
B(  9-N , 11-H ) :   0.9373

Dispersion correction           -0.046241847
FINAL SINGLE POINT ENERGY      -519.836547589693

DIPOLE MOMENT
-------------
                                X             Y             Z
Electronic contribution:      4.48557      -4.59461      -2.63861
Nuclear contribution   :     -6.05797       3.87976       3.55209
                        -----------------------------------------
Total Dipole Moment    :     -1.57240      -0.71484       0.91347
                        -----------------------------------------
Magnitude (a.u.)       :      1.95394
Magnitude (Debye)      :      4.96652

Rotational constants in cm-1:     0.061282     0.043164     0.033679
Rotational constants in MHz :  1837.191639  1294.028651  1009.659886

                             ****ORCA TERMINATED NORMALLY****
TOTAL RUN TIME: 0 days 0 hours 0 minutes 46 seconds 512 msec
