                         Program Version 5.0.0 -  RELEASE  -
|  1> !BLYP D3BJ RIJCOSX def2-TZVPD def2/J TightSCF xyzfile
|  2>
|  3> *xyzfile 0 1 D6.xyz
|  4>
|  5> %MaxCore 64000
|  6>
|  7> %pal nprocs 4
|  8> end
|  9>
| 10> %scf
| 11>   MaxIter 150
| 12> end
| 13>
| 14>
| 15>                          ****END OF INPUT****

CARTESIAN COORDINATES (ANGSTROEM)
---------------------------------
  C      3.905947    2.819855   -3.752920
  N      5.295615    3.131515   -4.105334
  C      3.803511    1.374716   -3.260807
  C      3.939934    0.320362   -4.367729
  H      4.105043   -0.655085   -3.907733
  H      3.022801    0.280517   -4.957117
  C      5.105846    0.668022   -5.305463
  C      5.708619    3.468885   -5.324190
  N      6.904696    3.038954   -5.717084
  C      4.981884    4.293570   -6.097457
  H      5.000546    4.101311   -7.087761
  H      4.084693    4.596899   -5.739652
  H      5.963358    2.526112   -3.642391
  H      7.047164    2.066861   -5.473604
  H      7.198145    3.307994   -6.645225
  H      3.282025    2.949187   -4.640259
  H      3.565254    3.514574   -2.982523
  H      4.574833    1.215157   -2.500443
  H      2.843514    1.260845   -2.751465
  O      4.809132    1.150187   -6.414361
  F      6.267366    0.564999   -4.819481

 Total Charge           Charge          ....    0
 Multiplicity           Mult            ....    1
 Number of Electrons    NEL             ....   78
 Basis Dimension        Dim             ....  475

ORBITAL ENERGIES
----------------

  NO   OCC          E(Eh)            E(eV)
   0   2.0000     -24.369220      -663.1202
   1   2.0000     -18.785517      -511.1799
   2   2.0000     -14.017262      -381.4291
   3   2.0000     -13.995617      -380.8401
   4   2.0000     -10.079773      -274.2846
   5   2.0000      -9.948052      -270.7003
   6   2.0000      -9.942466      -270.5482
   7   2.0000      -9.941885      -270.5324
   8   2.0000      -9.934796      -270.3395
   9   2.0000      -9.820858      -267.2391
  10   2.0000      -1.225883       -33.3580
  11   2.0000      -0.954242       -25.9662
  12   2.0000      -0.886662       -24.1273
  13   2.0000      -0.807799       -21.9813
  14   2.0000      -0.737139       -20.0586
  15   2.0000      -0.663653       -18.0589
  16   2.0000      -0.631153       -17.1745
  17   2.0000      -0.609686       -16.5904
  18   2.0000      -0.568701       -15.4751
  19   2.0000      -0.514593       -14.0028
  20   2.0000      -0.509054       -13.8521
  21   2.0000      -0.498994       -13.5783
  22   2.0000      -0.466858       -12.7038
  23   2.0000      -0.452565       -12.3149
  24   2.0000      -0.445484       -12.1222
  25   2.0000      -0.430146       -11.7049
  26   2.0000      -0.425369       -11.5749
  27   2.0000      -0.382354       -10.4044
  28   2.0000      -0.372967       -10.1489
  29   2.0000      -0.356729        -9.7071
  30   2.0000      -0.345027        -9.3887
  31   2.0000      -0.340720        -9.2715
  32   2.0000      -0.334749        -9.1090
  33   2.0000      -0.322591        -8.7781
  34   2.0000      -0.316779        -8.6200
  35   2.0000      -0.286820        -7.8048
  36   2.0000      -0.247888        -6.7454
  37   2.0000      -0.214696        -5.8422
  38   2.0000      -0.141716        -3.8563
  39   0.0000      -0.070771        -1.9258
  40   0.0000      -0.023106        -0.6287
  41   0.0000       0.001776         0.0483
  42   0.0000       0.003203         0.0872
  43   0.0000       0.011728         0.3191

MULLIKEN ATOMIC CHARGES
-----------------------
   0 C :   -0.396195
   1 N :   -0.215789
   2 C :   -0.661621
   3 C :   -0.490041
   4 H :    0.275588
   5 H :    0.249007
   6 C :    0.869678
   7 C :    0.477495
   8 N :   -0.394381
   9 C :   -1.270709
  10 H :    0.290753
  11 H :    0.417265
  12 H :    0.211300
  13 H :    0.288912
  14 H :    0.167622
  15 H :    0.284790
  16 H :    0.218693
  17 H :    0.285407
  18 H :    0.213988
  19 O :   -0.501050
  20 F :   -0.320709
Sum of atomic charges:    0.0000000

LOEWDIN ATOMIC CHARGES
----------------------
   0 C :   -0.167972
   1 N :    0.049684
   2 C :   -0.172889
   3 C :   -0.085554
   4 H :    0.113690
   5 H :    0.120489
   6 C :   -0.510713
   7 C :   -0.593990
   8 N :    0.146455
   9 C :    0.026687
  10 H :    0.013527
  11 H :    0.004369
  12 H :    0.121796
  13 H :    0.066320
  14 H :    0.110154
  15 H :    0.119437
  16 H :    0.114437
  17 H :    0.110399
  18 H :    0.111023
  19 O :    0.118391
  20 F :    0.184259

  Mayer bond orders larger than 0.100000
B(  0-C ,  1-N ) :   0.8270 B(  0-C ,  2-C ) :   0.7900 B(  0-C , 15-H ) :   0.9004
B(  0-C , 16-H ) :   0.9765 B(  1-N ,  7-C ) :   1.0130 B(  1-N , 12-H ) :   0.8018
B(  2-C ,  3-C ) :   0.8459 B(  2-C , 17-H ) :   0.9173 B(  2-C , 18-H ) :   1.0286
B(  3-C ,  4-H ) :   0.9337 B(  3-C ,  5-H ) :   0.9752 B(  3-C ,  6-C ) :   0.9029
B(  6-C , 19-O ) :   1.5930 B(  6-C , 20-F ) :   0.7460 B(  7-C ,  8-N ) :   0.8523
B(  7-C ,  9-C ) :   1.2598 B(  7-C , 10-H ) :  -0.1262 B(  7-C , 11-H ) :  -0.1140
B(  8-N ,  9-C ) :   0.1283 B(  8-N , 13-H ) :   0.7774 B(  8-N , 14-H ) :   0.9210
B(  9-C , 10-H ) :   1.0437 B(  9-C , 11-H ) :   0.8989

Dispersion correction           -0.046227247
FINAL SINGLE POINT ENERGY      -519.847303498011

DIPOLE MOMENT
-------------
                                X             Y             Z
Electronic contribution:      5.99250      -5.53700      -2.36753
Nuclear contribution   :     -6.29470       4.03423       3.50525
                        -----------------------------------------
Total Dipole Moment    :     -0.30220      -1.50277       1.13772
                        -----------------------------------------
Magnitude (a.u.)       :      1.90894
Magnitude (Debye)      :      4.85215

Rotational constants in cm-1:     0.061094     0.043661     0.033867
Rotational constants in MHz :  1831.559881  1308.929520  1015.295167

                             ****ORCA TERMINATED NORMALLY****
TOTAL RUN TIME: 0 days 0 hours 0 minutes 42 seconds 509 msec
