                         Program Version 5.0.0 -  RELEASE  -
|  1> !wB97X-D3 RIJCOSX def2-SVP def2/J TightSCF
|  2> *xyz -1 1
|  3> C         -0.95121        1.33498       -0.97250
|  4> C         -0.77455        2.78833       -0.54394
|  5> H         -1.35261        3.45937       -1.19259
|  6> H         -1.17101        2.90233        0.46997
|  7> C          0.69721        3.22791       -0.52513
|  8> O          1.48929        2.37470        0.19919
|  9> H          0.71600        4.26403       -0.13077
| 10> H          1.03615        3.33092       -1.58367
| 11> H         -0.56808        1.20618       -1.96322
| 12> H         -1.99081        1.08225       -0.95647
| 13> H         -0.41866        0.69710       -0.29841
| 14> *
| 15>
| 16> %MaxCore 64000
| 17> %pal nprocs 18
| 18> end
| 19>
| 20> %scf
| 21>   MaxIter 150
| 22> end
| 23>
| 24>
| 25>                          ****END OF INPUT****

CARTESIAN COORDINATES (ANGSTROEM)
---------------------------------
  C     -0.951210    1.334980   -0.972500
  C     -0.774550    2.788330   -0.543940
  H     -1.352610    3.459370   -1.192590
  H     -1.171010    2.902330    0.469970
  C      0.697210    3.227910   -0.525130
  O      1.489290    2.374700    0.199190
  H      0.716000    4.264030   -0.130770
  H      1.036150    3.330920   -1.583670
  H     -0.568080    1.206180   -1.963220
  H     -1.990810    1.082250   -0.956470
  H     -0.418660    0.697100   -0.298410

 Total Charge           Charge          ....   -1
 Multiplicity           Mult            ....    1
 Number of Electrons    NEL             ....   34
 Basis Dimension        Dim             ....   91

ORBITAL ENERGIES
----------------

  NO   OCC          E(Eh)            E(eV)
   0   2.0000     -18.858206      -513.1579
   1   2.0000     -10.095898      -274.7233
   2   2.0000     -10.082784      -274.3665
   3   2.0000     -10.082612      -274.3618
   4   2.0000      -0.753508       -20.5040
   5   2.0000      -0.674982       -18.3672
   6   2.0000      -0.558873       -15.2077
   7   2.0000      -0.449378       -12.2282
   8   2.0000      -0.363503        -9.8914
   9   2.0000      -0.353661        -9.6236
  10   2.0000      -0.299948        -8.1620
  11   2.0000      -0.270308        -7.3555
  12   2.0000      -0.239656        -6.5214
  13   2.0000      -0.228550        -6.2192
  14   2.0000      -0.169795        -4.6204
  15   2.0000      -0.024080        -0.6553
  16   2.0000      -0.020656        -0.5621
  17   0.0000       0.314435         8.5562
  18   0.0000       0.353012         9.6059
  19   0.0000       0.361455         9.8357
  20   0.0000       0.385692        10.4952
  21   0.0000       0.395522        10.7627

MULLIKEN ATOMIC CHARGES
-----------------------
   0 C :    0.015839
   1 C :   -0.046129
   2 H :   -0.088351
   3 H :   -0.046742
   4 C :    0.276182
   5 O :   -0.715027
   6 H :   -0.153664
   7 H :   -0.163475
   8 H :   -0.027286
   9 H :   -0.051953
  10 H :    0.000607
Sum of atomic charges:   -1.0000000

LOEWDIN ATOMIC CHARGES
----------------------
   0 C :   -0.069381
   1 C :   -0.086474
   2 H :   -0.026747
   3 H :   -0.007831
   4 C :    0.012126
   5 O :   -0.668736
   6 H :   -0.073943
   7 H :   -0.079648
   8 H :    0.002968
   9 H :   -0.013004
  10 H :    0.010669

  Mayer bond orders larger than 0.100000
B(  0-C ,  1-C ) :   1.0755 B(  0-C ,  8-H ) :   0.9689 B(  0-C ,  9-H ) :   0.9683
B(  0-C , 10-H ) :   0.9539 B(  1-C ,  2-H ) :   0.9241 B(  1-C ,  3-H ) :   0.9438
B(  1-C ,  4-C ) :   0.9861 B(  4-C ,  5-O ) :   1.4799 B(  4-C ,  6-H ) :   0.8857
B(  4-C ,  7-H ) :   0.8684

Dispersion correction           -0.001936047
FINAL SINGLE POINT ENERGY      -193.514774743909

DIPOLE MOMENT
-------------
                                X             Y             Z
Electronic contribution:      2.71360      -0.10521       1.62266
Nuclear contribution   :     -4.35230      -0.04018      -2.29108
                        -----------------------------------------
Total Dipole Moment    :     -1.63870      -0.14540      -0.66842
                        -----------------------------------------
Magnitude (a.u.)       :      1.77574
Magnitude (Debye)      :      4.51358

Rotational constants in cm-1:     0.489965     0.184028     0.151025
Rotational constants in MHz : 14688.769521  5517.006179  4527.605157

                             ****ORCA TERMINATED NORMALLY****
TOTAL RUN TIME: 0 days 0 hours 0 minutes 4 seconds 795 msec
