                         Program Version 5.0.0 -  RELEASE  -
|  1> !wB97X-D3 RIJCOSX def2-SVP def2/J TightSCF
|  2> *xyz 1 1
|  3> C          3.95643        0.50147       -0.37910
|  4> H          3.16840        0.02920        0.20738
|  5> N          3.80389        1.96157       -0.15675
|  6> C          3.84232        0.14849       -1.85406
|  7> H          4.92323        0.17798        0.00937
|  8> H          4.62002        0.69450       -2.40215
|  9> H          4.09601       -0.91093       -1.95510
| 10> C          2.47562        0.41271       -2.48538
| 11> H          4.20643        2.24441        0.74536
| 12> H          2.80827        2.21132       -0.09610
| 13> H          4.28076        2.50155       -0.89104
| 14> H          2.49958        0.13290       -3.51787
| 15> H          2.23992        1.45318       -2.40319
| 16> H          1.73061       -0.16300       -1.97702
| 17> *
| 18>
| 19> %MaxCore 64000
| 20> %pal nprocs 18
| 21> end
| 22>
| 23> %scf
| 24>   MaxIter 150
| 25> end
| 26>
| 27>
| 28>                          ****END OF INPUT****

CARTESIAN COORDINATES (ANGSTROEM)
---------------------------------
  C      3.956430    0.501470   -0.379100
  H      3.168400    0.029200    0.207380
  N      3.803890    1.961570   -0.156750
  C      3.842320    0.148490   -1.854060
  H      4.923230    0.177980    0.009370
  H      4.620020    0.694500   -2.402150
  H      4.096010   -0.910930   -1.955100
  C      2.475620    0.412710   -2.485380
  H      4.206430    2.244410    0.745360
  H      2.808270    2.211320   -0.096100
  H      4.280760    2.501550   -0.891040
  H      2.499580    0.132900   -3.517870
  H      2.239920    1.453180   -2.403190
  H      1.730610   -0.163000   -1.977020

 Total Charge           Charge          ....    1
 Multiplicity           Mult            ....    1
 Number of Electrons    NEL             ....   34
 Basis Dimension        Dim             ....  106

ORBITAL ENERGIES
----------------

  NO   OCC          E(Eh)            E(eV)
   0   2.0000     -14.772432      -401.9783
   1   2.0000     -10.536538      -286.7138
   2   2.0000     -10.466742      -284.8145
   3   2.0000     -10.433333      -283.9054
   4   2.0000      -1.324689       -36.0466
   5   2.0000      -1.084677       -29.5156
   6   2.0000      -0.991549       -26.9814
   7   2.0000      -0.914794       -24.8928
   8   2.0000      -0.894843       -24.3499
   9   2.0000      -0.875212       -23.8157
  10   2.0000      -0.791328       -21.5331
  11   2.0000      -0.731905       -19.9161
  12   2.0000      -0.707546       -19.2533
  13   2.0000      -0.683821       -18.6077
  14   2.0000      -0.619883       -16.8679
  15   2.0000      -0.613970       -16.7070
  16   2.0000      -0.606173       -16.4948
  17   0.0000      -0.090997        -2.4762
  18   0.0000      -0.035001        -0.9524
  19   0.0000      -0.030840        -0.8392
  20   0.0000       0.000181         0.0049
  21   0.0000       0.033355         0.9076

MULLIKEN ATOMIC CHARGES
-----------------------
   0 C :   -0.021106
   1 H :    0.105907
   2 N :   -0.020978
   3 C :   -0.157382
   4 H :    0.118043
   5 H :    0.069852
   6 H :    0.104070
   7 C :   -0.040114
   8 H :    0.222976
   9 H :    0.225539
  10 H :    0.221294
  11 H :    0.093449
  12 H :    0.015276
  13 H :    0.063174
Sum of atomic charges:    1.0000000

LOEWDIN ATOMIC CHARGES
----------------------
   0 C :    0.049543
   1 H :    0.052202
   2 N :    0.293105
   3 C :   -0.049965
   4 H :    0.057443
   5 H :    0.037738
   6 H :    0.061405
   7 C :   -0.048930
   8 H :    0.149142
   9 H :    0.147412
  10 H :    0.144976
  11 H :    0.053549
  12 H :    0.014940
  13 H :    0.037440

  Mayer bond orders larger than 0.100000
B(  0-C ,  1-H ) :   0.9533 B(  0-C ,  2-N ) :   0.9083 B(  0-C ,  3-C ) :   1.0642
B(  0-C ,  4-H ) :   0.9558 B(  2-N ,  8-H ) :   0.9316 B(  2-N ,  9-H ) :   0.9308
B(  2-N , 10-H ) :   0.9282 B(  3-C ,  5-H ) :   0.9511 B(  3-C ,  6-H ) :   0.9421
B(  3-C ,  7-C ) :   1.0641 B(  7-C , 11-H ) :   0.9672 B(  7-C , 12-H ) :   0.9763
B(  7-C , 13-H ) :   0.9756

Dispersion correction           -0.002857464
FINAL SINGLE POINT ENERGY      -174.678496592654

DIPOLE MOMENT
-------------
                                X             Y             Z
Electronic contribution:      1.02414       1.23208       1.88494
Nuclear contribution   :     -0.57302       0.26376      -0.39709
                        -----------------------------------------
Total Dipole Moment    :      0.45111       1.49585       1.48785
                        -----------------------------------------
Magnitude (a.u.)       :      2.15748
Magnitude (Debye)      :      5.48389

Rotational constants in cm-1:     0.449370     0.157244     0.134525
Rotational constants in MHz : 13471.775278  4714.062641  4032.958796

                             ****ORCA TERMINATED NORMALLY****
TOTAL RUN TIME: 0 days 0 hours 0 minutes 5 seconds 417 msec
