                         Program Version 5.0.0 -  RELEASE  -
|  1> !wB97X-D3 RIJCOSX def2-SVP def2/J TightSCF xyzfile
|  2>
|  3> *xyzfile 0 1 B.xyz
|  4>
|  5> %MaxCore 64000
|  6>
|  7> %pal nprocs 18
|  8> end
|  9>
| 10> %scf
| 11>   MaxIter 150
| 12> end
| 13>
| 14>
| 15>                          ****END OF INPUT****

CARTESIAN COORDINATES (ANGSTROEM)
---------------------------------
  C      3.956426    0.501466   -0.379100
  H      3.168398    0.029201    0.207383
  N      3.803893    1.961572   -0.156747
  C      3.842322    0.148490   -1.854058
  H      4.923231    0.177982    0.009371
  H      4.620021    0.694502   -2.402150
  H      4.096015   -0.910930   -1.955103
  C      2.475619    0.412708   -2.485377
  H      2.174689    1.445076   -2.287971
  C      1.383931   -0.532740   -1.995203
  H      2.575613    0.318574   -3.571460
  H      1.264698   -0.412309   -0.915491
  H      1.705223   -1.566885   -2.164984
  C      0.031398   -0.317260   -2.677791
  C     -0.587292    1.060853   -2.436460
  H     -0.662815   -1.089530   -2.329985
  H      0.149465   -0.478040   -3.755648
  H      0.104376    1.828590   -2.793130
  C     -0.951213    1.334978   -0.972500
  H     -1.478832    1.161355   -3.062484
  H     -0.317007    0.741648   -0.311389
  H     -1.980916    1.012842   -0.788958
  C     -0.774550    2.788332   -0.543943
  H     -1.352609    3.459372   -1.192585
  H     -1.171014    2.902331    0.469968
  C      0.697208    3.227911   -0.525126
  O      1.489294    2.374703    0.199189
  H      0.715998    4.264030   -0.130774
  H      1.036148    3.330920   -1.583669
  H      4.206425    2.244406    0.745359
  H      2.808269    2.211323   -0.096097
  H      4.280757    2.501552   -0.891037

 Total Charge           Charge          ....    0
 Multiplicity           Mult            ....    1
 Number of Electrons    NEL             ....   90
 Basis Dimension        Dim             ....  259

ORBITAL ENERGIES
----------------

  NO   OCC          E(Eh)            E(eV)
   0   2.0000     -19.088441      -519.4229
   1   2.0000     -14.517688      -395.0464
   2   2.0000     -10.357840      -281.8512
   3   2.0000     -10.313293      -280.6390
   4   2.0000     -10.286107      -279.8992
   5   2.0000     -10.273106      -279.5454
   6   2.0000     -10.266999      -279.3793
   7   2.0000     -10.263539      -279.2851
   8   2.0000     -10.253592      -279.0144
   9   2.0000     -10.239093      -278.6199
  10   2.0000     -10.229883      -278.3693
  11   2.0000      -1.099359       -29.9151
  12   2.0000      -0.977500       -26.5991
  13   2.0000      -0.928766       -25.2730
  14   2.0000      -0.887413       -24.1477
  15   2.0000      -0.847325       -23.0569
  16   2.0000      -0.803975       -21.8773
  17   2.0000      -0.765226       -20.8229
  18   2.0000      -0.725429       -19.7399
  19   2.0000      -0.697099       -18.9690
  20   2.0000      -0.675400       -18.3786
  21   2.0000      -0.670732       -18.2515
  22   2.0000      -0.647960       -17.6319
  23   2.0000      -0.607288       -16.5251
  24   2.0000      -0.593107       -16.1393
  25   2.0000      -0.568181       -15.4610
  26   2.0000      -0.567286       -15.4366
  27   2.0000      -0.534975       -14.5574
  28   2.0000      -0.521035       -14.1781
  29   2.0000      -0.514953       -14.0126
  30   2.0000      -0.496448       -13.5090
  31   2.0000      -0.486056       -13.2263
  32   2.0000      -0.476311       -12.9611
  33   2.0000      -0.456945       -12.4341
  34   2.0000      -0.448029       -12.1915
  35   2.0000      -0.435205       -11.8425
  36   2.0000      -0.423822       -11.5328
  37   2.0000      -0.415929       -11.3180
  38   2.0000      -0.405077       -11.0227
  39   2.0000      -0.396238       -10.7822
  40   2.0000      -0.377276       -10.2662
  41   2.0000      -0.370502       -10.0819
  42   2.0000      -0.366625        -9.9764
  43   2.0000      -0.257330        -7.0023
  44   2.0000      -0.249216        -6.7815
  45   0.0000       0.095739         2.6052
  46   0.0000       0.137783         3.7493
  47   0.0000       0.146765         3.9937
  48   0.0000       0.161814         4.4032
  49   0.0000       0.171889         4.6773

MULLIKEN ATOMIC CHARGES
-----------------------
   0 C :    0.043238
   1 H :    0.081480
   2 N :    0.005716
   3 C :   -0.073891
   4 H :    0.046286
   5 H :    0.024761
   6 H :    0.040644
   7 C :   -0.034297
   8 H :    0.017462
   9 C :   -0.035042
  10 H :    0.020776
  11 H :    0.026824
  12 H :    0.005424
  13 C :   -0.011044
  14 C :   -0.033151
  15 H :    0.015009
  16 H :    0.004795
  17 H :    0.005890
  18 C :   -0.030813
  19 H :    0.010328
  20 H :    0.017747
  21 H :    0.000310
  22 C :   -0.029135
  23 H :   -0.014870
  24 H :    0.003088
  25 C :    0.230225
  26 O :   -0.641326
  27 H :   -0.052308
  28 H :   -0.083937
  29 H :    0.169955
  30 H :    0.112912
  31 H :    0.156943
Sum of atomic charges:    0.0000000

LOEWDIN ATOMIC CHARGES
----------------------
   0 C :    0.046776
   1 H :    0.043315
   2 N :    0.272161
   3 C :   -0.045752
   4 H :    0.025157
   5 H :    0.021855
   6 H :    0.035104
   7 C :   -0.040942
   8 H :    0.024035
   9 C :   -0.040022
  10 H :    0.024452
  11 H :    0.020790
  12 H :    0.016420
  13 C :   -0.036191
  14 C :   -0.040720
  15 H :    0.021306
  16 H :    0.016266
  17 H :    0.012612
  18 C :   -0.044177
  19 H :    0.019677
  20 H :    0.016291
  21 H :    0.013421
  22 C :   -0.062090
  23 H :    0.007208
  24 H :    0.016701
  25 C :    0.029370
  26 O :   -0.483296
  27 H :   -0.026678
  28 H :   -0.045417
  29 H :    0.115099
  30 H :   -0.036020
  31 H :    0.103289

  Mayer bond orders larger than 0.100000
B(  0-C ,  1-H ) :   0.9471 B(  0-C ,  2-N ) :   0.9617 B(  0-C ,  3-C ) :   1.0771
B(  0-C ,  4-H ) :   0.9608 B(  2-N , 29-H ) :   0.9453 B(  2-N , 30-H ) :   0.6891
B(  2-N , 31-H ) :   0.9479 B(  3-C ,  5-H ) :   0.9489 B(  3-C ,  6-H ) :   0.9438
B(  3-C ,  7-C ) :   1.0759 B(  7-C ,  8-H ) :   0.9396 B(  7-C ,  9-C ) :   1.0502
B(  7-C , 10-H ) :   0.9444 B(  9-C , 11-H ) :   0.9413 B(  9-C , 12-H ) :   0.9457
B(  9-C , 13-C ) :   1.0861 B( 13-C , 14-C ) :   1.0785 B( 13-C , 15-H ) :   0.9471
B( 13-C , 16-H ) :   0.9483 B( 14-C , 17-H ) :   0.9557 B( 14-C , 18-C ) :   1.0376
B( 14-C , 19-H ) :   0.9437 B( 18-C , 20-H ) :   0.9461 B( 18-C , 21-H ) :   0.9491
B( 18-C , 22-C ) :   1.0758 B( 22-C , 23-H ) :   0.9430 B( 22-C , 24-H ) :   0.9425
B( 22-C , 25-C ) :   1.0394 B( 25-C , 26-O ) :   1.1855 B( 25-C , 27-H ) :   0.9350
B( 25-C , 28-H ) :   0.9068 B( 26-O , 30-H ) :   0.4536

Dispersion correction           -0.014836133
FINAL SINGLE POINT ENERGY      -485.067627538741

DIPOLE MOMENT
-------------
                                X             Y             Z
Electronic contribution:      2.29421       0.90947       2.66103
Nuclear contribution   :      0.61785      -1.47632      -2.91844
                        -----------------------------------------
Total Dipole Moment    :      2.91206      -0.56685      -0.25741
                        -----------------------------------------
Magnitude (a.u.)       :      2.97787
Magnitude (Debye)      :      7.56913

Rotational constants in cm-1:     0.040993     0.027400     0.018162
Rotational constants in MHz :  1228.944366   821.418004   544.476857

                             ****ORCA TERMINATED NORMALLY****
TOTAL RUN TIME: 0 days 0 hours 0 minutes 26 seconds 524 msec
