                         Program Version 5.0.0 -  RELEASE  -
|  1> !wB97X-D3 RIJCOSX def2-SVP def2/J TightSCF
|  2> *xyz 0 1
|  3> C         -0.95121        1.33498       -0.97250
|  4> C         -0.77455        2.78833       -0.54394
|  5> H         -1.35261        3.45937       -1.19259
|  6> H         -1.17101        2.90233        0.46997
|  7> C          0.69721        3.22791       -0.52513
|  8> F          1.48929        2.37470        0.19919
|  9> H          0.71600        4.26403       -0.13077
| 10> H          1.03615        3.33092       -1.58367
| 11> H         -0.56808        1.20618       -1.96322
| 12> H         -1.99081        1.08225       -0.95647
| 13> H         -0.41866        0.69710       -0.29841
| 14> *
| 15>
| 16> %MaxCore 64000
| 17> %pal nprocs 18
| 18> end
| 19>
| 20> %scf
| 21>   MaxIter 150
| 22> end
| 23>
| 24>
| 25>                          ****END OF INPUT****

CARTESIAN COORDINATES (ANGSTROEM)
---------------------------------
  C     -0.951210    1.334980   -0.972500
  C     -0.774550    2.788330   -0.543940
  H     -1.352610    3.459370   -1.192590
  H     -1.171010    2.902330    0.469970
  C      0.697210    3.227910   -0.525130
  F      1.489290    2.374700    0.199190
  H      0.716000    4.264030   -0.130770
  H      1.036150    3.330920   -1.583670
  H     -0.568080    1.206180   -1.963220
  H     -1.990810    1.082250   -0.956470
  H     -0.418660    0.697100   -0.298410

 Total Charge           Charge          ....    0
 Multiplicity           Mult            ....    1
 Number of Electrons    NEL             ....   34
 Basis Dimension        Dim             ....   91

ORBITAL ENERGIES
----------------

  NO   OCC          E(Eh)            E(eV)
   0   2.0000     -24.771080      -674.0554
   1   2.0000     -10.362247      -281.9711
   2   2.0000     -10.291469      -280.0451
   3   2.0000     -10.273616      -279.5593
   4   2.0000      -1.286877       -35.0177
   5   2.0000      -0.897250       -24.4154
   6   2.0000      -0.794268       -21.6131
   7   2.0000      -0.696639       -18.9565
   8   2.0000      -0.605576       -16.4785
   9   2.0000      -0.591305       -16.0902
  10   2.0000      -0.567208       -15.4345
  11   2.0000      -0.532250       -14.4832
  12   2.0000      -0.492124       -13.3914
  13   2.0000      -0.468039       -12.7360
  14   2.0000      -0.446921       -12.1613
  15   2.0000      -0.416312       -11.3284
  16   2.0000      -0.414334       -11.2746
  17   0.0000       0.145472         3.9585
  18   0.0000       0.185156         5.0383
  19   0.0000       0.189164         5.1474
  20   0.0000       0.213523         5.8103
  21   0.0000       0.218761         5.9528

MULLIKEN ATOMIC CHARGES
-----------------------
   0 C :   -0.029181
   1 C :   -0.159576
   2 H :    0.034949
   3 H :    0.037928
   4 C :    0.245279
   5 F :   -0.270290
   6 H :    0.025558
   7 H :    0.020284
   8 H :    0.022590
   9 H :    0.031128
  10 H :    0.041331
Sum of atomic charges:   -0.0000000

LOEWDIN ATOMIC CHARGES
----------------------
   0 C :   -0.057113
   1 C :   -0.069552
   2 H :    0.030301
   3 H :    0.025245
   4 C :    0.112016
   5 F :   -0.136514
   6 H :    0.013028
   7 H :    0.010991
   8 H :    0.021028
   9 H :    0.024391
  10 H :    0.026179

  Mayer bond orders larger than 0.100000
B(  0-C ,  1-C ) :   1.0754 B(  0-C ,  8-H ) :   0.9777 B(  0-C ,  9-H ) :   0.9757
B(  0-C , 10-H ) :   0.9743 B(  1-C ,  2-H ) :   0.9492 B(  1-C ,  3-H ) :   0.9558
B(  1-C ,  4-C ) :   1.0622 B(  4-C ,  5-F ) :   0.9860 B(  4-C ,  6-H ) :   0.9616
B(  4-C ,  7-H ) :   0.9563

Dispersion correction           -0.001927792
FINAL SINGLE POINT ENERGY      -218.150598439041

DIPOLE MOMENT
-------------
                                X             Y             Z
Electronic contribution:      5.55272       0.34181       2.76115
Nuclear contribution   :     -6.00193       0.02246      -3.08821
                        -----------------------------------------
Total Dipole Moment    :     -0.44921       0.36428      -0.32706
                        -----------------------------------------
Magnitude (a.u.)       :      0.66442
Magnitude (Debye)      :      1.68882

Rotational constants in cm-1:     0.475356     0.173608     0.142756
Rotational constants in MHz : 14250.818869  5204.623090  4279.716550

                             ****ORCA TERMINATED NORMALLY****
TOTAL RUN TIME: 0 days 0 hours 0 minutes 4 seconds 961 msec
