                         Program Version 5.0.0 -  RELEASE  -
|  1> !wB97X-D3 RIJCOSX def2-SVP def2/J TightSCF
|  2> *xyz 0 1
|  3> C          3.95643        0.50147       -0.37910
|  4> H          3.16840        0.02920        0.20738
|  5> C          3.80389        1.96157       -0.15675
|  6> C          3.84232        0.14849       -1.85406
|  7> H          4.92323        0.17798        0.00937
|  8> H          4.62002        0.69450       -2.40215
|  9> H          4.09601       -0.91093       -1.95510
| 10> C          2.47562        0.41271       -2.48538
| 11> H          4.20643        2.24441        0.74536
| 12> H          2.80827        2.21132       -0.09610
| 13> H          4.28076        2.50155       -0.89104
| 14> H          2.49958        0.13290       -3.51787
| 15> H          2.23992        1.45318       -2.40319
| 16> H          1.73061       -0.16300       -1.97702
| 17> *
| 18>
| 19> %MaxCore 64000
| 20> %pal nprocs 18
| 21> end
| 22>
| 23> %scf
| 24>   MaxIter 150
| 25> end
| 26>
| 27>
| 28>                          ****END OF INPUT****

CARTESIAN COORDINATES (ANGSTROEM)
---------------------------------
  C      3.956430    0.501470   -0.379100
  H      3.168400    0.029200    0.207380
  C      3.803890    1.961570   -0.156750
  C      3.842320    0.148490   -1.854060
  H      4.923230    0.177980    0.009370
  H      4.620020    0.694500   -2.402150
  H      4.096010   -0.910930   -1.955100
  C      2.475620    0.412710   -2.485380
  H      4.206430    2.244410    0.745360
  H      2.808270    2.211320   -0.096100
  H      4.280760    2.501550   -0.891040
  H      2.499580    0.132900   -3.517870
  H      2.239920    1.453180   -2.403190
  H      1.730610   -0.163000   -1.977020

 Total Charge           Charge          ....    0
 Multiplicity           Mult            ....    1
 Number of Electrons    NEL             ....   34
 Basis Dimension        Dim             ....  106

ORBITAL ENERGIES
----------------

  NO   OCC          E(Eh)            E(eV)
   0   2.0000     -10.276386      -279.6347
   1   2.0000     -10.271959      -279.5142
   2   2.0000     -10.268340      -279.4157
   3   2.0000     -10.249040      -278.8906
   4   2.0000      -0.912564       -24.8321
   5   2.0000      -0.836427       -22.7603
   6   2.0000      -0.749428       -20.3930
   7   2.0000      -0.668999       -18.2044
   8   2.0000      -0.565768       -15.3953
   9   2.0000      -0.562588       -15.3088
  10   2.0000      -0.524190       -14.2639
  11   2.0000      -0.485703       -13.2166
  12   2.0000      -0.478704       -13.0262
  13   2.0000      -0.457121       -12.4389
  14   2.0000      -0.415472       -11.3056
  15   2.0000      -0.412162       -11.2155
  16   2.0000      -0.410061       -11.1583
  17   0.0000       0.146305         3.9811
  18   0.0000       0.186409         5.0724
  19   0.0000       0.188968         5.1421
  20   0.0000       0.194925         5.3042
  21   0.0000       0.217341         5.9142

MULLIKEN ATOMIC CHARGES
-----------------------
   0 C :   -0.084572
   1 H :    0.016867
   2 C :    0.035723
   3 C :   -0.096029
   4 H :    0.023136
   5 H :    0.020936
   6 H :    0.020250
   7 C :   -0.022333
   8 H :    0.000924
   9 H :    0.008695
  10 H :    0.001339
  11 H :    0.028858
  12 H :    0.023615
  13 H :    0.022591
Sum of atomic charges:    0.0000000

LOEWDIN ATOMIC CHARGES
----------------------
   0 C :   -0.042854
   1 H :    0.020183
   2 C :   -0.048278
   3 C :   -0.045250
   4 H :    0.021560
   5 H :    0.019275
   6 H :    0.019643
   7 C :   -0.056109
   8 H :    0.017525
   9 H :    0.015432
  10 H :    0.013360
  11 H :    0.024163
  12 H :    0.020024
  13 H :    0.021326

  Mayer bond orders larger than 0.100000
B(  0-C ,  1-H ) :   0.9574 B(  0-C ,  2-C ) :   1.0845 B(  0-C ,  3-C ) :   1.0793
B(  0-C ,  4-H ) :   0.9588 B(  2-C ,  8-H ) :   0.9644 B(  2-C ,  9-H ) :   0.9711
B(  2-C , 10-H ) :   0.9727 B(  3-C ,  5-H ) :   0.9566 B(  3-C ,  6-H ) :   0.9578
B(  3-C ,  7-C ) :   1.0768 B(  7-C , 11-H ) :   0.9734 B(  7-C , 12-H ) :   0.9764
B(  7-C , 13-H ) :   0.9757

Dispersion correction           -0.002757932
FINAL SINGLE POINT ENERGY      -158.282147057688

DIPOLE MOMENT
-------------
                                X             Y             Z
Electronic contribution:      0.48350      -0.61124       0.09544
Nuclear contribution   :     -0.48267       0.62853      -0.07145
                        -----------------------------------------
Total Dipole Moment    :      0.00083       0.01729       0.02399
                        -----------------------------------------
Magnitude (a.u.)       :      0.02959
Magnitude (Debye)      :      0.07520

Rotational constants in cm-1:     0.457318     0.164089     0.140183
Rotational constants in MHz : 13710.038687  4919.250587  4202.581436

                             ****ORCA TERMINATED NORMALLY****
TOTAL RUN TIME: 0 days 0 hours 0 minutes 5 seconds 238 msec
