                         Program Version 5.0.0 -  RELEASE  -
|  1> !LC-BLYP RIJCOSX def2-SVP def2/J TightSCF
|  2> *xyz -1 1
|  3> C          3.76678       -2.26611       -6.51175
|  4> C          2.49670       -1.84416       -5.73570
|  5> H          1.62642       -2.21743       -6.30895
|  6> H          2.48182       -2.45607       -4.79341
|  7> O          2.45973       -0.50920       -5.50576
|  8> H          3.82914       -1.70941       -7.42340
|  9> H          3.71764       -3.31144       -6.73483
| 10> H          4.63199       -2.06931       -5.91377
| 11> *
| 12>
| 13> %MaxCore 64000
| 14>
| 15> %pal nprocs 4
| 16> end
| 17>
| 18> %scf
| 19>   MaxIter 150
| 20> end
| 21>
| 22>
| 23>                          ****END OF INPUT****

CARTESIAN COORDINATES (ANGSTROEM)
---------------------------------
  C      3.766780   -2.266110   -6.511750
  C      2.496700   -1.844160   -5.735700
  H      1.626420   -2.217430   -6.308950
  H      2.481820   -2.456070   -4.793410
  O      2.459730   -0.509200   -5.505760
  H      3.829140   -1.709410   -7.423400
  H      3.717640   -3.311440   -6.734830
  H      4.631990   -2.069310   -5.913770

 Total Charge           Charge          ....   -1
 Multiplicity           Mult            ....    1
 Number of Electrons    NEL             ....   26
 Basis Dimension        Dim             ....   67

ORBITAL ENERGIES
----------------

  NO   OCC          E(Eh)            E(eV)
   0   2.0000     -18.555844      -504.9302
   1   2.0000      -9.872562      -268.6461
   2   2.0000      -9.858786      -268.2712
   3   2.0000      -0.724374       -19.7112
   4   2.0000      -0.601807       -16.3760
   5   2.0000      -0.447818       -12.1857
   6   2.0000      -0.335074        -9.1178
   7   2.0000      -0.309655        -8.4261
   8   2.0000      -0.252158        -6.8616
   9   2.0000      -0.233012        -6.3406
  10   2.0000      -0.165220        -4.4959
  11   2.0000      -0.014170        -0.3856
  12   2.0000      -0.011918        -0.3243
  13   0.0000       0.325936         8.8692
  14   0.0000       0.371487        10.1087
  15   0.0000       0.385270        10.4837
  16   0.0000       0.395276        10.7560
  17   0.0000       0.440119        11.9762

MULLIKEN ATOMIC CHARGES
-----------------------
   0 C :    0.057238
   1 C :    0.229245
   2 H :   -0.186290
   3 H :   -0.192626
   4 O :   -0.647535
   5 H :   -0.070170
   6 H :   -0.121679
   7 H :   -0.068183
Sum of atomic charges:   -1.0000000

LOEWDIN ATOMIC CHARGES
----------------------
   0 C :   -0.124757
   1 C :   -0.012622
   2 H :   -0.084179
   3 H :   -0.086585
   4 O :   -0.638275
   5 H :   -0.011914
   6 H :   -0.030725
   7 H :   -0.010943

  Mayer bond orders larger than 0.100000
B(  0-C ,  1-C ) :   1.0006 B(  0-C ,  5-H ) :   0.9531 B(  0-C ,  6-H ) :   0.9188
B(  0-C ,  7-H ) :   0.9578 B(  1-C ,  2-H ) :   0.8621 B(  1-C ,  3-H ) :   0.8509
B(  1-C ,  4-O ) :   1.5842

FINAL SINGLE POINT ENERGY      -153.887286916838

DIPOLE MOMENT
-------------
                                X             Y             Z
Electronic contribution:     -1.06131       2.86990       1.00887
Nuclear contribution   :      1.63615      -3.79938      -1.48621
                        -----------------------------------------
Total Dipole Moment    :      0.57485      -0.92948      -0.47734
                        -----------------------------------------
Magnitude (a.u.)       :      1.19258
Magnitude (Debye)      :      3.03129

Rotational constants in cm-1:     1.265582     0.329289     0.289024
Rotational constants in MHz : 37941.194363  9871.829581  8664.719106

                             ****ORCA TERMINATED NORMALLY****
TOTAL RUN TIME: 0 days 0 hours 0 minutes 8 seconds 289 msec
