                         Program Version 5.0.0 -  RELEASE  -
|  1> !LC-BLYP RIJCOSX def2-SVP def2/J TightSCF
|  2> *xyz 1 1
|  3> C          4.99986       -1.59613       -5.92488
|  4> N          5.28156       -1.97413       -4.53576
|  5> C          3.76678       -2.26611       -6.51175
|  6> C          4.79250       -1.36132       -3.45730
|  7> N          3.93990       -0.37492       -3.55736
|  8> N          5.25986       -1.75422       -2.23913
|  9> H          5.92282       -2.52145       -2.18672
| 10> H          4.65468       -1.64040       -1.44202
| 11> H          5.70914       -2.87560       -4.38702
| 12> H          3.33010       -0.31764       -4.36125
| 13> H          3.69849        0.11447       -2.70833
| 14> H          4.84333       -0.51793       -5.94302
| 15> H          5.90170       -1.82250       -6.49647
| 16> H          3.63046       -1.94025       -7.52177
| 17> H          2.90710       -2.00116       -5.93240
| 18> H          3.89538       -3.32820       -6.49392
| 19> *
| 20>
| 21> %MaxCore 64000
| 22>
| 23> %pal nprocs 4
| 24> end
| 25>
| 26> %scf
| 27>   MaxIter 150
| 28> end
| 29>
| 30>
| 31>                          ****END OF INPUT****

CARTESIAN COORDINATES (ANGSTROEM)
---------------------------------
  C      4.999860   -1.596130   -5.924880
  N      5.281560   -1.974130   -4.535760
  C      3.766780   -2.266110   -6.511750
  C      4.792500   -1.361320   -3.457300
  N      3.939900   -0.374920   -3.557360
  N      5.259860   -1.754220   -2.239130
  H      5.922820   -2.521450   -2.186720
  H      4.654680   -1.640400   -1.442020
  H      5.709140   -2.875600   -4.387020
  H      3.330100   -0.317640   -4.361250
  H      3.698490    0.114470   -2.708330
  H      4.843330   -0.517930   -5.943020
  H      5.901700   -1.822500   -6.496470
  H      3.630460   -1.940250   -7.521770
  H      2.907100   -2.001160   -5.932400
  H      3.895380   -3.328200   -6.493920

 Total Charge           Charge          ....    1
 Multiplicity           Mult            ....    1
 Number of Electrons    NEL             ....   48
 Basis Dimension        Dim             ....  134

ORBITAL ENERGIES
----------------

  NO   OCC          E(Eh)            E(eV)
   0   2.0000     -14.413583      -392.2135
   1   2.0000     -14.407406      -392.0455
   2   2.0000     -14.403173      -391.9303
   3   2.0000     -10.420707      -283.5618
   4   2.0000     -10.288161      -279.9551
   5   2.0000     -10.223641      -278.1994
   6   2.0000      -1.306387       -35.5486
   7   2.0000      -1.196238       -32.5513
   8   2.0000      -1.180821       -32.1318
   9   2.0000      -1.031666       -28.0731
  10   2.0000      -0.939837       -25.5743
  11   2.0000      -0.904718       -24.6186
  12   2.0000      -0.892025       -24.2732
  13   2.0000      -0.840555       -22.8727
  14   2.0000      -0.795455       -21.6454
  15   2.0000      -0.791581       -21.5400
  16   2.0000      -0.742728       -20.2107
  17   2.0000      -0.736482       -20.0407
  18   2.0000      -0.707324       -19.2473
  19   2.0000      -0.661944       -18.0124
  20   2.0000      -0.630015       -17.1436
  21   2.0000      -0.610046       -16.6002
  22   2.0000      -0.575096       -15.6492
  23   2.0000      -0.544457       -14.8154
  24   0.0000      -0.084553        -2.3008
  25   0.0000      -0.060138        -1.6364
  26   0.0000      -0.031090        -0.8460
  27   0.0000      -0.018881        -0.5138
  28   0.0000       0.000777         0.0211

MULLIKEN ATOMIC CHARGES
-----------------------
   0 C :   -0.016409
   1 N :   -0.057870
   2 C :    0.017997
   3 C :   -0.088960
   4 N :    0.043061
   5 N :   -0.012154
   6 H :    0.167009
   7 H :    0.169747
   8 H :    0.162447
   9 H :    0.175110
  10 H :    0.173229
  11 H :    0.054604
  12 H :    0.078799
  13 H :    0.072570
  14 H :    0.013992
  15 H :    0.046829
Sum of atomic charges:    1.0000000

LOEWDIN ATOMIC CHARGES
----------------------
   0 C :    0.026565
   1 N :    0.037803
   2 C :   -0.062081
   3 C :    0.132589
   4 N :    0.068496
   5 N :    0.027935
   6 H :    0.111736
   7 H :    0.106393
   8 H :    0.105428
   9 H :    0.113724
  10 H :    0.116981
  11 H :    0.039010
  12 H :    0.054483
  13 H :    0.055592
  14 H :    0.024943
  15 H :    0.040404

  Mayer bond orders larger than 0.100000
B(  0-C ,  1-N ) :   0.9487 B(  0-C ,  2-C ) :   1.1057 B(  0-C , 11-H ) :   0.9522
B(  0-C , 12-H ) :   0.9474 B(  1-N ,  3-C ) :   1.3922 B(  1-N ,  8-H ) :   0.9094
B(  2-C , 13-H ) :   0.9599 B(  2-C , 14-H ) :   0.9615 B(  2-C , 15-H ) :   0.9643
B(  3-C ,  4-N ) :   1.4342 B(  3-C ,  5-N ) :   1.3688 B(  4-N ,  9-H ) :   0.9172
B(  4-N , 10-H ) :   0.9201 B(  5-N ,  6-H ) :   0.9250 B(  5-N ,  7-H ) :   0.9300

FINAL SINGLE POINT ENERGY      -283.453373217657

DIPOLE MOMENT
-------------
                                X             Y             Z
Electronic contribution:      1.74087       1.08438       4.84102
Nuclear contribution   :     -1.95709      -1.20097      -3.70214
                        -----------------------------------------
Total Dipole Moment    :     -0.21622      -0.11659       1.13888
                        -----------------------------------------
Magnitude (a.u.)       :      1.16507
Magnitude (Debye)      :      2.96138

Rotational constants in cm-1:     0.241661     0.071598     0.061743
Rotational constants in MHz :  7244.800091  2146.442409  1851.001864

                             ****ORCA TERMINATED NORMALLY****
TOTAL RUN TIME: 0 days 0 hours 0 minutes 19 seconds 409 msec
