                         Program Version 5.0.0 -  RELEASE  -
|  1> !LC-BLYP RIJCOSX def2-TZVP def2/J TightSCF xyzfile
|  2>
|  3> *xyzfile 0 1 B.xyz
|  4>
|  5> %MaxCore 64000
|  6>
|  7> %pal nprocs 18
|  8> end
|  9>
| 10> %scf
| 11>   MaxIter 150
| 12> end
| 13>
| 14>
| 15>                          ****END OF INPUT****

CARTESIAN COORDINATES (ANGSTROEM)
---------------------------------
  C      4.999862   -1.596133   -5.924876
  N      5.281560   -1.974132   -4.535764
  C      3.766779   -2.266110   -6.511752
  C      2.496702   -1.844161   -5.735704
  H      1.626416   -2.217434   -6.308950
  H      2.481824   -2.456069   -4.793414
  O      2.459729   -0.509204   -5.505757
  C      4.792500   -1.361316   -3.457295
  N      3.939898   -0.374925   -3.557359
  N      5.259860   -1.754224   -2.239133
  H      5.922824   -2.521451   -2.186720
  H      4.654678   -1.640404   -1.442016
  H      5.709139   -2.875599   -4.387021
  H      3.330101   -0.317639   -4.361247
  H      3.698494    0.114468   -2.708333
  H      4.843333   -0.517930   -5.943019
  H      5.901695   -1.822503   -6.496467
  H      3.886191   -3.357076   -6.533604
  H      3.685602   -1.922168   -7.547128

 Total Charge           Charge          ....    0
 Multiplicity           Mult            ....    1
 Number of Electrons    NEL             ....   64
 Basis Dimension        Dim             ....  314

ORBITAL ENERGIES
----------------

  NO   OCC          E(Eh)            E(eV)
   0   2.0000     -18.783074      -511.1134
   1   2.0000     -14.233033      -387.3005
   2   2.0000     -14.225221      -387.0879
   3   2.0000     -14.181795      -385.9063
   4   2.0000     -10.229970      -278.3716
   5   2.0000     -10.099988      -274.8347
   6   2.0000     -10.048645      -273.4375
   7   2.0000     -10.035288      -273.0741
   8   2.0000      -1.142904       -31.1000
   9   2.0000      -1.037213       -28.2240
  10   2.0000      -1.018356       -27.7109
  11   2.0000      -0.972332       -26.4585
  12   2.0000      -0.863423       -23.4949
  13   2.0000      -0.782545       -21.2941
  14   2.0000      -0.738691       -20.1008
  15   2.0000      -0.717763       -19.5313
  16   2.0000      -0.690663       -18.7939
  17   2.0000      -0.646424       -17.5901
  18   2.0000      -0.622528       -16.9399
  19   2.0000      -0.608301       -16.5527
  20   2.0000      -0.572493       -15.5783
  21   2.0000      -0.565777       -15.3956
  22   2.0000      -0.539048       -14.6682
  23   2.0000      -0.508217       -13.8293
  24   2.0000      -0.460662       -12.5352
  25   2.0000      -0.440395       -11.9838
  26   2.0000      -0.428910       -11.6712
  27   2.0000      -0.406946       -11.0736
  28   2.0000      -0.392642       -10.6843
  29   2.0000      -0.372920       -10.1477
  30   2.0000      -0.257067        -6.9951
  31   2.0000      -0.253313        -6.8930
  32   0.0000       0.046688         1.2704
  33   0.0000       0.083869         2.2822
  34   0.0000       0.085970         2.3394
  35   0.0000       0.107541         2.9264
  36   0.0000       0.140940         3.8352

MULLIKEN ATOMIC CHARGES
-----------------------
   0 C :   -0.267398
   1 N :   -0.254781
   2 C :   -0.123796
   3 C :   -0.112011
   4 H :    0.070887
   5 H :    0.027069
   6 O :   -0.620365
   7 C :    0.353947
   8 N :   -0.344172
   9 N :   -0.445455
  10 H :    0.241572
  11 H :    0.254608
  12 H :    0.217656
  13 H :    0.281164
  14 H :    0.216578
  15 H :    0.188701
  16 H :    0.136750
  17 H :    0.076927
  18 H :    0.102120
Sum of atomic charges:   -0.0000000

LOEWDIN ATOMIC CHARGES
----------------------
   0 C :   -0.288736
   1 N :    0.153690
   2 C :   -0.301333
   3 C :   -0.516760
   4 H :    0.108267
   5 H :    0.084707
   6 O :   -0.270608
   7 C :   -0.438232
   8 N :    0.095132
   9 N :   -0.009441
  10 H :    0.176987
  11 H :    0.178013
  12 H :    0.189998
  13 H :    0.108056
  14 H :    0.177060
  15 H :    0.153371
  16 H :    0.134102
  17 H :    0.124035
  18 H :    0.141693

  Mayer bond orders larger than 0.100000
B(  0-C ,  1-N ) :   0.8445 B(  0-C ,  2-C ) :   0.9277 B(  0-C , 15-H ) :   0.9608
B(  0-C , 16-H ) :   0.9786 B(  1-N ,  7-C ) :   1.3229 B(  1-N , 12-H ) :   0.9255
B(  2-C ,  3-C ) :   0.8807 B(  2-C ,  6-O ) :  -0.1187 B(  2-C , 17-H ) :   0.9584
B(  2-C , 18-H ) :   0.9612 B(  3-C ,  4-H ) :   0.9732 B(  3-C ,  5-H ) :   0.9677
B(  3-C ,  6-O ) :   1.3282 B(  6-O , 13-H ) :   0.3928 B(  7-C ,  8-N ) :   1.5060
B(  7-C ,  9-N ) :   1.1921 B(  8-N , 13-H ) :   0.6479 B(  8-N , 14-H ) :   0.9252
B(  9-N , 10-H ) :   0.9219 B(  9-N , 11-H ) :   0.9155

FINAL SINGLE POINT ENERGY      -397.696137035250

DIPOLE MOMENT
-------------
                                X             Y             Z
Electronic contribution:      1.90347       1.94176       3.72839
Nuclear contribution   :      0.51577      -3.31768      -1.36804
                        -----------------------------------------
Total Dipole Moment    :      2.41924      -1.37592       2.36035
                        -----------------------------------------
Magnitude (a.u.)       :      3.64926
Magnitude (Debye)      :      9.27569

Rotational constants in cm-1:     0.111492     0.050787     0.040163
Rotational constants in MHz :  3342.457536  1522.560798  1204.057148

                             ****ORCA TERMINATED NORMALLY****
TOTAL RUN TIME: 0 days 0 hours 0 minutes 27 seconds 716 msec
