                         Program Version 5.0.0 -  RELEASE  -
|  1> !LC-BLYP RIJCOSX def2-SVP def2/J TightSCF
|  2> *xyz 0 1
|  3> C          3.76678       -2.26611       -6.51175
|  4> C          2.49670       -1.84416       -5.73570
|  5> H          1.62642       -2.21743       -6.30895
|  6> H          2.48182       -2.45607       -4.79341
|  7> F          2.45973       -0.50920       -5.50576
|  8> H          3.82914       -1.70941       -7.42340
|  9> H          3.71764       -3.31144       -6.73483
| 10> H          4.63199       -2.06931       -5.91377
| 11> *
| 12>
| 13> %MaxCore 64000
| 14>
| 15> %pal nprocs 4
| 16> end
| 17>
| 18> %scf
| 19>   MaxIter 150
| 20> end
| 21>
| 22>
| 23>                          ****END OF INPUT****

CARTESIAN COORDINATES (ANGSTROEM)
---------------------------------
  C      3.766780   -2.266110   -6.511750
  C      2.496700   -1.844160   -5.735700
  H      1.626420   -2.217430   -6.308950
  H      2.481820   -2.456070   -4.793410
  F      2.459730   -0.509200   -5.505760
  H      3.829140   -1.709410   -7.423400
  H      3.717640   -3.311440   -6.734830
  H      4.631990   -2.069310   -5.913770

 Total Charge           Charge          ....    0
 Multiplicity           Mult            ....    1
 Number of Electrons    NEL             ....   26
 Basis Dimension        Dim             ....   67

ORBITAL ENERGIES
----------------

  NO   OCC          E(Eh)            E(eV)
   0   2.0000     -24.438325      -665.0006
   1   2.0000     -10.157774      -276.4071
   2   2.0000     -10.077503      -274.2228
   3   2.0000      -1.251081       -34.0437
   4   2.0000      -0.858798       -23.3691
   5   2.0000      -0.725283       -19.7359
   6   2.0000      -0.603739       -16.4286
   7   2.0000      -0.593962       -16.1625
   8   2.0000      -0.552174       -15.0254
   9   2.0000      -0.497193       -13.5293
  10   2.0000      -0.495755       -13.4902
  11   2.0000      -0.421288       -11.4638
  12   2.0000      -0.416206       -11.3255
  13   0.0000       0.136146         3.7047
  14   0.0000       0.183177         4.9845
  15   0.0000       0.192325         5.2334
  16   0.0000       0.213229         5.8023
  17   0.0000       0.231249         6.2926

MULLIKEN ATOMIC CHARGES
-----------------------
   0 C :   -0.044968
   1 C :    0.178084
   2 H :    0.006708
   3 H :    0.007609
   4 F :   -0.213838
   5 H :    0.026154
   6 H :    0.014333
   7 H :    0.025919
Sum of atomic charges:   -0.0000000

LOEWDIN ATOMIC CHARGES
----------------------
   0 C :   -0.088464
   1 C :    0.078492
   2 H :    0.011419
   3 H :    0.013882
   4 F :   -0.105636
   5 H :    0.029122
   6 H :    0.032720
   7 H :    0.028464

  Mayer bond orders larger than 0.100000
B(  0-C ,  1-C ) :   1.0960 B(  0-C ,  5-H ) :   0.9695 B(  0-C ,  6-H ) :   0.9599
B(  0-C ,  7-H ) :   0.9715 B(  1-C ,  2-H ) :   0.9567 B(  1-C ,  3-H ) :   0.9542
B(  1-C ,  4-F ) :   1.0665

FINAL SINGLE POINT ENERGY      -178.517448104114

DIPOLE MOMENT
-------------
                                X             Y             Z
Electronic contribution:     -2.09271       4.39738       1.83023
Nuclear contribution   :      2.16248      -5.01128      -1.96962
                        -----------------------------------------
Total Dipole Moment    :      0.06976      -0.61390      -0.13939
                        -----------------------------------------
Magnitude (a.u.)       :      0.63338
Magnitude (Debye)      :      1.60992

Rotational constants in cm-1:     1.244010     0.306580     0.270375
Rotational constants in MHz : 37294.476802  9191.037795  8105.639967

                             ****ORCA TERMINATED NORMALLY****
TOTAL RUN TIME: 0 days 0 hours 0 minutes 7 seconds 794 msec
