                         Program Version 5.0.0 -  RELEASE  -
|  1> !LC-BLYP RIJCOSX def2-SVP def2/J TightSCF
|  2> *xyz 0 1
|  3> C          4.99986       -1.59613       -5.92488
|  4> C          5.28156       -1.97413       -4.53576
|  5> C          3.76678       -2.26611       -6.51175
|  6> C          4.79250       -1.36132       -3.45730
|  7> N          3.93990       -0.37492       -3.55736
|  8> N          5.25986       -1.75422       -2.23913
|  9> H          5.92282       -2.52145       -2.18672
| 10> H          4.65468       -1.64040       -1.44202
| 11> H          5.70914       -2.87560       -4.38702
| 12> H          3.33010       -0.31764       -4.36125
| 13> H          3.69849        0.11447       -2.70833
| 14> H          4.84333       -0.51793       -5.94302
| 15> H          5.90170       -1.82250       -6.49647
| 16> H          3.63046       -1.94025       -7.52177
| 17> H          2.90710       -2.00116       -5.93240
| 18> H          3.89538       -3.32820       -6.49392
| 19> *
| 20>
| 21> %MaxCore 64000
| 22>
| 23> %pal nprocs 4
| 24> end
| 25>
| 26> %scf
| 27>   MaxIter 150
| 28> end
| 29>
| 30>
| 31>                          ****END OF INPUT****

CARTESIAN COORDINATES (ANGSTROEM)
---------------------------------
  C      4.999860   -1.596130   -5.924880
  C      5.281560   -1.974130   -4.535760
  C      3.766780   -2.266110   -6.511750
  C      4.792500   -1.361320   -3.457300
  N      3.939900   -0.374920   -3.557360
  N      5.259860   -1.754220   -2.239130
  H      5.922820   -2.521450   -2.186720
  H      4.654680   -1.640400   -1.442020
  H      5.709140   -2.875600   -4.387020
  H      3.330100   -0.317640   -4.361250
  H      3.698490    0.114470   -2.708330
  H      4.843330   -0.517930   -5.943020
  H      5.901700   -1.822500   -6.496470
  H      3.630460   -1.940250   -7.521770
  H      2.907100   -2.001160   -5.932400
  H      3.895380   -3.328200   -6.493920

 Total Charge           Charge          ....    0
 Multiplicity           Mult            ....    1
 Number of Electrons    NEL             ....   48
 Basis Dimension        Dim             ....  134

ORBITAL ENERGIES
----------------

  NO   OCC          E(Eh)            E(eV)
   0   2.0000     -14.182555      -385.9269
   1   2.0000     -14.172543      -385.6545
   2   2.0000     -10.120515      -275.3932
   3   2.0000     -10.050862      -273.4978
   4   2.0000     -10.049690      -273.4660
   5   2.0000      -9.998283      -272.0671
   6   2.0000      -1.045278       -28.4435
   7   2.0000      -0.952580       -25.9210
   8   2.0000      -0.867281       -23.5999
   9   2.0000      -0.786926       -21.4133
  10   2.0000      -0.708619       -19.2825
  11   2.0000      -0.673032       -18.3141
  12   2.0000      -0.641439       -17.4544
  13   2.0000      -0.598046       -16.2736
  14   2.0000      -0.569902       -15.5078
  15   2.0000      -0.539415       -14.6782
  16   2.0000      -0.511709       -13.9243
  17   2.0000      -0.491905       -13.3854
  18   2.0000      -0.476550       -12.9676
  19   2.0000      -0.445814       -12.1312
  20   2.0000      -0.416589       -11.3360
  21   2.0000      -0.408080       -11.1044
  22   2.0000      -0.353766        -9.6265
  23   2.0000      -0.243249        -6.6191
  24   0.0000       0.115015         3.1297
  25   0.0000       0.146931         3.9982
  26   0.0000       0.166366         4.5271
  27   0.0000       0.180498         4.9116
  28   0.0000       0.187226         5.0947

MULLIKEN ATOMIC CHARGES
-----------------------
   0 C :    0.046317
   1 C :   -0.162515
   2 C :    0.058714
   3 C :   -0.137651
   4 N :    0.007817
   5 N :   -0.048592
   6 H :    0.110004
   7 H :    0.088808
   8 H :   -0.108864
   9 H :    0.122082
  10 H :    0.098492
  11 H :   -0.028084
  12 H :   -0.013807
  13 H :   -0.003886
  14 H :   -0.023917
  15 H :   -0.004919
Sum of atomic charges:   -0.0000000

LOEWDIN ATOMIC CHARGES
----------------------
   0 C :   -0.050801
   1 C :   -0.217077
   2 C :   -0.067733
   3 C :    0.012840
   4 N :   -0.002776
   5 N :   -0.040446
   6 H :    0.081962
   7 H :    0.055926
   8 H :   -0.012739
   9 H :    0.082375
  10 H :    0.069247
  11 H :    0.013165
  12 H :    0.025596
  13 H :    0.017519
  14 H :    0.011443
  15 H :    0.021499

  Mayer bond orders larger than 0.100000
B(  0-C ,  1-C ) :   1.0726 B(  0-C ,  2-C ) :   1.1009 B(  0-C , 11-H ) :   0.9340
B(  0-C , 12-H ) :   0.9193 B(  1-C ,  3-C ) :   1.7080 B(  1-C ,  8-H ) :   0.9366
B(  2-C , 13-H ) :   0.9632 B(  2-C , 14-H ) :   0.9654 B(  2-C , 15-H ) :   0.9636
B(  3-C ,  4-N ) :   1.2706 B(  3-C ,  5-N ) :   1.2262 B(  4-N ,  9-H ) :   0.9365
B(  4-N , 10-H ) :   0.9434 B(  5-N ,  6-H ) :   0.9439 B(  5-N ,  7-H ) :   0.9486

FINAL SINGLE POINT ENERGY      -266.984019716503

DIPOLE MOMENT
-------------
                                X             Y             Z
Electronic contribution:      1.16786       1.45005       4.67291
Nuclear contribution   :     -1.82485      -1.28952      -3.74132
                        -----------------------------------------
Total Dipole Moment    :     -0.65699       0.16053       0.93159
                        -----------------------------------------
Magnitude (a.u.)       :      1.15121
Magnitude (Debye)      :      2.92613

Rotational constants in cm-1:     0.245790     0.071632     0.062004
Rotational constants in MHz :  7368.599517  2147.482078  1858.844841

                             ****ORCA TERMINATED NORMALLY****
TOTAL RUN TIME: 0 days 0 hours 0 minutes 19 seconds 113 msec
