                         Program Version 5.0.0 -  RELEASE  -
|  1> !LC-BLYP RIJCOSX def2-SVP def2/J TightSCF
|  2> *xyz 0 1
|  3> C          4.99986       -1.59613       -5.92488
|  4> N          5.28156       -1.97413       -4.53576
|  5> C          3.76678       -2.26611       -6.51175
|  6> C          4.79250       -1.36132       -3.45730
|  7> C          3.93990       -0.37492       -3.55736
|  8> N          5.25986       -1.75422       -2.23913
|  9> H          5.92282       -2.52145       -2.18672
| 10> H          4.65468       -1.64040       -1.44202
| 11> H          5.70914       -2.87560       -4.38702
| 12> H          3.33010       -0.31764       -4.36125
| 13> H          3.69849        0.11447       -2.70833
| 14> H          4.84333       -0.51793       -5.94302
| 15> H          5.90170       -1.82250       -6.49647
| 16> H          3.63046       -1.94025       -7.52177
| 17> H          2.90710       -2.00116       -5.93240
| 18> H          3.89538       -3.32820       -6.49392
| 19> *
| 20>
| 21> %MaxCore 64000
| 22>
| 23> %pal nprocs 4
| 24> end
| 25>
| 26> %scf
| 27>   MaxIter 150
| 28> end
| 29>
| 30>
| 31>                          ****END OF INPUT****

CARTESIAN COORDINATES (ANGSTROEM)
---------------------------------
  C      4.999860   -1.596130   -5.924880
  N      5.281560   -1.974130   -4.535760
  C      3.766780   -2.266110   -6.511750
  C      4.792500   -1.361320   -3.457300
  C      3.939900   -0.374920   -3.557360
  N      5.259860   -1.754220   -2.239130
  H      5.922820   -2.521450   -2.186720
  H      4.654680   -1.640400   -1.442020
  H      5.709140   -2.875600   -4.387020
  H      3.330100   -0.317640   -4.361250
  H      3.698490    0.114470   -2.708330
  H      4.843330   -0.517930   -5.943020
  H      5.901700   -1.822500   -6.496470
  H      3.630460   -1.940250   -7.521770
  H      2.907100   -2.001160   -5.932400
  H      3.895380   -3.328200   -6.493920

 Total Charge           Charge          ....    0
 Multiplicity           Mult            ....    1
 Number of Electrons    NEL             ....   48
 Basis Dimension        Dim             ....  134

ORBITAL ENERGIES
----------------

  NO   OCC          E(Eh)            E(eV)
   0   2.0000     -14.178951      -385.8289
   1   2.0000     -14.174739      -385.7143
   2   2.0000     -10.123168      -275.4654
   3   2.0000     -10.110218      -275.1130
   4   2.0000     -10.067352      -273.9466
   5   2.0000      -9.991622      -271.8859
   6   2.0000      -1.046899       -28.4876
   7   2.0000      -0.963781       -26.2258
   8   2.0000      -0.851646       -23.1745
   9   2.0000      -0.808299       -21.9949
  10   2.0000      -0.734505       -19.9869
  11   2.0000      -0.659048       -17.9336
  12   2.0000      -0.640073       -17.4173
  13   2.0000      -0.606178       -16.4950
  14   2.0000      -0.553492       -15.0613
  15   2.0000      -0.544405       -14.8140
  16   2.0000      -0.524570       -14.2743
  17   2.0000      -0.491686       -13.3795
  18   2.0000      -0.477062       -12.9815
  19   2.0000      -0.464506       -12.6399
  20   2.0000      -0.446955       -12.1623
  21   2.0000      -0.439504       -11.9595
  22   2.0000      -0.338393        -9.2081
  23   2.0000      -0.256735        -6.9861
  24   0.0000       0.118266         3.2182
  25   0.0000       0.148258         4.0343
  26   0.0000       0.161944         4.4067
  27   0.0000       0.182426         4.9641
  28   0.0000       0.190082         5.1724

MULLIKEN ATOMIC CHARGES
-----------------------
   0 C :    0.048877
   1 N :   -0.098078
   2 C :    0.031955
   3 C :   -0.057159
   4 C :   -0.084169
   5 N :   -0.069131
   6 H :    0.090356
   7 H :    0.118690
   8 H :    0.089847
   9 H :   -0.056907
  10 H :   -0.077617
  11 H :    0.028263
  12 H :    0.006085
  13 H :    0.010520
  14 H :    0.020670
  15 H :   -0.002203
Sum of atomic charges:   -0.0000000

LOEWDIN ATOMIC CHARGES
----------------------
   0 C :    0.027357
   1 N :   -0.024647
   2 C :   -0.075516
   3 C :    0.035924
   4 C :   -0.251399
   5 N :   -0.037255
   6 H :    0.063446
   7 H :    0.076782
   8 H :    0.061346
   9 H :   -0.004458
  10 H :   -0.005190
  11 H :    0.033403
  12 H :    0.022290
  13 H :    0.028483
  14 H :    0.029270
  15 H :    0.020165

  Mayer bond orders larger than 0.100000
B(  0-C ,  1-N ) :   1.0171 B(  0-C ,  2-C ) :   1.1106 B(  0-C , 11-H ) :   0.9357
B(  0-C , 12-H ) :   0.9571 B(  1-N ,  3-C ) :   1.1894 B(  1-N ,  8-H ) :   0.9321
B(  2-C , 13-H ) :   0.9610 B(  2-C , 14-H ) :   0.9637 B(  2-C , 15-H ) :   0.9633
B(  3-C ,  4-C ) :   1.7992 B(  3-C ,  5-N ) :   1.2065 B(  4-C ,  9-H ) :   0.9212
B(  4-C , 10-H ) :   0.9242 B(  5-N ,  6-H ) :   0.9536 B(  5-N ,  7-H ) :   0.9519

FINAL SINGLE POINT ENERGY      -266.977977758379

DIPOLE MOMENT
-------------
                                X             Y             Z
Electronic contribution:      2.47793      -0.17637       3.59098
Nuclear contribution   :     -2.10948      -0.95026      -3.53375
                        -----------------------------------------
Total Dipole Moment    :      0.36846      -1.12663       0.05723
                        -----------------------------------------
Magnitude (a.u.)       :      1.18673
Magnitude (Debye)      :      3.01642

Rotational constants in cm-1:     0.255209     0.072067     0.062929
Rotational constants in MHz :  7650.964615  2160.525743  1886.569524

                             ****ORCA TERMINATED NORMALLY****
TOTAL RUN TIME: 0 days 0 hours 0 minutes 19 seconds 18 msec
