                         Program Version 5.0.0 -  RELEASE  -
|  1> !LC-BLYP RIJCOSX def2-SVP def2/J TightSCF
|  2> *xyz 0 1
|  3> C          4.99986       -1.59613       -5.92488
|  4> N          5.28156       -1.97413       -4.53576
|  5> C          3.76678       -2.26611       -6.51175
|  6> C          4.79250       -1.36132       -3.45730
|  7> N          3.93990       -0.37492       -3.55736
|  8> C          5.25986       -1.75422       -2.23913
|  9> H          5.92282       -2.52145       -2.18672
| 10> H          4.65468       -1.64040       -1.44202
| 11> H          5.70914       -2.87560       -4.38702
| 12> H          3.33010       -0.31764       -4.36125
| 13> H          3.69849        0.11447       -2.70833
| 14> H          4.84333       -0.51793       -5.94302
| 15> H          5.90170       -1.82250       -6.49647
| 16> H          3.63046       -1.94025       -7.52177
| 17> H          2.90710       -2.00116       -5.93240
| 18> H          3.89538       -3.32820       -6.49392
| 19> *
| 20>
| 21> %MaxCore 64000
| 22>
| 23> %pal nprocs 4
| 24> end
| 25>
| 26> %scf
| 27>   MaxIter 150
| 28> end
| 29>
| 30>
| 31>                          ****END OF INPUT****

CARTESIAN COORDINATES (ANGSTROEM)
---------------------------------
  C      4.999860   -1.596130   -5.924880
  N      5.281560   -1.974130   -4.535760
  C      3.766780   -2.266110   -6.511750
  C      4.792500   -1.361320   -3.457300
  N      3.939900   -0.374920   -3.557360
  C      5.259860   -1.754220   -2.239130
  H      5.922820   -2.521450   -2.186720
  H      4.654680   -1.640400   -1.442020
  H      5.709140   -2.875600   -4.387020
  H      3.330100   -0.317640   -4.361250
  H      3.698490    0.114470   -2.708330
  H      4.843330   -0.517930   -5.943020
  H      5.901700   -1.822500   -6.496470
  H      3.630460   -1.940250   -7.521770
  H      2.907100   -2.001160   -5.932400
  H      3.895380   -3.328200   -6.493920

 Total Charge           Charge          ....    0
 Multiplicity           Mult            ....    1
 Number of Electrons    NEL             ....   48
 Basis Dimension        Dim             ....  134

ORBITAL ENERGIES
----------------

  NO   OCC          E(Eh)            E(eV)
   0   2.0000     -14.184147      -385.9703
   1   2.0000     -14.179120      -385.8335
   2   2.0000     -10.127158      -275.5740
   3   2.0000     -10.120623      -275.3961
   4   2.0000     -10.079635      -274.2808
   5   2.0000      -9.986812      -271.7550
   6   2.0000      -1.057300       -28.7706
   7   2.0000      -0.974460       -26.5164
   8   2.0000      -0.870816       -23.6961
   9   2.0000      -0.790397       -21.5078
  10   2.0000      -0.725473       -19.7411
  11   2.0000      -0.699952       -19.0467
  12   2.0000      -0.642644       -17.4872
  13   2.0000      -0.597243       -16.2518
  14   2.0000      -0.579800       -15.7772
  15   2.0000      -0.543717       -14.7953
  16   2.0000      -0.530527       -14.4364
  17   2.0000      -0.501164       -13.6374
  18   2.0000      -0.481555       -13.1038
  19   2.0000      -0.461026       -12.5451
  20   2.0000      -0.457769       -12.4565
  21   2.0000      -0.440668       -11.9912
  22   2.0000      -0.345998        -9.4151
  23   2.0000      -0.243056        -6.6139
  24   0.0000       0.111052         3.0219
  25   0.0000       0.147893         4.0244
  26   0.0000       0.158603         4.3158
  27   0.0000       0.174669         4.7530
  28   0.0000       0.183627         4.9967

MULLIKEN ATOMIC CHARGES
-----------------------
   0 C :    0.023183
   1 N :   -0.087370
   2 C :    0.036866
   3 C :   -0.126601
   4 N :   -0.002820
   5 C :   -0.084773
   6 H :   -0.082625
   7 H :   -0.066975
   8 H :    0.117303
   9 H :    0.100245
  10 H :    0.120518
  11 H :    0.011727
  12 H :    0.016539
  13 H :    0.013703
  14 H :   -0.000351
  15 H :    0.011431
Sum of atomic charges:    0.0000000

LOEWDIN ATOMIC CHARGES
----------------------
   0 C :    0.014829
   1 N :   -0.019006
   2 C :   -0.077771
   3 C :    0.029894
   4 N :    0.000143
   5 C :   -0.284147
   6 H :   -0.011981
   7 H :   -0.013653
   8 H :    0.081562
   9 H :    0.066573
  10 H :    0.088507
  11 H :    0.023127
  12 H :    0.027236
  13 H :    0.029065
  14 H :    0.019722
  15 H :    0.025900

  Mayer bond orders larger than 0.100000
B(  0-C ,  1-N ) :   1.0300 B(  0-C ,  2-C ) :   1.0978 B(  0-C , 11-H ) :   0.9493
B(  0-C , 12-H ) :   0.9546 B(  1-N ,  3-C ) :   1.2042 B(  1-N ,  8-H ) :   0.9300
B(  2-C , 13-H ) :   0.9598 B(  2-C , 14-H ) :   0.9618 B(  2-C , 15-H ) :   0.9635
B(  3-C ,  4-N ) :   1.2686 B(  3-C ,  5-C ) :   1.7232 B(  4-N ,  9-H ) :   0.9424
B(  4-N , 10-H ) :   0.9396 B(  5-C ,  6-H ) :   0.9306 B(  5-C ,  7-H ) :   0.9370

FINAL SINGLE POINT ENERGY      -266.973369537451

DIPOLE MOMENT
-------------
                                X             Y             Z
Electronic contribution:      1.11155       1.30064       2.14769
Nuclear contribution   :     -1.82946      -1.24287      -3.25410
                        -----------------------------------------
Total Dipole Moment    :     -0.71790       0.05777      -1.10641
                        -----------------------------------------
Magnitude (a.u.)       :      1.32018
Magnitude (Debye)      :      3.35562

Rotational constants in cm-1:     0.244672     0.074506     0.064043
Rotational constants in MHz :  7335.067153  2233.624025  1919.970379

                             ****ORCA TERMINATED NORMALLY****
TOTAL RUN TIME: 0 days 0 hours 0 minutes 19 seconds 353 msec
