                         Program Version 5.0.0 -  RELEASE  -
|  1> !LC-BLYP RIJCOSX def2-TZVP def2/J TightSCF xyzfile
|  2>
|  3> *xyzfile 0 1 D1.xyz
|  4>
|  5> %MaxCore 64000
|  6>
|  7> %pal nprocs 18
|  8> end
|  9>
| 10> %scf
| 11>   MaxIter 150
| 12> end
| 13>
| 14>
| 15>                          ****END OF INPUT****

CARTESIAN COORDINATES (ANGSTROEM)
---------------------------------
  C      4.999862   -1.596133   -5.924876
  C      5.281560   -1.974132   -4.535764
  C      3.766779   -2.266110   -6.511752
  C      2.496702   -1.844161   -5.735704
  H      1.626416   -2.217434   -6.308950
  H      2.481824   -2.456069   -4.793414
  F      2.459729   -0.509204   -5.505757
  C      4.792500   -1.361316   -3.457295
  N      3.939898   -0.374925   -3.557359
  N      5.259860   -1.754224   -2.239133
  H      5.922824   -2.521451   -2.186720
  H      4.654678   -1.640404   -1.442016
  H      5.709139   -2.875599   -4.387021
  H      3.330101   -0.317639   -4.361247
  H      3.698494    0.114468   -2.708333
  H      4.843333   -0.517930   -5.943019
  H      5.901695   -1.822503   -6.496467
  H      3.886191   -3.357076   -6.533604
  H      3.685602   -1.922168   -7.547128

 Total Charge           Charge          ....    0
 Multiplicity           Mult            ....    1
 Number of Electrons    NEL             ....   64
 Basis Dimension        Dim             ....  314

ORBITAL ENERGIES
----------------

  NO   OCC          E(Eh)            E(eV)
   0   2.0000     -24.474277      -665.9789
   1   2.0000     -14.157524      -385.2458
   2   2.0000     -14.143386      -384.8611
   3   2.0000     -10.150267      -276.2028
   4   2.0000     -10.105787      -274.9924
   5   2.0000     -10.062652      -273.8187
   6   2.0000     -10.041328      -273.2384
   7   2.0000      -9.985709      -271.7250
   8   2.0000      -1.324679       -36.0463
   9   2.0000      -1.051461       -28.6117
  10   2.0000      -0.960571       -26.1385
  11   2.0000      -0.903473       -24.5847
  12   2.0000      -0.830503       -22.5991
  13   2.0000      -0.778346       -21.1799
  14   2.0000      -0.706379       -19.2215
  15   2.0000      -0.694472       -18.8976
  16   2.0000      -0.649343       -17.6695
  17   2.0000      -0.632120       -17.2009
  18   2.0000      -0.618824       -16.8391
  19   2.0000      -0.600447       -16.3390
  20   2.0000      -0.592223       -16.1152
  21   2.0000      -0.555579       -15.1181
  22   2.0000      -0.524605       -14.2752
  23   2.0000      -0.508398       -13.8342
  24   2.0000      -0.496327       -13.5057
  25   2.0000      -0.471312       -12.8250
  26   2.0000      -0.451477       -12.2853
  27   2.0000      -0.433419       -11.7939
  28   2.0000      -0.421029       -11.4568
  29   2.0000      -0.411272       -11.1913
  30   2.0000      -0.352802        -9.6002
  31   2.0000      -0.250157        -6.8071
  32   0.0000       0.093271         2.5380
  33   0.0000       0.114089         3.1045
  34   0.0000       0.133065         3.6209
  35   0.0000       0.137090         3.7304
  36   0.0000       0.147450         4.0123

MULLIKEN ATOMIC CHARGES
-----------------------
   0 C :   -0.391556
   1 C :   -0.350830
   2 C :   -0.156820
   3 C :   -0.121690
   4 H :    0.136155
   5 H :    0.156860
   6 F :   -0.190661
   7 C :    0.305421
   8 N :   -0.438952
   9 N :   -0.468700
  10 H :    0.232044
  11 H :    0.203314
  12 H :    0.098844
  13 H :    0.264684
  14 H :    0.201336
  15 H :    0.159594
  16 H :    0.123082
  17 H :    0.120332
  18 H :    0.117543
Sum of atomic charges:   -0.0000000

LOEWDIN ATOMIC CHARGES
----------------------
   0 C :   -0.298066
   1 C :   -0.292091
   2 C :   -0.282049
   3 C :   -0.377010
   4 H :    0.128779
   5 H :    0.138786
   6 F :    0.174793
   7 C :   -0.469664
   8 N :    0.007714
   9 N :   -0.041321
  10 H :    0.173378
  11 H :    0.152190
  12 H :    0.117515
  13 H :    0.131215
  14 H :    0.163083
  15 H :    0.146878
  16 H :    0.145061
  17 H :    0.144199
  18 H :    0.136611

  Mayer bond orders larger than 0.100000
B(  0-C ,  1-C ) :   0.9734 B(  0-C ,  2-C ) :   0.8922 B(  0-C , 15-H ) :   0.9966
B(  0-C , 16-H ) :   0.9949 B(  1-C ,  7-C ) :   1.5917 B(  1-C , 12-H ) :   0.9865
B(  2-C ,  3-C ) :   0.9380 B(  2-C , 17-H ) :   0.9556 B(  2-C , 18-H ) :   0.9759
B(  3-C ,  4-H ) :   0.9782 B(  3-C ,  5-H ) :   0.9855 B(  3-C ,  6-F ) :   0.9343
B(  6-F , 13-H ) :   0.1258 B(  7-C ,  8-N ) :   1.1753 B(  7-C ,  9-N ) :   1.1240
B(  8-N , 13-H ) :   0.8554 B(  8-N , 14-H ) :   0.9366 B(  9-N , 10-H ) :   0.9306
B(  9-N , 11-H ) :   0.9291

FINAL SINGLE POINT ENERGY      -405.651777489306

DIPOLE MOMENT
-------------
                                X             Y             Z
Electronic contribution:     -3.36705       3.98610       0.83722
Nuclear contribution   :      2.63975      -4.51113      -0.34926
                        -----------------------------------------
Total Dipole Moment    :     -0.72731      -0.52503       0.48796
                        -----------------------------------------
Magnitude (a.u.)       :      1.02115
Magnitude (Debye)      :      2.59555

Rotational constants in cm-1:     0.109429     0.049838     0.039337
Rotational constants in MHz :  3280.611039  1494.113088  1179.280063

                             ****ORCA TERMINATED NORMALLY****
TOTAL RUN TIME: 0 days 0 hours 0 minutes 20 seconds 168 msec
