                         Program Version 5.0.0 -  RELEASE  -
|  1> !PBE0 D3BJ RIJCOSX def2-SVPD def2/J TightSCF
|  2> *xyz -1 1
|  3> C          1.44442        5.26658       -0.97546
|  4> O          1.56525        4.23349       -1.86489
|  5> C         -1.07389        4.84473       -0.97990
|  6> C          0.14812        5.21087       -0.13809
|  7> H          1.47425        6.26464       -1.47692
|  8> H          2.28962        5.30327       -0.26445
|  9> H          0.26183        4.45094        0.64071
| 10> H         -0.00252        6.17103        0.37148
| 11> H         -1.20745        5.57445       -1.75098
| 12> H         -1.94291        4.82190       -0.35605
| 13> H         -0.92683        3.88150       -1.42201
| 14> *
| 15> %MaxCore 64000
| 16>
| 17> %pal nprocs 4
| 18> end
| 19>
| 20> %scf
| 21>   MaxIter 150
| 22> end
| 23>
| 24>
| 25>                          ****END OF INPUT****

CARTESIAN COORDINATES (ANGSTROEM)
---------------------------------
  C      1.444420    5.266580   -0.975460
  O      1.565250    4.233490   -1.864890
  C     -1.073890    4.844730   -0.979900
  C      0.148120    5.210870   -0.138090
  H      1.474250    6.264640   -1.476920
  H      2.289620    5.303270   -0.264450
  H      0.261830    4.450940    0.640710
  H     -0.002520    6.171030    0.371480
  H     -1.207450    5.574450   -1.750980
  H     -1.942910    4.821900   -0.356050
  H     -0.926830    3.881500   -1.422010

 Total Charge           Charge          ....   -1
 Multiplicity           Mult            ....    1
 Number of Electrons    NEL             ....   34
 Basis Dimension        Dim             ....  139

ORBITAL ENERGIES
----------------

  NO   OCC          E(Eh)            E(eV)
   0   2.0000     -18.887596      -513.9576
   1   2.0000     -10.047642      -273.4102
   2   2.0000     -10.045240      -273.3449
   3   2.0000     -10.041549      -273.2444
   4   2.0000      -0.701755       -19.0957
   5   2.0000      -0.596005       -16.2181
   6   2.0000      -0.480500       -13.0751
   7   2.0000      -0.374352       -10.1866
   8   2.0000      -0.288159        -7.8412
   9   2.0000      -0.276703        -7.5295
  10   2.0000      -0.225064        -6.1243
  11   2.0000      -0.200814        -5.4644
  12   2.0000      -0.172926        -4.7055
  13   2.0000      -0.160223        -4.3599
  14   2.0000      -0.126531        -3.4431
  15   2.0000       0.014329         0.3899
  16   2.0000       0.018668         0.5080
  17   0.0000       0.173395         4.7183
  18   0.0000       0.197566         5.3761
  19   0.0000       0.215055         5.8520
  20   0.0000       0.238057         6.4779
  21   0.0000       0.258976         7.0471

MULLIKEN ATOMIC CHARGES
-----------------------
   0 C :    0.411565
   1 O :   -0.933967
   2 C :    0.470786
   3 C :   -0.673428
   4 H :   -0.068069
   5 H :   -0.128053
   6 H :    0.001604
   7 H :   -0.023261
   8 H :   -0.030460
   9 H :   -0.057148
  10 H :    0.030432
Sum of atomic charges:   -1.0000000

LOEWDIN ATOMIC CHARGES
----------------------
   0 C :   -0.213628
   1 O :   -0.557830
   2 C :    0.077454
   3 C :   -0.118110
   4 H :   -0.027822
   5 H :   -0.034817
   6 H :   -0.002214
   7 H :   -0.011040
   8 H :   -0.028874
   9 H :   -0.049404
  10 H :   -0.033715

  Mayer bond orders larger than 0.100000
B(  0-C ,  1-O ) :   1.0896 B(  0-C ,  3-C ) :   1.0618 B(  0-C ,  4-H ) :   0.9568
B(  0-C ,  5-H ) :   0.9729 B(  1-O ,  3-C ) :   0.1124 B(  2-C ,  3-C ) :   1.2766
B(  2-C ,  8-H ) :   0.8555 B(  2-C ,  9-H ) :   0.8329 B(  2-C , 10-H ) :   0.8447
B(  3-C ,  4-H ) :   0.1370 B(  3-C ,  5-H ) :   0.1339 B(  3-C ,  6-H ) :   0.9802
B(  3-C ,  7-H ) :   1.0189 B(  3-C ,  8-H ) :   0.1889 B(  3-C ,  9-H ) :   0.1778
B(  3-C , 10-H ) :   0.1872

Dispersion correction           -0.005485064
FINAL SINGLE POINT ENERGY      -193.383835619888

DIPOLE MOMENT
-------------
                                X             Y             Z
Electronic contribution:      2.06979      -1.35730      -1.47713
Nuclear contribution   :     -3.50495       2.13585       2.58010
                        -----------------------------------------
Total Dipole Moment    :     -1.43516       0.77855       1.10297
                        -----------------------------------------
Magnitude (a.u.)       :      1.97038
Magnitude (Debye)      :      5.00830

Rotational constants in cm-1:     0.478988     0.188199     0.150738
Rotational constants in MHz : 14359.706344  5642.078771  4519.011003

                             ****ORCA TERMINATED NORMALLY****
TOTAL RUN TIME: 0 days 0 hours 0 minutes 10 seconds 121 msec
