                         Program Version 5.0.0 -  RELEASE  -
|  1> !PBE0 D3BJ RIJCOSX def2-SVPD def2/J TightSCF
|  2> *xyz 1 1
|  3> C         -0.70169        4.07250       -4.00392
|  4> N          0.68053        4.61482       -4.04800
|  5> H          0.69993        5.58489       -4.38827
|  6> H          1.27804        4.05598       -4.66824
|  7> H          1.08573        4.53358       -3.10652
|  8> C         -1.70347        5.09320       -3.47740
|  9> H         -0.99590        3.74039       -5.00065
| 10> H         -0.64358        3.20191       -3.35153
| 11> C         -1.31400        5.78600       -2.16927
| 12> H         -1.87706        5.85010       -4.25115
| 13> H         -2.65326        4.56448       -3.35480
| 14> H         -0.38448        6.29945       -2.30062
| 15> H         -1.21111        5.05451       -1.39516
| 16> H         -2.07413        6.48833       -1.89758
| 17> *
| 18> %MaxCore 64000
| 19>
| 20> %pal nprocs 4
| 21> end
| 22>
| 23> %scf
| 24>   MaxIter 150
| 25> end
| 26>
| 27>
| 28>                          ****END OF INPUT****

CARTESIAN COORDINATES (ANGSTROEM)
---------------------------------
  C     -0.701690    4.072500   -4.003920
  N      0.680530    4.614820   -4.048000
  H      0.699930    5.584890   -4.388270
  H      1.278040    4.055980   -4.668240
  H      1.085730    4.533580   -3.106520
  C     -1.703470    5.093200   -3.477400
  H     -0.995900    3.740390   -5.000650
  H     -0.643580    3.201910   -3.351530
  C     -1.314000    5.786000   -2.169270
  H     -1.877060    5.850100   -4.251150
  H     -2.653260    4.564480   -3.354800
  H     -0.384480    6.299450   -2.300620
  H     -1.211110    5.054510   -1.395160
  H     -2.074130    6.488330   -1.897580

 Total Charge           Charge          ....    1
 Multiplicity           Mult            ....    1
 Number of Electrons    NEL             ....   34
 Basis Dimension        Dim             ....  160

ORBITAL ENERGIES
----------------

  NO   OCC          E(Eh)            E(eV)
   0   2.0000     -14.727304      -400.7503
   1   2.0000     -10.480456      -285.1877
   2   2.0000     -10.412475      -283.3378
   3   2.0000     -10.381552      -282.4964
   4   2.0000      -1.230649       -33.4877
   5   2.0000      -0.990406       -26.9503
   6   2.0000      -0.901282       -24.5251
   7   2.0000      -0.823337       -22.4041
   8   2.0000      -0.805581       -21.9210
   9   2.0000      -0.788407       -21.4536
  10   2.0000      -0.701424       -19.0867
  11   2.0000      -0.649834       -17.6829
  12   2.0000      -0.622326       -16.9344
  13   2.0000      -0.599054       -16.3011
  14   2.0000      -0.541945       -14.7471
  15   2.0000      -0.537085       -14.6148
  16   2.0000      -0.522647       -14.2220
  17   0.0000      -0.181436        -4.9371
  18   0.0000      -0.124532        -3.3887
  19   0.0000      -0.122787        -3.3412
  20   0.0000      -0.110377        -3.0035
  21   0.0000      -0.082686        -2.2500

MULLIKEN ATOMIC CHARGES
-----------------------
   0 C :    0.497621
   1 N :   -0.731715
   2 H :    0.395459
   3 H :    0.300797
   4 H :    0.419948
   5 C :   -0.505380
   6 H :   -0.017133
   7 H :    0.009833
   8 C :    0.585929
   9 H :    0.024497
  10 H :    0.031471
  11 H :   -0.027302
  12 H :    0.036316
  13 H :   -0.020342
Sum of atomic charges:    1.0000000

LOEWDIN ATOMIC CHARGES
----------------------
   0 C :    0.083534
   1 N :    0.328752
   2 H :    0.107083
   3 H :    0.106173
   4 H :    0.103025
   5 C :   -0.050641
   6 H :    0.055383
   7 H :    0.055518
   8 C :    0.142446
   9 H :    0.038545
  10 H :    0.048525
  11 H :   -0.025899
  12 H :   -0.000404
  13 H :    0.007961

  Mayer bond orders larger than 0.100000
B(  0-C ,  1-N ) :   0.7810 B(  0-C ,  5-C ) :   1.1960 B(  0-C ,  6-H ) :   0.9370
B(  0-C ,  7-H ) :   0.8651 B(  0-C , 10-H ) :   0.1254 B(  1-N ,  2-H ) :   0.7270
B(  1-N ,  3-H ) :   0.8557 B(  1-N ,  4-H ) :   0.7446 B(  1-N ,  7-H ) :   0.1121
B(  5-C ,  7-H ) :   0.1043 B(  5-C ,  8-C ) :   1.3149 B(  5-C ,  9-H ) :   0.9527
B(  5-C , 10-H ) :   0.9425 B(  5-C , 11-H ) :   0.1586 B(  5-C , 12-H ) :   0.1684
B(  5-C , 13-H ) :   0.1841 B(  8-C , 11-H ) :   0.8574 B(  8-C , 12-H ) :   0.8269
B(  8-C , 13-H ) :   0.8324

Dispersion correction           -0.007825736
FINAL SINGLE POINT ENERGY      -174.526413052217

DIPOLE MOMENT
-------------
                                X             Y             Z
Electronic contribution:      1.53873      -0.90797      -1.45855
Nuclear contribution   :      0.19992       0.44181       0.60618
                        -----------------------------------------
Total Dipole Moment    :      1.73865      -0.46616      -0.85236
                        -----------------------------------------
Magnitude (a.u.)       :      1.99166
Magnitude (Debye)      :      5.06240

Rotational constants in cm-1:     0.427003     0.166237     0.135950
Rotational constants in MHz : 12801.234133  4983.663157  4075.681698

                             ****ORCA TERMINATED NORMALLY****
TOTAL RUN TIME: 0 days 0 hours 0 minutes 11 seconds 207 msec
