                         Program Version 5.0.0 -  RELEASE  -
|  1> !PBE0 D3BJ RIJCOSX def2-SVPD def2/J TightSCF
|  2> *xyz 0 1
|  3> C          1.44442        5.26658       -0.97546
|  4> F          1.56525        4.23349       -1.86489
|  5> C         -1.07389        4.84473       -0.97990
|  6> C          0.14812        5.21087       -0.13809
|  7> H          1.47425        6.26464       -1.47692
|  8> H          2.28962        5.30327       -0.26445
|  9> H          0.26183        4.45094        0.64071
| 10> H         -0.00252        6.17103        0.37148
| 11> H         -1.20745        5.57445       -1.75098
| 12> H         -1.94291        4.82190       -0.35605
| 13> H         -0.92683        3.88150       -1.42201
| 14> *
| 15> %MaxCore 64000
| 16>
| 17> %pal nprocs 4
| 18> end
| 19>
| 20> %scf
| 21>   MaxIter 150
| 22> end
| 23>
| 24>
| 25>                          ****END OF INPUT****

CARTESIAN COORDINATES (ANGSTROEM)
---------------------------------
  C      1.444420    5.266580   -0.975460
  F      1.565250    4.233490   -1.864890
  C     -1.073890    4.844730   -0.979900
  C      0.148120    5.210870   -0.138090
  H      1.474250    6.264640   -1.476920
  H      2.289620    5.303270   -0.264450
  H      0.261830    4.450940    0.640710
  H     -0.002520    6.171030    0.371480
  H     -1.207450    5.574450   -1.750980
  H     -1.942910    4.821900   -0.356050
  H     -0.926830    3.881500   -1.422010

 Total Charge           Charge          ....    0
 Multiplicity           Mult            ....    1
 Number of Electrons    NEL             ....   34
 Basis Dimension        Dim             ....  139

ORBITAL ENERGIES
----------------

  NO   OCC          E(Eh)            E(eV)
   0   2.0000     -24.774244      -674.1415
   1   2.0000     -10.311418      -280.5879
   2   2.0000     -10.240249      -278.6513
   3   2.0000     -10.218437      -278.0578
   4   2.0000      -1.217678       -33.1347
   5   2.0000      -0.805306       -21.9135
   6   2.0000      -0.705881       -19.2080
   7   2.0000      -0.610399       -16.6098
   8   2.0000      -0.526854       -14.3364
   9   2.0000      -0.511303       -13.9133
  10   2.0000      -0.490627       -13.3506
  11   2.0000      -0.451127       -12.2758
  12   2.0000      -0.412784       -11.2324
  13   2.0000      -0.387638       -10.5482
  14   2.0000      -0.369775       -10.0621
  15   2.0000      -0.341122        -9.2824
  16   2.0000      -0.335049        -9.1171
  17   0.0000       0.027752         0.7552
  18   0.0000       0.053677         1.4606
  19   0.0000       0.064761         1.7622
  20   0.0000       0.078122         2.1258
  21   0.0000       0.099216         2.6998

MULLIKEN ATOMIC CHARGES
-----------------------
   0 C :    0.688577
   1 F :   -0.481524
   2 C :    0.477309
   3 C :   -0.644643
   4 H :    0.019143
   5 H :   -0.040028
   6 H :    0.005169
   7 H :   -0.010005
   8 H :   -0.015240
   9 H :   -0.030746
  10 H :    0.031986
Sum of atomic charges:   -0.0000000

LOEWDIN ATOMIC CHARGES
----------------------
   0 C :    0.102394
   1 F :   -0.215589
   2 C :    0.115041
   3 C :   -0.069742
   4 H :    0.037568
   5 H :    0.028426
   6 H :    0.020846
   7 H :    0.027994
   8 H :   -0.013290
   9 H :   -0.017773
  10 H :   -0.015877

  Mayer bond orders larger than 0.100000
B(  0-C ,  1-F ) :   0.6756 B(  0-C ,  3-C ) :   1.1863 B(  0-C ,  4-H ) :   0.9066
B(  0-C ,  5-H ) :   0.9345 B(  2-C ,  3-C ) :   1.3058 B(  2-C ,  8-H ) :   0.8528
B(  2-C ,  9-H ) :   0.8526 B(  2-C , 10-H ) :   0.8477 B(  3-C ,  4-H ) :   0.1073
B(  3-C ,  6-H ) :   0.9651 B(  3-C ,  7-H ) :   0.9839 B(  3-C ,  8-H ) :   0.1666
B(  3-C ,  9-H ) :   0.1648 B(  3-C , 10-H ) :   0.1555

Dispersion correction           -0.005165689
FINAL SINGLE POINT ENERGY      -217.981980202251

DIPOLE MOMENT
-------------
                                X             Y             Z
Electronic contribution:      4.60380      -2.43920      -3.14133
Nuclear contribution   :     -4.76356       2.92420       3.62609
                        -----------------------------------------
Total Dipole Moment    :     -0.15976       0.48500       0.48476
                        -----------------------------------------
Magnitude (a.u.)       :      0.70409
Magnitude (Debye)      :      1.78965

Rotational constants in cm-1:     0.464485     0.177633     0.142630
Rotational constants in MHz : 13924.923489  5325.290206  4275.938589

                             ****ORCA TERMINATED NORMALLY****
TOTAL RUN TIME: 0 days 0 hours 0 minutes 8 seconds 334 msec
