                         Program Version 5.0.0 -  RELEASE  -
|  1> !PBE0 D3BJ RIJCOSX def2-SVPD def2/J TightSCF
|  2> *xyz 0 1
|  3> C         -0.70169        4.07250       -4.00392
|  4> C          0.68053        4.61482       -4.04800
|  5> H          0.69993        5.58489       -4.38827
|  6> H          1.27804        4.05598       -4.66824
|  7> H          1.08573        4.53358       -3.10652
|  8> C         -1.70347        5.09320       -3.47740
|  9> H         -0.99590        3.74039       -5.00065
| 10> H         -0.64358        3.20191       -3.35153
| 11> C         -1.31400        5.78600       -2.16927
| 12> H         -1.87706        5.85010       -4.25115
| 13> H         -2.65326        4.56448       -3.35480
| 14> H         -0.38448        6.29945       -2.30062
| 15> H         -1.21111        5.05451       -1.39516
| 16> H         -2.07413        6.48833       -1.89758
| 17> *
| 18> %MaxCore 64000
| 19>
| 20> %pal nprocs 4
| 21> end
| 22>
| 23> %scf
| 24>   MaxIter 150
| 25> end
| 26>
| 27>
| 28>                          ****END OF INPUT****

CARTESIAN COORDINATES (ANGSTROEM)
---------------------------------
  C     -0.701690    4.072500   -4.003920
  C      0.680530    4.614820   -4.048000
  H      0.699930    5.584890   -4.388270
  H      1.278040    4.055980   -4.668240
  H      1.085730    4.533580   -3.106520
  C     -1.703470    5.093200   -3.477400
  H     -0.995900    3.740390   -5.000650
  H     -0.643580    3.201910   -3.351530
  C     -1.314000    5.786000   -2.169270
  H     -1.877060    5.850100   -4.251150
  H     -2.653260    4.564480   -3.354800
  H     -0.384480    6.299450   -2.300620
  H     -1.211110    5.054510   -1.395160
  H     -2.074130    6.488330   -1.897580

 Total Charge           Charge          ....    0
 Multiplicity           Mult            ....    1
 Number of Electrons    NEL             ....   34
 Basis Dimension        Dim             ....  160

ORBITAL ENERGIES
----------------

  NO   OCC          E(Eh)            E(eV)
   0   2.0000     -10.222671      -278.1730
   1   2.0000     -10.217805      -278.0406
   2   2.0000     -10.211808      -277.8774
   3   2.0000     -10.192514      -277.3524
   4   2.0000      -0.819988       -22.3130
   5   2.0000      -0.743687       -20.2367
   6   2.0000      -0.660473       -17.9724
   7   2.0000      -0.575839       -15.6694
   8   2.0000      -0.482606       -13.1324
   9   2.0000      -0.475389       -12.9360
  10   2.0000      -0.438719       -11.9381
  11   2.0000      -0.400554       -10.8996
  12   2.0000      -0.396948       -10.8015
  13   2.0000      -0.376160       -10.2358
  14   2.0000      -0.335064        -9.1176
  15   2.0000      -0.332297        -9.0422
  16   2.0000      -0.328216        -8.9312
  17   0.0000       0.031817         0.8658
  18   0.0000       0.058482         1.5914
  19   0.0000       0.061017         1.6603
  20   0.0000       0.071955         1.9580
  21   0.0000       0.101263         2.7555

MULLIKEN ATOMIC CHARGES
-----------------------
   0 C :   -0.387550
   1 C :    0.810477
   2 H :   -0.134688
   3 H :   -0.325477
   4 H :    0.022633
   5 C :   -0.458602
   6 H :   -0.043808
   7 H :    0.008459
   8 C :    0.504525
   9 H :    0.059200
  10 H :   -0.046383
  11 H :    0.020313
  12 H :    0.008572
  13 H :   -0.037672
Sum of atomic charges:   -0.0000000

LOEWDIN ATOMIC CHARGES
----------------------
   0 C :   -0.085953
   1 C :    0.108805
   2 H :   -0.025354
   3 H :   -0.033771
   4 H :   -0.027519
   5 C :   -0.087482
   6 H :    0.023552
   7 H :    0.024972
   8 C :    0.119327
   9 H :    0.024044
  10 H :    0.016358
  11 H :   -0.025427
  12 H :   -0.013202
  13 H :   -0.018350

  Mayer bond orders larger than 0.100000
B(  0-C ,  1-C ) :   1.3017 B(  0-C ,  2-H ) :   0.2195 B(  0-C ,  3-H ) :   0.2180
B(  0-C ,  4-H ) :   0.2340 B(  0-C ,  5-C ) :   1.1829 B(  0-C ,  6-H ) :   0.9494
B(  0-C ,  7-H ) :   0.8866 B(  0-C ,  9-H ) :   0.1127 B(  0-C , 10-H ) :   0.1303
B(  1-C ,  2-H ) :   0.7796 B(  1-C ,  3-H ) :   0.7903 B(  1-C ,  4-H ) :   0.7278
B(  1-C ,  7-H ) :   0.1233 B(  5-C ,  7-H ) :   0.1211 B(  5-C ,  8-C ) :   1.3296
B(  5-C ,  9-H ) :   0.9089 B(  5-C , 10-H ) :   0.9629 B(  5-C , 11-H ) :   0.1703
B(  5-C , 12-H ) :   0.1696 B(  5-C , 13-H ) :   0.1939 B(  8-C , 11-H ) :   0.8655
B(  8-C , 12-H ) :   0.8315 B(  8-C , 13-H ) :   0.8026

Dispersion correction           -0.007857661
FINAL SINGLE POINT ENERGY      -158.136029209086

DIPOLE MOMENT
-------------
                                X             Y             Z
Electronic contribution:     -0.62591      -0.37318      -0.42956
Nuclear contribution   :      0.63648       0.35464       0.41252
                        -----------------------------------------
Total Dipole Moment    :      0.01056      -0.01854      -0.01705
                        -----------------------------------------
Magnitude (a.u.)       :      0.02731
Magnitude (Debye)      :      0.06942

Rotational constants in cm-1:     0.435124     0.173315     0.141457
Rotational constants in MHz : 13044.691962  5195.845291  4240.763698

                             ****ORCA TERMINATED NORMALLY****
TOTAL RUN TIME: 0 days 0 hours 0 minutes 11 seconds 463 msec
