                         Program Version 5.0.0 -  RELEASE  -
|  1> !M062X D3Zero RIJCOSX def2-SVP def2/J TightSCF
|  2> *xyz -1 1
|  3> C          3.76678       -2.26611       -6.51175
|  4> C          2.49670       -1.84416       -5.73570
|  5> H          1.62642       -2.21743       -6.30895
|  6> H          2.48182       -2.45607       -4.79341
|  7> O          2.45973       -0.50920       -5.50576
|  8> H          3.82914       -1.70941       -7.42340
|  9> H          3.71764       -3.31144       -6.73483
| 10> H          4.63199       -2.06931       -5.91377
| 11> *
| 12>
| 13> %MaxCore 64000
| 14>
| 15> %pal nprocs 4
| 16> end
| 17>
| 18> %scf
| 19>   MaxIter 150
| 20> end
| 21>
| 22>
| 23>                          ****END OF INPUT****

CARTESIAN COORDINATES (ANGSTROEM)
---------------------------------
  C      3.766780   -2.266110   -6.511750
  C      2.496700   -1.844160   -5.735700
  H      1.626420   -2.217430   -6.308950
  H      2.481820   -2.456070   -4.793410
  O      2.459730   -0.509200   -5.505760
  H      3.829140   -1.709410   -7.423400
  H      3.717640   -3.311440   -6.734830
  H      4.631990   -2.069310   -5.913770

 Total Charge           Charge          ....   -1
 Multiplicity           Mult            ....    1
 Number of Electrons    NEL             ....   26
 Basis Dimension        Dim             ....   67

ORBITAL ENERGIES
----------------

  NO   OCC          E(Eh)            E(eV)
   0   2.0000     -19.241366      -523.5842
   1   2.0000     -10.341465      -281.4056
   2   2.0000     -10.326319      -280.9934
   3   2.0000      -0.743558       -20.2332
   4   2.0000      -0.591108       -16.0849
   5   2.0000      -0.426614       -11.6088
   6   2.0000      -0.300665        -8.1815
   7   2.0000      -0.277065        -7.5393
   8   2.0000      -0.217123        -5.9082
   9   2.0000      -0.201030        -5.4703
  10   2.0000      -0.141497        -3.8503
  11   2.0000       0.008182         0.2226
  12   2.0000       0.009319         0.2536
  13   0.0000       0.292133         7.9493
  14   0.0000       0.336112         9.1461
  15   0.0000       0.349808         9.5188
  16   0.0000       0.359164         9.7733
  17   0.0000       0.400578        10.9003

MULLIKEN ATOMIC CHARGES
-----------------------
   0 C :   -0.027419
   1 C :    0.245987
   2 H :   -0.155911
   3 H :   -0.163015
   4 O :   -0.735375
   5 H :   -0.036972
   6 H :   -0.091133
   7 H :   -0.036162
Sum of atomic charges:   -1.0000000

LOEWDIN ATOMIC CHARGES
----------------------
   0 C :   -0.119350
   1 C :    0.010683
   2 H :   -0.081623
   3 H :   -0.084036
   4 O :   -0.676364
   5 H :   -0.009884
   6 H :   -0.029958
   7 H :   -0.009468

  Mayer bond orders larger than 0.100000
B(  0-C ,  1-C ) :   0.9933 B(  0-C ,  5-H ) :   0.9643 B(  0-C ,  6-H ) :   0.9353
B(  0-C ,  7-H ) :   0.9677 B(  1-C ,  2-H ) :   0.8806 B(  1-C ,  3-H ) :   0.8701
B(  1-C ,  4-O ) :   1.4848

Dispersion correction           -0.000014695
FINAL SINGLE POINT ENERGY      -154.195126287857

DIPOLE MOMENT
-------------
                                X             Y             Z
Electronic contribution:     -1.05011       2.79606       0.98859
Nuclear contribution   :      1.63615      -3.79938      -1.48621
                        -----------------------------------------
Total Dipole Moment    :      0.58604      -1.00332      -0.49762
                        -----------------------------------------
Magnitude (a.u.)       :      1.26401
Magnitude (Debye)      :      3.21286

Rotational constants in cm-1:     1.265582     0.329289     0.289024
Rotational constants in MHz : 37941.194363  9871.829581  8664.719106

                             ****ORCA TERMINATED NORMALLY****
TOTAL RUN TIME: 0 days 0 hours 0 minutes 8 seconds 636 msec
