                         Program Version 5.0.0 -  RELEASE  -
|  1> !M062X D3Zero RIJCOSX def2-SVP def2/J TightSCF
|  2> *xyz 1 1
|  3> C          4.99986       -1.59613       -5.92488
|  4> N          5.28156       -1.97413       -4.53576
|  5> C          3.76678       -2.26611       -6.51175
|  6> C          4.79250       -1.36132       -3.45730
|  7> N          3.93990       -0.37492       -3.55736
|  8> N          5.25986       -1.75422       -2.23913
|  9> H          5.92282       -2.52145       -2.18672
| 10> H          4.65468       -1.64040       -1.44202
| 11> H          5.70914       -2.87560       -4.38702
| 12> H          3.33010       -0.31764       -4.36125
| 13> H          3.69849        0.11447       -2.70833
| 14> H          4.84333       -0.51793       -5.94302
| 15> H          5.90170       -1.82250       -6.49647
| 16> H          3.63046       -1.94025       -7.52177
| 17> H          2.90710       -2.00116       -5.93240
| 18> H          3.89538       -3.32820       -6.49392
| 19> *
| 20>
| 21> %MaxCore 64000
| 22>
| 23> %pal nprocs 4
| 24> end
| 25>
| 26> %scf
| 27>   MaxIter 150
| 28> end
| 29>
| 30>
| 31>                          ****END OF INPUT****

CARTESIAN COORDINATES (ANGSTROEM)
---------------------------------
  C      4.999860   -1.596130   -5.924880
  N      5.281560   -1.974130   -4.535760
  C      3.766780   -2.266110   -6.511750
  C      4.792500   -1.361320   -3.457300
  N      3.939900   -0.374920   -3.557360
  N      5.259860   -1.754220   -2.239130
  H      5.922820   -2.521450   -2.186720
  H      4.654680   -1.640400   -1.442020
  H      5.709140   -2.875600   -4.387020
  H      3.330100   -0.317640   -4.361250
  H      3.698490    0.114470   -2.708330
  H      4.843330   -0.517930   -5.943020
  H      5.901700   -1.822500   -6.496470
  H      3.630460   -1.940250   -7.521770
  H      2.907100   -2.001160   -5.932400
  H      3.895380   -3.328200   -6.493920

 Total Charge           Charge          ....    1
 Multiplicity           Mult            ....    1
 Number of Electrons    NEL             ....   48
 Basis Dimension        Dim             ....  134

ORBITAL ENERGIES
----------------

  NO   OCC          E(Eh)            E(eV)
   0   2.0000     -14.989719      -407.8910
   1   2.0000     -14.983950      -407.7340
   2   2.0000     -14.978715      -407.5915
   3   2.0000     -10.890980      -296.3586
   4   2.0000     -10.756714      -292.7051
   5   2.0000     -10.690381      -290.9001
   6   2.0000      -1.317736       -35.8574
   7   2.0000      -1.199499       -32.6400
   8   2.0000      -1.182751       -32.1843
   9   2.0000      -1.018572       -27.7167
  10   2.0000      -0.921015       -25.0621
  11   2.0000      -0.881759       -23.9939
  12   2.0000      -0.865631       -23.5550
  13   2.0000      -0.813201       -22.1283
  14   2.0000      -0.766691       -20.8627
  15   2.0000      -0.761440       -20.7198
  16   2.0000      -0.709513       -19.3068
  17   2.0000      -0.704888       -19.1810
  18   2.0000      -0.673919       -18.3383
  19   2.0000      -0.626741       -17.0545
  20   2.0000      -0.596347       -16.2274
  21   2.0000      -0.576338       -15.6830
  22   2.0000      -0.542429       -14.7603
  23   2.0000      -0.509951       -13.8765
  24   0.0000      -0.127099        -3.4585
  25   0.0000      -0.097663        -2.6576
  26   0.0000      -0.067423        -1.8347
  27   0.0000      -0.055517        -1.5107
  28   0.0000      -0.037282        -1.0145

MULLIKEN ATOMIC CHARGES
-----------------------
   0 C :   -0.037496
   1 N :   -0.186899
   2 C :   -0.033008
   3 C :    0.108840
   4 N :   -0.055130
   5 N :   -0.111136
   6 H :    0.184188
   7 H :    0.185937
   8 H :    0.181030
   9 H :    0.192726
  10 H :    0.189891
  11 H :    0.079000
  12 H :    0.102383
  13 H :    0.094191
  14 H :    0.036556
  15 H :    0.068929
Sum of atomic charges:    1.0000000

LOEWDIN ATOMIC CHARGES
----------------------
   0 C :    0.039537
   1 N :    0.014658
   2 C :   -0.051861
   3 C :    0.160638
   4 N :    0.056108
   5 N :    0.013790
   6 H :    0.113490
   7 H :    0.107780
   8 H :    0.106589
   9 H :    0.115579
  10 H :    0.118603
  11 H :    0.037179
  12 H :    0.053079
  13 H :    0.053350
  14 H :    0.022935
  15 H :    0.038547

  Mayer bond orders larger than 0.100000
B(  0-C ,  1-N ) :   0.9140 B(  0-C ,  2-C ) :   1.0858 B(  0-C , 11-H ) :   0.9559
B(  0-C , 12-H ) :   0.9482 B(  1-N ,  3-C ) :   1.3733 B(  1-N ,  8-H ) :   0.9050
B(  2-C , 13-H ) :   0.9635 B(  2-C , 14-H ) :   0.9644 B(  2-C , 15-H ) :   0.9674
B(  3-C ,  4-N ) :   1.4247 B(  3-C ,  5-N ) :   1.3560 B(  4-N ,  9-H ) :   0.9103
B(  4-N , 10-H ) :   0.9160 B(  5-N ,  6-H ) :   0.9199 B(  5-N ,  7-H ) :   0.9249

Dispersion correction           -0.000310223
FINAL SINGLE POINT ENERGY      -284.044091700304

DIPOLE MOMENT
-------------
                                X             Y             Z
Electronic contribution:      1.72544       1.07996       4.80299
Nuclear contribution   :     -1.95709      -1.20097      -3.70214
                        -----------------------------------------
Total Dipole Moment    :     -0.23164      -0.12101       1.10086
                        -----------------------------------------
Magnitude (a.u.)       :      1.13145
Magnitude (Debye)      :      2.87593

Rotational constants in cm-1:     0.241661     0.071598     0.061743
Rotational constants in MHz :  7244.800091  2146.442409  1851.001864

                             ****ORCA TERMINATED NORMALLY****
TOTAL RUN TIME: 0 days 0 hours 0 minutes 17 seconds 452 msec
