                         Program Version 5.0.0 -  RELEASE  -
|  1> !M062X D3Zero RIJCOSX def2-TZVP def2/J TightSCF xyzfile
|  2>
|  3> *xyzfile 0 1 B.xyz
|  4>
|  5> %MaxCore 64000
|  6>
|  7> %pal nprocs 18
|  8> end
|  9>
| 10> %scf
| 11>   MaxIter 150
| 12> end
| 13>
| 14>
| 15>                          ****END OF INPUT****

CARTESIAN COORDINATES (ANGSTROEM)
---------------------------------
  C      4.999862   -1.596133   -5.924876
  N      5.281560   -1.974132   -4.535764
  C      3.766779   -2.266110   -6.511752
  C      2.496702   -1.844161   -5.735704
  H      1.626416   -2.217434   -6.308950
  H      2.481824   -2.456069   -4.793414
  O      2.459729   -0.509204   -5.505757
  C      4.792500   -1.361316   -3.457295
  N      3.939898   -0.374925   -3.557359
  N      5.259860   -1.754224   -2.239133
  H      5.922824   -2.521451   -2.186720
  H      4.654678   -1.640404   -1.442016
  H      5.709139   -2.875599   -4.387021
  H      3.330101   -0.317639   -4.361247
  H      3.698494    0.114468   -2.708333
  H      4.843333   -0.517930   -5.943019
  H      5.901695   -1.822503   -6.496467
  H      3.886191   -3.357076   -6.533604
  H      3.685602   -1.922168   -7.547128

 Total Charge           Charge          ....    0
 Multiplicity           Mult            ....    1
 Number of Electrons    NEL             ....   64
 Basis Dimension        Dim             ....  314

ORBITAL ENERGIES
----------------

  NO   OCC          E(Eh)            E(eV)
   0   2.0000     -19.472581      -529.8759
   1   2.0000     -14.811372      -403.0379
   2   2.0000     -14.803995      -402.8372
   3   2.0000     -14.761215      -401.6731
   4   2.0000     -10.700734      -291.1818
   5   2.0000     -10.568793      -287.5915
   6   2.0000     -10.515661      -286.1457
   7   2.0000     -10.501525      -285.7610
   8   2.0000      -1.155102       -31.4319
   9   2.0000      -1.041255       -28.3340
  10   2.0000      -1.025344       -27.9010
  11   2.0000      -0.992893       -27.0180
  12   2.0000      -0.851863       -23.1804
  13   2.0000      -0.764778       -20.8107
  14   2.0000      -0.716692       -19.5022
  15   2.0000      -0.688944       -18.7471
  16   2.0000      -0.662714       -18.0334
  17   2.0000      -0.621185       -16.9033
  18   2.0000      -0.589968       -16.0538
  19   2.0000      -0.577758       -15.7216
  20   2.0000      -0.538784       -14.6611
  21   2.0000      -0.533074       -14.5057
  22   2.0000      -0.502981       -13.6868
  23   2.0000      -0.471767       -12.8374
  24   2.0000      -0.426694       -11.6109
  25   2.0000      -0.406865       -11.0714
  26   2.0000      -0.394343       -10.7306
  27   2.0000      -0.373245       -10.1565
  28   2.0000      -0.361541        -9.8380
  29   2.0000      -0.336660        -9.1610
  30   2.0000      -0.230868        -6.2822
  31   2.0000      -0.226915        -6.1747
  32   0.0000       0.012319         0.3352
  33   0.0000       0.043614         1.1868
  34   0.0000       0.051285         1.3955
  35   0.0000       0.072319         1.9679
  36   0.0000       0.105952         2.8831

MULLIKEN ATOMIC CHARGES
-----------------------
   0 C :   -0.220489
   1 N :   -0.358780
   2 C :   -0.196243
   3 C :   -0.098858
   4 H :    0.086147
   5 H :    0.053588
   6 O :   -0.697315
   7 C :    0.569902
   8 N :   -0.478024
   9 N :   -0.551929
  10 H :    0.257525
  11 H :    0.269362
  12 H :    0.238463
  13 H :    0.343113
  14 H :    0.233899
  15 H :    0.189115
  16 H :    0.141643
  17 H :    0.097928
  18 H :    0.120954
Sum of atomic charges:   -0.0000000

LOEWDIN ATOMIC CHARGES
----------------------
   0 C :   -0.275500
   1 N :    0.145127
   2 C :   -0.295269
   3 C :   -0.503688
   4 H :    0.106283
   5 H :    0.084650
   6 O :   -0.290322
   7 C :   -0.428406
   8 N :    0.089147
   9 N :   -0.015111
  10 H :    0.177370
  11 H :    0.178507
  12 H :    0.190608
  13 H :    0.115560
  14 H :    0.177789
  15 H :    0.150789
  16 H :    0.130854
  17 H :    0.122247
  18 H :    0.139364

  Mayer bond orders larger than 0.100000
B(  0-C ,  1-N ) :   0.8397 B(  0-C ,  2-C ) :   0.9290 B(  0-C , 15-H ) :   0.9655
B(  0-C , 16-H ) :   0.9772 B(  1-N ,  7-C ) :   1.3049 B(  1-N , 12-H ) :   0.9200
B(  2-C ,  3-C ) :   0.8829 B(  2-C , 17-H ) :   0.9665 B(  2-C , 18-H ) :   0.9647
B(  3-C ,  4-H ) :   0.9768 B(  3-C ,  5-H ) :   0.9728 B(  3-C ,  6-O ) :   1.2287
B(  6-O , 13-H ) :   0.3456 B(  7-C ,  8-N ) :   1.4544 B(  7-C ,  9-N ) :   1.1338
B(  8-N , 13-H ) :   0.6251 B(  8-N , 14-H ) :   0.9245 B(  9-N , 10-H ) :   0.9188
B(  9-N , 11-H ) :   0.9115

Dispersion correction           -0.000509596
FINAL SINGLE POINT ENERGY      -398.471540444060

DIPOLE MOMENT
-------------
                                X             Y             Z
Electronic contribution:      1.89251       1.94643       3.70490
Nuclear contribution   :      0.51577      -3.31768      -1.36804
                        -----------------------------------------
Total Dipole Moment    :      2.40828      -1.37125       2.33687
                        -----------------------------------------
Magnitude (a.u.)       :      3.62506
Magnitude (Debye)      :      9.21418

Rotational constants in cm-1:     0.111492     0.050787     0.040163
Rotational constants in MHz :  3342.457536  1522.560798  1204.057148

                             ****ORCA TERMINATED NORMALLY****
TOTAL RUN TIME: 0 days 0 hours 0 minutes 28 seconds 516 msec
