                         Program Version 5.0.0 -  RELEASE  -
|  1> !M062X D3Zero RIJCOSX def2-SVP def2/J TightSCF
|  2> *xyz 0 1
|  3> C          3.76678       -2.26611       -6.51175
|  4> C          2.49670       -1.84416       -5.73570
|  5> H          1.62642       -2.21743       -6.30895
|  6> H          2.48182       -2.45607       -4.79341
|  7> F          2.45973       -0.50920       -5.50576
|  8> H          3.82914       -1.70941       -7.42340
|  9> H          3.71764       -3.31144       -6.73483
| 10> H          4.63199       -2.06931       -5.91377
| 11> *
| 12>
| 13> %MaxCore 64000
| 14>
| 15> %pal nprocs 4
| 16> end
| 17>
| 18> %scf
| 19>   MaxIter 150
| 20> end
| 21>
| 22>
| 23>                          ****END OF INPUT****

CARTESIAN COORDINATES (ANGSTROEM)
---------------------------------
  C      3.766780   -2.266110   -6.511750
  C      2.496700   -1.844160   -5.735700
  H      1.626420   -2.217430   -6.308950
  H      2.481820   -2.456070   -4.793410
  F      2.459730   -0.509200   -5.505760
  H      3.829140   -1.709410   -7.423400
  H      3.717640   -3.311440   -6.734830
  H      4.631990   -2.069310   -5.913770

 Total Charge           Charge          ....    0
 Multiplicity           Mult            ....    1
 Number of Electrons    NEL             ....   26
 Basis Dimension        Dim             ....   67

ORBITAL ENERGIES
----------------

  NO   OCC          E(Eh)            E(eV)
   0   2.0000     -25.226980      -686.4610
   1   2.0000     -10.626328      -289.1571
   2   2.0000     -10.543659      -286.9075
   3   2.0000      -1.313975       -35.7551
   4   2.0000      -0.847962       -23.0742
   5   2.0000      -0.710473       -19.3329
   6   2.0000      -0.585679       -15.9371
   7   2.0000      -0.575309       -15.6549
   8   2.0000      -0.539062       -14.6686
   9   2.0000      -0.475628       -12.9425
  10   2.0000      -0.464422       -12.6376
  11   2.0000      -0.397276       -10.8104
  12   2.0000      -0.392724       -10.6866
  13   0.0000       0.103955         2.8288
  14   0.0000       0.150542         4.0964
  15   0.0000       0.158011         4.2997
  16   0.0000       0.178203         4.8492
  17   0.0000       0.195493         5.3196

MULLIKEN ATOMIC CHARGES
-----------------------
   0 C :   -0.116940
   1 C :    0.194875
   2 H :    0.028618
   3 H :    0.029907
   4 F :   -0.275071
   5 H :    0.050574
   6 H :    0.038119
   7 H :    0.049919
Sum of atomic charges:    0.0000000

LOEWDIN ATOMIC CHARGES
----------------------
   0 C :   -0.080429
   1 C :    0.104387
   2 H :    0.010600
   3 H :    0.013214
   4 F :   -0.133642
   5 H :    0.027854
   6 H :    0.030899
   7 H :    0.027117

  Mayer bond orders larger than 0.100000
B(  0-C ,  1-C ) :   1.0864 B(  0-C ,  5-H ) :   0.9721 B(  0-C ,  6-H ) :   0.9652
B(  0-C ,  7-H ) :   0.9739 B(  1-C ,  2-H ) :   0.9622 B(  1-C ,  3-H ) :   0.9600
B(  1-C ,  4-F ) :   0.9771

Dispersion correction           -0.000018643
FINAL SINGLE POINT ENERGY      -178.833019123646

DIPOLE MOMENT
-------------
                                X             Y             Z
Electronic contribution:     -2.09049       4.35011       1.82142
Nuclear contribution   :      2.16248      -5.01128      -1.96962
                        -----------------------------------------
Total Dipole Moment    :      0.07198      -0.66117      -0.14820
                        -----------------------------------------
Magnitude (a.u.)       :      0.68139
Magnitude (Debye)      :      1.73195

Rotational constants in cm-1:     1.244010     0.306580     0.270375
Rotational constants in MHz : 37294.476802  9191.037795  8105.639967

                             ****ORCA TERMINATED NORMALLY****
TOTAL RUN TIME: 0 days 0 hours 0 minutes 8 seconds 18 msec
