                         Program Version 5.0.0 -  RELEASE  -
|  1> !M062X D3Zero RIJCOSX def2-SVP def2/J TightSCF
|  2> *xyz 0 1
|  3> C          4.99986       -1.59613       -5.92488
|  4> C          5.28156       -1.97413       -4.53576
|  5> C          3.76678       -2.26611       -6.51175
|  6> C          4.79250       -1.36132       -3.45730
|  7> N          3.93990       -0.37492       -3.55736
|  8> N          5.25986       -1.75422       -2.23913
|  9> H          5.92282       -2.52145       -2.18672
| 10> H          4.65468       -1.64040       -1.44202
| 11> H          5.70914       -2.87560       -4.38702
| 12> H          3.33010       -0.31764       -4.36125
| 13> H          3.69849        0.11447       -2.70833
| 14> H          4.84333       -0.51793       -5.94302
| 15> H          5.90170       -1.82250       -6.49647
| 16> H          3.63046       -1.94025       -7.52177
| 17> H          2.90710       -2.00116       -5.93240
| 18> H          3.89538       -3.32820       -6.49392
| 19> *
| 20>
| 21> %MaxCore 64000
| 22>
| 23> %pal nprocs 4
| 24> end
| 25>
| 26> %scf
| 27>   MaxIter 150
| 28> end
| 29>
| 30>
| 31>                          ****END OF INPUT****

CARTESIAN COORDINATES (ANGSTROEM)
---------------------------------
  C      4.999860   -1.596130   -5.924880
  C      5.281560   -1.974130   -4.535760
  C      3.766780   -2.266110   -6.511750
  C      4.792500   -1.361320   -3.457300
  N      3.939900   -0.374920   -3.557360
  N      5.259860   -1.754220   -2.239130
  H      5.922820   -2.521450   -2.186720
  H      4.654680   -1.640400   -1.442020
  H      5.709140   -2.875600   -4.387020
  H      3.330100   -0.317640   -4.361250
  H      3.698490    0.114470   -2.708330
  H      4.843330   -0.517930   -5.943020
  H      5.901700   -1.822500   -6.496470
  H      3.630460   -1.940250   -7.521770
  H      2.907100   -2.001160   -5.932400
  H      3.895380   -3.328200   -6.493920

 Total Charge           Charge          ....    0
 Multiplicity           Mult            ....    1
 Number of Electrons    NEL             ....   48
 Basis Dimension        Dim             ....  134

ORBITAL ENERGIES
----------------

  NO   OCC          E(Eh)            E(eV)
   0   2.0000     -14.757872      -401.5821
   1   2.0000     -14.747985      -401.3131
   2   2.0000     -10.588078      -288.1162
   3   2.0000     -10.517924      -286.2073
   4   2.0000     -10.516460      -286.1674
   5   2.0000     -10.466453      -284.8067
   6   2.0000      -1.054248       -28.6876
   7   2.0000      -0.954705       -25.9788
   8   2.0000      -0.856871       -23.3167
   9   2.0000      -0.772389       -21.0178
  10   2.0000      -0.687519       -18.7083
  11   2.0000      -0.647107       -17.6087
  12   2.0000      -0.613440       -16.6926
  13   2.0000      -0.569125       -15.4867
  14   2.0000      -0.539411       -14.6781
  15   2.0000      -0.506570       -13.7845
  16   2.0000      -0.477218       -12.9857
  17   2.0000      -0.458671       -12.4811
  18   2.0000      -0.443327       -12.0635
  19   2.0000      -0.410166       -11.1612
  20   2.0000      -0.382074       -10.3968
  21   2.0000      -0.374422       -10.1885
  22   2.0000      -0.322417        -8.7734
  23   2.0000      -0.204346        -5.5605
  24   0.0000       0.079345         2.1591
  25   0.0000       0.111809         3.0425
  26   0.0000       0.130369         3.5475
  27   0.0000       0.140686         3.8282
  28   0.0000       0.151877         4.1328

MULLIKEN ATOMIC CHARGES
-----------------------
   0 C :   -0.039670
   1 C :   -0.187175
   2 C :    0.000272
   3 C :   -0.019513
   4 N :   -0.106112
   5 N :   -0.152851
   6 H :    0.132074
   7 H :    0.110490
   8 H :   -0.072457
   9 H :    0.143881
  10 H :    0.120903
  11 H :    0.004726
  12 H :    0.020397
  13 H :    0.022777
  14 H :    0.001364
  15 H :    0.020892
Sum of atomic charges:   -0.0000000

LOEWDIN ATOMIC CHARGES
----------------------
   0 C :   -0.050275
   1 C :   -0.215801
   2 C :   -0.060263
   3 C :    0.025086
   4 N :   -0.016447
   5 N :   -0.055225
   6 H :    0.084674
   7 H :    0.058172
   8 H :   -0.011141
   9 H :    0.084880
  10 H :    0.071868
  11 H :    0.012895
  12 H :    0.025606
  13 H :    0.016016
  14 H :    0.009807
  15 H :    0.020147

  Mayer bond orders larger than 0.100000
B(  0-C ,  1-C ) :   1.0762 B(  0-C ,  2-C ) :   1.0811 B(  0-C , 11-H ) :   0.9453
B(  0-C , 12-H ) :   0.9288 B(  1-C ,  3-C ) :   1.6946 B(  1-C ,  8-H ) :   0.9477
B(  2-C , 13-H ) :   0.9677 B(  2-C , 14-H ) :   0.9703 B(  2-C , 15-H ) :   0.9698
B(  3-C ,  4-N ) :   1.2550 B(  3-C ,  5-N ) :   1.2052 B(  4-N ,  9-H ) :   0.9295
B(  4-N , 10-H ) :   0.9410 B(  5-N ,  6-H ) :   0.9394 B(  5-N ,  7-H ) :   0.9442

Dispersion correction           -0.000308397
FINAL SINGLE POINT ENERGY      -267.576115082111

DIPOLE MOMENT
-------------
                                X             Y             Z
Electronic contribution:      1.16868       1.42994       4.64291
Nuclear contribution   :     -1.82485      -1.28952      -3.74132
                        -----------------------------------------
Total Dipole Moment    :     -0.65617       0.14042       0.90160
                        -----------------------------------------
Magnitude (a.u.)       :      1.12390
Magnitude (Debye)      :      2.85673

Rotational constants in cm-1:     0.245790     0.071632     0.062004
Rotational constants in MHz :  7368.599517  2147.482078  1858.844841

                             ****ORCA TERMINATED NORMALLY****
TOTAL RUN TIME: 0 days 0 hours 0 minutes 17 seconds 781 msec
