                         Program Version 5.0.0 -  RELEASE  -
|  1> !M062X D3Zero RIJCOSX def2-SVP def2/J TightSCF
|  2> *xyz 0 1
|  3> C          4.99986       -1.59613       -5.92488
|  4> N          5.28156       -1.97413       -4.53576
|  5> C          3.76678       -2.26611       -6.51175
|  6> C          4.79250       -1.36132       -3.45730
|  7> C          3.93990       -0.37492       -3.55736
|  8> N          5.25986       -1.75422       -2.23913
|  9> H          5.92282       -2.52145       -2.18672
| 10> H          4.65468       -1.64040       -1.44202
| 11> H          5.70914       -2.87560       -4.38702
| 12> H          3.33010       -0.31764       -4.36125
| 13> H          3.69849        0.11447       -2.70833
| 14> H          4.84333       -0.51793       -5.94302
| 15> H          5.90170       -1.82250       -6.49647
| 16> H          3.63046       -1.94025       -7.52177
| 17> H          2.90710       -2.00116       -5.93240
| 18> H          3.89538       -3.32820       -6.49392
| 19> *
| 20>
| 21> %MaxCore 64000
| 22>
| 23> %pal nprocs 4
| 24> end
| 25>
| 26> %scf
| 27>   MaxIter 150
| 28> end
| 29>
| 30>
| 31>                          ****END OF INPUT****

CARTESIAN COORDINATES (ANGSTROEM)
---------------------------------
  C      4.999860   -1.596130   -5.924880
  N      5.281560   -1.974130   -4.535760
  C      3.766780   -2.266110   -6.511750
  C      4.792500   -1.361320   -3.457300
  C      3.939900   -0.374920   -3.557360
  N      5.259860   -1.754220   -2.239130
  H      5.922820   -2.521450   -2.186720
  H      4.654680   -1.640400   -1.442020
  H      5.709140   -2.875600   -4.387020
  H      3.330100   -0.317640   -4.361250
  H      3.698490    0.114470   -2.708330
  H      4.843330   -0.517930   -5.943020
  H      5.901700   -1.822500   -6.496470
  H      3.630460   -1.940250   -7.521770
  H      2.907100   -2.001160   -5.932400
  H      3.895380   -3.328200   -6.493920

 Total Charge           Charge          ....    0
 Multiplicity           Mult            ....    1
 Number of Electrons    NEL             ....   48
 Basis Dimension        Dim             ....  134

ORBITAL ENERGIES
----------------

  NO   OCC          E(Eh)            E(eV)
   0   2.0000     -14.754202      -401.4823
   1   2.0000     -14.749397      -401.3515
   2   2.0000     -10.590063      -288.1703
   3   2.0000     -10.578480      -287.8551
   4   2.0000     -10.533735      -286.6375
   5   2.0000     -10.459151      -284.6080
   6   2.0000      -1.054799       -28.7025
   7   2.0000      -0.964774       -26.2528
   8   2.0000      -0.839217       -22.8363
   9   2.0000      -0.795543       -21.6478
  10   2.0000      -0.712542       -19.3893
  11   2.0000      -0.633391       -17.2354
  12   2.0000      -0.610295       -16.6070
  13   2.0000      -0.577356       -15.7107
  14   2.0000      -0.520045       -14.1511
  15   2.0000      -0.510126       -13.8812
  16   2.0000      -0.490984       -13.3603
  17   2.0000      -0.458544       -12.4776
  18   2.0000      -0.443640       -12.0721
  19   2.0000      -0.430396       -11.7117
  20   2.0000      -0.413370       -11.2484
  21   2.0000      -0.405637       -11.0379
  22   2.0000      -0.305860        -8.3229
  23   2.0000      -0.216781        -5.8989
  24   0.0000       0.083835         2.2813
  25   0.0000       0.114497         3.1156
  26   0.0000       0.124963         3.4004
  27   0.0000       0.142655         3.8819
  28   0.0000       0.154966         4.2168

MULLIKEN ATOMIC CHARGES
-----------------------
   0 C :    0.021248
   1 N :   -0.233462
   2 C :   -0.025749
   3 C :    0.038584
   4 C :   -0.113012
   5 N :   -0.173267
   6 H :    0.112989
   7 H :    0.139170
   8 H :    0.113282
   9 H :   -0.029160
  10 H :   -0.043272
  11 H :    0.054568
  12 H :    0.035332
  13 H :    0.035907
  14 H :    0.043788
  15 H :    0.023055
Sum of atomic charges:    0.0000000

LOEWDIN ATOMIC CHARGES
----------------------
   0 C :    0.039279
   1 N :   -0.048504
   2 C :   -0.067121
   3 C :    0.046514
   4 C :   -0.244830
   5 N :   -0.052407
   6 H :    0.066112
   7 H :    0.079018
   8 H :    0.063092
   9 H :   -0.004045
  10 H :   -0.003491
  11 H :    0.031635
  12 H :    0.021688
  13 H :    0.026808
  14 H :    0.027296
  15 H :    0.018958

  Mayer bond orders larger than 0.100000
B(  0-C ,  1-N ) :   0.9869 B(  0-C ,  2-C ) :   1.0926 B(  0-C , 11-H ) :   0.9420
B(  0-C , 12-H ) :   0.9614 B(  1-N ,  3-C ) :   1.1562 B(  1-N ,  8-H ) :   0.9292
B(  2-C , 13-H ) :   0.9666 B(  2-C , 14-H ) :   0.9666 B(  2-C , 15-H ) :   0.9685
B(  3-C ,  4-C ) :   1.7907 B(  3-C ,  5-N ) :   1.1830 B(  4-C ,  9-H ) :   0.9271
B(  4-C , 10-H ) :   0.9351 B(  5-N ,  6-H ) :   0.9498 B(  5-N ,  7-H ) :   0.9467

Dispersion correction           -0.000305731
FINAL SINGLE POINT ENERGY      -267.570069154656

DIPOLE MOMENT
-------------
                                X             Y             Z
Electronic contribution:      2.44768      -0.15706       3.56184
Nuclear contribution   :     -2.10948      -0.95026      -3.53375
                        -----------------------------------------
Total Dipole Moment    :      0.33821      -1.10732       0.02809
                        -----------------------------------------
Magnitude (a.u.)       :      1.15816
Magnitude (Debye)      :      2.94381

Rotational constants in cm-1:     0.255209     0.072067     0.062929
Rotational constants in MHz :  7650.964615  2160.525743  1886.569524

                             ****ORCA TERMINATED NORMALLY****
TOTAL RUN TIME: 0 days 0 hours 0 minutes 18 seconds 322 msec
