                         Program Version 5.0.0 -  RELEASE  -
|  1> !M062X D3Zero RIJCOSX def2-SVP def2/J TightSCF
|  2> *xyz 0 1
|  3> C          4.99986       -1.59613       -5.92488
|  4> N          5.28156       -1.97413       -4.53576
|  5> C          3.76678       -2.26611       -6.51175
|  6> C          4.79250       -1.36132       -3.45730
|  7> N          3.93990       -0.37492       -3.55736
|  8> C          5.25986       -1.75422       -2.23913
|  9> H          5.92282       -2.52145       -2.18672
| 10> H          4.65468       -1.64040       -1.44202
| 11> H          5.70914       -2.87560       -4.38702
| 12> H          3.33010       -0.31764       -4.36125
| 13> H          3.69849        0.11447       -2.70833
| 14> H          4.84333       -0.51793       -5.94302
| 15> H          5.90170       -1.82250       -6.49647
| 16> H          3.63046       -1.94025       -7.52177
| 17> H          2.90710       -2.00116       -5.93240
| 18> H          3.89538       -3.32820       -6.49392
| 19> *
| 20>
| 21> %MaxCore 64000
| 22>
| 23> %pal nprocs 4
| 24> end
| 25>
| 26> %scf
| 27>   MaxIter 150
| 28> end
| 29>
| 30>
| 31>                          ****END OF INPUT****

CARTESIAN COORDINATES (ANGSTROEM)
---------------------------------
  C      4.999860   -1.596130   -5.924880
  N      5.281560   -1.974130   -4.535760
  C      3.766780   -2.266110   -6.511750
  C      4.792500   -1.361320   -3.457300
  N      3.939900   -0.374920   -3.557360
  C      5.259860   -1.754220   -2.239130
  H      5.922820   -2.521450   -2.186720
  H      4.654680   -1.640400   -1.442020
  H      5.709140   -2.875600   -4.387020
  H      3.330100   -0.317640   -4.361250
  H      3.698490    0.114470   -2.708330
  H      4.843330   -0.517930   -5.943020
  H      5.901700   -1.822500   -6.496470
  H      3.630460   -1.940250   -7.521770
  H      2.907100   -2.001160   -5.932400
  H      3.895380   -3.328200   -6.493920

 Total Charge           Charge          ....    0
 Multiplicity           Mult            ....    1
 Number of Electrons    NEL             ....   48
 Basis Dimension        Dim             ....  134

ORBITAL ENERGIES
----------------

  NO   OCC          E(Eh)            E(eV)
   0   2.0000     -14.759016      -401.6132
   1   2.0000     -14.754527      -401.4911
   2   2.0000     -10.594140      -288.2812
   3   2.0000     -10.588255      -288.1211
   4   2.0000     -10.545476      -286.9570
   5   2.0000     -10.454817      -284.4900
   6   2.0000      -1.065954       -29.0061
   7   2.0000      -0.976594       -26.5745
   8   2.0000      -0.857923       -23.3453
   9   2.0000      -0.775328       -21.0977
  10   2.0000      -0.703623       -19.1466
  11   2.0000      -0.675135       -18.3713
  12   2.0000      -0.614150       -16.7119
  13   2.0000      -0.566259       -15.4087
  14   2.0000      -0.547825       -14.9071
  15   2.0000      -0.510235       -13.8842
  16   2.0000      -0.496159       -13.5012
  17   2.0000      -0.467393       -12.7184
  18   2.0000      -0.447921       -12.1885
  19   2.0000      -0.425462       -11.5774
  20   2.0000      -0.423892       -11.5347
  21   2.0000      -0.407983       -11.1018
  22   2.0000      -0.312789        -8.5114
  23   2.0000      -0.202386        -5.5072
  24   0.0000       0.076303         2.0763
  25   0.0000       0.112906         3.0723
  26   0.0000       0.122946         3.3455
  27   0.0000       0.134885         3.6704
  28   0.0000       0.148216         4.0332

MULLIKEN ATOMIC CHARGES
-----------------------
   0 C :   -0.005205
   1 N :   -0.218640
   2 C :   -0.020393
   3 C :   -0.026815
   4 N :   -0.108690
   5 C :   -0.122051
   6 H :   -0.047560
   7 H :   -0.034476
   8 H :    0.139565
   9 H :    0.121866
  10 H :    0.141470
  11 H :    0.039586
  12 H :    0.044446
  13 H :    0.038330
  14 H :    0.023122
  15 H :    0.035446
Sum of atomic charges:    0.0000000

LOEWDIN ATOMIC CHARGES
----------------------
   0 C :    0.026211
   1 N :   -0.042247
   2 C :   -0.069608
   3 C :    0.039657
   4 N :   -0.013814
   5 C :   -0.278259
   6 H :   -0.010108
   7 H :   -0.011895
   8 H :    0.083331
   9 H :    0.068447
  10 H :    0.090756
  11 H :    0.022011
  12 H :    0.026205
  13 H :    0.027175
  14 H :    0.017810
  15 H :    0.024329

  Mayer bond orders larger than 0.100000
B(  0-C ,  1-N ) :   0.9998 B(  0-C ,  2-C ) :   1.0788 B(  0-C , 11-H ) :   0.9557
B(  0-C , 12-H ) :   0.9583 B(  1-N ,  3-C ) :   1.1761 B(  1-N ,  8-H ) :   0.9267
B(  2-C , 13-H ) :   0.9651 B(  2-C , 14-H ) :   0.9653 B(  2-C , 15-H ) :   0.9683
B(  3-C ,  4-N ) :   1.2518 B(  3-C ,  5-C ) :   1.7187 B(  4-N ,  9-H ) :   0.9363
B(  4-N , 10-H ) :   0.9357 B(  5-C ,  6-H ) :   0.9427 B(  5-C ,  7-H ) :   0.9467

Dispersion correction           -0.000305321
FINAL SINGLE POINT ENERGY      -267.565033343035

DIPOLE MOMENT
-------------
                                X             Y             Z
Electronic contribution:      1.11560       1.28369       2.16164
Nuclear contribution   :     -1.82946      -1.24287      -3.25410
                        -----------------------------------------
Total Dipole Moment    :     -0.71385       0.04082      -1.09246
                        -----------------------------------------
Magnitude (a.u.)       :      1.30564
Magnitude (Debye)      :      3.31868

Rotational constants in cm-1:     0.244672     0.074506     0.064043
Rotational constants in MHz :  7335.067153  2233.624025  1919.970379

                             ****ORCA TERMINATED NORMALLY****
TOTAL RUN TIME: 0 days 0 hours 0 minutes 18 seconds 740 msec
