                         Program Version 5.0.0 -  RELEASE  -
|  1> !M062X D3Zero RIJCOSX def2-TZVP def2/J TightSCF xyzfile
|  2>
|  3> *xyzfile 0 1 D1.xyz
|  4>
|  5> %MaxCore 64000
|  6>
|  7> %pal nprocs 18
|  8> end
|  9>
| 10> %scf
| 11>   MaxIter 150
| 12> end
| 13>
| 14>
| 15>                          ****END OF INPUT****

CARTESIAN COORDINATES (ANGSTROEM)
---------------------------------
  C      4.999862   -1.596133   -5.924876
  C      5.281560   -1.974132   -4.535764
  C      3.766779   -2.266110   -6.511752
  C      2.496702   -1.844161   -5.735704
  H      1.626416   -2.217434   -6.308950
  H      2.481824   -2.456069   -4.793414
  F      2.459729   -0.509204   -5.505757
  C      4.792500   -1.361316   -3.457295
  N      3.939898   -0.374925   -3.557359
  N      5.259860   -1.754224   -2.239133
  H      5.922824   -2.521451   -2.186720
  H      4.654678   -1.640404   -1.442016
  H      5.709139   -2.875599   -4.387021
  H      3.330101   -0.317639   -4.361247
  H      3.698494    0.114468   -2.708333
  H      4.843333   -0.517930   -5.943019
  H      5.901695   -1.822503   -6.496467
  H      3.886191   -3.357076   -6.533604
  H      3.685602   -1.922168   -7.547128

 Total Charge           Charge          ....    0
 Multiplicity           Mult            ....    1
 Number of Electrons    NEL             ....   64
 Basis Dimension        Dim             ....  314

ORBITAL ENERGIES
----------------

  NO   OCC          E(Eh)            E(eV)
   0   2.0000     -25.267213      -687.5558
   1   2.0000     -14.736246      -400.9937
   2   2.0000     -14.722641      -400.6234
   3   2.0000     -10.618273      -288.9379
   4   2.0000     -10.574490      -287.7465
   5   2.0000     -10.529109      -286.5116
   6   2.0000     -10.508766      -285.9581
   7   2.0000     -10.454464      -284.4804
   8   2.0000      -1.390801       -37.8456
   9   2.0000      -1.062046       -28.8997
  10   2.0000      -0.964834       -26.2545
  11   2.0000      -0.894702       -24.3461
  12   2.0000      -0.820144       -22.3173
  13   2.0000      -0.763890       -20.7865
  14   2.0000      -0.687203       -18.6997
  15   2.0000      -0.672455       -18.2984
  16   2.0000      -0.626713       -17.0537
  17   2.0000      -0.610316       -16.6075
  18   2.0000      -0.595462       -16.2033
  19   2.0000      -0.573863       -15.6156
  20   2.0000      -0.570400       -15.5214
  21   2.0000      -0.523224       -14.2377
  22   2.0000      -0.495324       -13.4784
  23   2.0000      -0.481202       -13.0942
  24   2.0000      -0.462057       -12.5732
  25   2.0000      -0.439243       -11.9524
  26   2.0000      -0.419336       -11.4107
  27   2.0000      -0.399333       -10.8664
  28   2.0000      -0.385412       -10.4876
  29   2.0000      -0.375815       -10.2264
  30   2.0000      -0.319619        -8.6973
  31   2.0000      -0.210043        -5.7156
  32   0.0000       0.059725         1.6252
  33   0.0000       0.081797         2.2258
  34   0.0000       0.098961         2.6929
  35   0.0000       0.103654         2.8206
  36   0.0000       0.111753         3.0410

MULLIKEN ATOMIC CHARGES
-----------------------
   0 C :   -0.407938
   1 C :   -0.337342
   2 C :   -0.203002
   3 C :   -0.116983
   4 H :    0.138884
   5 H :    0.165379
   6 F :   -0.217980
   7 C :    0.461890
   8 N :   -0.596516
   9 N :   -0.584195
  10 H :    0.250425
  11 H :    0.221141
  12 H :    0.114355
  13 H :    0.310880
  14 H :    0.222052
  15 H :    0.175811
  16 H :    0.135923
  17 H :    0.136592
  18 H :    0.130627
Sum of atomic charges:   -0.0000000

LOEWDIN ATOMIC CHARGES
----------------------
   0 C :   -0.291454
   1 C :   -0.285960
   2 C :   -0.275563
   3 C :   -0.357426
   4 H :    0.124848
   5 H :    0.135670
   6 F :    0.154049
   7 C :   -0.465973
   8 N :    0.001724
   9 N :   -0.047492
  10 H :    0.174170
  11 H :    0.152579
  12 H :    0.116014
  13 H :    0.138461
  14 H :    0.164174
  15 H :    0.144709
  16 H :    0.142486
  17 H :    0.141411
  18 H :    0.133572

  Mayer bond orders larger than 0.100000
B(  0-C ,  1-C ) :   0.9851 B(  0-C ,  2-C ) :   0.8847 B(  0-C , 15-H ) :   1.0015
B(  0-C , 16-H ) :   0.9912 B(  1-C ,  7-C ) :   1.6207 B(  1-C , 12-H ) :   0.9813
B(  2-C ,  3-C ) :   0.9447 B(  2-C , 17-H ) :   0.9618 B(  2-C , 18-H ) :   0.9754
B(  3-C ,  4-H ) :   0.9816 B(  3-C ,  5-H ) :   0.9881 B(  3-C ,  6-F ) :   0.8892
B(  7-C ,  8-N ) :   1.0856 B(  7-C ,  9-N ) :   1.0476 B(  8-N , 13-H ) :   0.8466
B(  8-N , 14-H ) :   0.9383 B(  9-N , 10-H ) :   0.9274 B(  9-N , 11-H ) :   0.9248

Dispersion correction           -0.000506597
FINAL SINGLE POINT ENERGY      -406.434532621858

DIPOLE MOMENT
-------------
                                X             Y             Z
Electronic contribution:     -3.35083       3.98588       0.81632
Nuclear contribution   :      2.63975      -4.51113      -0.34926
                        -----------------------------------------
Total Dipole Moment    :     -0.71108      -0.52525       0.46706
                        -----------------------------------------
Magnitude (a.u.)       :      0.99983
Magnitude (Debye)      :      2.54137

Rotational constants in cm-1:     0.109429     0.049838     0.039337
Rotational constants in MHz :  3280.611039  1494.113088  1179.280063

                             ****ORCA TERMINATED NORMALLY****
TOTAL RUN TIME: 0 days 0 hours 0 minutes 25 seconds 133 msec
