                         Program Version 5.0.0 -  RELEASE  -
|  1> !M062X D3Zero RIJCOSX def2-TZVP def2/J TightSCF xyzfile
|  2>
|  3> *xyzfile 0 1 D2.xyz
|  4>
|  5> %MaxCore 64000
|  6>
|  7> %pal nprocs 18
|  8> end
|  9>
| 10> %scf
| 11>   MaxIter 150
| 12> end
| 13>
| 14>
| 15>                          ****END OF INPUT****

CARTESIAN COORDINATES (ANGSTROEM)
---------------------------------
  C      4.999862   -1.596133   -5.924876
  N      5.281560   -1.974132   -4.535764
  C      3.766779   -2.266110   -6.511752
  C      2.496702   -1.844161   -5.735704
  H      1.626416   -2.217434   -6.308950
  H      2.481824   -2.456069   -4.793414
  F      2.459729   -0.509204   -5.505757
  C      4.792500   -1.361316   -3.457295
  C      3.939898   -0.374925   -3.557359
  N      5.259860   -1.754224   -2.239133
  H      5.922824   -2.521451   -2.186720
  H      4.654678   -1.640404   -1.442016
  H      5.709139   -2.875599   -4.387021
  H      3.330101   -0.317639   -4.361247
  H      3.698494    0.114468   -2.708333
  H      4.843333   -0.517930   -5.943019
  H      5.901695   -1.822503   -6.496467
  H      3.886191   -3.357076   -6.533604
  H      3.685602   -1.922168   -7.547128

 Total Charge           Charge          ....    0
 Multiplicity           Mult            ....    1
 Number of Electrons    NEL             ....   64
 Basis Dimension        Dim             ....  314

ORBITAL ENERGIES
----------------

  NO   OCC          E(Eh)            E(eV)
   0   2.0000     -25.244129      -686.9277
   1   2.0000     -14.744680      -401.2231
   2   2.0000     -14.734450      -400.9448
   3   2.0000     -10.617559      -288.9185
   4   2.0000     -10.570192      -287.6295
   5   2.0000     -10.569107      -287.6000
   6   2.0000     -10.544587      -286.9328
   7   2.0000     -10.422015      -283.5974
   8   2.0000      -1.370255       -37.2865
   9   2.0000      -1.067797       -29.0562
  10   2.0000      -0.979312       -26.6484
  11   2.0000      -0.883112       -24.0307
  12   2.0000      -0.805938       -21.9307
  13   2.0000      -0.786055       -21.3897
  14   2.0000      -0.699623       -19.0377
  15   2.0000      -0.651229       -17.7208
  16   2.0000      -0.628198       -17.0941
  17   2.0000      -0.600034       -16.3278
  18   2.0000      -0.595022       -16.1914
  19   2.0000      -0.571717       -15.5572
  20   2.0000      -0.565204       -15.3800
  21   2.0000      -0.526465       -14.3258
  22   2.0000      -0.499783       -13.5998
  23   2.0000      -0.481372       -13.0988
  24   2.0000      -0.453742       -12.3469
  25   2.0000      -0.444220       -12.0878
  26   2.0000      -0.422563       -11.4985
  27   2.0000      -0.408161       -11.1066
  28   2.0000      -0.399311       -10.8658
  29   2.0000      -0.376410       -10.2426
  30   2.0000      -0.310198        -8.4409
  31   2.0000      -0.214923        -5.8483
  32   0.0000       0.050817         1.3828
  33   0.0000       0.077667         2.1134
  34   0.0000       0.093451         2.5429
  35   0.0000       0.103212         2.8085
  36   0.0000       0.114364         3.1120

MULLIKEN ATOMIC CHARGES
-----------------------
   0 C :   -0.259367
   1 N :   -0.410247
   2 C :   -0.225489
   3 C :   -0.099649
   4 H :    0.134278
   5 H :    0.162847
   6 F :   -0.185225
   7 C :    0.519547
   8 C :   -0.598814
   9 N :   -0.595122
  10 H :    0.221629
  11 H :    0.252754
  12 H :    0.208532
  13 H :    0.161818
  14 H :    0.086611
  15 H :    0.208869
  16 H :    0.146634
  17 H :    0.134397
  18 H :    0.135997
Sum of atomic charges:   -0.0000000

LOEWDIN ATOMIC CHARGES
----------------------
   0 C :   -0.277626
   1 N :    0.101451
   2 C :   -0.282332
   3 C :   -0.356640
   4 H :    0.123940
   5 H :    0.135953
   6 F :    0.158855
   7 C :   -0.473621
   8 C :   -0.320728
   9 N :   -0.048258
  10 H :    0.156744
  11 H :    0.170153
  12 H :    0.172313
  13 H :    0.079838
  14 H :    0.098405
  15 H :    0.149789
  16 H :    0.132930
  17 H :    0.138921
  18 H :    0.139911

  Mayer bond orders larger than 0.100000
B(  0-C ,  1-N ) :   0.8882 B(  0-C ,  2-C ) :   0.9058 B(  0-C , 15-H ) :   0.9808
B(  0-C , 16-H ) :   0.9835 B(  1-N ,  7-C ) :   1.0838 B(  1-N , 12-H ) :   0.9277
B(  2-C ,  3-C ) :   0.9497 B(  2-C , 17-H ) :   0.9604 B(  2-C , 18-H ) :   0.9755
B(  3-C ,  4-H ) :   0.9756 B(  3-C ,  5-H ) :   0.9864 B(  3-C ,  6-F ) :   0.9341
B(  7-C ,  8-C ) :   1.6257 B(  7-C ,  9-N ) :   0.9818 B(  8-C , 13-H ) :   1.0033
B(  8-C , 14-H ) :   1.0204 B(  9-N , 10-H ) :   0.9386 B(  9-N , 11-H ) :   0.9243

Dispersion correction           -0.000505021
FINAL SINGLE POINT ENERGY      -406.404320902149

DIPOLE MOMENT
-------------
                                X             Y             Z
Electronic contribution:     -2.26275       2.65755      -0.14159
Nuclear contribution   :      2.43398      -4.26587      -0.19921
                        -----------------------------------------
Total Dipole Moment    :      0.17123      -1.60833      -0.34080
                        -----------------------------------------
Magnitude (a.u.)       :      1.65293
Magnitude (Debye)      :      4.20141

Rotational constants in cm-1:     0.110089     0.049944     0.039407
Rotational constants in MHz :  3300.378855  1497.273856  1181.385913

                             ****ORCA TERMINATED NORMALLY****
TOTAL RUN TIME: 0 days 0 hours 0 minutes 22 seconds 455 msec
