                         Program Version 5.0.0 -  RELEASE  -
|  1> !M062X D3Zero RIJCOSX def2-TZVP def2/J TightSCF xyzfile
|  2>
|  3> *xyzfile 0 1 D3.xyz
|  4>
|  5> %MaxCore 64000
|  6>
|  7> %pal nprocs 18
|  8> end
|  9>
| 10> %scf
| 11>   MaxIter 150
| 12> end
| 13>
| 14>
| 15>                          ****END OF INPUT****

CARTESIAN COORDINATES (ANGSTROEM)
---------------------------------
  C      4.999862   -1.596133   -5.924876
  N      5.281560   -1.974132   -4.535764
  C      3.766779   -2.266110   -6.511752
  C      2.496702   -1.844161   -5.735704
  H      1.626416   -2.217434   -6.308950
  H      2.481824   -2.456069   -4.793414
  F      2.459729   -0.509204   -5.505757
  C      4.792500   -1.361316   -3.457295
  N      3.939898   -0.374925   -3.557359
  C      5.259860   -1.754224   -2.239133
  H      5.922824   -2.521451   -2.186720
  H      4.654678   -1.640404   -1.442016
  H      5.709139   -2.875599   -4.387021
  H      3.330101   -0.317639   -4.361247
  H      3.698494    0.114468   -2.708333
  H      4.843333   -0.517930   -5.943019
  H      5.901695   -1.822503   -6.496467
  H      3.886191   -3.357076   -6.533604
  H      3.685602   -1.922168   -7.547128

 Total Charge           Charge          ....    0
 Multiplicity           Mult            ....    1
 Number of Electrons    NEL             ....   64
 Basis Dimension        Dim             ....  314

ORBITAL ENERGIES
----------------

  NO   OCC          E(Eh)            E(eV)
   0   2.0000     -25.281882      -687.9550
   1   2.0000     -14.746462      -401.2716
   2   2.0000     -14.721689      -400.5975
   3   2.0000     -10.637949      -289.4733
   4   2.0000     -10.578128      -287.8455
   5   2.0000     -10.577539      -287.8295
   6   2.0000     -10.556789      -287.2648
   7   2.0000     -10.435199      -283.9562
   8   2.0000      -1.405776       -38.2531
   9   2.0000      -1.075623       -29.2692
  10   2.0000      -0.986646       -26.8480
  11   2.0000      -0.899484       -24.4762
  12   2.0000      -0.824941       -22.4478
  13   2.0000      -0.764353       -20.7991
  14   2.0000      -0.707511       -19.2523
  15   2.0000      -0.677916       -18.4470
  16   2.0000      -0.665309       -18.1040
  17   2.0000      -0.629619       -17.1328
  18   2.0000      -0.600931       -16.3522
  19   2.0000      -0.579749       -15.7758
  20   2.0000      -0.548763       -14.9326
  21   2.0000      -0.541176       -14.7261
  22   2.0000      -0.510789       -13.8993
  23   2.0000      -0.498886       -13.5754
  24   2.0000      -0.457736       -12.4556
  25   2.0000      -0.444539       -12.0965
  26   2.0000      -0.436000       -11.8642
  27   2.0000      -0.421359       -11.4658
  28   2.0000      -0.408572       -11.1178
  29   2.0000      -0.407367       -11.0850
  30   2.0000      -0.311354        -8.4724
  31   2.0000      -0.203372        -5.5340
  32   0.0000       0.052981         1.4417
  33   0.0000       0.082692         2.2502
  34   0.0000       0.088253         2.4015
  35   0.0000       0.092177         2.5083
  36   0.0000       0.111040         3.0216

MULLIKEN ATOMIC CHARGES
-----------------------
   0 C :   -0.313310
   1 N :   -0.378936
   2 C :   -0.212809
   3 C :   -0.113246
   4 H :    0.145484
   5 H :    0.174368
   6 F :   -0.208283
   7 C :    0.454269
   8 N :   -0.577284
   9 C :   -0.572032
  10 H :    0.073664
  11 H :    0.096370
  12 H :    0.239951
  13 H :    0.296630
  14 H :    0.246999
  15 H :    0.208379
  16 H :    0.155010
  17 H :    0.145267
  18 H :    0.139509
Sum of atomic charges:   -0.0000000

LOEWDIN ATOMIC CHARGES
----------------------
   0 C :   -0.292222
   1 N :    0.111687
   2 C :   -0.281912
   3 C :   -0.356098
   4 H :    0.128744
   5 H :    0.139778
   6 F :    0.156899
   7 C :   -0.478582
   8 N :    0.003362
   9 C :   -0.375768
  10 H :    0.090194
  11 H :    0.090532
  12 H :    0.190939
  13 H :    0.129681
  14 H :    0.180028
  15 H :    0.143300
  16 H :    0.135673
  17 H :    0.143078
  18 H :    0.140688

  Mayer bond orders larger than 0.100000
B(  0-C ,  1-N ) :   0.9032 B(  0-C ,  2-C ) :   0.8846 B(  0-C , 15-H ) :   0.9887
B(  0-C , 16-H ) :   0.9835 B(  1-N ,  7-C ) :   1.1042 B(  1-N , 12-H ) :   0.9278
B(  2-C ,  3-C ) :   0.9461 B(  2-C , 17-H ) :   0.9572 B(  2-C , 18-H ) :   0.9747
B(  3-C ,  4-H ) :   0.9786 B(  3-C ,  5-H ) :   0.9835 B(  3-C ,  6-F ) :   0.8981
B(  7-C ,  8-N ) :   1.1173 B(  7-C ,  9-C ) :   1.5946 B(  8-N , 13-H ) :   0.8576
B(  8-N , 14-H ) :   0.9316 B(  9-C , 10-H ) :   1.0274 B(  9-C , 11-H ) :   0.9885

Dispersion correction           -0.000501375
FINAL SINGLE POINT ENERGY      -406.418299535302

DIPOLE MOMENT
-------------
                                X             Y             Z
Electronic contribution:     -3.49006       3.85540      -1.51320
Nuclear contribution   :      2.63642      -4.47741       0.00296
                        -----------------------------------------
Total Dipole Moment    :     -0.85365      -0.62200      -1.51025
                        -----------------------------------------
Magnitude (a.u.)       :      1.84294
Magnitude (Debye)      :      4.68439

Rotational constants in cm-1:     0.108041     0.051979     0.040387
Rotational constants in MHz :  3238.993235  1558.297571  1210.782552

                             ****ORCA TERMINATED NORMALLY****
TOTAL RUN TIME: 0 days 0 hours 0 minutes 17 seconds 515 msec
