                         Program Version 5.0.0 -  RELEASE  -
|  1> !wB97X-D3 RIJCOSX def2-SVPD def2/J TightSCF CPCM(Water)
|  2> * xyz -1 1
|  3> C         -0.03600        4.62200        4.85200
|  4> C         -1.11600        3.62600        5.13500
|  5> O         -2.06600        3.92400        5.89200
|  6> N         -1.10700        2.39300        4.56500
|  7> C         -2.21900        1.44900        4.59700
|  8> C         -1.88400        0.00100        4.44000
|  9> O         -2.28500       -0.84500        5.27400
| 10> C         -3.26900        1.89400        3.53500
| 11> C         -2.71500        1.94900        2.08000
| 12> O         -1.29800       -0.44500        3.42400
| 13> H         -0.30400        2.18200        4.06000
| 14> H         -2.70900        1.50900        5.57900
| 15> H         -4.13300        1.22100        3.55400
| 16> H         -3.64800        2.87600        3.83500
| 17> H         -3.49215        2.26110        1.41401
| 18> H         -2.36825        0.97815        1.79344
| 19> H         -1.90410        2.64552        2.03320
| 20> H          0.68360        4.18908        4.18893
| 21> H          0.44357        4.89798        5.76783
| 22> H         -0.46279        5.49124        4.39684
| 23> *
| 24> %MaxCore 64000
| 25> %scf
| 26>   Convergence VeryTight
| 27>   MaxIter 300
| 28> end
| 29> %pal nprocs 8
| 30> end
| 31>
| 32>                          ****END OF INPUT****

CARTESIAN COORDINATES (ANGSTROEM)
---------------------------------
  C     -0.036000    4.622000    4.852000
  C     -1.116000    3.626000    5.135000
  O     -2.066000    3.924000    5.892000
  N     -1.107000    2.393000    4.565000
  C     -2.219000    1.449000    4.597000
  C     -1.884000    0.001000    4.440000
  O     -2.285000   -0.845000    5.274000
  C     -3.269000    1.894000    3.535000
  C     -2.715000    1.949000    2.080000
  O     -1.298000   -0.445000    3.424000
  H     -0.304000    2.182000    4.060000
  H     -2.709000    1.509000    5.579000
  H     -4.133000    1.221000    3.554000
  H     -3.648000    2.876000    3.835000
  H     -3.492150    2.261100    1.414010
  H     -2.368250    0.978150    1.793440
  H     -1.904100    2.645520    2.033200
  H      0.683600    4.189080    4.188930
  H      0.443570    4.897980    5.767830
  H     -0.462790    5.491240    4.396840

 Total Charge           Charge          ....   -1
 Multiplicity           Mult            ....    1
 Number of Electrons    NEL             ....   78
 Basis Dimension        Dim             ....  289

ORBITAL ENERGIES
----------------

  NO   OCC          E(Eh)            E(eV)
   0   2.0000     -19.210272      -522.7381
   1   2.0000     -19.178071      -521.8618
   2   2.0000     -19.175902      -521.8028
   3   2.0000     -14.460255      -393.4835
   4   2.0000     -10.400817      -283.0206
   5   2.0000     -10.371025      -282.2099
   6   2.0000     -10.326063      -280.9865
   7   2.0000     -10.286659      -279.9142
   8   2.0000     -10.286276      -279.9038
   9   2.0000     -10.262909      -279.2680
  10   2.0000      -1.140838       -31.0438
  11   2.0000      -1.133863       -30.8540
  12   2.0000      -1.030470       -28.0405
  13   2.0000      -1.020575       -27.7713
  14   2.0000      -0.893431       -24.3115
  15   2.0000      -0.850924       -23.1548
  16   2.0000      -0.802815       -21.8457
  17   2.0000      -0.716303       -19.4916
  18   2.0000      -0.676408       -18.4060
  19   2.0000      -0.652881       -17.7658
  20   2.0000      -0.584730       -15.9113
  21   2.0000      -0.566477       -15.4146
  22   2.0000      -0.561824       -15.2880
  23   2.0000      -0.547673       -14.9029
  24   2.0000      -0.535562       -14.5734
  25   2.0000      -0.518039       -14.0966
  26   2.0000      -0.508783       -13.8447
  27   2.0000      -0.495258       -13.4766
  28   2.0000      -0.490757       -13.3542
  29   2.0000      -0.478870       -13.0307
  30   2.0000      -0.466594       -12.6967
  31   2.0000      -0.441693       -12.0191
  32   2.0000      -0.434106       -11.8126
  33   2.0000      -0.426396       -11.6028
  34   2.0000      -0.364047        -9.9062
  35   2.0000      -0.358112        -9.7447
  36   2.0000      -0.340697        -9.2708
  37   2.0000      -0.336614        -9.1597
  38   2.0000      -0.312611        -8.5066
  39   0.0000       0.088050         2.3960
  40   0.0000       0.089473         2.4347
  41   0.0000       0.108930         2.9641
  42   0.0000       0.113063         3.0766
  43   0.0000       0.120278         3.2729

MULLIKEN ATOMIC CHARGES
-----------------------
   0 C :    0.570695
   1 C :   -0.046989
   2 O :   -0.599621
   3 N :   -0.100004
   4 C :    0.310803
   5 C :    0.514798
   6 O :   -0.688852
   7 C :   -0.321775
   8 C :    0.785440
   9 O :   -0.765352
  10 H :   -0.363903
  11 H :   -0.057762
  12 H :   -0.071715
  13 H :   -0.067285
  14 H :    0.002323
  15 H :   -0.094414
  16 H :   -0.084944
  17 H :    0.001613
  18 H :    0.054792
  19 H :    0.022152
Sum of atomic charges:   -1.0000000

LOEWDIN ATOMIC CHARGES
----------------------
   0 C :    0.199733
   1 C :   -0.129765
   2 O :   -0.284313
   3 N :    0.078755
   4 C :   -0.042764
   5 C :   -0.278939
   6 O :   -0.351242
   7 C :    0.005246
   8 C :    0.133424
   9 O :   -0.338993
  10 H :    0.013632
  11 H :    0.039035
  12 H :    0.027553
  13 H :    0.012429
  14 H :   -0.020008
  15 H :   -0.048908
  16 H :   -0.026774
  17 H :   -0.006710
  18 H :    0.008320
  19 H :    0.010288

  Mayer bond orders larger than 0.100000
B(  0-C ,  1-C ) :   1.3753 B(  0-C , 17-H ) :   0.8453 B(  0-C , 18-H ) :   0.6340
B(  0-C , 19-H ) :   0.7440 B(  1-C ,  2-O ) :   1.5989 B(  1-C ,  3-N ) :   1.1640
B(  1-C , 10-H ) :  -0.2812 B(  1-C , 17-H ) :   0.1850 B(  1-C , 18-H ) :   0.3237
B(  1-C , 19-H ) :   0.2512 B(  2-O ,  3-N ) :   0.1141 B(  3-N ,  4-C ) :   0.8459
B(  3-N , 10-H ) :   1.2876 B(  3-N , 11-H ) :   0.1538 B(  4-C ,  5-C ) :   0.8657
B(  4-C ,  7-C ) :   1.0912 B(  4-C , 10-H ) :  -0.2537 B(  4-C , 11-H ) :   0.9047
B(  4-C , 12-H ) :   0.1159 B(  4-C , 13-H ) :   0.1265 B(  5-C ,  6-O ) :   1.5016
B(  5-C ,  9-O ) :   1.4921 B(  5-C , 11-H ) :   0.1504 B(  6-O ,  9-O ) :   0.1706
B(  7-C ,  8-C ) :   1.2239 B(  7-C , 11-H ) :   0.1888 B(  7-C , 12-H ) :   0.9825
B(  7-C , 13-H ) :   0.9504 B(  7-C , 14-H ) :   0.2214 B(  7-C , 15-H ) :   0.2011
B(  7-C , 16-H ) :   0.1997 B(  8-C , 14-H ) :   0.7289 B(  8-C , 15-H ) :   0.8226
B(  8-C , 16-H ) :   0.8135 B( 15-H , 16-H ) :   0.1138 B( 18-H , 19-H ) :   0.1149

Dispersion correction           -0.007527306
FINAL SINGLE POINT ENERGY      -514.793290274445

DIPOLE MOMENT
-------------
                                X             Y             Z
Electronic contribution:      1.11775      -4.57468       5.27972
Nuclear contribution   :      0.06302       9.10150      -6.63594
                        -----------------------------------------
Total Dipole Moment    :      1.18077       4.52682      -1.35622
                        -----------------------------------------
Magnitude (a.u.)       :      4.87090
Magnitude (Debye)      :     12.38084

Rotational constants in cm-1:     0.066416     0.027505     0.024616
Rotational constants in MHz :  1991.108288   824.570007   737.978206

                             ****ORCA TERMINATED NORMALLY****
TOTAL RUN TIME: 0 days 0 hours 1 minutes 9 seconds 670 msec
