                         Program Version 5.0.0 -  RELEASE  -
|  1> !wB97X-D3 RIJCOSX def2-SVPD def2/J TightSCF CPCM(Water)
|  2> * xyz 1 1
|  3> C          0.04700       -3.60900       -2.27600
|  4> H         -0.08717       -3.39442       -3.31564
|  5> H          1.07309       -3.84941       -2.09096
|  6> H         -0.22880       -2.75277       -1.69660
|  7> C         -0.85300       -4.82200       -1.87400
|  8> C         -0.78200       -5.27100       -0.39100
|  9> N         -1.52400       -4.37000        0.44200
| 10> C         -1.07200       -3.51000        1.36000
| 11> N          0.20800       -3.20800        1.54900
| 12> N         -2.02800       -2.89100        2.04800
| 13> H         -1.90000       -4.55400       -2.06900
| 14> H         -0.63000       -5.67400       -2.51900
| 15> H         -1.27300       -6.24700       -0.29200
| 16> H          0.24900       -5.42100       -0.06400
| 17> H         -2.48400       -4.35500        0.35500
| 18> H          0.84900       -3.52800        0.90500
| 19> H          0.48100       -2.72000        2.32700
| 20> H         -2.93100       -3.19700        1.89100
| 21> H         -1.82800       -2.14000        2.61300
| 22> *
| 23> %MaxCore 64000
| 24> %scf
| 25>   Convergence VeryTight
| 26>   MaxIter 300
| 27> end
| 28> %pal nprocs 8
| 29> end
| 30>
| 31>                          ****END OF INPUT****

CARTESIAN COORDINATES (ANGSTROEM)
---------------------------------
  C      0.047000   -3.609000   -2.276000
  H     -0.087170   -3.394420   -3.315640
  H      1.073090   -3.849410   -2.090960
  H     -0.228800   -2.752770   -1.696600
  C     -0.853000   -4.822000   -1.874000
  C     -0.782000   -5.271000   -0.391000
  N     -1.524000   -4.370000    0.442000
  C     -1.072000   -3.510000    1.360000
  N      0.208000   -3.208000    1.549000
  N     -2.028000   -2.891000    2.048000
  H     -1.900000   -4.554000   -2.069000
  H     -0.630000   -5.674000   -2.519000
  H     -1.273000   -6.247000   -0.292000
  H      0.249000   -5.421000   -0.064000
  H     -2.484000   -4.355000    0.355000
  H      0.849000   -3.528000    0.905000
  H      0.481000   -2.720000    2.327000
  H     -2.931000   -3.197000    1.891000
  H     -1.828000   -2.140000    2.613000

 Total Charge           Charge          ....    1
 Multiplicity           Mult            ....    1
 Number of Electrons    NEL             ....   56
 Basis Dimension        Dim             ....  236

ORBITAL ENERGIES
----------------

  NO   OCC          E(Eh)            E(eV)
   0   2.0000     -14.487465      -394.2240
   1   2.0000     -14.481310      -394.0565
   2   2.0000     -14.475044      -393.8860
   3   2.0000     -10.457203      -284.5550
   4   2.0000     -10.338508      -281.3251
   5   2.0000     -10.294029      -280.1148
   6   2.0000     -10.275051      -279.5983
   7   2.0000      -1.161250       -31.5992
   8   2.0000      -1.054060       -28.6824
   9   2.0000      -1.038009       -28.2457
  10   2.0000      -0.895738       -24.3743
  11   2.0000      -0.823816       -22.4172
  12   2.0000      -0.771008       -20.9802
  13   2.0000      -0.731111       -19.8945
  14   2.0000      -0.719648       -19.5826
  15   2.0000      -0.683821       -18.6077
  16   2.0000      -0.635471       -17.2920
  17   2.0000      -0.629201       -17.1214
  18   2.0000      -0.594868       -16.1872
  19   2.0000      -0.578781       -15.7494
  20   2.0000      -0.540043       -14.6953
  21   2.0000      -0.529922       -14.4199
  22   2.0000      -0.505460       -13.7543
  23   2.0000      -0.465818       -12.6755
  24   2.0000      -0.441722       -12.0199
  25   2.0000      -0.434519       -11.8239
  26   2.0000      -0.402640       -10.9564
  27   2.0000      -0.369810       -10.0631
  28   0.0000       0.079679         2.1682
  29   0.0000       0.091566         2.4916
  30   0.0000       0.114807         3.1241
  31   0.0000       0.119439         3.2501
  32   0.0000       0.124780         3.3954

MULLIKEN ATOMIC CHARGES
-----------------------
   0 C :    0.619263
   1 H :   -0.055870
   2 H :    0.026523
   3 H :   -0.067241
   4 C :   -0.424841
   5 C :    0.671863
   6 N :   -0.532696
   7 C :    1.468607
   8 N :    0.090718
   9 N :    0.122369
  10 H :    0.023863
  11 H :   -0.059956
  12 H :   -0.089527
  13 H :   -0.053821
  14 H :   -0.285465
  15 H :   -0.073922
  16 H :   -0.179213
  17 H :   -0.045922
  18 H :   -0.154731
Sum of atomic charges:    1.0000000

LOEWDIN ATOMIC CHARGES
----------------------
   0 C :    0.131530
   1 H :   -0.019301
   2 H :   -0.018734
   3 H :   -0.024635
   4 C :   -0.041512
   5 C :    0.086285
   6 N :    0.052510
   7 C :    0.026639
   8 N :    0.325479
   9 N :    0.300388
  10 H :    0.021330
  11 H :    0.018879
  12 H :    0.039745
  13 H :    0.037767
  14 H :    0.029026
  15 H :   -0.005210
  16 H :    0.013954
  17 H :    0.011885
  18 H :    0.013975

  Mayer bond orders larger than 0.100000
B(  0-C ,  1-H ) :   0.8233 B(  0-C ,  2-H ) :   0.8136 B(  0-C ,  3-H ) :   0.8668
B(  0-C ,  4-C ) :   1.2397 B(  1-H ,  4-C ) :   0.1900 B(  2-H ,  4-C ) :   0.1844
B(  3-H ,  4-C ) :   0.1880 B(  4-C ,  5-C ) :   1.1003 B(  4-C , 10-H ) :   0.9397
B(  4-C , 11-H ) :   0.9985 B(  4-C , 13-H ) :   0.1196 B(  5-C ,  6-N ) :   0.9371
B(  5-C , 10-H ) :   0.1064 B(  5-C , 12-H ) :   0.9409 B(  5-C , 13-H ) :   0.8221
B(  5-C , 14-H ) :  -0.2289 B(  6-N ,  7-C ) :   0.8449 B(  6-N ,  8-N ) :   0.2614
B(  6-N ,  9-N ) :   0.2918 B(  6-N , 12-H ) :   0.1357 B(  6-N , 13-H ) :   0.1403
B(  6-N , 14-H ) :   1.4363 B(  7-C ,  8-N ) :   0.9422 B(  7-C ,  9-N ) :   0.9479
B(  7-C , 14-H ) :  -0.3413 B(  7-C , 15-H ) :  -0.1180 B(  7-C , 16-H ) :  -0.2034
B(  7-C , 17-H ) :  -0.1252 B(  7-C , 18-H ) :  -0.1229 B(  8-N ,  9-N ) :   0.1297
B(  8-N , 15-H ) :   1.1212 B(  8-N , 16-H ) :   1.4023 B(  9-N , 17-H ) :   1.1415
B(  9-N , 18-H ) :   1.2988 B( 15-H , 16-H ) :  -0.2721 B( 17-H , 18-H ) :  -0.2227

Dispersion correction           -0.005456629
FINAL SINGLE POINT ENERGY      -323.498627009391

DIPOLE MOMENT
-------------
                                X             Y             Z
Electronic contribution:     -1.94187       1.29193       7.24989
Nuclear contribution   :      1.47434      -0.61324      -5.27631
                        -----------------------------------------
Total Dipole Moment    :     -0.46753       0.67869       1.97359
                        -----------------------------------------
Magnitude (a.u.)       :      2.13875
Magnitude (Debye)      :      5.43626

Rotational constants in cm-1:     0.151797     0.049012     0.044382
Rotational constants in MHz :  4550.744857  1469.335769  1330.548976

                             ****ORCA TERMINATED NORMALLY****
TOTAL RUN TIME: 0 days 0 hours 0 minutes 36 seconds 641 msec
