                         Program Version 5.0.0 -  RELEASE  -
|  1> !wB97X-D3 RIJCOSX def2-SVPD def2/J TightSCF CPCM(Water)
|  2> * xyz 0 1
|  3> C         -0.03600        4.62200        4.85200
|  4> C         -1.11600        3.62600        5.13500
|  5> O         -2.06600        3.92400        5.89200
|  6> N         -1.10700        2.39300        4.56500
|  7> C         -2.21900        1.44900        4.59700
|  8> C         -1.88400        0.00100        4.44000
|  9> O         -2.28500       -0.84500        5.27400
| 10> C         -3.26900        1.89400        3.53500
| 11> C         -2.71500        1.94900        2.08000
| 12> F         -1.29800       -0.44500        3.42400
| 13> H         -0.30400        2.18200        4.06000
| 14> H         -2.70900        1.50900        5.57900
| 15> H         -4.13300        1.22100        3.55400
| 16> H         -3.64800        2.87600        3.83500
| 17> H         -3.49215        2.26110        1.41401
| 18> H         -2.36825        0.97815        1.79344
| 19> H         -1.90410        2.64552        2.03320
| 20> H          0.68360        4.18908        4.18893
| 21> H          0.44357        4.89798        5.76783
| 22> H         -0.46279        5.49124        4.39684
| 23> *
| 24> %MaxCore 64000
| 25> %scf
| 26>   Convergence VeryTight
| 27>   MaxIter 300
| 28> end
| 29> %pal nprocs 8
| 30> end
| 31>
| 32>                          ****END OF INPUT****

CARTESIAN COORDINATES (ANGSTROEM)
---------------------------------
  C     -0.036000    4.622000    4.852000
  C     -1.116000    3.626000    5.135000
  O     -2.066000    3.924000    5.892000
  N     -1.107000    2.393000    4.565000
  C     -2.219000    1.449000    4.597000
  C     -1.884000    0.001000    4.440000
  O     -2.285000   -0.845000    5.274000
  C     -3.269000    1.894000    3.535000
  C     -2.715000    1.949000    2.080000
  F     -1.298000   -0.445000    3.424000
  H     -0.304000    2.182000    4.060000
  H     -2.709000    1.509000    5.579000
  H     -4.133000    1.221000    3.554000
  H     -3.648000    2.876000    3.835000
  H     -3.492150    2.261100    1.414010
  H     -2.368250    0.978150    1.793440
  H     -1.904100    2.645520    2.033200
  H      0.683600    4.189080    4.188930
  H      0.443570    4.897980    5.767830
  H     -0.462790    5.491240    4.396840

 Total Charge           Charge          ....    0
 Multiplicity           Mult            ....    1
 Number of Electrons    NEL             ....   78
 Basis Dimension        Dim             ....  289

ORBITAL ENERGIES
----------------

  NO   OCC          E(Eh)            E(eV)
   0   2.0000     -24.878088      -676.9672
   1   2.0000     -19.269419      -524.3476
   2   2.0000     -19.219382      -522.9860
   3   2.0000     -14.476238      -393.9185
   4   2.0000     -10.489662      -285.4382
   5   2.0000     -10.411557      -283.3129
   6   2.0000     -10.368530      -282.1421
   7   2.0000     -10.305546      -280.4282
   8   2.0000     -10.290956      -280.0311
   9   2.0000     -10.277041      -279.6525
  10   2.0000      -1.432119       -38.9699
  11   2.0000      -1.158129       -31.5143
  12   2.0000      -1.148480       -31.2517
  13   2.0000      -1.049273       -28.5522
  14   2.0000      -0.922199       -25.0943
  15   2.0000      -0.860655       -23.4196
  16   2.0000      -0.835657       -22.7394
  17   2.0000      -0.774772       -21.0826
  18   2.0000      -0.735467       -20.0131
  19   2.0000      -0.698390       -19.0041
  20   2.0000      -0.684291       -18.6205
  21   2.0000      -0.658391       -17.9157
  22   2.0000      -0.635983       -17.3060
  23   2.0000      -0.593605       -16.1528
  24   2.0000      -0.575132       -15.6501
  25   2.0000      -0.567172       -15.4335
  26   2.0000      -0.551228       -14.9997
  27   2.0000      -0.543249       -14.7826
  28   2.0000      -0.519317       -14.1313
  29   2.0000      -0.516139       -14.0449
  30   2.0000      -0.500137       -13.6094
  31   2.0000      -0.487247       -13.2587
  32   2.0000      -0.472875       -12.8676
  33   2.0000      -0.451701       -12.2914
  34   2.0000      -0.447671       -12.1817
  35   2.0000      -0.442363       -12.0373
  36   2.0000      -0.417450       -11.3594
  37   2.0000      -0.366601        -9.9757
  38   2.0000      -0.361403        -9.8343
  39   0.0000       0.032463         0.8834
  40   0.0000       0.082091         2.2338
  41   0.0000       0.084567         2.3012
  42   0.0000       0.106709         2.9037
  43   0.0000       0.112363         3.0576

MULLIKEN ATOMIC CHARGES
-----------------------
   0 C :    0.559435
   1 C :   -0.033499
   2 O :   -0.591494
   3 N :   -0.137786
   4 C :    0.186574
   5 C :    0.931946
   6 O :   -0.488221
   7 C :   -0.323806
   8 C :    0.727211
   9 F :   -0.445929
  10 H :   -0.322960
  11 H :    0.008198
  12 H :   -0.047513
  13 H :   -0.016119
  14 H :    0.022690
  15 H :   -0.067825
  16 H :   -0.065000
  17 H :    0.010332
  18 H :    0.062610
  19 H :    0.031155
Sum of atomic charges:   -0.0000000

LOEWDIN ATOMIC CHARGES
----------------------
   0 C :    0.205283
   1 C :   -0.119086
   2 O :   -0.269816
   3 N :    0.078110
   4 C :   -0.009470
   5 C :    0.036880
   6 O :   -0.156000
   7 C :    0.015059
   8 C :    0.146030
   9 F :   -0.028697
  10 H :    0.024220
  11 H :    0.060968
  12 H :    0.035197
  13 H :    0.024485
  14 H :   -0.011311
  15 H :   -0.030380
  16 H :   -0.021113
  17 H :   -0.004576
  18 H :    0.011194
  19 H :    0.013021

  Mayer bond orders larger than 0.100000
B(  0-C ,  1-C ) :   1.3801 B(  0-C , 17-H ) :   0.8448 B(  0-C , 18-H ) :   0.6305
B(  0-C , 19-H ) :   0.7449 B(  1-C ,  2-O ) :   1.5952 B(  1-C ,  3-N ) :   1.1463
B(  1-C , 10-H ) :  -0.2794 B(  1-C , 17-H ) :   0.1817 B(  1-C , 18-H ) :   0.3248
B(  1-C , 19-H ) :   0.2476 B(  2-O ,  3-N ) :   0.1211 B(  3-N ,  4-C ) :   0.8150
B(  3-N , 10-H ) :   1.3151 B(  3-N , 11-H ) :   0.1594 B(  4-C ,  5-C ) :   0.9668
B(  4-C ,  7-C ) :   1.0803 B(  4-C ,  9-F ) :   0.1279 B(  4-C , 10-H ) :  -0.2495
B(  4-C , 11-H ) :   0.9257 B(  4-C , 12-H ) :   0.1023 B(  4-C , 13-H ) :   0.1314
B(  5-C ,  6-O ) :   1.7851 B(  5-C ,  9-F ) :   0.6732 B(  5-C , 11-H ) :   0.1452
B(  7-C ,  8-C ) :   1.2379 B(  7-C , 11-H ) :   0.1895 B(  7-C , 12-H ) :   1.0009
B(  7-C , 13-H ) :   0.9411 B(  7-C , 14-H ) :   0.2207 B(  7-C , 15-H ) :   0.1796
B(  7-C , 16-H ) :   0.1895 B(  8-C , 14-H ) :   0.7410 B(  8-C , 15-H ) :   0.8202
B(  8-C , 16-H ) :   0.8358 B( 15-H , 16-H ) :   0.1108 B( 18-H , 19-H ) :   0.1177

Dispersion correction           -0.007408582
FINAL SINGLE POINT ENERGY      -539.225804349049

DIPOLE MOMENT
-------------
                                X             Y             Z
Electronic contribution:      1.92907     -10.94892       3.49121
Nuclear contribution   :     -0.49208      11.65974      -5.57954
                        -----------------------------------------
Total Dipole Moment    :      1.43699       0.71082      -2.08833
                        -----------------------------------------
Magnitude (a.u.)       :      2.63274
Magnitude (Debye)      :      6.69190

Rotational constants in cm-1:     0.065460     0.026684     0.024084
Rotational constants in MHz :  1962.432376   799.971907   722.005280

                             ****ORCA TERMINATED NORMALLY****
TOTAL RUN TIME: 0 days 0 hours 1 minutes 6 seconds 528 msec
