                         Program Version 5.0.0 -  RELEASE  -
|  1> !wB97X-D3 RIJCOSX def2-SVPD def2/J TightSCF CPCM(Water)
|  2> * xyz 0 1
|  3> C          0.04700       -3.60900       -2.27600
|  4> H         -0.08717       -3.39442       -3.31564
|  5> H          1.07309       -3.84941       -2.09096
|  6> H         -0.22880       -2.75277       -1.69660
|  7> C         -0.85300       -4.82200       -1.87400
|  8> C         -0.78200       -5.27100       -0.39100
|  9> C         -1.52400       -4.37000        0.44200
| 10> C         -1.07200       -3.51000        1.36000
| 11> N          0.20800       -3.20800        1.54900
| 12> N         -2.02800       -2.89100        2.04800
| 13> H         -1.90000       -4.55400       -2.06900
| 14> H         -0.63000       -5.67400       -2.51900
| 15> H         -1.27300       -6.24700       -0.29200
| 16> H          0.24900       -5.42100       -0.06400
| 17> H         -2.48400       -4.35500        0.35500
| 18> H          0.84900       -3.52800        0.90500
| 19> H          0.48100       -2.72000        2.32700
| 20> H         -2.93100       -3.19700        1.89100
| 21> H         -1.82800       -2.14000        2.61300
| 22> *
| 23> %MaxCore 64000
| 24> %scf
| 25>   Convergence VeryTight
| 26>   MaxIter 300
| 27> end
| 28> %pal nprocs 8
| 29> end
| 30>
| 31>                          ****END OF INPUT****

CARTESIAN COORDINATES (ANGSTROEM)
---------------------------------
  C      0.047000   -3.609000   -2.276000
  H     -0.087170   -3.394420   -3.315640
  H      1.073090   -3.849410   -2.090960
  H     -0.228800   -2.752770   -1.696600
  C     -0.853000   -4.822000   -1.874000
  C     -0.782000   -5.271000   -0.391000
  C     -1.524000   -4.370000    0.442000
  C     -1.072000   -3.510000    1.360000
  N      0.208000   -3.208000    1.549000
  N     -2.028000   -2.891000    2.048000
  H     -1.900000   -4.554000   -2.069000
  H     -0.630000   -5.674000   -2.519000
  H     -1.273000   -6.247000   -0.292000
  H      0.249000   -5.421000   -0.064000
  H     -2.484000   -4.355000    0.355000
  H      0.849000   -3.528000    0.905000
  H      0.481000   -2.720000    2.327000
  H     -2.931000   -3.197000    1.891000
  H     -1.828000   -2.140000    2.613000

 Total Charge           Charge          ....    0
 Multiplicity           Mult            ....    1
 Number of Electrons    NEL             ....   56
 Basis Dimension        Dim             ....  236

ORBITAL ENERGIES
----------------

  NO   OCC          E(Eh)            E(eV)
   0   2.0000     -14.424956      -392.5230
   1   2.0000     -14.416603      -392.2957
   2   2.0000     -10.334310      -281.2109
   3   2.0000     -10.273171      -279.5472
   4   2.0000     -10.266591      -279.3682
   5   2.0000     -10.264879      -279.3216
   6   2.0000     -10.205982      -277.7189
   7   2.0000      -1.073788       -29.2193
   8   2.0000      -0.985295       -26.8112
   9   2.0000      -0.896042       -24.3825
  10   2.0000      -0.832401       -22.6508
  11   2.0000      -0.769437       -20.9374
  12   2.0000      -0.704455       -19.1692
  13   2.0000      -0.679387       -18.4871
  14   2.0000      -0.654648       -17.8139
  15   2.0000      -0.617847       -16.8125
  16   2.0000      -0.576158       -15.6781
  17   2.0000      -0.544575       -14.8186
  18   2.0000      -0.538084       -14.6420
  19   2.0000      -0.517457       -14.0807
  20   2.0000      -0.488835       -13.3019
  21   2.0000      -0.474905       -12.9228
  22   2.0000      -0.455601       -12.3975
  23   2.0000      -0.428942       -11.6721
  24   2.0000      -0.414597       -11.2818
  25   2.0000      -0.407737       -11.0951
  26   2.0000      -0.357813        -9.7366
  27   2.0000      -0.244622        -6.6565
  28   0.0000       0.095648         2.6027
  29   0.0000       0.118438         3.2229
  30   0.0000       0.122962         3.3460
  31   0.0000       0.129800         3.5320
  32   0.0000       0.146418         3.9842

MULLIKEN ATOMIC CHARGES
-----------------------
   0 C :    0.654657
   1 H :   -0.033370
   2 H :   -0.001066
   3 H :   -0.105147
   4 C :   -0.415222
   5 C :    0.215652
   6 C :   -0.025252
   7 C :    0.745389
   8 N :    0.147667
   9 N :    0.151809
  10 H :    0.006337
  11 H :   -0.118944
  12 H :    0.082359
  13 H :   -0.113860
  14 H :   -0.539855
  15 H :   -0.064313
  16 H :   -0.325772
  17 H :   -0.048003
  18 H :   -0.213063
Sum of atomic charges:   -0.0000000

LOEWDIN ATOMIC CHARGES
----------------------
   0 C :    0.123847
   1 H :   -0.025495
   2 H :   -0.023706
   3 H :   -0.031082
   4 C :   -0.067529
   5 C :   -0.061421
   6 C :   -0.051998
   7 C :   -0.184375
   8 N :    0.245084
   9 N :    0.207984
  10 H :    0.013672
  11 H :    0.003538
  12 H :    0.013591
  13 H :    0.015339
  14 H :   -0.077824
  15 H :   -0.030871
  16 H :   -0.023527
  17 H :   -0.020030
  18 H :   -0.025196

  Mayer bond orders larger than 0.100000
B(  0-C ,  1-H ) :   0.8012 B(  0-C ,  2-H ) :   0.8061 B(  0-C ,  3-H ) :   0.8612
B(  0-C ,  4-C ) :   1.2474 B(  1-H ,  4-C ) :   0.1936 B(  2-H ,  4-C ) :   0.2009
B(  3-H ,  4-C ) :   0.2000 B(  4-C ,  5-C ) :   1.1608 B(  4-C , 10-H ) :   0.9253
B(  4-C , 11-H ) :   1.0073 B(  4-C , 13-H ) :   0.1504 B(  5-C ,  6-C ) :   1.1266
B(  5-C , 10-H ) :   0.1391 B(  5-C , 11-H ) :   0.1067 B(  5-C , 12-H ) :   0.8551
B(  5-C , 13-H ) :   0.8439 B(  5-C , 14-H ) :   0.2239 B(  6-C ,  7-C ) :   1.6831
B(  6-C ,  8-N ) :   0.1734 B(  6-C ,  9-N ) :   0.3643 B(  6-C , 12-H ) :   0.1460
B(  6-C , 13-H ) :   0.2158 B(  6-C , 14-H ) :   0.7891 B(  7-C ,  8-N ) :   1.0548
B(  7-C ,  9-N ) :   0.8914 B(  7-C , 14-H ) :   0.1117 B(  7-C , 16-H ) :  -0.2193
B(  8-N , 15-H ) :   1.1009 B(  8-N , 16-H ) :   1.4475 B(  9-N , 14-H ) :   0.1116
B(  9-N , 17-H ) :   1.1696 B(  9-N , 18-H ) :   1.2254 B( 15-H , 16-H ) :  -0.2590
B( 17-H , 18-H ) :  -0.2032

Dispersion correction           -0.005437366
FINAL SINGLE POINT ENERGY      -306.937415975649

DIPOLE MOMENT
-------------
                                X             Y             Z
Electronic contribution:     -0.99158       1.53461       6.04889
Nuclear contribution   :      1.32826      -0.70942      -5.21032
                        -----------------------------------------
Total Dipole Moment    :      0.33669       0.82519       0.83858
                        -----------------------------------------
Magnitude (a.u.)       :      1.22373
Magnitude (Debye)      :      3.11047

Rotational constants in cm-1:     0.153636     0.049035     0.044555
Rotational constants in MHz :  4605.901982  1470.019577  1335.736199

                             ****ORCA TERMINATED NORMALLY****
TOTAL RUN TIME: 0 days 0 hours 0 minutes 41 seconds 675 msec
