                         Program Version 5.0.0 -  RELEASE  -
|  1> !wB97X-D3 RIJCOSX def2-SVPD def2/J TightSCF CPCM(Water)
|  2> * xyz 0 1
|  3> C         -0.03600        4.62200        4.85200
|  4> C         -1.11600        3.62600        5.13500
|  5> O         -2.06600        3.92400        5.89200
|  6> N         -1.10700        2.39300        4.56500
|  7> C         -2.21900        1.44900        4.59700
|  8> C         -1.88400        0.00100        4.44000
|  9> F         -2.28500       -0.84500        5.27400
| 10> C         -3.26900        1.89400        3.53500
| 11> C         -2.71500        1.94900        2.08000
| 12> O         -1.29800       -0.44500        3.42400
| 13> H         -0.30400        2.18200        4.06000
| 14> H         -2.70900        1.50900        5.57900
| 15> H         -4.13300        1.22100        3.55400
| 16> H         -3.64800        2.87600        3.83500
| 17> H         -3.49215        2.26110        1.41401
| 18> H         -2.36825        0.97815        1.79344
| 19> H         -1.90410        2.64552        2.03320
| 20> H          0.68360        4.18908        4.18893
| 21> H          0.44357        4.89798        5.76783
| 22> H         -0.46279        5.49124        4.39684
| 23> *
| 24> %MaxCore 64000
| 25> %scf
| 26>   Convergence VeryTight
| 27>   MaxIter 300
| 28> end
| 29> %pal nprocs 8
| 30> end
| 31>
| 32>                          ****END OF INPUT****

CARTESIAN COORDINATES (ANGSTROEM)
---------------------------------
  C     -0.036000    4.622000    4.852000
  C     -1.116000    3.626000    5.135000
  O     -2.066000    3.924000    5.892000
  N     -1.107000    2.393000    4.565000
  C     -2.219000    1.449000    4.597000
  C     -1.884000    0.001000    4.440000
  F     -2.285000   -0.845000    5.274000
  C     -3.269000    1.894000    3.535000
  C     -2.715000    1.949000    2.080000
  O     -1.298000   -0.445000    3.424000
  H     -0.304000    2.182000    4.060000
  H     -2.709000    1.509000    5.579000
  H     -4.133000    1.221000    3.554000
  H     -3.648000    2.876000    3.835000
  H     -3.492150    2.261100    1.414010
  H     -2.368250    0.978150    1.793440
  H     -1.904100    2.645520    2.033200
  H      0.683600    4.189080    4.188930
  H      0.443570    4.897980    5.767830
  H     -0.462790    5.491240    4.396840

 Total Charge           Charge          ....    0
 Multiplicity           Mult            ....    1
 Number of Electrons    NEL             ....   78
 Basis Dimension        Dim             ....  289

ORBITAL ENERGIES
----------------

  NO   OCC          E(Eh)            E(eV)
   0   2.0000     -24.877641      -676.9550
   1   2.0000     -19.268010      -524.3092
   2   2.0000     -19.219004      -522.9757
   3   2.0000     -14.476429      -393.9237
   4   2.0000     -10.488662      -285.4110
   5   2.0000     -10.411459      -283.3102
   6   2.0000     -10.368322      -282.1364
   7   2.0000     -10.305058      -280.4149
   8   2.0000     -10.291012      -280.0327
   9   2.0000     -10.273316      -279.5511
  10   2.0000      -1.431547       -38.9544
  11   2.0000      -1.157701       -31.5026
  12   2.0000      -1.147436       -31.2233
  13   2.0000      -1.047516       -28.5044
  14   2.0000      -0.920955       -25.0605
  15   2.0000      -0.859743       -23.3948
  16   2.0000      -0.838645       -22.8207
  17   2.0000      -0.770695       -20.9717
  18   2.0000      -0.734624       -19.9901
  19   2.0000      -0.695805       -18.9338
  20   2.0000      -0.683535       -18.5999
  21   2.0000      -0.657074       -17.8799
  22   2.0000      -0.629337       -17.1251
  23   2.0000      -0.591660       -16.0999
  24   2.0000      -0.582442       -15.8490
  25   2.0000      -0.571599       -15.5540
  26   2.0000      -0.554036       -15.0761
  27   2.0000      -0.543152       -14.7799
  28   2.0000      -0.514613       -14.0033
  29   2.0000      -0.512514       -13.9462
  30   2.0000      -0.498846       -13.5743
  31   2.0000      -0.479288       -13.0421
  32   2.0000      -0.469370       -12.7722
  33   2.0000      -0.457954       -12.4616
  34   2.0000      -0.446444       -12.1483
  35   2.0000      -0.445890       -12.1333
  36   2.0000      -0.405477       -11.0336
  37   2.0000      -0.365881        -9.9561
  38   2.0000      -0.364505        -9.9187
  39   0.0000       0.031948         0.8694
  40   0.0000       0.082544         2.2461
  41   0.0000       0.085186         2.3180
  42   0.0000       0.105999         2.8844
  43   0.0000       0.111779         3.0417

MULLIKEN ATOMIC CHARGES
-----------------------
   0 C :    0.560043
   1 C :   -0.032687
   2 O :   -0.590794
   3 N :   -0.121316
   4 C :    0.166455
   5 C :    0.970485
   6 F :   -0.386743
   7 C :   -0.309965
   8 C :    0.758550
   9 O :   -0.582946
  10 H :   -0.341230
  11 H :    0.017525
  12 H :   -0.049730
  13 H :   -0.028586
  14 H :    0.018177
  15 H :   -0.084229
  16 H :   -0.066859
  17 H :    0.010461
  18 H :    0.063110
  19 H :    0.030280
Sum of atomic charges:   -0.0000000

LOEWDIN ATOMIC CHARGES
----------------------
   0 C :    0.205535
   1 C :   -0.118746
   2 O :   -0.271104
   3 N :    0.084063
   4 C :   -0.013356
   5 C :    0.044338
   6 F :   -0.025858
   7 C :    0.017478
   8 C :    0.145179
   9 O :   -0.154706
  10 H :    0.022244
  11 H :    0.059937
  12 H :    0.035133
  13 H :    0.023704
  14 H :   -0.012751
  15 H :   -0.039480
  16 H :   -0.021451
  17 H :   -0.004488
  18 H :    0.011300
  19 H :    0.013030

  Mayer bond orders larger than 0.100000
B(  0-C ,  1-C ) :   1.3777 B(  0-C , 17-H ) :   0.8456 B(  0-C , 18-H ) :   0.6346
B(  0-C , 19-H ) :   0.7425 B(  1-C ,  2-O ) :   1.6014 B(  1-C ,  3-N ) :   1.1462
B(  1-C , 10-H ) :  -0.2849 B(  1-C , 17-H ) :   0.1818 B(  1-C , 18-H ) :   0.3210
B(  1-C , 19-H ) :   0.2499 B(  2-O ,  3-N ) :   0.1171 B(  3-N ,  4-C ) :   0.8446
B(  3-N , 10-H ) :   1.3145 B(  3-N , 11-H ) :   0.1714 B(  4-C ,  5-C ) :   0.9723
B(  4-C ,  6-F ) :   0.1005 B(  4-C ,  7-C ) :   1.0873 B(  4-C , 10-H ) :  -0.2618
B(  4-C , 11-H ) :   0.9088 B(  4-C , 12-H ) :   0.1091 B(  4-C , 13-H ) :   0.1257
B(  5-C ,  6-F ) :   0.6296 B(  5-C ,  9-O ) :   1.7977 B(  5-C , 11-H ) :   0.1190
B(  7-C ,  8-C ) :   1.2375 B(  7-C , 11-H ) :   0.1943 B(  7-C , 12-H ) :   0.9845
B(  7-C , 13-H ) :   0.9422 B(  7-C , 14-H ) :   0.2174 B(  7-C , 15-H ) :   0.1921
B(  7-C , 16-H ) :   0.1977 B(  8-C , 14-H ) :   0.7369 B(  8-C , 15-H ) :   0.8226
B(  8-C , 16-H ) :   0.8237 B( 15-H , 16-H ) :   0.1167 B( 18-H , 19-H ) :   0.1174

Dispersion correction           -0.007413123
FINAL SINGLE POINT ENERGY      -539.225152110825

DIPOLE MOMENT
-------------
                                X             Y             Z
Electronic contribution:      0.06458     -11.74068       7.00289
Nuclear contribution   :      0.60780      12.10549      -7.64111
                        -----------------------------------------
Total Dipole Moment    :      0.67237       0.36480      -0.63822
                        -----------------------------------------
Magnitude (a.u.)       :      0.99624
Magnitude (Debye)      :      2.53223

Rotational constants in cm-1:     0.064713     0.026710     0.023784
Rotational constants in MHz :  1940.042933   800.749420   713.021598

                             ****ORCA TERMINATED NORMALLY****
TOTAL RUN TIME: 0 days 0 hours 1 minutes 6 seconds 272 msec
