                         Program Version 5.0.0 -  RELEASE  -
|  1> !wB97X-D3 RIJCOSX def2-SVPD def2/J TightSCF CPCM(Water)
|  2> * xyz 0 1
|  3> C          0.04700       -3.60900       -2.27600
|  4> H         -0.08717       -3.39442       -3.31564
|  5> H          1.07309       -3.84941       -2.09096
|  6> H         -0.22880       -2.75277       -1.69660
|  7> C         -0.85300       -4.82200       -1.87400
|  8> C         -0.78200       -5.27100       -0.39100
|  9> N         -1.52400       -4.37000        0.44200
| 10> C         -1.07200       -3.51000        1.36000
| 11> C          0.20800       -3.20800        1.54900
| 12> N         -2.02800       -2.89100        2.04800
| 13> H         -1.90000       -4.55400       -2.06900
| 14> H         -0.63000       -5.67400       -2.51900
| 15> H         -1.27300       -6.24700       -0.29200
| 16> H          0.24900       -5.42100       -0.06400
| 17> H         -2.48400       -4.35500        0.35500
| 18> H          0.84900       -3.52800        0.90500
| 19> H          0.48100       -2.72000        2.32700
| 20> H         -2.93100       -3.19700        1.89100
| 21> H         -1.82800       -2.14000        2.61300
| 22> *
| 23> %MaxCore 64000
| 24> %scf
| 25>   Convergence VeryTight
| 26>   MaxIter 300
| 27> end
| 28> %pal nprocs 8
| 29> end
| 30>
| 31>                          ****END OF INPUT****

CARTESIAN COORDINATES (ANGSTROEM)
---------------------------------
  C      0.047000   -3.609000   -2.276000
  H     -0.087170   -3.394420   -3.315640
  H      1.073090   -3.849410   -2.090960
  H     -0.228800   -2.752770   -1.696600
  C     -0.853000   -4.822000   -1.874000
  C     -0.782000   -5.271000   -0.391000
  N     -1.524000   -4.370000    0.442000
  C     -1.072000   -3.510000    1.360000
  C      0.208000   -3.208000    1.549000
  N     -2.028000   -2.891000    2.048000
  H     -1.900000   -4.554000   -2.069000
  H     -0.630000   -5.674000   -2.519000
  H     -1.273000   -6.247000   -0.292000
  H      0.249000   -5.421000   -0.064000
  H     -2.484000   -4.355000    0.355000
  H      0.849000   -3.528000    0.905000
  H      0.481000   -2.720000    2.327000
  H     -2.931000   -3.197000    1.891000
  H     -1.828000   -2.140000    2.613000

 Total Charge           Charge          ....    0
 Multiplicity           Mult            ....    1
 Number of Electrons    NEL             ....   56
 Basis Dimension        Dim             ....  236

ORBITAL ENERGIES
----------------

  NO   OCC          E(Eh)            E(eV)
   0   2.0000     -14.431639      -392.7048
   1   2.0000     -14.422979      -392.4692
   2   2.0000     -10.343345      -281.4567
   3   2.0000     -10.317032      -280.7407
   4   2.0000     -10.283198      -279.8200
   5   2.0000     -10.269048      -279.4350
   6   2.0000     -10.198979      -277.5283
   7   2.0000      -1.087074       -29.5808
   8   2.0000      -0.996689       -27.1213
   9   2.0000      -0.877724       -23.8841
  10   2.0000      -0.836037       -22.7497
  11   2.0000      -0.795965       -21.6593
  12   2.0000      -0.708307       -19.2740
  13   2.0000      -0.676601       -18.4112
  14   2.0000      -0.648814       -17.6551
  15   2.0000      -0.633229       -17.2310
  16   2.0000      -0.569007       -15.4835
  17   2.0000      -0.552423       -15.0322
  18   2.0000      -0.523460       -14.2441
  19   2.0000      -0.515114       -14.0170
  20   2.0000      -0.498104       -13.5541
  21   2.0000      -0.485763       -13.2183
  22   2.0000      -0.482752       -13.1364
  23   2.0000      -0.443764       -12.0754
  24   2.0000      -0.432152       -11.7594
  25   2.0000      -0.422765       -11.5040
  26   2.0000      -0.336887        -9.1671
  27   2.0000      -0.264526        -7.1981
  28   0.0000       0.094932         2.5832
  29   0.0000       0.117193         3.1890
  30   0.0000       0.119264         3.2453
  31   0.0000       0.127075         3.4579
  32   0.0000       0.144760         3.9391

MULLIKEN ATOMIC CHARGES
-----------------------
   0 C :    0.658266
   1 H :   -0.082319
   2 H :    0.019427
   3 H :   -0.087916
   4 C :   -0.439482
   5 C :    0.715474
   6 N :   -0.445836
   7 C :    0.756740
   8 C :    0.657370
   9 N :    0.269191
  10 H :    0.009313
  11 H :   -0.080484
  12 H :   -0.129763
  13 H :   -0.031758
  14 H :   -0.421805
  15 H :   -0.370534
  16 H :   -0.679730
  17 H :   -0.166163
  18 H :   -0.149992
Sum of atomic charges:   -0.0000000

LOEWDIN ATOMIC CHARGES
----------------------
   0 C :    0.127093
   1 H :   -0.023307
   2 H :   -0.021343
   3 H :   -0.030078
   4 C :   -0.049969
   5 C :    0.067794
   6 N :   -0.005583
   7 C :   -0.201510
   8 C :    0.153764
   9 N :    0.223480
  10 H :    0.015682
  11 H :    0.011833
  12 H :    0.025708
  13 H :    0.025376
  14 H :    0.001878
  15 H :   -0.148768
  16 H :   -0.136589
  17 H :   -0.021725
  18 H :   -0.013735

  Mayer bond orders larger than 0.100000
B(  0-C ,  1-H ) :   0.8167 B(  0-C ,  2-H ) :   0.8132 B(  0-C ,  3-H ) :   0.8671
B(  0-C ,  4-C ) :   1.2289 B(  1-H ,  4-C ) :   0.1957 B(  2-H ,  4-C ) :   0.1802
B(  3-H ,  4-C ) :   0.1912 B(  4-C ,  5-C ) :   1.0847 B(  4-C ,  6-N ) :   0.1048
B(  4-C , 10-H ) :   0.9486 B(  4-C , 11-H ) :   0.9930 B(  4-C , 13-H ) :   0.1295
B(  5-C ,  6-N ) :   0.9293 B(  5-C , 10-H ) :   0.1006 B(  5-C , 12-H ) :   0.9341
B(  5-C , 13-H ) :   0.8068 B(  5-C , 14-H ) :  -0.2316 B(  6-N ,  7-C ) :   0.8155
B(  6-N ,  8-C ) :   0.3426 B(  6-N ,  9-N ) :   0.1881 B(  6-N , 12-H ) :   0.1360
B(  6-N , 13-H ) :   0.1245 B(  6-N , 14-H ) :   1.4842 B(  7-C ,  8-C ) :   1.6690
B(  7-C ,  9-N ) :   1.0181 B(  7-C , 14-H ) :  -0.3968 B(  7-C , 15-H ) :   0.2138
B(  7-C , 16-H ) :   0.1755 B(  8-C ,  9-N ) :   0.2329 B(  8-C , 15-H ) :   0.5760
B(  8-C , 16-H ) :   0.6680 B(  9-N , 17-H ) :   1.1058 B(  9-N , 18-H ) :   1.2327
B( 15-H , 16-H ) :  -0.1458 B( 17-H , 18-H ) :  -0.2116

Dispersion correction           -0.005470038
FINAL SINGLE POINT ENERGY      -306.926103119109

DIPOLE MOMENT
-------------
                                X             Y             Z
Electronic contribution:     -3.17077       0.12534       4.61353
Nuclear contribution   :      1.70767      -0.45488      -4.96782
                        -----------------------------------------
Total Dipole Moment    :     -1.46310      -0.32955      -0.35430
                        -----------------------------------------
Magnitude (a.u.)       :      1.54104
Magnitude (Debye)      :      3.91701

Rotational constants in cm-1:     0.157382     0.049632     0.045165
Rotational constants in MHz :  4718.197088  1487.918885  1354.022567

                             ****ORCA TERMINATED NORMALLY****
TOTAL RUN TIME: 0 days 0 hours 0 minutes 42 seconds 23 msec
