                         Program Version 5.0.0 -  RELEASE  -
|  1> !wB97X-D3 RIJCOSX def2-SVPD def2/J TightSCF CPCM(Water)
|  2> * xyz 0 1
|  3> C          0.04700       -3.60900       -2.27600
|  4> H         -0.08717       -3.39442       -3.31564
|  5> H          1.07309       -3.84941       -2.09096
|  6> H         -0.22880       -2.75277       -1.69660
|  7> C         -0.85300       -4.82200       -1.87400
|  8> C         -0.78200       -5.27100       -0.39100
|  9> N         -1.52400       -4.37000        0.44200
| 10> C         -1.07200       -3.51000        1.36000
| 11> N          0.20800       -3.20800        1.54900
| 12> C         -2.02800       -2.89100        2.04800
| 13> H         -1.90000       -4.55400       -2.06900
| 14> H         -0.63000       -5.67400       -2.51900
| 15> H         -1.27300       -6.24700       -0.29200
| 16> H          0.24900       -5.42100       -0.06400
| 17> H         -2.48400       -4.35500        0.35500
| 18> H          0.84900       -3.52800        0.90500
| 19> H          0.48100       -2.72000        2.32700
| 20> H         -2.93100       -3.19700        1.89100
| 21> H         -1.82800       -2.14000        2.61300
| 22> *
| 23> %MaxCore 64000
| 24> %scf
| 25>   Convergence VeryTight
| 26>   MaxIter 300
| 27> end
| 28> %pal nprocs 8
| 29> end
| 30>
| 31>                          ****END OF INPUT****

CARTESIAN COORDINATES (ANGSTROEM)
---------------------------------
  C      0.047000   -3.609000   -2.276000
  H     -0.087170   -3.394420   -3.315640
  H      1.073090   -3.849410   -2.090960
  H     -0.228800   -2.752770   -1.696600
  C     -0.853000   -4.822000   -1.874000
  C     -0.782000   -5.271000   -0.391000
  N     -1.524000   -4.370000    0.442000
  C     -1.072000   -3.510000    1.360000
  N      0.208000   -3.208000    1.549000
  C     -2.028000   -2.891000    2.048000
  H     -1.900000   -4.554000   -2.069000
  H     -0.630000   -5.674000   -2.519000
  H     -1.273000   -6.247000   -0.292000
  H      0.249000   -5.421000   -0.064000
  H     -2.484000   -4.355000    0.355000
  H      0.849000   -3.528000    0.905000
  H      0.481000   -2.720000    2.327000
  H     -2.931000   -3.197000    1.891000
  H     -1.828000   -2.140000    2.613000

 Total Charge           Charge          ....    0
 Multiplicity           Mult            ....    1
 Number of Electrons    NEL             ....   56
 Basis Dimension        Dim             ....  236

ORBITAL ENERGIES
----------------

  NO   OCC          E(Eh)            E(eV)
   0   2.0000     -14.429290      -392.6410
   1   2.0000     -14.428557      -392.6210
   2   2.0000     -10.343897      -281.4718
   3   2.0000     -10.317081      -280.7420
   4   2.0000     -10.282734      -279.8074
   5   2.0000     -10.269740      -279.4538
   6   2.0000     -10.194094      -277.3954
   7   2.0000      -1.081786       -29.4369
   8   2.0000      -1.004012       -27.3206
   9   2.0000      -0.888368       -24.1737
  10   2.0000      -0.835001       -22.7215
  11   2.0000      -0.775065       -21.0906
  12   2.0000      -0.714057       -19.4305
  13   2.0000      -0.695901       -18.9364
  14   2.0000      -0.651927       -17.7398
  15   2.0000      -0.610936       -16.6244
  16   2.0000      -0.582467       -15.8497
  17   2.0000      -0.551599       -15.0098
  18   2.0000      -0.533397       -14.5145
  19   2.0000      -0.502950       -13.6860
  20   2.0000      -0.491783       -13.3821
  21   2.0000      -0.488984       -13.3059
  22   2.0000      -0.483037       -13.1441
  23   2.0000      -0.444322       -12.0906
  24   2.0000      -0.430792       -11.7224
  25   2.0000      -0.424023       -11.5383
  26   2.0000      -0.344950        -9.3866
  27   2.0000      -0.255936        -6.9644
  28   0.0000       0.092685         2.5221
  29   0.0000       0.115881         3.1533
  30   0.0000       0.123292         3.3550
  31   0.0000       0.126361         3.4385
  32   0.0000       0.146223         3.9789

MULLIKEN ATOMIC CHARGES
-----------------------
   0 C :    0.636836
   1 H :   -0.067037
   2 H :    0.016100
   3 H :   -0.082199
   4 C :   -0.401124
   5 C :    0.700822
   6 N :   -0.362359
   7 C :    0.497888
   8 N :    0.288229
   9 C :    0.816875
  10 H :    0.000020
  11 H :   -0.068715
  12 H :   -0.148853
  13 H :   -0.106562
  14 H :   -0.334081
  15 H :   -0.176233
  16 H :   -0.223110
  17 H :   -0.375817
  18 H :   -0.610684
Sum of atomic charges:   -0.0000000

LOEWDIN ATOMIC CHARGES
----------------------
   0 C :    0.126430
   1 H :   -0.022713
   2 H :   -0.021444
   3 H :   -0.027234
   4 C :   -0.052820
   5 C :    0.063393
   6 N :   -0.008614
   7 C :   -0.198544
   8 N :    0.246653
   9 C :    0.133285
  10 H :    0.016258
  11 H :    0.011496
  12 H :    0.023796
  13 H :    0.026295
  14 H :    0.003659
  15 H :   -0.035704
  16 H :   -0.013847
  17 H :   -0.133093
  18 H :   -0.137254

  Mayer bond orders larger than 0.100000
B(  0-C ,  1-H ) :   0.8201 B(  0-C ,  2-H ) :   0.8126 B(  0-C ,  3-H ) :   0.8660
B(  0-C ,  4-C ) :   1.2300 B(  1-H ,  4-C ) :   0.1896 B(  2-H ,  4-C ) :   0.1851
B(  3-H ,  4-C ) :   0.1960 B(  4-C ,  5-C ) :   1.0951 B(  4-C , 10-H ) :   0.9359
B(  4-C , 11-H ) :   0.9883 B(  4-C , 13-H ) :   0.1237 B(  5-C ,  6-N ) :   0.9623
B(  5-C , 10-H ) :   0.1175 B(  5-C , 12-H ) :   0.9333 B(  5-C , 13-H ) :   0.8107
B(  5-C , 14-H ) :  -0.2411 B(  6-N ,  7-C ) :   0.9926 B(  6-N ,  8-N ) :   0.1571
B(  6-N ,  9-C ) :   0.2456 B(  6-N , 12-H ) :   0.1323 B(  6-N , 13-H ) :   0.1808
B(  6-N , 14-H ) :   1.3346 B(  7-C ,  8-N ) :   1.0539 B(  7-C ,  9-C ) :   1.6803
B(  7-C , 14-H ) :  -0.3103 B(  7-C , 16-H ) :  -0.1728 B(  7-C , 17-H ) :   0.1813
B(  7-C , 18-H ) :   0.2539 B(  8-N ,  9-C ) :   0.1681 B(  8-N , 15-H ) :   1.0565
B(  8-N , 16-H ) :   1.3711 B(  9-C , 17-H ) :   0.7092 B(  9-C , 18-H ) :   0.5187
B( 15-H , 16-H ) :  -0.2509

Dispersion correction           -0.005497510
FINAL SINGLE POINT ENERGY      -306.920534035762

DIPOLE MOMENT
-------------
                                X             Y             Z
Electronic contribution:     -0.23993      -0.30776       3.95006
Nuclear contribution   :      1.21786      -0.38544      -4.85852
                        -----------------------------------------
Total Dipole Moment    :      0.97793      -0.69320      -0.90845
                        -----------------------------------------
Magnitude (a.u.)       :      1.50405
Magnitude (Debye)      :      3.82299

Rotational constants in cm-1:     0.153650     0.050801     0.045749
Rotational constants in MHz :  4606.301280  1522.966539  1371.510215

                             ****ORCA TERMINATED NORMALLY****
TOTAL RUN TIME: 0 days 0 hours 0 minutes 43 seconds 665 msec
