                         Program Version 5.0.0 -  RELEASE  -
|  1> !PBE0 D3BJ RIJCOSX def2-SVPD def2/J TightSCF
|  2> *xyz -1 1
|  3> C          1.44442        5.26658       -0.97546
|  4> O          1.56525        4.23349       -1.86489
|  5> C          0.14812        5.21087       -0.13809
|  6> H          1.47425        6.26464       -1.47692
|  7> H          2.28962        5.30327       -0.26445
|  8> H         -0.69779        5.17417       -0.79230
|  9> H          0.08430        6.08276        0.47887
| 10> H          0.15965        4.33708        0.47938
| 11> *
| 12> %MaxCore 64000
| 13>
| 14> %pal nprocs 4
| 15> end
| 16>
| 17> %scf
| 18>   MaxIter 150
| 19> end
| 20>
| 21>
| 22>                          ****END OF INPUT****

CARTESIAN COORDINATES (ANGSTROEM)
---------------------------------
  C      1.444420    5.266580   -0.975460
  O      1.565250    4.233490   -1.864890
  C      0.148120    5.210870   -0.138090
  H      1.474250    6.264640   -1.476920
  H      2.289620    5.303270   -0.264450
  H     -0.697790    5.174170   -0.792300
  H      0.084300    6.082760    0.478870
  H      0.159650    4.337080    0.479380

 Total Charge           Charge          ....   -1
 Multiplicity           Mult            ....    1
 Number of Electrons    NEL             ....   26
 Basis Dimension        Dim             ....  103

ORBITAL ENERGIES
----------------

  NO   OCC          E(Eh)            E(eV)
   0   2.0000     -18.883740      -513.8527
   1   2.0000     -10.046061      -273.3672
   2   2.0000     -10.024113      -272.7700
   3   2.0000      -0.695150       -18.9160
   4   2.0000      -0.540139       -14.6979
   5   2.0000      -0.384027       -10.4499
   6   2.0000      -0.262189        -7.1345
   7   2.0000      -0.240318        -6.5394
   8   2.0000      -0.186393        -5.0720
   9   2.0000      -0.167799        -4.5660
  10   2.0000      -0.125649        -3.4191
  11   2.0000       0.019452         0.5293
  12   2.0000       0.022577         0.6144
  13   0.0000       0.186047         5.0626
  14   0.0000       0.216961         5.9038
  15   0.0000       0.251284         6.8378
  16   0.0000       0.263903         7.1812
  17   0.0000       0.281750         7.6668

MULLIKEN ATOMIC CHARGES
-----------------------
   0 C :    0.095615
   1 O :   -0.943082
   2 C :    0.114211
   3 H :   -0.089419
   4 H :   -0.121421
   5 H :   -0.033968
   6 H :    0.005803
   7 H :   -0.027739
Sum of atomic charges:   -1.0000000

LOEWDIN ATOMIC CHARGES
----------------------
   0 C :   -0.260103
   1 O :   -0.586099
   2 C :    0.057943
   3 H :   -0.031149
   4 H :   -0.035933
   5 H :   -0.041847
   6 H :   -0.059815
   7 H :   -0.042997

  Mayer bond orders larger than 0.100000
B(  0-C ,  1-O ) :   1.0752 B(  0-C ,  2-C ) :   1.1957 B(  0-C ,  3-H ) :   0.9913
B(  0-C ,  4-H ) :   1.0013 B(  0-C ,  5-H ) :   0.1595 B(  0-C ,  6-H ) :   0.1065
B(  0-C ,  7-H ) :   0.1490 B(  1-O ,  2-C ) :   0.1840 B(  2-C ,  3-H ) :   0.1102
B(  2-C ,  4-H ) :   0.1138 B(  2-C ,  5-H ) :   0.9349 B(  2-C ,  6-H ) :   0.9228
B(  2-C ,  7-H ) :   0.9317

Dispersion correction           -0.003045972
FINAL SINGLE POINT ENERGY      -154.140845350690

DIPOLE MOMENT
-------------
                                X             Y             Z
Electronic contribution:      1.17502      -1.60544      -2.03694
Nuclear contribution   :     -1.83256       2.47114       3.17273
                        -----------------------------------------
Total Dipole Moment    :     -0.65753       0.86570       1.13579
                        -----------------------------------------
Magnitude (a.u.)       :      1.57220
Magnitude (Debye)      :      3.99621

Rotational constants in cm-1:     1.286062     0.322579     0.284728
Rotational constants in MHz : 38555.180127  9670.683110  8535.939140

                             ****ORCA TERMINATED NORMALLY****
TOTAL RUN TIME: 0 days 0 hours 0 minutes 12 seconds 792 msec
