                         Program Version 5.0.0 -  RELEASE  -
|  1> !PBE0 D3BJ RIJCOSX def2-SVPD def2/J TightSCF
|  2> *xyz 1 1
|  3> C         -0.70169        4.07250       -4.00392
|  4> N          0.68053        4.61482       -4.04800
|  5> H          0.69993        5.58489       -4.38827
|  6> H          1.27804        4.05598       -4.66824
|  7> H          1.08573        4.53358       -3.10652
|  8> C         -1.70347        5.09320       -3.47740
|  9> H         -0.99590        3.74039       -5.00065
| 10> H         -0.64358        3.20191       -3.35153
| 11> H         -1.73704        5.93384       -4.13853
| 12> H         -1.40338        5.41759       -2.50291
| 13> H         -2.67335        4.64479       -3.42108
| 14> *
| 15> %MaxCore 64000
| 16>
| 17> %pal nprocs 4
| 18> end
| 19>
| 20> %scf
| 21>   MaxIter 150
| 22> end
| 23>
| 24>
| 25>                          ****END OF INPUT****

CARTESIAN COORDINATES (ANGSTROEM)
---------------------------------
  C     -0.701690    4.072500   -4.003920
  N      0.680530    4.614820   -4.048000
  H      0.699930    5.584890   -4.388270
  H      1.278040    4.055980   -4.668240
  H      1.085730    4.533580   -3.106520
  C     -1.703470    5.093200   -3.477400
  H     -0.995900    3.740390   -5.000650
  H     -0.643580    3.201910   -3.351530
  H     -1.737040    5.933840   -4.138530
  H     -1.403380    5.417590   -2.502910
  H     -2.673350    4.644790   -3.421080

 Total Charge           Charge          ....    1
 Multiplicity           Mult            ....    1
 Number of Electrons    NEL             ....   26
 Basis Dimension        Dim             ....  124

ORBITAL ENERGIES
----------------

  NO   OCC          E(Eh)            E(eV)
   0   2.0000     -14.733409      -400.9165
   1   2.0000     -10.487772      -285.3868
   2   2.0000     -10.408809      -283.2381
   3   2.0000      -1.236317       -33.6419
   4   2.0000      -0.983089       -26.7512
   5   2.0000      -0.861163       -23.4334
   6   2.0000      -0.822205       -22.3733
   7   2.0000      -0.803911       -21.8755
   8   2.0000      -0.713020       -19.4023
   9   2.0000      -0.657337       -17.8871
  10   2.0000      -0.597770       -16.2661
  11   2.0000      -0.581381       -15.8202
  12   2.0000      -0.563604       -15.3364
  13   0.0000      -0.185669        -5.0523
  14   0.0000      -0.127684        -3.4745
  15   0.0000      -0.123051        -3.3484
  16   0.0000      -0.113999        -3.1021
  17   0.0000      -0.083711        -2.2779

MULLIKEN ATOMIC CHARGES
-----------------------
   0 C :    0.105672
   1 N :   -0.862917
   2 H :    0.424709
   3 H :    0.375662
   4 H :    0.428350
   5 C :    0.427226
   6 H :   -0.009013
   7 H :   -0.017019
   8 H :    0.029701
   9 H :    0.053543
  10 H :    0.044086
Sum of atomic charges:    1.0000000

LOEWDIN ATOMIC CHARGES
----------------------
   0 C :    0.048289
   1 N :    0.325561
   2 H :    0.108310
   3 H :    0.107318
   4 H :    0.110100
   5 C :    0.168358
   6 H :    0.055544
   7 H :    0.054188
   8 H :    0.002466
   9 H :    0.002516
  10 H :    0.017350

  Mayer bond orders larger than 0.100000
B(  0-C ,  1-N ) :   0.7417 B(  0-C ,  5-C ) :   1.3377 B(  0-C ,  6-H ) :   0.9656
B(  0-C ,  7-H ) :   0.9349 B(  0-C ,  8-H ) :   0.1334 B(  0-C ,  9-H ) :   0.1253
B(  0-C , 10-H ) :   0.1627 B(  1-N ,  2-H ) :   0.6851 B(  1-N ,  3-H ) :   0.7653
B(  1-N ,  4-H ) :   0.6965 B(  1-N ,  7-H ) :   0.1120 B(  5-C ,  8-H ) :   0.8620
B(  5-C ,  9-H ) :   0.8527 B(  5-C , 10-H ) :   0.8434

Dispersion correction           -0.005014749
FINAL SINGLE POINT ENERGY      -135.282813491651

DIPOLE MOMENT
-------------
                                X             Y             Z
Electronic contribution:      1.76626      -0.32787      -0.45437
Nuclear contribution   :     -0.23930       0.27560       0.19485
                        -----------------------------------------
Total Dipole Moment    :      1.52695      -0.05227      -0.25951
                        -----------------------------------------
Magnitude (a.u.)       :      1.54973
Magnitude (Debye)      :      3.93911

Rotational constants in cm-1:     1.018556     0.279088     0.248454
Rotational constants in MHz : 30535.536069  8366.847891  7448.451392

                             ****ORCA TERMINATED NORMALLY****
TOTAL RUN TIME: 0 days 0 hours 0 minutes 13 seconds 842 msec
