                         Program Version 5.0.0 -  RELEASE  -
|  1> !PBE0 D3BJ RIJCOSX def2-SVPD def2/J TightSCF
|  2> *xyz 0 1
|  3> C          1.44442        5.26658       -0.97546
|  4> F          1.56525        4.23349       -1.86489
|  5> C          0.14812        5.21087       -0.13809
|  6> H          1.47425        6.26464       -1.47692
|  7> H          2.28962        5.30327       -0.26445
|  8> H         -0.69779        5.17417       -0.79230
|  9> H          0.08430        6.08276        0.47887
| 10> H          0.15965        4.33708        0.47938
| 11> *
| 12> %MaxCore 64000
| 13>
| 14> %pal nprocs 4
| 15> end
| 16>
| 17> %scf
| 18>   MaxIter 150
| 19> end
| 20>
| 21>
| 22>                          ****END OF INPUT****

CARTESIAN COORDINATES (ANGSTROEM)
---------------------------------
  C      1.444420    5.266580   -0.975460
  F      1.565250    4.233490   -1.864890
  C      0.148120    5.210870   -0.138090
  H      1.474250    6.264640   -1.476920
  H      2.289620    5.303270   -0.264450
  H     -0.697790    5.174170   -0.792300
  H      0.084300    6.082760    0.478870
  H      0.159650    4.337080    0.479380

 Total Charge           Charge          ....    0
 Multiplicity           Mult            ....    1
 Number of Electrons    NEL             ....   26
 Basis Dimension        Dim             ....  103

ORBITAL ENERGIES
----------------

  NO   OCC          E(Eh)            E(eV)
   0   2.0000     -24.773648      -674.1252
   1   2.0000     -10.314502      -280.6719
   2   2.0000     -10.230399      -278.3833
   3   2.0000      -1.217145       -33.1202
   4   2.0000      -0.780906       -21.2495
   5   2.0000      -0.647840       -17.6286
   6   2.0000      -0.528498       -14.3811
   7   2.0000      -0.512519       -13.9464
   8   2.0000      -0.477680       -12.9983
   9   2.0000      -0.421865       -11.4795
  10   2.0000      -0.416042       -11.3211
  11   2.0000      -0.352442        -9.5904
  12   2.0000      -0.344364        -9.3706
  13   0.0000       0.030018         0.8168
  14   0.0000       0.061718         1.6794
  15   0.0000       0.083461         2.2711
  16   0.0000       0.090232         2.4553
  17   0.0000       0.115573         3.1449

MULLIKEN ATOMIC CHARGES
-----------------------
   0 C :    0.349578
   1 F :   -0.481461
   2 C :    0.155910
   3 H :    0.004726
   4 H :   -0.028660
   5 H :   -0.012187
   6 H :    0.017051
   7 H :   -0.004958
Sum of atomic charges:   -0.0000000

LOEWDIN ATOMIC CHARGES
----------------------
   0 C :    0.066447
   1 F :   -0.222335
   2 C :    0.132449
   3 H :    0.035046
   4 H :    0.028353
   5 H :   -0.013505
   6 H :   -0.012110
   7 H :   -0.014346

  Mayer bond orders larger than 0.100000
B(  0-C ,  1-F ) :   0.6969 B(  0-C ,  2-C ) :   1.3416 B(  0-C ,  3-H ) :   0.9527
B(  0-C ,  4-H ) :   0.9624 B(  0-C ,  5-H ) :   0.1196 B(  0-C ,  7-H ) :   0.1130
B(  2-C ,  5-H ) :   0.9154 B(  2-C ,  6-H ) :   0.8830 B(  2-C ,  7-H ) :   0.9139

Dispersion correction           -0.002807364
FINAL SINGLE POINT ENERGY      -178.741785811008

DIPOLE MOMENT
-------------
                                X             Y             Z
Electronic contribution:      2.29768      -2.73389      -3.69170
Nuclear contribution   :     -2.43357       3.25919       4.19687
                        -----------------------------------------
Total Dipole Moment    :     -0.13589       0.52530       0.50517
                        -----------------------------------------
Magnitude (a.u.)       :      0.74135
Magnitude (Debye)      :      1.88437

Rotational constants in cm-1:     1.264662     0.300144     0.266170
Rotational constants in MHz : 37913.611527  8998.095216  7979.576054

                             ****ORCA TERMINATED NORMALLY****
TOTAL RUN TIME: 0 days 0 hours 0 minutes 5 seconds 128 msec
