                         Program Version 5.0.0 -  RELEASE  -
|  1> !PBE0 D3BJ RIJCOSX def2-SVPD def2/J TightSCF
|  2> *xyz 0 1
|  3> C         -0.70169        4.07250       -4.00392
|  4> C          0.68053        4.61482       -4.04800
|  5> H          0.69993        5.58489       -4.38827
|  6> H          1.27804        4.05598       -4.66824
|  7> H          1.08573        4.53358       -3.10652
|  8> C         -1.70347        5.09320       -3.47740
|  9> H         -0.99590        3.74039       -5.00065
| 10> H         -0.64358        3.20191       -3.35153
| 11> H         -1.73704        5.93384       -4.13853
| 12> H         -1.40338        5.41759       -2.50291
| 13> H         -2.67335        4.64479       -3.42108
| 14> *
| 15> %MaxCore 64000
| 16>
| 17> %pal nprocs 4
| 18> end
| 19>
| 20> %scf
| 21>   MaxIter 150
| 22> end
| 23>
| 24>
| 25>                          ****END OF INPUT****

CARTESIAN COORDINATES (ANGSTROEM)
---------------------------------
  C     -0.701690    4.072500   -4.003920
  C      0.680530    4.614820   -4.048000
  H      0.699930    5.584890   -4.388270
  H      1.278040    4.055980   -4.668240
  H      1.085730    4.533580   -3.106520
  C     -1.703470    5.093200   -3.477400
  H     -0.995900    3.740390   -5.000650
  H     -0.643580    3.201910   -3.351530
  H     -1.737040    5.933840   -4.138530
  H     -1.403380    5.417590   -2.502910
  H     -2.673350    4.644790   -3.421080

 Total Charge           Charge          ....    0
 Multiplicity           Mult            ....    1
 Number of Electrons    NEL             ....   26
 Basis Dimension        Dim             ....  124

ORBITAL ENERGIES
----------------

  NO   OCC          E(Eh)            E(eV)
   0   2.0000     -10.219511      -278.0870
   1   2.0000     -10.210977      -277.8548
   2   2.0000     -10.193205      -277.3712
   3   2.0000      -0.809198       -22.0194
   4   2.0000      -0.705331       -19.1930
   5   2.0000      -0.597380       -16.2555
   6   2.0000      -0.483894       -13.1674
   7   2.0000      -0.458997       -12.4899
   8   2.0000      -0.415814       -11.3149
   9   2.0000      -0.404063       -10.9951
  10   2.0000      -0.349695        -9.5157
  11   2.0000      -0.345784        -9.4093
  12   2.0000      -0.336940        -9.1686
  13   0.0000       0.034183         0.9302
  14   0.0000       0.063385         1.7248
  15   0.0000       0.070124         1.9082
  16   0.0000       0.091638         2.4936
  17   0.0000       0.111455         3.0328

MULLIKEN ATOMIC CHARGES
-----------------------
   0 C :   -0.754307
   1 C :    0.788216
   2 H :   -0.171699
   3 H :   -0.133355
   4 H :   -0.092920
   5 C :    0.475318
   6 H :   -0.050496
   7 H :   -0.028779
   8 H :    0.011220
   9 H :   -0.009806
  10 H :   -0.033392
Sum of atomic charges:   -0.0000000

LOEWDIN ATOMIC CHARGES
----------------------
   0 C :   -0.126453
   1 C :    0.108803
   2 H :   -0.028895
   3 H :   -0.032705
   4 H :   -0.026742
   5 C :    0.111178
   6 H :    0.022191
   7 H :    0.022218
   8 H :   -0.015262
   9 H :   -0.013962
  10 H :   -0.020370

  Mayer bond orders larger than 0.100000
B(  0-C ,  1-C ) :   1.2923 B(  0-C ,  2-H ) :   0.1856 B(  0-C ,  3-H ) :   0.1865
B(  0-C ,  4-H ) :   0.2423 B(  0-C ,  5-C ) :   1.2668 B(  0-C ,  6-H ) :   0.9840
B(  0-C ,  7-H ) :   0.9620 B(  0-C ,  8-H ) :   0.1425 B(  0-C ,  9-H ) :   0.1685
B(  0-C , 10-H ) :   0.1652 B(  1-C ,  2-H ) :   0.8010 B(  1-C ,  3-H ) :   0.7619
B(  1-C ,  4-H ) :   0.7331 B(  1-C ,  7-H ) :   0.1125 B(  5-C ,  8-H ) :   0.8573
B(  5-C ,  9-H ) :   0.8651 B(  5-C , 10-H ) :   0.8551

Dispersion correction           -0.005034410
FINAL SINGLE POINT ENERGY      -118.895449780650

DIPOLE MOMENT
-------------
                                X             Y             Z
Electronic contribution:     -0.13557      -0.31003      -0.13661
Nuclear contribution   :      0.16058       0.27975       0.12812
                        -----------------------------------------
Total Dipole Moment    :      0.02501      -0.03028      -0.00849
                        -----------------------------------------
Magnitude (a.u.)       :      0.04018
Magnitude (Debye)      :      0.10213

Rotational constants in cm-1:     1.027122     0.293327     0.260229
Rotational constants in MHz : 30792.337141  8793.723318  7801.458329

                             ****ORCA TERMINATED NORMALLY****
TOTAL RUN TIME: 0 days 0 hours 0 minutes 12 seconds 729 msec
