                         Program Version 5.0.0 -  RELEASE  -
|  1> !PBE0 D3BJ RIJCOSX def2-SVPD def2/J TightSCF xyzfile
|  2>
|  3> *xyzfile 0 1 D.xyz
|  4>
|  5> %MaxCore 64000
|  6>
|  7> %pal nprocs 4
|  8> end
|  9>
| 10> %scf
| 11>   MaxIter 150
| 12> end
| 13>
| 14>
| 15>                          ****END OF INPUT****

CARTESIAN COORDINATES (ANGSTROEM)
---------------------------------
  C     -0.701686    4.072499   -4.003920
  C      0.680528    4.614820   -4.048005
  C      1.444422    5.266576   -0.975463
  F      1.565248    4.233493   -1.864885
  H      0.699926    5.584890   -4.388272
  H      1.278044    4.055977   -4.668235
  H      1.085729    4.533581   -3.106524
  C     -1.703475    5.093197   -3.477396
  H     -0.995895    3.740394   -5.000654
  H     -0.643580    3.201910   -3.351533
  C     -1.313997    5.785995   -2.169271
  H     -1.877057    5.850103   -4.251154
  H     -2.653264    4.564475   -3.354796
  H     -2.097137    6.509395   -1.929558
  H     -0.416875    6.387594   -2.339097
  C     -1.073895    4.844728   -0.979904
  H     -1.968893    4.809608   -0.352568
  C      0.148120    5.210874   -0.138092
  H     -0.909754    3.827531   -1.338975
  H      1.474250    6.264638   -1.476917
  H      2.289622    5.303267   -0.264450
  H      0.261827    4.450942    0.640711
  H     -0.002516    6.171031    0.371483

 Total Charge           Charge          ....    0
 Multiplicity           Mult            ....    1
 Number of Electrons    NEL             ....   66
 Basis Dimension        Dim             ....  283

ORBITAL ENERGIES
----------------

  NO   OCC          E(Eh)            E(eV)
   0   2.0000     -24.793741      -674.6720
   1   2.0000     -10.321540      -280.8634
   2   2.0000     -10.244258      -278.7604
   3   2.0000     -10.229635      -278.3625
   4   2.0000     -10.223039      -278.1830
   5   2.0000     -10.215990      -277.9912
   6   2.0000     -10.203420      -277.6492
   7   2.0000     -10.148737      -276.1612
   8   2.0000      -1.250229       -34.0205
   9   2.0000      -0.832495       -22.6534
  10   2.0000      -0.801744       -21.8166
  11   2.0000      -0.739977       -20.1358
  12   2.0000      -0.707254       -19.2454
  13   2.0000      -0.645411       -17.5625
  14   2.0000      -0.612605       -16.6698
  15   2.0000      -0.556878       -15.1534
  16   2.0000      -0.553463       -15.0605
  17   2.0000      -0.538824       -14.6622
  18   2.0000      -0.510617       -13.8946
  19   2.0000      -0.474383       -12.9086
  20   2.0000      -0.467858       -12.7311
  21   2.0000      -0.443189       -12.0598
  22   2.0000      -0.429051       -11.6751
  23   2.0000      -0.403561       -10.9815
  24   2.0000      -0.394495       -10.7348
  25   2.0000      -0.381670       -10.3858
  26   2.0000      -0.372948       -10.1484
  27   2.0000      -0.352058        -9.5800
  28   2.0000      -0.343351        -9.3431
  29   2.0000      -0.327911        -8.9229
  30   2.0000      -0.314998        -8.5715
  31   2.0000      -0.311902        -8.4873
  32   2.0000      -0.289154        -7.8683
  33   0.0000       0.025969         0.7066
  34   0.0000       0.040147         1.0925
  35   0.0000       0.046252         1.2586
  36   0.0000       0.055371         1.5067
  37   0.0000       0.069950         1.9034

MULLIKEN ATOMIC CHARGES
-----------------------
   0 C :   -0.352993
   1 C :    2.346710
   2 C :    0.670513
   3 F :   -0.634375
   4 H :   -0.123141
   5 H :    0.070623
   6 H :   -1.771085
   7 C :    0.153169
   8 H :   -0.297073
   9 H :    0.131331
  10 C :   -0.139116
  11 H :    0.155655
  12 H :   -0.065725
  13 H :   -0.150419
  14 H :    0.090560
  15 C :    0.037827
  16 H :   -0.181460
  17 C :   -0.050782
  18 H :    0.125455
  19 H :    0.275665
  20 H :   -0.279226
  21 H :    0.033887
  22 H :   -0.046003
Sum of atomic charges:   -0.0000000

LOEWDIN ATOMIC CHARGES
----------------------
   0 C :   -0.061834
   1 C :    0.137724
   2 C :    0.156502
   3 F :   -0.184922
   4 H :   -0.022632
   5 H :   -0.023618
   6 H :   -0.171016
   7 C :   -0.038252
   8 H :    0.019940
   9 H :    0.013150
  10 C :   -0.020078
  11 H :    0.026806
  12 H :    0.019894
  13 H :    0.019953
  14 H :   -0.002003
  15 C :   -0.019338
  16 H :    0.023366
  17 C :   -0.015937
  18 H :    0.009348
  19 H :    0.039476
  20 H :    0.034658
  21 H :    0.024102
  22 H :    0.034710

  Mayer bond orders larger than 0.100000
B(  0-C ,  1-C ) :   0.8518 B(  0-C ,  4-H ) :   0.3204 B(  0-C ,  5-H ) :   0.1449
B(  0-C ,  6-H ) :   0.6051 B(  0-C ,  7-C ) :   1.1772 B(  0-C ,  8-H ) :   1.0798
B(  0-C ,  9-H ) :   0.7570 B(  0-C , 11-H ) :   0.1256 B(  0-C , 12-H ) :   0.1513
B(  1-C ,  3-F ) :  -0.2709 B(  1-C ,  4-H ) :   0.1081 B(  1-C ,  5-H ) :   0.6480
B(  1-C ,  6-H ) :  -2.2243 B(  1-C ,  9-H ) :   0.1944 B(  2-C ,  3-F ) :   0.5717
B(  2-C ,  6-H ) :   0.1620 B(  2-C , 17-C ) :   1.2546 B(  2-C , 19-H ) :   0.7507
B(  2-C , 20-H ) :   1.0262 B(  3-F ,  6-H ) :   0.4472 B(  4-H ,  5-H ) :  -0.1941
B(  4-H ,  6-H ) :   0.6845 B(  4-H ,  8-H ) :   0.1871 B(  5-H ,  6-H ) :   0.2188
B(  5-H ,  8-H ) :  -0.1121 B(  7-C ,  9-H ) :   0.1536 B(  7-C , 10-C ) :   1.2883
B(  7-C , 11-H ) :   0.7149 B(  7-C , 12-H ) :   0.8958 B(  7-C , 13-H ) :   0.1362
B(  7-C , 14-H ) :   0.1094 B(  8-H ,  9-H ) :  -0.1678 B( 10-C , 11-H ) :   0.1727
B( 10-C , 12-H ) :   0.1415 B( 10-C , 13-H ) :   0.8572 B( 10-C , 14-H ) :   0.8822
B( 10-C , 15-C ) :   1.1959 B( 10-C , 16-H ) :   0.1951 B( 13-H , 15-C ) :   0.1407
B( 15-C , 16-H ) :   0.9033 B( 15-C , 17-C ) :   1.2523 B( 15-C , 18-H ) :   0.8404
B( 15-C , 21-H ) :   0.1709 B( 17-C , 20-H ) :   0.1530 B( 17-C , 21-H ) :   0.7795
B( 17-C , 22-H ) :   0.9395

Dispersion correction           -0.018320546
FINAL SINGLE POINT ENERGY      -374.888512540646

DIPOLE MOMENT
-------------
                                X             Y             Z
Electronic contribution:      5.12424      -2.26272       2.78499
Nuclear contribution   :     -5.08831       2.68947      -1.99048
                        -----------------------------------------
Total Dipole Moment    :      0.03593       0.42675       0.79452
                        -----------------------------------------
Magnitude (a.u.)       :      0.90259
Magnitude (Debye)      :      2.29420

Rotational constants in cm-1:     0.084646     0.055672     0.038419
Rotational constants in MHz :  2537.625105  1668.992890  1151.781380

                             ****ORCA TERMINATED NORMALLY****
TOTAL RUN TIME: 0 days 0 hours 1 minutes 0 seconds 113 msec
