                         Program Version 5.0.0 -  RELEASE  -
|  1> !PBE0 D3BJ RIJCOSX def2-TZVPD def2/J TightSCF
|  2> *xyz -1 1
|  3> C          4.93020       -7.37532       -2.64962
|  4> C          3.84189       -6.95161       -3.63283
|  5> H          3.45814       -5.95442       -3.40712
|  6> H          2.98848       -7.64361       -3.56708
|  7> S          4.31812       -6.91593       -5.36869
|  8> O          5.40615       -5.89948       -5.51297
|  9> O          3.11191       -6.44508       -6.04379
| 10> O          4.76340       -8.23942       -5.69863
| 11> H          5.27901       -8.35440       -2.90385
| 12> H          4.53000       -7.38577       -1.65734
| 13> H          5.74437       -6.68276       -2.69856
| 14> *
| 15>
| 16> %MaxCore 64000
| 17>
| 18> %pal nprocs 4
| 19> end
| 20>
| 21> %scf
| 22>   MaxIter 150
| 23> end
| 24>
| 25>
| 26>                          ****END OF INPUT****

CARTESIAN COORDINATES (ANGSTROEM)
---------------------------------
  C      4.930200   -7.375320   -2.649620
  C      3.841890   -6.951610   -3.632830
  H      3.458140   -5.954420   -3.407120
  H      2.988480   -7.643610   -3.567080
  S      4.318120   -6.915930   -5.368690
  O      5.406150   -5.899480   -5.512970
  O      3.111910   -6.445080   -6.043790
  O      4.763400   -8.239420   -5.698630
  H      5.279010   -8.354400   -2.903850
  H      4.530000   -7.385770   -1.657340
  H      5.744370   -6.682760   -2.698560

 Total Charge           Charge          ....   -1
 Multiplicity           Mult            ....    1
 Number of Electrons    NEL             ....   58
 Basis Dimension        Dim             ....  285

ORBITAL ENERGIES
----------------

  NO   OCC          E(Eh)            E(eV)
   0   2.0000     -89.001277     -2421.8479
   1   2.0000     -18.989858      -516.7403
   2   2.0000     -18.980929      -516.4973
   3   2.0000     -18.973678      -516.3000
   4   2.0000     -10.086382      -274.4644
   5   2.0000     -10.076632      -274.1991
   6   2.0000      -7.946836      -216.2444
   7   2.0000      -5.884137      -160.1155
   8   2.0000      -5.882979      -160.0840
   9   2.0000      -5.882678      -160.0758
  10   2.0000      -0.948685       -25.8150
  11   2.0000      -0.820989       -22.3402
  12   2.0000      -0.791560       -21.5395
  13   2.0000      -0.656502       -17.8643
  14   2.0000      -0.527100       -14.3431
  15   2.0000      -0.400581       -10.9004
  16   2.0000      -0.332275        -9.0417
  17   2.0000      -0.328485        -8.9385
  18   2.0000      -0.289720        -7.8837
  19   2.0000      -0.276113        -7.5134
  20   2.0000      -0.268136        -7.2963
  21   2.0000      -0.243280        -6.6200
  22   2.0000      -0.225540        -6.1373
  23   2.0000      -0.164078        -4.4648
  24   2.0000      -0.162828        -4.4308
  25   2.0000      -0.129471        -3.5231
  26   2.0000      -0.119630        -3.2553
  27   2.0000      -0.111659        -3.0384
  28   2.0000      -0.075156        -2.0451
  29   0.0000       0.127798         3.4776
  30   0.0000       0.149308         4.0629
  31   0.0000       0.153995         4.1904
  32   0.0000       0.163360         4.4452
  33   0.0000       0.179559         4.8860

MULLIKEN ATOMIC CHARGES
-----------------------
   0 C :   -0.826959
   1 C :   -0.141340
   2 H :    0.166841
   3 H :    0.168066
   4 S :    1.087700
   5 O :   -0.718445
   6 O :   -0.686100
   7 O :   -0.670836
   8 H :    0.216299
   9 H :    0.185992
  10 H :    0.218782
Sum of atomic charges:   -1.0000000

LOEWDIN ATOMIC CHARGES
----------------------
   0 C :   -0.149228
   1 C :   -0.333869
   2 H :    0.083668
   3 H :    0.087371
   4 S :    0.349014
   5 O :   -0.423012
   6 O :   -0.405040
   7 O :   -0.377443
   8 H :    0.059366
   9 H :    0.048871
  10 H :    0.060301

  Mayer bond orders larger than 0.100000
B(  0-C ,  1-C ) :   0.9087 B(  0-C ,  8-H ) :   0.9875 B(  0-C ,  9-H ) :   0.9746
B(  0-C , 10-H ) :   0.9892 B(  1-C ,  2-H ) :   0.9716 B(  1-C ,  3-H ) :   0.9618
B(  1-C ,  4-S ) :   0.8231 B(  1-C ,  5-O ) :   0.1131 B(  1-C ,  6-O ) :   0.1373
B(  1-C ,  7-O ) :   0.1130 B(  4-S ,  5-O ) :   1.4887 B(  4-S ,  6-O ) :   1.5250
B(  4-S ,  7-O ) :   1.5658

Dispersion correction           -0.008216202
FINAL SINGLE POINT ENERGY      -702.846831440780

DIPOLE MOMENT
-------------
                                X             Y             Z
Electronic contribution:     -0.36141       0.80600      -7.81826
Nuclear contribution   :      0.07504      -1.14369       9.75001
                        -----------------------------------------
Total Dipole Moment    :     -0.28637      -0.33769       1.93174
                        -----------------------------------------
Magnitude (a.u.)       :      1.98184
Magnitude (Debye)      :      5.03743

Rotational constants in cm-1:     0.160553     0.082191     0.080550
Rotational constants in MHz :  4813.250478  2464.013016  2414.833054

                             ****ORCA TERMINATED NORMALLY****
TOTAL RUN TIME: 0 days 0 hours 0 minutes 46 seconds 468 msec
