                         Program Version 5.0.0 -  RELEASE  -
|  1> !PBE0 D3BJ RIJCOSX def2-TZVPD def2/J TightSCF
|  2> *xyz 1 1
|  3> C          5.55821       -1.99291       -6.21505
|  4> C          4.18188       -2.58967       -6.29891
|  5> N          3.14587       -1.76843       -6.48675
|  6> N          4.01910       -3.86431       -6.22743
|  7> H          4.76849       -4.59115       -5.99077
|  8> H          3.12241       -4.33339       -6.31462
|  9> H          3.28164       -0.77779       -6.56655
| 10> H          2.21255       -2.13419       -6.56225
| 11> C          6.41926       -2.54294       -5.07763
| 12> H          6.03683       -2.19819       -7.17685
| 13> H          5.46761       -0.90737       -6.12797
| 14> H          6.50056       -3.60553       -5.17358
| 15> H          5.96544       -2.30329       -4.13874
| 16> H          7.39438       -2.10494       -5.12457
| 17> *
| 18>
| 19> %MaxCore 64000
| 20>
| 21> %pal nprocs 4
| 22> end
| 23>
| 24> %scf
| 25>   MaxIter 150
| 26> end
| 27>
| 28>
| 29>                          ****END OF INPUT****

CARTESIAN COORDINATES (ANGSTROEM)
---------------------------------
  C      5.558210   -1.992910   -6.215050
  C      4.181880   -2.589670   -6.298910
  N      3.145870   -1.768430   -6.486750
  N      4.019100   -3.864310   -6.227430
  H      4.768490   -4.591150   -5.990770
  H      3.122410   -4.333390   -6.314620
  H      3.281640   -0.777790   -6.566550
  H      2.212550   -2.134190   -6.562250
  C      6.419260   -2.542940   -5.077630
  H      6.036830   -2.198190   -7.176850
  H      5.467610   -0.907370   -6.127970
  H      6.500560   -3.605530   -5.173580
  H      5.965440   -2.303290   -4.138740
  H      7.394380   -2.104940   -5.124570

 Total Charge           Charge          ....    1
 Multiplicity           Mult            ....    1
 Number of Electrons    NEL             ....   40
 Basis Dimension        Dim             ....  266

ORBITAL ENERGIES
----------------

  NO   OCC          E(Eh)            E(eV)
   0   2.0000     -14.634826      -398.2339
   1   2.0000     -14.623697      -397.9310
   2   2.0000     -10.544973      -286.9433
   3   2.0000     -10.420064      -283.5444
   4   2.0000     -10.374496      -282.3044
   5   2.0000      -1.230828       -33.4925
   6   2.0000      -1.131577       -30.7918
   7   2.0000      -0.991961       -26.9926
   8   2.0000      -0.887001       -24.1365
   9   2.0000      -0.833771       -22.6881
  10   2.0000      -0.789732       -21.4897
  11   2.0000      -0.762639       -20.7525
  12   2.0000      -0.711596       -19.3635
  13   2.0000      -0.667692       -18.1688
  14   2.0000      -0.636777       -17.3276
  15   2.0000      -0.616476       -16.7752
  16   2.0000      -0.562262       -15.2999
  17   2.0000      -0.551953       -15.0194
  18   2.0000      -0.536122       -14.5886
  19   2.0000      -0.504359       -13.7243
  20   0.0000      -0.203196        -5.5293
  21   0.0000      -0.159696        -4.3456
  22   0.0000      -0.125160        -3.4058
  23   0.0000      -0.113427        -3.0865
  24   0.0000      -0.093721        -2.5503

MULLIKEN ATOMIC CHARGES
-----------------------
   0 C :   -0.022404
   1 C :    0.464764
   2 N :   -0.209155
   3 N :   -0.205453
   4 H :    0.216507
   5 H :    0.200726
   6 H :    0.214012
   7 H :    0.169207
   8 C :   -0.929198
   9 H :    0.188746
  10 H :    0.170454
  11 H :    0.294812
  12 H :    0.247685
  13 H :    0.199296
Sum of atomic charges:    1.0000000

LOEWDIN ATOMIC CHARGES
----------------------
   0 C :   -0.145288
   1 C :   -0.364231
   2 N :    0.225844
   3 N :    0.218211
   4 H :    0.188786
   5 H :    0.150108
   6 H :    0.137706
   7 H :    0.138891
   8 C :   -0.061646
   9 H :    0.142971
  10 H :    0.126912
  11 H :    0.065751
  12 H :    0.087479
  13 H :    0.088504

  Mayer bond orders larger than 0.100000
B(  0-C ,  1-C ) :   0.8800 B(  0-C ,  8-C ) :   0.7932 B(  0-C ,  9-H ) :   0.8872
B(  0-C , 10-H ) :   0.9512 B(  1-C ,  2-N ) :   1.2577 B(  1-C ,  3-N ) :   1.3288
B(  2-N ,  6-H ) :   0.9534 B(  2-N ,  7-H ) :   1.0316 B(  3-N ,  4-H ) :   0.9368
B(  3-N ,  5-H ) :   0.9868 B(  8-C , 11-H ) :   0.9324 B(  8-C , 12-H ) :   0.9682
B(  8-C , 13-H ) :   1.0063

Dispersion correction           -0.008442500
FINAL SINGLE POINT ENERGY      -228.850011527098

DIPOLE MOMENT
-------------
                                X             Y             Z
Electronic contribution:     -3.76143      -0.47151      -1.56130
Nuclear contribution   :      2.76041       0.12669       1.26265
                        -----------------------------------------
Total Dipole Moment    :     -1.00102      -0.34482      -0.29865
                        -----------------------------------------
Magnitude (a.u.)       :      1.10006
Magnitude (Debye)      :      2.79613

Rotational constants in cm-1:     0.280918     0.124524     0.094121
Rotational constants in MHz :  8421.697738  3733.133254  2821.684112

                             ****ORCA TERMINATED NORMALLY****
TOTAL RUN TIME: 0 days 0 hours 0 minutes 42 seconds 439 msec
