                         Program Version 5.0.0 -  RELEASE  -
|  1> !PBE0 D3BJ RIJCOSX def2-TZVPD def2/J TightSCF xyzfile
|  2>
|  3> *xyzfile 0 1 B.xyz
|  4>
|  5> %MaxCore 64000
|  6>
|  7> %pal nprocs 4
|  8> end
|  9>
| 10> %scf
| 11>   MaxIter 150
| 12> end
| 13>
| 14>
| 15>                          ****END OF INPUT****

CARTESIAN COORDINATES (ANGSTROEM)
---------------------------------
  C      5.558206   -1.992914   -6.215054
  C      4.930199   -7.375319   -2.649623
  C      3.841892   -6.951611   -3.632829
  H      3.458144   -5.954425   -3.407121
  H      2.988484   -7.643606   -3.567078
  S      4.318115   -6.915930   -5.368692
  C      4.181880   -2.589671   -6.298911
  N      3.145873   -1.768431   -6.486753
  N      4.019102   -3.864307   -6.227427
  H      4.768490   -4.591153   -5.990773
  H      3.122405   -4.333392   -6.314620
  H      3.281635   -0.777786   -6.566549
  H      2.212549   -2.134193   -6.562246
  O      5.406154   -5.899480   -5.512972
  O      3.111910   -6.445079   -6.043792
  C      6.419260   -2.542944   -5.077630
  C      5.872267   -5.002756   -2.427819
  C      6.173994   -6.485522   -2.606315
  H      6.734852   -6.613767   -3.534015
  H      6.821463   -6.831018   -1.793617
  H      4.469612   -7.406168   -1.655876
  H      5.230134   -8.398678   -2.885906
  C      5.896512   -2.169314   -3.694552
  H      7.428880   -2.143665   -5.208078
  H      6.505894   -3.627541   -5.175502
  C      6.807804   -2.623428   -2.551019
  H      4.894708   -2.589732   -3.557501
  H      5.778823   -1.081255   -3.635790
  C      7.111544   -4.122463   -2.520363
  H      7.751615   -2.071393   -2.614406
  H      6.345837   -2.326401   -1.604086
  H      5.362882   -4.828697   -1.471335
  H      5.174429   -4.702577   -3.211298
  H      7.778329   -4.329347   -1.677651
  H      7.673189   -4.402845   -3.417586
  O      4.763396   -8.239424   -5.698629
  H      6.036826   -2.198189   -7.176852
  H      5.467610   -0.907371   -6.127968

 Total Charge           Charge          ....    0
 Multiplicity           Mult            ....    1
 Number of Electrons    NEL             ....  136
 Basis Dimension        Dim             ....  808

ORBITAL ENERGIES
----------------

  NO   OCC          E(Eh)            E(eV)
   0   2.0000     -89.156250     -2426.0649
   1   2.0000     -19.150946      -521.1237
   2   2.0000     -19.138927      -520.7967
   3   2.0000     -19.132912      -520.6330
   4   2.0000     -14.473770      -393.8513
   5   2.0000     -14.435581      -392.8121
   6   2.0000     -10.379823      -282.4493
   7   2.0000     -10.279946      -279.7316
   8   2.0000     -10.247067      -278.8369
   9   2.0000     -10.235093      -278.5110
  10   2.0000     -10.223599      -278.1983
  11   2.0000     -10.215836      -277.9870
  12   2.0000     -10.211214      -277.8613
  13   2.0000     -10.203914      -277.6626
  14   2.0000     -10.202630      -277.6277
  15   2.0000     -10.195454      -277.4324
  16   2.0000      -8.102486      -220.4798
  17   2.0000      -6.039683      -164.3481
  18   2.0000      -6.038957      -164.3284
  19   2.0000      -6.037902      -164.2997
  20   2.0000      -1.108577       -30.1659
  21   2.0000      -1.066222       -29.0134
  22   2.0000      -0.977315       -26.5941
  23   2.0000      -0.969593       -26.3840
  24   2.0000      -0.960305       -26.1312
  25   2.0000      -0.865786       -23.5592
  26   2.0000      -0.829928       -22.5835
  27   2.0000      -0.805732       -21.9251
  28   2.0000      -0.765378       -20.8270
  29   2.0000      -0.729716       -19.8566
  30   2.0000      -0.696397       -18.9499
  31   2.0000      -0.674347       -18.3499
  32   2.0000      -0.646488       -17.5918
  33   2.0000      -0.624978       -17.0065
  34   2.0000      -0.613946       -16.7063
  35   2.0000      -0.594695       -16.1825
  36   2.0000      -0.578318       -15.7368
  37   2.0000      -0.556346       -15.1389
  38   2.0000      -0.531068       -14.4511
  39   2.0000      -0.517587       -14.0843
  40   2.0000      -0.502888       -13.6843
  41   2.0000      -0.486978       -13.2514
  42   2.0000      -0.480343       -13.0708
  43   2.0000      -0.466966       -12.7068
  44   2.0000      -0.460421       -12.5287
  45   2.0000      -0.452387       -12.3101
  46   2.0000      -0.443674       -12.0730
  47   2.0000      -0.438858       -11.9419
  48   2.0000      -0.425597       -11.5811
  49   2.0000      -0.413879       -11.2622
  50   2.0000      -0.408735       -11.1222
  51   2.0000      -0.407113       -11.0781
  52   2.0000      -0.386227       -10.5098
  53   2.0000      -0.379799       -10.3349
  54   2.0000      -0.374149       -10.1811
  55   2.0000      -0.356404        -9.6983
  56   2.0000      -0.347303        -9.4506
  57   2.0000      -0.341367        -9.2891
  58   2.0000      -0.339096        -9.2273
  59   2.0000      -0.329752        -8.9730
  60   2.0000      -0.324473        -8.8294
  61   2.0000      -0.320824        -8.7301
  62   2.0000      -0.314174        -8.5491
  63   2.0000      -0.311769        -8.4837
  64   2.0000      -0.279770        -7.6129
  65   2.0000      -0.276779        -7.5315
  66   2.0000      -0.265138        -7.2148
  67   2.0000      -0.244040        -6.6407
  68   0.0000      -0.045938        -1.2500
  69   0.0000      -0.030078        -0.8185
  70   0.0000       0.001981         0.0539
  71   0.0000       0.012088         0.3289
  72   0.0000       0.017418         0.4740

MULLIKEN ATOMIC CHARGES
-----------------------
   0 C :   -0.168766
   1 C :   -0.347860
   2 C :   -0.327789
   3 H :    0.234448
   4 H :    0.211696
   5 S :    1.033542
   6 C :    0.500892
   7 N :   -0.250951
   8 N :    0.031282
   9 H :    0.052188
  10 H :    0.196713
  11 H :    0.192873
  12 H :    0.162996
  13 O :   -0.808675
  14 O :   -0.780656
  15 C :   -0.261160
  16 C :    0.212980
  17 C :   -0.341519
  18 H :    0.174102
  19 H :    0.182786
  20 H :    0.137693
  21 H :    0.103036
  22 C :   -0.224036
  23 H :    0.113628
  24 H :    0.124213
  25 C :   -0.454009
  26 H :    0.215935
  27 H :    0.123321
  28 C :   -0.347496
  29 H :    0.152452
  30 H :    0.151427
  31 H :    0.174136
  32 H :   -0.258769
  33 H :    0.162186
  34 H :    0.188612
  35 O :   -0.611414
  36 H :    0.157913
  37 H :    0.192052
Sum of atomic charges:   -0.0000000

LOEWDIN ATOMIC CHARGES
----------------------
   0 C :   -0.108869
   1 C :   -0.227078
   2 C :   -0.253825
   3 H :    0.089494
   4 H :    0.107400
   5 S :    0.445823
   6 C :   -0.373061
   7 N :    0.188746
   8 N :    0.227913
   9 H :    0.056597
  10 H :    0.116869
  11 H :    0.117878
  12 H :    0.126706
  13 O :   -0.378398
  14 O :   -0.368499
  15 C :   -0.191773
  16 C :   -0.225989
  17 C :   -0.217919
  18 H :    0.107079
  19 H :    0.115709
  20 H :    0.111147
  21 H :    0.112136
  22 C :   -0.214923
  23 H :    0.127148
  24 H :    0.101583
  25 C :   -0.209841
  26 H :    0.109506
  27 H :    0.114219
  28 C :   -0.213735
  29 H :    0.110692
  30 H :    0.111884
  31 H :    0.127293
  32 H :    0.079815
  33 H :    0.115678
  34 H :    0.113209
  35 O :   -0.306615
  36 H :    0.137737
  37 H :    0.118265

  Mayer bond orders larger than 0.100000
B(  0-C ,  6-C ) :   0.6223 B(  0-C , 15-C ) :   0.8389 B(  0-C , 22-C ) :   0.1704
B(  0-C , 36-H ) :   0.8322 B(  0-C , 37-H ) :   0.9946 B(  1-C ,  2-C ) :   1.1717
B(  1-C ,  5-S ) :   0.2128 B(  1-C , 16-C ) :   0.2026 B(  1-C , 17-C ) :   1.0376
B(  1-C , 20-H ) :   0.9270 B(  1-C , 21-H ) :   0.9175 B(  2-C ,  3-H ) :   0.8866
B(  2-C ,  4-H ) :   0.8834 B(  2-C ,  5-S ) :   0.7878 B(  2-C , 13-O ) :   0.1028
B(  2-C , 14-O ) :   0.1279 B(  2-C , 32-H ) :   0.1237 B(  2-C , 35-O ) :   0.1399
B(  5-S , 13-O ) :   1.5097 B(  5-S , 14-O ) :   1.3605 B(  5-S , 35-O ) :   1.4713
B(  6-C ,  7-N ) :   1.1285 B(  6-C ,  8-N ) :   1.2164 B(  6-C ,  9-H ) :  -0.1744
B(  6-C , 10-H ) :  -0.1061 B(  6-C , 15-C ) :   0.1937 B(  6-C , 22-C ) :   0.1719
B(  6-C , 36-H ) :   0.1273 B(  6-C , 37-H ) :  -0.1510 B(  7-N ,  8-N ) :   0.1167
B(  7-N , 11-H ) :   0.9715 B(  7-N , 12-H ) :   1.0185 B(  8-N ,  9-H ) :   0.9391
B(  8-N , 10-H ) :   1.0039 B(  8-N , 13-O ) :  -0.1281 B(  8-N , 15-C ) :   0.1000
B(  9-H , 13-O ) :   0.1294 B(  9-H , 14-O ) :  -0.1069 B( 13-O , 14-O ) :   0.1138
B( 13-O , 16-C ) :  -0.1076 B( 13-O , 17-C ) :   0.1344 B( 15-C , 16-C ) :  -0.1182
B( 15-C , 22-C ) :   0.6333 B( 15-C , 23-H ) :   0.8312 B( 15-C , 24-H ) :   1.1787
B( 15-C , 25-C ) :   0.2647 B( 15-C , 28-C ) :   0.1892 B( 16-C , 17-C ) :   0.6846
B( 16-C , 22-C ) :   0.1523 B( 16-C , 25-C ) :   0.2561 B( 16-C , 28-C ) :   0.6019
B( 16-C , 31-H ) :   0.7524 B( 16-C , 32-H ) :   1.4639 B( 17-C , 18-H ) :   0.8500
B( 17-C , 19-H ) :   0.8993 B( 17-C , 28-C ) :   0.5189 B( 17-C , 31-H ) :  -0.1086
B( 22-C , 25-C ) :   1.1218 B( 22-C , 26-H ) :   0.9573 B( 22-C , 27-H ) :   0.8933
B( 23-H , 24-H ) :   0.1099 B( 25-C , 28-C ) :   1.0096 B( 25-C , 29-H ) :   0.9339
B( 25-C , 30-H ) :   0.9207 B( 28-C , 31-H ) :  -0.1241 B( 28-C , 33-H ) :   0.9461
B( 28-C , 34-H ) :   0.8783 B( 31-H , 32-H ) :   0.1687

Dispersion correction           -0.040705935
FINAL SINGLE POINT ENERGY     -1127.078661415284

DIPOLE MOMENT
-------------
                                X             Y             Z
Electronic contribution:     -9.18212     -11.45054     -14.18928
Nuclear contribution   :      8.53517      16.50844      14.36520
                        -----------------------------------------
Total Dipole Moment    :     -0.64696       5.05790       0.17592
                        -----------------------------------------
Magnitude (a.u.)       :      5.10215
Magnitude (Debye)      :     12.96862

Rotational constants in cm-1:     0.017951     0.012436     0.008288
Rotational constants in MHz :   538.163255   372.824050   248.467077

                             ****ORCA TERMINATED NORMALLY****
TOTAL RUN TIME: 0 days 0 hours 10 minutes 38 seconds 184 msec
