                         Program Version 5.0.0 -  RELEASE  -
|  1> !PBE0 D3BJ RIJCOSX def2-TZVPD def2/J TightSCF
|  2> *xyz 0 1
|  3> C          4.93020       -7.37532       -2.64962
|  4> C          3.84189       -6.95161       -3.63283
|  5> H          3.45814       -5.95442       -3.40712
|  6> H          2.98848       -7.64361       -3.56708
|  7> S          4.31812       -6.91593       -5.36869
|  8> F          5.40615       -5.89948       -5.51297
|  9> O          3.11191       -6.44508       -6.04379
| 10> O          4.76340       -8.23942       -5.69863
| 11> H          5.27901       -8.35440       -2.90385
| 12> H          4.53000       -7.38577       -1.65734
| 13> H          5.74437       -6.68276       -2.69856
| 14> *
| 15>
| 16> %MaxCore 64000
| 17>
| 18> %pal nprocs 4
| 19> end
| 20>
| 21> %scf
| 22>   MaxIter 150
| 23> end
| 24>
| 25>
| 26>                          ****END OF INPUT****

CARTESIAN COORDINATES (ANGSTROEM)
---------------------------------
  C      4.930200   -7.375320   -2.649620
  C      3.841890   -6.951610   -3.632830
  H      3.458140   -5.954420   -3.407120
  H      2.988480   -7.643610   -3.567080
  S      4.318120   -6.915930   -5.368690
  F      5.406150   -5.899480   -5.512970
  O      3.111910   -6.445080   -6.043790
  O      4.763400   -8.239420   -5.698630
  H      5.279010   -8.354400   -2.903850
  H      4.530000   -7.385770   -1.657340
  H      5.744370   -6.682760   -2.698560

 Total Charge           Charge          ....    0
 Multiplicity           Mult            ....    1
 Number of Electrons    NEL             ....   58
 Basis Dimension        Dim             ....  285

ORBITAL ENERGIES
----------------

  NO   OCC          E(Eh)            E(eV)
   0   2.0000     -89.261371     -2428.9254
   1   2.0000     -24.870397      -676.7579
   2   2.0000     -19.224822      -523.1340
   3   2.0000     -19.215280      -522.8743
   4   2.0000     -10.287180      -279.9284
   5   2.0000     -10.241841      -278.6947
   6   2.0000      -8.207471      -223.3366
   7   2.0000      -6.147826      -167.2908
   8   2.0000      -6.141864      -167.1286
   9   2.0000      -6.141077      -167.1072
  10   2.0000      -1.375535       -37.4302
  11   2.0000      -1.142328       -31.0843
  12   2.0000      -1.049504       -28.5585
  13   2.0000      -0.847585       -23.0640
  14   2.0000      -0.741792       -20.1852
  15   2.0000      -0.691474       -18.8160
  16   2.0000      -0.593747       -16.1567
  17   2.0000      -0.576632       -15.6910
  18   2.0000      -0.564844       -15.3702
  19   2.0000      -0.508980       -13.8500
  20   2.0000      -0.495092       -13.4721
  21   2.0000      -0.472924       -12.8689
  22   2.0000      -0.450447       -12.2573
  23   2.0000      -0.422857       -11.5065
  24   2.0000      -0.417917       -11.3721
  25   2.0000      -0.394211       -10.7270
  26   2.0000      -0.356266        -9.6945
  27   2.0000      -0.344162        -9.3651
  28   2.0000      -0.333969        -9.0878
  29   0.0000      -0.009059        -0.2465
  30   0.0000       0.023905         0.6505
  31   0.0000       0.026515         0.7215
  32   0.0000       0.028901         0.7864
  33   0.0000       0.041911         1.1404

MULLIKEN ATOMIC CHARGES
-----------------------
   0 C :   -0.853793
   1 C :   -0.118655
   2 H :    0.228924
   3 H :    0.213896
   4 S :    1.040425
   5 F :   -0.148649
   6 O :   -0.541689
   7 O :   -0.529314
   8 H :    0.255598
   9 H :    0.194261
  10 H :    0.258996
Sum of atomic charges:   -0.0000000

LOEWDIN ATOMIC CHARGES
----------------------
   0 C :   -0.114660
   1 C :   -0.281534
   2 H :    0.101962
   3 H :    0.116774
   4 S :    0.599872
   5 F :   -0.088882
   6 O :   -0.288727
   7 O :   -0.262569
   8 H :    0.073085
   9 H :    0.073587
  10 H :    0.071093

  Mayer bond orders larger than 0.100000
B(  0-C ,  1-C ) :   0.9101 B(  0-C ,  8-H ) :   0.9786 B(  0-C ,  9-H ) :   0.9849
B(  0-C , 10-H ) :   0.9382 B(  1-C ,  2-H ) :   0.9331 B(  1-C ,  3-H ) :   0.9262
B(  1-C ,  4-S ) :   0.8120 B(  1-C ,  6-O ) :   0.1024 B(  4-S ,  5-F ) :   0.9982
B(  4-S ,  6-O ) :   1.7261 B(  4-S ,  7-O ) :   1.7692

Dispersion correction           -0.007821282
FINAL SINGLE POINT ENERGY      -727.370422457507

DIPOLE MOMENT
-------------
                                X             Y             Z
Electronic contribution:      1.30196       2.62387      -8.76202
Nuclear contribution   :     -0.98922      -2.24849      10.35711
                        -----------------------------------------
Total Dipole Moment    :      0.31274       0.37537       1.59509
                        -----------------------------------------
Magnitude (a.u.)       :      1.66824
Magnitude (Debye)      :      4.24033

Rotational constants in cm-1:     0.151436     0.080885     0.078670
Rotational constants in MHz :  4539.936009  2424.868817  2358.476812

                             ****ORCA TERMINATED NORMALLY****
TOTAL RUN TIME: 0 days 0 hours 0 minutes 42 seconds 697 msec
