                         Program Version 5.0.0 -  RELEASE  -
|  1> !PBE0 D3BJ RIJCOSX def2-TZVPD def2/J TightSCF
|  2> *xyz 0 1
|  3> C          5.55821       -1.99291       -6.21505
|  4> C          4.18188       -2.58967       -6.29891
|  5> C          3.14587       -1.76843       -6.48675
|  6> N          4.01910       -3.86431       -6.22743
|  7> H          4.76849       -4.59115       -5.99077
|  8> H          3.12241       -4.33339       -6.31462
|  9> H          3.28164       -0.77779       -6.56655
| 10> H          2.21255       -2.13419       -6.56225
| 11> C          6.41926       -2.54294       -5.07763
| 12> H          6.03683       -2.19819       -7.17685
| 13> H          5.46761       -0.90737       -6.12797
| 14> H          6.50056       -3.60553       -5.17358
| 15> H          5.96544       -2.30329       -4.13874
| 16> H          7.39438       -2.10494       -5.12457
| 17> *
| 18>
| 19> %MaxCore 64000
| 20>
| 21> %pal nprocs 4
| 22> end
| 23>
| 24> %scf
| 25>   MaxIter 150
| 26> end
| 27>
| 28>
| 29>                          ****END OF INPUT****

CARTESIAN COORDINATES (ANGSTROEM)
---------------------------------
  C      5.558210   -1.992910   -6.215050
  C      4.181880   -2.589670   -6.298910
  C      3.145870   -1.768430   -6.486750
  N      4.019100   -3.864310   -6.227430
  H      4.768490   -4.591150   -5.990770
  H      3.122410   -4.333390   -6.314620
  H      3.281640   -0.777790   -6.566550
  H      2.212550   -2.134190   -6.562250
  C      6.419260   -2.542940   -5.077630
  H      6.036830   -2.198190   -7.176850
  H      5.467610   -0.907370   -6.127970
  H      6.500560   -3.605530   -5.173580
  H      5.965440   -2.303290   -4.138740
  H      7.394380   -2.104940   -5.124570

 Total Charge           Charge          ....    0
 Multiplicity           Mult            ....    1
 Number of Electrons    NEL             ....   40
 Basis Dimension        Dim             ....  266

ORBITAL ENERGIES
----------------

  NO   OCC          E(Eh)            E(eV)
   0   2.0000     -14.392534      -391.6408
   1   2.0000     -10.243607      -278.7427
   2   2.0000     -10.220241      -278.1069
   3   2.0000     -10.207541      -277.7613
   4   2.0000     -10.147998      -276.1411
   5   2.0000      -0.961484       -26.1633
   6   2.0000      -0.801243       -21.8029
   7   2.0000      -0.739895       -20.1336
   8   2.0000      -0.650719       -17.7070
   9   2.0000      -0.600383       -16.3373
  10   2.0000      -0.532288       -14.4843
  11   2.0000      -0.487577       -13.2676
  12   2.0000      -0.457172       -12.4403
  13   2.0000      -0.435738       -11.8570
  14   2.0000      -0.405739       -11.0407
  15   2.0000      -0.394736       -10.7413
  16   2.0000      -0.370092       -10.0707
  17   2.0000      -0.346673        -9.4335
  18   2.0000      -0.340435        -9.2637
  19   2.0000      -0.195739        -5.3263
  20   0.0000       0.005698         0.1551
  21   0.0000       0.033091         0.9004
  22   0.0000       0.038627         1.0511
  23   0.0000       0.047414         1.2902
  24   0.0000       0.061539         1.6746

MULLIKEN ATOMIC CHARGES
-----------------------
   0 C :    0.039968
   1 C :    0.694682
   2 C :   -1.212151
   3 N :   -0.300956
   4 H :    0.150370
   5 H :    0.155484
   6 H :    0.221466
   7 H :    0.218787
   8 C :   -0.867864
   9 H :    0.137320
  10 H :    0.125564
  11 H :    0.232906
  12 H :    0.218001
  13 H :    0.186423
Sum of atomic charges:    0.0000000

LOEWDIN ATOMIC CHARGES
----------------------
   0 C :   -0.199099
   1 C :   -0.511891
   2 C :    0.022455
   3 N :    0.089190
   4 H :    0.142191
   5 H :    0.115727
   6 H :    0.009848
   7 H :    0.012976
   8 C :   -0.100447
   9 H :    0.117214
  10 H :    0.111703
  11 H :    0.050968
  12 H :    0.073821
  13 H :    0.065344

  Mayer bond orders larger than 0.100000
B(  0-C ,  1-C ) :   0.9534 B(  0-C ,  8-C ) :   0.7384 B(  0-C ,  9-H ) :   0.9092
B(  0-C , 10-H ) :   0.9264 B(  1-C ,  2-C ) :   1.1909 B(  1-C ,  3-N ) :   1.1302
B(  1-C ,  7-H ) :  -0.1035 B(  2-C ,  6-H ) :   0.9610 B(  2-C ,  7-H ) :   1.0711
B(  3-N ,  4-H ) :   1.0026 B(  3-N ,  5-H ) :   0.9979 B(  8-C , 11-H ) :   0.9697
B(  8-C , 12-H ) :   1.0123 B(  8-C , 13-H ) :   1.0077

Dispersion correction           -0.008774511
FINAL SINGLE POINT ENERGY      -212.383142995955

DIPOLE MOMENT
-------------
                                X             Y             Z
Electronic contribution:     -2.03098      -1.05956      -1.02538
Nuclear contribution   :      2.41345       0.31141       1.16343
                        -----------------------------------------
Total Dipole Moment    :      0.38247      -0.74815       0.13805
                        -----------------------------------------
Magnitude (a.u.)       :      0.85151
Magnitude (Debye)      :      2.16436

Rotational constants in cm-1:     0.287957     0.129204     0.097498
Rotational constants in MHz :  8632.737925  3873.424745  2922.919500

                             ****ORCA TERMINATED NORMALLY****
TOTAL RUN TIME: 0 days 0 hours 0 minutes 39 seconds 166 msec
