                         Program Version 5.0.0 -  RELEASE  -
|  1> !PBE0 D3BJ RIJCOSX def2-TZVPD def2/J TightSCF
|  2> *xyz 0 1
|  3> C          4.93020       -7.37532       -2.64962
|  4> C          3.84189       -6.95161       -3.63283
|  5> H          3.45814       -5.95442       -3.40712
|  6> H          2.98848       -7.64361       -3.56708
|  7> S          4.31812       -6.91593       -5.36869
|  8> O          5.40615       -5.89948       -5.51297
|  9> F          3.11191       -6.44508       -6.04379
| 10> O          4.76340       -8.23942       -5.69863
| 11> H          5.27901       -8.35440       -2.90385
| 12> H          4.53000       -7.38577       -1.65734
| 13> H          5.74437       -6.68276       -2.69856
| 14> *
| 15>
| 16> %MaxCore 64000
| 17>
| 18> %pal nprocs 4
| 19> end
| 20>
| 21> %scf
| 22>   MaxIter 150
| 23> end
| 24>
| 25>
| 26>                          ****END OF INPUT****

CARTESIAN COORDINATES (ANGSTROEM)
---------------------------------
  C      4.930200   -7.375320   -2.649620
  C      3.841890   -6.951610   -3.632830
  H      3.458140   -5.954420   -3.407120
  H      2.988480   -7.643610   -3.567080
  S      4.318120   -6.915930   -5.368690
  O      5.406150   -5.899480   -5.512970
  F      3.111910   -6.445080   -6.043790
  O      4.763400   -8.239420   -5.698630
  H      5.279010   -8.354400   -2.903850
  H      4.530000   -7.385770   -1.657340
  H      5.744370   -6.682760   -2.698560

 Total Charge           Charge          ....    0
 Multiplicity           Mult            ....    1
 Number of Electrons    NEL             ....   58
 Basis Dimension        Dim             ....  285

ORBITAL ENERGIES
----------------

  NO   OCC          E(Eh)            E(eV)
   0   2.0000     -89.263356     -2428.9794
   1   2.0000     -24.885320      -677.1640
   2   2.0000     -19.224238      -523.1181
   3   2.0000     -19.207719      -522.6686
   4   2.0000     -10.288220      -279.9567
   5   2.0000     -10.240649      -278.6622
   6   2.0000      -8.209383      -223.3887
   7   2.0000      -6.149689      -167.3415
   8   2.0000      -6.143603      -167.1759
   9   2.0000      -6.143145      -167.1635
  10   2.0000      -1.402638       -38.1677
  11   2.0000      -1.135634       -30.9022
  12   2.0000      -1.030921       -28.0528
  13   2.0000      -0.847491       -23.0614
  14   2.0000      -0.755918       -20.5696
  15   2.0000      -0.691960       -18.8292
  16   2.0000      -0.598205       -16.2780
  17   2.0000      -0.596004       -16.2181
  18   2.0000      -0.574213       -15.6251
  19   2.0000      -0.510152       -13.8819
  20   2.0000      -0.498763       -13.5720
  21   2.0000      -0.460260       -12.5243
  22   2.0000      -0.446206       -12.1419
  23   2.0000      -0.425281       -11.5725
  24   2.0000      -0.403101       -10.9689
  25   2.0000      -0.401003       -10.9118
  26   2.0000      -0.352096        -9.5810
  27   2.0000      -0.337049        -9.1716
  28   2.0000      -0.320540        -8.7223
  29   0.0000      -0.003306        -0.0900
  30   0.0000       0.014097         0.3836
  31   0.0000       0.029525         0.8034
  32   0.0000       0.030664         0.8344
  33   0.0000       0.049254         1.3403

MULLIKEN ATOMIC CHARGES
-----------------------
   0 C :   -0.868175
   1 C :   -0.135336
   2 H :    0.227925
   3 H :    0.230205
   4 S :    1.035166
   5 O :   -0.566412
   6 F :   -0.109513
   7 O :   -0.523842
   8 H :    0.256861
   9 H :    0.198402
  10 H :    0.254719
Sum of atomic charges:    0.0000000

LOEWDIN ATOMIC CHARGES
----------------------
   0 C :   -0.102871
   1 C :   -0.290036
   2 H :    0.100791
   3 H :    0.105360
   4 S :    0.599219
   5 O :   -0.306438
   6 F :   -0.068925
   7 O :   -0.264758
   8 H :    0.075517
   9 H :    0.075534
  10 H :    0.076607

  Mayer bond orders larger than 0.100000
B(  0-C ,  1-C ) :   0.9643 B(  0-C ,  4-S ) :   0.1026 B(  0-C ,  8-H ) :   0.9533
B(  0-C ,  9-H ) :   0.9734 B(  0-C , 10-H ) :   0.9582 B(  1-C ,  2-H ) :   0.9134
B(  1-C ,  3-H ) :   0.9060 B(  1-C ,  4-S ) :   0.8151 B(  4-S ,  5-O ) :   1.6837
B(  4-S ,  6-F ) :   1.0399 B(  4-S ,  7-O ) :   1.7680 B(  5-O ,  7-O ) :   0.1004

Dispersion correction           -0.007853653
FINAL SINGLE POINT ENERGY      -727.359236211207

DIPOLE MOMENT
-------------
                                X             Y             Z
Electronic contribution:     -2.57163       1.69535      -9.66735
Nuclear contribution   :      1.40145      -1.67996      10.91024
                        -----------------------------------------
Total Dipole Moment    :     -1.17018       0.01539       1.24289
                        -----------------------------------------
Magnitude (a.u.)       :      1.70714
Magnitude (Debye)      :      4.33922

Rotational constants in cm-1:     0.155875     0.079864     0.077188
Rotational constants in MHz :  4673.017506  2394.277415  2314.027118

                             ****ORCA TERMINATED NORMALLY****
TOTAL RUN TIME: 0 days 0 hours 0 minutes 41 seconds 407 msec
