                         Program Version 5.0.0 -  RELEASE  -
|  1> !PBE0 D3BJ RIJCOSX def2-TZVPD def2/J TightSCF
|  2> *xyz 0 1
|  3> C          5.55821       -1.99291       -6.21505
|  4> C          4.18188       -2.58967       -6.29891
|  5> N          3.14587       -1.76843       -6.48675
|  6> C          4.01910       -3.86431       -6.22743
|  7> H          4.76849       -4.59115       -5.99077
|  8> H          3.12241       -4.33339       -6.31462
|  9> H          3.28164       -0.77779       -6.56655
| 10> H          2.21255       -2.13419       -6.56225
| 11> C          6.41926       -2.54294       -5.07763
| 12> H          6.03683       -2.19819       -7.17685
| 13> H          5.46761       -0.90737       -6.12797
| 14> H          6.50056       -3.60553       -5.17358
| 15> H          5.96544       -2.30329       -4.13874
| 16> H          7.39438       -2.10494       -5.12457
| 17> *
| 18>
| 19> %MaxCore 64000
| 20>
| 21> %pal nprocs 4
| 22> end
| 23>
| 24> %scf
| 25>   MaxIter 150
| 26> end
| 27>
| 28>
| 29>                          ****END OF INPUT****

CARTESIAN COORDINATES (ANGSTROEM)
---------------------------------
  C      5.558210   -1.992910   -6.215050
  C      4.181880   -2.589670   -6.298910
  N      3.145870   -1.768430   -6.486750
  C      4.019100   -3.864310   -6.227430
  H      4.768490   -4.591150   -5.990770
  H      3.122410   -4.333390   -6.314620
  H      3.281640   -0.777790   -6.566550
  H      2.212550   -2.134190   -6.562250
  C      6.419260   -2.542940   -5.077630
  H      6.036830   -2.198190   -7.176850
  H      5.467610   -0.907370   -6.127970
  H      6.500560   -3.605530   -5.173580
  H      5.965440   -2.303290   -4.138740
  H      7.394380   -2.104940   -5.124570

 Total Charge           Charge          ....    0
 Multiplicity           Mult            ....    1
 Number of Electrons    NEL             ....   40
 Basis Dimension        Dim             ....  266

ORBITAL ENERGIES
----------------

  NO   OCC          E(Eh)            E(eV)
   0   2.0000     -14.381778      -391.3481
   1   2.0000     -10.241124      -278.6751
   2   2.0000     -10.221268      -278.1348
   3   2.0000     -10.201531      -277.5978
   4   2.0000     -10.154801      -276.3262
   5   2.0000      -0.951136       -25.8817
   6   2.0000      -0.804905       -21.9026
   7   2.0000      -0.736262       -20.0347
   8   2.0000      -0.660611       -17.9761
   9   2.0000      -0.575412       -15.6577
  10   2.0000      -0.538321       -14.6485
  11   2.0000      -0.501381       -13.6433
  12   2.0000      -0.461004       -12.5446
  13   2.0000      -0.432030       -11.7561
  14   2.0000      -0.397453       -10.8153
  15   2.0000      -0.384717       -10.4687
  16   2.0000      -0.362753        -9.8710
  17   2.0000      -0.347823        -9.4647
  18   2.0000      -0.338033        -9.1983
  19   2.0000      -0.203687        -5.5426
  20   0.0000       0.011951         0.3252
  21   0.0000       0.032022         0.8714
  22   0.0000       0.041295         1.1237
  23   0.0000       0.046977         1.2783
  24   0.0000       0.064605         1.7580

MULLIKEN ATOMIC CHARGES
-----------------------
   0 C :    0.031296
   1 C :    0.734745
   2 N :   -0.298940
   3 C :   -1.152996
   4 H :    0.130183
   5 H :    0.198723
   6 H :    0.156280
   7 H :    0.133280
   8 C :   -0.786075
   9 H :    0.129944
  10 H :    0.126104
  11 H :    0.210319
  12 H :    0.207085
  13 H :    0.180053
Sum of atomic charges:   -0.0000000

LOEWDIN ATOMIC CHARGES
----------------------
   0 C :   -0.199641
   1 C :   -0.494759
   2 N :    0.099864
   3 C :   -0.000500
   4 H :    0.053763
   5 H :    0.022723
   6 H :    0.093553
   7 H :    0.105302
   8 C :   -0.098118
   9 H :    0.118931
  10 H :    0.103684
  11 H :    0.056968
  12 H :    0.074208
  13 H :    0.064022

  Mayer bond orders larger than 0.100000
B(  0-C ,  1-C ) :   0.7595 B(  0-C ,  8-C ) :   0.7629 B(  0-C ,  9-H ) :   0.9082
B(  0-C , 10-H ) :   1.0369 B(  1-C ,  2-N ) :   1.0687 B(  1-C ,  3-C ) :   1.2006
B(  1-C ,  5-H ) :  -0.1160 B(  1-C ,  8-C ) :   0.1081 B(  1-C , 10-H ) :  -0.1045
B(  2-N ,  3-C ) :   0.1278 B(  2-N ,  6-H ) :   1.0259 B(  2-N ,  7-H ) :   1.0389
B(  3-C ,  4-H ) :   1.0267 B(  3-C ,  5-H ) :   1.1054 B(  8-C , 11-H ) :   0.9837
B(  8-C , 12-H ) :   0.9945 B(  8-C , 13-H ) :   1.0042

Dispersion correction           -0.008802735
FINAL SINGLE POINT ENERGY      -212.392813825607

DIPOLE MOMENT
-------------
                                X             Y             Z
Electronic contribution:     -2.79845       0.80119      -1.28290
Nuclear contribution   :      2.61570      -0.17401       1.22349
                        -----------------------------------------
Total Dipole Moment    :     -0.18275       0.62718      -0.05941
                        -----------------------------------------
Magnitude (a.u.)       :      0.65596
Magnitude (Debye)      :      1.66731

Rotational constants in cm-1:     0.298189     0.125314     0.096441
Rotational constants in MHz :  8939.495008  3756.825352  2891.223400

                             ****ORCA TERMINATED NORMALLY****
TOTAL RUN TIME: 0 days 0 hours 0 minutes 39 seconds 738 msec
