                         Program Version 5.0.0 -  RELEASE  -
|  1> !PBE0 D3BJ RIJCOSX def2-TZVPD def2/J TightSCF
|  2> *xyz 0 1
|  3> C          4.93020       -7.37532       -2.64962
|  4> C          3.84189       -6.95161       -3.63283
|  5> H          3.45814       -5.95442       -3.40712
|  6> H          2.98848       -7.64361       -3.56708
|  7> S          4.31812       -6.91593       -5.36869
|  8> O          5.40615       -5.89948       -5.51297
|  9> O          3.11191       -6.44508       -6.04379
| 10> F          4.76340       -8.23942       -5.69863
| 11> H          5.27901       -8.35440       -2.90385
| 12> H          4.53000       -7.38577       -1.65734
| 13> H          5.74437       -6.68276       -2.69856
| 14> *
| 15>
| 16> %MaxCore 64000
| 17>
| 18> %pal nprocs 4
| 19> end
| 20>
| 21> %scf
| 22>   MaxIter 150
| 23> end
| 24>
| 25>
| 26>                          ****END OF INPUT****

CARTESIAN COORDINATES (ANGSTROEM)
---------------------------------
  C      4.930200   -7.375320   -2.649620
  C      3.841890   -6.951610   -3.632830
  H      3.458140   -5.954420   -3.407120
  H      2.988480   -7.643610   -3.567080
  S      4.318120   -6.915930   -5.368690
  O      5.406150   -5.899480   -5.512970
  O      3.111910   -6.445080   -6.043790
  F      4.763400   -8.239420   -5.698630
  H      5.279010   -8.354400   -2.903850
  H      4.530000   -7.385770   -1.657340
  H      5.744370   -6.682760   -2.698560

 Total Charge           Charge          ....    0
 Multiplicity           Mult            ....    1
 Number of Electrons    NEL             ....   58
 Basis Dimension        Dim             ....  285

ORBITAL ENERGIES
----------------

  NO   OCC          E(Eh)            E(eV)
   0   2.0000     -89.264974     -2429.0234
   1   2.0000     -24.899022      -677.5368
   2   2.0000     -19.215722      -522.8864
   3   2.0000     -19.208725      -522.6960
   4   2.0000     -10.288396      -279.9615
   5   2.0000     -10.242922      -278.7241
   6   2.0000      -8.210941      -223.4311
   7   2.0000      -6.151379      -167.3875
   8   2.0000      -6.144988      -167.2136
   9   2.0000      -6.144679      -167.2052
  10   2.0000      -1.424932       -38.7744
  11   2.0000      -1.124078       -30.5877
  12   2.0000      -1.023682       -27.8558
  13   2.0000      -0.850147       -23.1337
  14   2.0000      -0.760332       -20.6897
  15   2.0000      -0.701867       -19.0988
  16   2.0000      -0.619448       -16.8560
  17   2.0000      -0.610718       -16.6185
  18   2.0000      -0.568498       -15.4696
  19   2.0000      -0.509096       -13.8532
  20   2.0000      -0.494466       -13.4551
  21   2.0000      -0.467216       -12.7136
  22   2.0000      -0.447055       -12.1650
  23   2.0000      -0.422912       -11.5080
  24   2.0000      -0.411886       -11.2080
  25   2.0000      -0.389225       -10.5914
  26   2.0000      -0.343202        -9.3390
  27   2.0000      -0.336578        -9.1588
  28   2.0000      -0.314887        -8.5685
  29   0.0000      -0.009251        -0.2517
  30   0.0000       0.020930         0.5695
  31   0.0000       0.025960         0.7064
  32   0.0000       0.028874         0.7857
  33   0.0000       0.047404         1.2899

MULLIKEN ATOMIC CHARGES
-----------------------
   0 C :   -0.853947
   1 C :   -0.115232
   2 H :    0.208049
   3 H :    0.231360
   4 S :    1.012805
   5 O :   -0.561594
   6 O :   -0.531255
   7 F :   -0.100572
   8 H :    0.261249
   9 H :    0.195228
  10 H :    0.253909
Sum of atomic charges:    0.0000000

LOEWDIN ATOMIC CHARGES
----------------------
   0 C :   -0.114912
   1 C :   -0.282451
   2 H :    0.112191
   3 H :    0.106414
   4 S :    0.597168
   5 O :   -0.303974
   6 O :   -0.288370
   7 F :   -0.043890
   8 H :    0.069766
   9 H :    0.073762
  10 H :    0.074296

  Mayer bond orders larger than 0.100000
B(  0-C ,  1-C ) :   0.9041 B(  0-C ,  8-H ) :   0.9323 B(  0-C ,  9-H ) :   0.9848
B(  0-C , 10-H ) :   0.9857 B(  1-C ,  2-H ) :   0.9371 B(  1-C ,  3-H ) :   0.9263
B(  1-C ,  4-S ) :   0.8163 B(  1-C ,  6-O ) :   0.1029 B(  4-S ,  5-O ) :   1.6973
B(  4-S ,  6-O ) :   1.7371 B(  4-S ,  7-F ) :   1.0732

Dispersion correction           -0.007814948
FINAL SINGLE POINT ENERGY      -727.347925826053

DIPOLE MOMENT
-------------
                                X             Y             Z
Electronic contribution:      0.20635      -1.30849      -9.07823
Nuclear contribution   :     -0.31946       0.18980      10.55057
                        -----------------------------------------
Total Dipole Moment    :     -0.11310      -1.11869       1.47234
                        -----------------------------------------
Magnitude (a.u.)       :      1.85258
Magnitude (Debye)      :      4.70889

Rotational constants in cm-1:     0.151421     0.081183     0.078684
Rotational constants in MHz :  4539.489207  2433.790160  2358.892966

                             ****ORCA TERMINATED NORMALLY****
TOTAL RUN TIME: 0 days 0 hours 0 minutes 40 seconds 196 msec
