                         Program Version 5.0.0 -  RELEASE  -
|  1> !PBE0 D3BJ RIJCOSX def2-TZVPD def2/J TightSCF xyzfile
|  2>
|  3> *xyzfile 0 1 D1.xyz
|  4>
|  5> %MaxCore 64000
|  6>
|  7> %pal nprocs 4
|  8> end
|  9>
| 10> %scf
| 11>   MaxIter 150
| 12> end
| 13>
| 14>
| 15>                          ****END OF INPUT****

CARTESIAN COORDINATES (ANGSTROEM)
---------------------------------
  C      5.558206   -1.992914   -6.215054
  C      4.930199   -7.375319   -2.649623
  C      3.841892   -6.951611   -3.632829
  H      3.458144   -5.954425   -3.407121
  H      2.988484   -7.643606   -3.567078
  S      4.318115   -6.915930   -5.368692
  C      4.181880   -2.589671   -6.298911
  C      3.145873   -1.768431   -6.486753
  N      4.019102   -3.864307   -6.227427
  H      4.768490   -4.591153   -5.990773
  H      3.122405   -4.333392   -6.314620
  H      3.281635   -0.777786   -6.566549
  H      2.212549   -2.134193   -6.562246
  F      5.406154   -5.899480   -5.512972
  O      3.111910   -6.445079   -6.043792
  C      6.419260   -2.542944   -5.077630
  C      5.872267   -5.002756   -2.427819
  C      6.173994   -6.485522   -2.606315
  H      6.734852   -6.613767   -3.534015
  H      6.821463   -6.831018   -1.793617
  H      4.469612   -7.406168   -1.655876
  H      5.230134   -8.398678   -2.885906
  C      5.896512   -2.169314   -3.694552
  H      7.428880   -2.143665   -5.208078
  H      6.505894   -3.627541   -5.175502
  C      6.807804   -2.623428   -2.551019
  H      4.894708   -2.589732   -3.557501
  H      5.778823   -1.081255   -3.635790
  C      7.111544   -4.122463   -2.520363
  H      7.751615   -2.071393   -2.614406
  H      6.345837   -2.326401   -1.604086
  H      5.362882   -4.828697   -1.471335
  H      5.174429   -4.702577   -3.211298
  H      7.778329   -4.329347   -1.677651
  H      7.673189   -4.402845   -3.417586
  O      4.763396   -8.239424   -5.698629
  H      6.036826   -2.198189   -7.176852
  H      5.467610   -0.907371   -6.127968

 Total Charge           Charge          ....    0
 Multiplicity           Mult            ....    1
 Number of Electrons    NEL             ....  136
 Basis Dimension        Dim             ....  808

ORBITAL ENERGIES
----------------

  NO   OCC          E(Eh)            E(eV)
   0   2.0000     -89.279184     -2429.4101
   1   2.0000     -24.900274      -677.5709
   2   2.0000     -19.241526      -523.5886
   3   2.0000     -19.234277      -523.3913
   4   2.0000     -14.367518      -390.9600
   5   2.0000     -10.294914      -280.1388
   6   2.0000     -10.257999      -279.1343
   7   2.0000     -10.241658      -278.6897
   8   2.0000     -10.232592      -278.4430
   9   2.0000     -10.232040      -278.4280
  10   2.0000     -10.225748      -278.2567
  11   2.0000     -10.220473      -278.1132
  12   2.0000     -10.219437      -278.0850
  13   2.0000     -10.215207      -277.9699
  14   2.0000     -10.213958      -277.9359
  15   2.0000     -10.138073      -275.8710
  16   2.0000      -8.225902      -223.8382
  17   2.0000      -6.166618      -167.8022
  18   2.0000      -6.159863      -167.6184
  19   2.0000      -6.159332      -167.6039
  20   2.0000      -1.411493       -38.4087
  21   2.0000      -1.161663       -31.6104
  22   2.0000      -1.069132       -29.0926
  23   2.0000      -0.947005       -25.7693
  24   2.0000      -0.876689       -23.8559
  25   2.0000      -0.844134       -22.9700
  26   2.0000      -0.815893       -22.2016
  27   2.0000      -0.783617       -21.3233
  28   2.0000      -0.764403       -20.8005
  29   2.0000      -0.734781       -19.9944
  30   2.0000      -0.719594       -19.5811
  31   2.0000      -0.680313       -18.5123
  32   2.0000      -0.643910       -17.5217
  33   2.0000      -0.635708       -17.2985
  34   2.0000      -0.628209       -17.0944
  35   2.0000      -0.605450       -16.4751
  36   2.0000      -0.590229       -16.0610
  37   2.0000      -0.578669       -15.7464
  38   2.0000      -0.574941       -15.6449
  39   2.0000      -0.524989       -14.2857
  40   2.0000      -0.519401       -14.1336
  41   2.0000      -0.507018       -13.7967
  42   2.0000      -0.500611       -13.6223
  43   2.0000      -0.492115       -13.3911
  44   2.0000      -0.480773       -13.0825
  45   2.0000      -0.477604       -12.9963
  46   2.0000      -0.467384       -12.7182
  47   2.0000      -0.449130       -12.2214
  48   2.0000      -0.446138       -12.1400
  49   2.0000      -0.436177       -11.8690
  50   2.0000      -0.424663       -11.5557
  51   2.0000      -0.422320       -11.4919
  52   2.0000      -0.408004       -11.1024
  53   2.0000      -0.392375       -10.6771
  54   2.0000      -0.388065       -10.5598
  55   2.0000      -0.383085       -10.4243
  56   2.0000      -0.380746       -10.3606
  57   2.0000      -0.370037       -10.0692
  58   2.0000      -0.368386       -10.0243
  59   2.0000      -0.357498        -9.7280
  60   2.0000      -0.354324        -9.6416
  61   2.0000      -0.349445        -9.5089
  62   2.0000      -0.348377        -9.4798
  63   2.0000      -0.341558        -9.2943
  64   2.0000      -0.330992        -9.0068
  65   2.0000      -0.324247        -8.8232
  66   2.0000      -0.320190        -8.7128
  67   2.0000      -0.184840        -5.0298
  68   0.0000      -0.014681        -0.3995
  69   0.0000       0.005030         0.1369
  70   0.0000       0.010082         0.2743
  71   0.0000       0.013814         0.3759
  72   0.0000       0.023542         0.6406

MULLIKEN ATOMIC CHARGES
-----------------------
   0 C :   -0.135613
   1 C :   -0.309934
   2 C :   -0.346093
   3 H :    0.312120
   4 H :    0.254547
   5 S :    0.975105
   6 C :    0.683884
   7 C :   -1.369812
   8 N :   -0.115313
   9 H :    0.165908
  10 H :    0.126491
  11 H :    0.236126
  12 H :    0.258167
  13 F :   -0.239180
  14 O :   -0.623737
  15 C :   -0.146312
  16 C :    0.154286
  17 C :   -0.302232
  18 H :    0.102260
  19 H :    0.186048
  20 H :    0.167629
  21 H :    0.103839
  22 C :   -0.115714
  23 H :    0.111470
  24 H :   -0.053340
  25 C :   -0.407538
  26 H :    0.154483
  27 H :    0.123147
  28 C :   -0.352094
  29 H :    0.160198
  30 H :    0.147533
  31 H :    0.185297
  32 H :   -0.238488
  33 H :    0.158511
  34 H :    0.209977
  35 O :   -0.517858
  36 H :    0.119647
  37 H :    0.176583
Sum of atomic charges:    0.0000000

LOEWDIN ATOMIC CHARGES
----------------------
   0 C :   -0.145964
   1 C :   -0.221318
   2 C :   -0.218630
   3 H :    0.105899
   4 H :    0.124854
   5 S :    0.630116
   6 C :   -0.494524
   7 C :    0.026504
   8 N :    0.108498
   9 H :    0.069878
  10 H :    0.097644
  11 H :    0.008370
  12 H :    0.014619
  13 F :   -0.115379
  14 O :   -0.274004
  15 C :   -0.208963
  16 C :   -0.223049
  17 C :   -0.214642
  18 H :    0.107174
  19 H :    0.122741
  20 H :    0.122206
  21 H :    0.115068
  22 C :   -0.211215
  23 H :    0.119787
  24 H :    0.087678
  25 C :   -0.211599
  26 H :    0.110217
  27 H :    0.119814
  28 C :   -0.216042
  29 H :    0.111384
  30 H :    0.111018
  31 H :    0.132437
  32 H :    0.081942
  33 H :    0.115921
  34 H :    0.109807
  35 O :   -0.236984
  36 H :    0.121818
  37 H :    0.116918

  Mayer bond orders larger than 0.100000
B(  0-C ,  6-C ) :   0.8065 B(  0-C , 15-C ) :   0.9294 B(  0-C , 22-C ) :   0.1254
B(  0-C , 24-H ) :   0.1254 B(  0-C , 36-H ) :   0.8993 B(  0-C , 37-H ) :   0.8407
B(  1-C ,  2-C ) :   1.1531 B(  1-C ,  5-S ) :   0.2024 B(  1-C , 16-C ) :   0.1765
B(  1-C , 17-C ) :   1.0382 B(  1-C , 20-H ) :   0.9083 B(  1-C , 21-H ) :   0.9465
B(  2-C ,  3-H ) :   0.8790 B(  2-C ,  4-H ) :   0.8470 B(  2-C ,  5-S ) :   0.7759
B(  2-C , 14-O ) :   0.1054 B(  2-C , 17-C ) :   0.1013 B(  2-C , 32-H ) :   0.1074
B(  5-S , 13-F ) :   1.1187 B(  5-S , 14-O ) :   1.6201 B(  5-S , 35-O ) :   1.5919
B(  6-C ,  7-C ) :   1.2682 B(  6-C ,  8-N ) :   1.0342 B(  6-C ,  9-H ) :  -0.1157
B(  6-C , 22-C ) :   0.1712 B(  7-C , 11-H ) :   1.0011 B(  7-C , 12-H ) :   0.9767
B(  8-N ,  9-H ) :   0.9864 B(  8-N , 10-H ) :   0.9799 B(  8-N , 15-C ) :   0.1303
B( 15-C , 16-C ) :  -0.1017 B( 15-C , 22-C ) :   0.7680 B( 15-C , 23-H ) :   0.8517
B( 15-C , 24-H ) :   1.1826 B( 15-C , 25-C ) :   0.2583 B( 15-C , 28-C ) :   0.1895
B( 16-C , 17-C ) :   0.5983 B( 16-C , 25-C ) :   0.2927 B( 16-C , 28-C ) :   0.6304
B( 16-C , 31-H ) :   0.7594 B( 16-C , 32-H ) :   1.4575 B( 17-C , 18-H ) :   0.9336
B( 17-C , 19-H ) :   0.8967 B( 17-C , 28-C ) :   0.4887 B( 17-C , 31-H ) :  -0.1076
B( 22-C , 25-C ) :   1.0354 B( 22-C , 26-H ) :   0.9845 B( 22-C , 27-H ) :   0.8906
B( 25-C , 28-C ) :   1.0444 B( 25-C , 29-H ) :   0.9412 B( 25-C , 30-H ) :   0.9292
B( 28-C , 31-H ) :  -0.1212 B( 28-C , 33-H ) :   0.9398 B( 28-C , 34-H ) :   0.8658
B( 31-H , 32-H ) :   0.1823

Dispersion correction           -0.040263234
FINAL SINGLE POINT ENERGY     -1134.950935131997

DIPOLE MOMENT
-------------
                                X             Y             Z
Electronic contribution:     -7.00601     -18.78553     -13.21890
Nuclear contribution   :      7.78491      18.17172      15.09294
                        -----------------------------------------
Total Dipole Moment    :      0.77890      -0.61381       1.87404
                        -----------------------------------------
Magnitude (a.u.)       :      2.12025
Magnitude (Debye)      :      5.38925

Rotational constants in cm-1:     0.018190     0.012573     0.008405
Rotational constants in MHz :   545.327178   376.916509   251.974803

                             ****ORCA TERMINATED NORMALLY****
TOTAL RUN TIME: 0 days 0 hours 10 minutes 22 seconds 943 msec
