                         Program Version 5.0.0 -  RELEASE  -
|  1> !PBE0 D3BJ RIJCOSX def2-TZVPD def2/J TightSCF xyzfile
|  2>
|  3> *xyzfile 0 1 D2.xyz
|  4>
|  5> %MaxCore 64000
|  6>
|  7> %pal nprocs 4
|  8> end
|  9>
| 10> %scf
| 11>   MaxIter 150
| 12> end
| 13>
| 14>
| 15>                          ****END OF INPUT****

CARTESIAN COORDINATES (ANGSTROEM)
---------------------------------
  C      5.558206   -1.992914   -6.215054
  C      4.930199   -7.375319   -2.649623
  C      3.841892   -6.951611   -3.632829
  H      3.458144   -5.954425   -3.407121
  H      2.988484   -7.643606   -3.567078
  S      4.318115   -6.915930   -5.368692
  C      4.181880   -2.589671   -6.298911
  N      3.145873   -1.768431   -6.486753
  C      4.019102   -3.864307   -6.227427
  H      4.768490   -4.591153   -5.990773
  H      3.122405   -4.333392   -6.314620
  H      3.281635   -0.777786   -6.566549
  H      2.212549   -2.134193   -6.562246
  F      5.406154   -5.899480   -5.512972
  O      3.111910   -6.445079   -6.043792
  C      6.419260   -2.542944   -5.077630
  C      5.872267   -5.002756   -2.427819
  C      6.173994   -6.485522   -2.606315
  H      6.734852   -6.613767   -3.534015
  H      6.821463   -6.831018   -1.793617
  H      4.469612   -7.406168   -1.655876
  H      5.230134   -8.398678   -2.885906
  C      5.896512   -2.169314   -3.694552
  H      7.428880   -2.143665   -5.208078
  H      6.505894   -3.627541   -5.175502
  C      6.807804   -2.623428   -2.551019
  H      4.894708   -2.589732   -3.557501
  H      5.778823   -1.081255   -3.635790
  C      7.111544   -4.122463   -2.520363
  H      7.751615   -2.071393   -2.614406
  H      6.345837   -2.326401   -1.604086
  H      5.362882   -4.828697   -1.471335
  H      5.174429   -4.702577   -3.211298
  H      7.778329   -4.329347   -1.677651
  H      7.673189   -4.402845   -3.417586
  O      4.763396   -8.239424   -5.698629
  H      6.036826   -2.198189   -7.176852
  H      5.467610   -0.907371   -6.127968

 Total Charge           Charge          ....    0
 Multiplicity           Mult            ....    1
 Number of Electrons    NEL             ....  136
 Basis Dimension        Dim             ....  808

ORBITAL ENERGIES
----------------

  NO   OCC          E(Eh)            E(eV)
   0   2.0000     -89.257884     -2428.8305
   1   2.0000     -24.869635      -676.7372
   2   2.0000     -19.221728      -523.0498
   3   2.0000     -19.209766      -522.7243
   4   2.0000     -14.374967      -391.1627
   5   2.0000     -10.279344      -279.7152
   6   2.0000     -10.246442      -278.8199
   7   2.0000     -10.231709      -278.4189
   8   2.0000     -10.231629      -278.4168
   9   2.0000     -10.223614      -278.1987
  10   2.0000     -10.219635      -278.0904
  11   2.0000     -10.217278      -278.0263
  12   2.0000     -10.216855      -278.0147
  13   2.0000     -10.216047      -277.9928
  14   2.0000     -10.212369      -277.8927
  15   2.0000     -10.133226      -275.7391
  16   2.0000      -8.204310      -223.2506
  17   2.0000      -6.144840      -167.2096
  18   2.0000      -6.138558      -167.0387
  19   2.0000      -6.137780      -167.0175
  20   2.0000      -1.382399       -37.6170
  21   2.0000      -1.139970       -31.0201
  22   2.0000      -1.046713       -28.4825
  23   2.0000      -0.944099       -25.6903
  24   2.0000      -0.864391       -23.5213
  25   2.0000      -0.839123       -22.8337
  26   2.0000      -0.809923       -22.0391
  27   2.0000      -0.781089       -21.2545
  28   2.0000      -0.744403       -20.2562
  29   2.0000      -0.733144       -19.9499
  30   2.0000      -0.705373       -19.1942
  31   2.0000      -0.679126       -18.4800
  32   2.0000      -0.641666       -17.4606
  33   2.0000      -0.622486       -16.9387
  34   2.0000      -0.608605       -16.5610
  35   2.0000      -0.582952       -15.8629
  36   2.0000      -0.580447       -15.7948
  37   2.0000      -0.563367       -15.3300
  38   2.0000      -0.556393       -15.1402
  39   2.0000      -0.529686       -14.4135
  40   2.0000      -0.509206       -13.8562
  41   2.0000      -0.505547       -13.7566
  42   2.0000      -0.499471       -13.5913
  43   2.0000      -0.484626       -13.1874
  44   2.0000      -0.471617       -12.8334
  45   2.0000      -0.470043       -12.7905
  46   2.0000      -0.463718       -12.6184
  47   2.0000      -0.448097       -12.1933
  48   2.0000      -0.431987       -11.7550
  49   2.0000      -0.426625       -11.6090
  50   2.0000      -0.421128       -11.4595
  51   2.0000      -0.413672       -11.2566
  52   2.0000      -0.391768       -10.6606
  53   2.0000      -0.386501       -10.5172
  54   2.0000      -0.379572       -10.3287
  55   2.0000      -0.374080       -10.1792
  56   2.0000      -0.363529        -9.8921
  57   2.0000      -0.360591        -9.8122
  58   2.0000      -0.355580        -9.6758
  59   2.0000      -0.349295        -9.5048
  60   2.0000      -0.342189        -9.3114
  61   2.0000      -0.341310        -9.2875
  62   2.0000      -0.334354        -9.0982
  63   2.0000      -0.328464        -8.9380
  64   2.0000      -0.324210        -8.8222
  65   2.0000      -0.319519        -8.6946
  66   2.0000      -0.316470        -8.6116
  67   2.0000      -0.195059        -5.3078
  68   0.0000      -0.001305        -0.0355
  69   0.0000       0.012163         0.3310
  70   0.0000       0.012836         0.3493
  71   0.0000       0.016866         0.4590
  72   0.0000       0.027893         0.7590

MULLIKEN ATOMIC CHARGES
-----------------------
   0 C :   -0.226642
   1 C :   -0.319704
   2 C :   -0.341142
   3 H :    0.304377
   4 H :    0.252570
   5 S :    0.921468
   6 C :    0.817504
   7 N :   -0.295692
   8 C :   -1.525306
   9 H :    0.428867
  10 H :    0.352025
  11 H :    0.143291
  12 H :    0.141908
  13 F :   -0.165039
  14 O :   -0.593832
  15 C :   -0.075532
  16 C :    0.238596
  17 C :   -0.316769
  18 H :    0.110456
  19 H :    0.179432
  20 H :    0.161814
  21 H :    0.103209
  22 C :   -0.166929
  23 H :    0.122955
  24 H :   -0.059667
  25 C :   -0.455197
  26 H :    0.159412
  27 H :    0.153346
  28 C :   -0.334748
  29 H :    0.154523
  30 H :    0.136851
  31 H :    0.171470
  32 H :   -0.297391
  33 H :    0.155809
  34 H :    0.215636
  35 O :   -0.533192
  36 H :    0.094341
  37 H :    0.186922
Sum of atomic charges:    0.0000000

LOEWDIN ATOMIC CHARGES
----------------------
   0 C :   -0.144407
   1 C :   -0.223220
   2 C :   -0.219684
   3 H :    0.104997
   4 H :    0.122709
   5 S :    0.623148
   6 C :   -0.465727
   7 N :    0.107078
   8 C :    0.003093
   9 H :    0.010002
  10 H :    0.024422
  11 H :    0.092535
  12 H :    0.106879
  13 F :   -0.128443
  14 O :   -0.280633
  15 C :   -0.204774
  16 C :   -0.222136
  17 C :   -0.215024
  18 H :    0.107562
  19 H :    0.121280
  20 H :    0.120190
  21 H :    0.114049
  22 C :   -0.212900
  23 H :    0.119613
  24 H :    0.093380
  25 C :   -0.212220
  26 H :    0.109561
  27 H :    0.116171
  28 C :   -0.215805
  29 H :    0.110431
  30 H :    0.110276
  31 H :    0.131259
  32 H :    0.083932
  33 H :    0.115242
  34 H :    0.110404
  35 O :   -0.246550
  36 H :    0.123584
  37 H :    0.109725

  Mayer bond orders larger than 0.100000
B(  0-C ,  6-C ) :   0.4943 B(  0-C ,  8-C ) :  -0.1246 B(  0-C , 15-C ) :   0.9134
B(  0-C , 22-C ) :   0.1870 B(  0-C , 24-H ) :   0.1160 B(  0-C , 36-H ) :   0.8406
B(  0-C , 37-H ) :   1.0192 B(  1-C ,  2-C ) :   1.1545 B(  1-C ,  5-S ) :   0.2126
B(  1-C , 16-C ) :   0.1634 B(  1-C , 17-C ) :   1.0363 B(  1-C , 20-H ) :   0.9076
B(  1-C , 21-H ) :   0.9462 B(  2-C ,  3-H ) :   0.8927 B(  2-C ,  4-H ) :   0.8494
B(  2-C ,  5-S ) :   0.7721 B(  2-C , 14-O ) :   0.1079 B(  2-C , 17-C ) :   0.1027
B(  2-C , 32-H ) :   0.1179 B(  2-C , 35-O ) :   0.1056 B(  5-S ,  8-C ) :   0.1873
B(  5-S , 13-F ) :   1.1462 B(  5-S , 14-O ) :   1.6172 B(  5-S , 35-O ) :   1.5520
B(  6-C ,  7-N ) :   1.0300 B(  6-C ,  8-C ) :   0.9067 B(  6-C ,  9-H ) :   0.2198
B(  6-C , 10-H ) :  -0.2590 B(  6-C , 15-C ) :   0.1041 B(  6-C , 22-C ) :   0.1385
B(  6-C , 37-H ) :  -0.1834 B(  7-N , 11-H ) :   1.0404 B(  7-N , 12-H ) :   1.0237
B(  8-C ,  9-H ) :   0.8461 B(  8-C , 10-H ) :   1.0159 B(  8-C , 13-F ) :   0.1548
B(  9-H , 13-F ) :  -0.2715 B( 15-C , 16-C ) :  -0.1104 B( 15-C , 22-C ) :   0.6944
B( 15-C , 23-H ) :   0.8359 B( 15-C , 24-H ) :   1.2070 B( 15-C , 25-C ) :   0.2510
B( 15-C , 28-C ) :   0.1944 B( 16-C , 17-C ) :   0.5996 B( 16-C , 22-C ) :   0.1110
B( 16-C , 25-C ) :   0.2872 B( 16-C , 28-C ) :   0.6229 B( 16-C , 31-H ) :   0.7733
B( 16-C , 32-H ) :   1.4468 B( 17-C , 18-H ) :   0.9124 B( 17-C , 19-H ) :   0.9063
B( 17-C , 28-C ) :   0.5009 B( 17-C , 31-H ) :  -0.1133 B( 22-C , 25-C ) :   1.0362
B( 22-C , 26-H ) :   1.0141 B( 22-C , 27-H ) :   0.8680 B( 25-C , 28-C ) :   1.0571
B( 25-C , 29-H ) :   0.9392 B( 25-C , 30-H ) :   0.9348 B( 28-C , 31-H ) :  -0.1172
B( 28-C , 33-H ) :   0.9450 B( 28-C , 34-H ) :   0.8597 B( 31-H , 32-H ) :   0.1717

Dispersion correction           -0.040519837
FINAL SINGLE POINT ENERGY     -1134.945180514687

DIPOLE MOMENT
-------------
                                X             Y             Z
Electronic contribution:     -7.73687     -16.95269     -13.63292
Nuclear contribution   :      7.91684      17.85507      15.13212
                        -----------------------------------------
Total Dipole Moment    :      0.17997       0.90238       1.49920
                        -----------------------------------------
Magnitude (a.u.)       :      1.75906
Magnitude (Debye)      :      4.47117

Rotational constants in cm-1:     0.018015     0.012410     0.008313
Rotational constants in MHz :   540.084467   372.038374   249.228144

                             ****ORCA TERMINATED NORMALLY****
TOTAL RUN TIME: 0 days 0 hours 9 minutes 17 seconds 264 msec
