                         Program Version 5.0.0 -  RELEASE  -
|  1> !PBE0 D3BJ RIJCOSX def2-TZVPD def2/J TightSCF xyzfile
|  2>
|  3> *xyzfile 0 1 D3.xyz
|  4>
|  5> %MaxCore 64000
|  6>
|  7> %pal nprocs 4
|  8> end
|  9>
| 10> %scf
| 11>   MaxIter 150
| 12> end
| 13>
| 14>
| 15>                          ****END OF INPUT****

CARTESIAN COORDINATES (ANGSTROEM)
---------------------------------
  C      5.558206   -1.992914   -6.215054
  C      4.930199   -7.375319   -2.649623
  C      3.841892   -6.951611   -3.632829
  H      3.458144   -5.954425   -3.407121
  H      2.988484   -7.643606   -3.567078
  S      4.318115   -6.915930   -5.368692
  C      4.181880   -2.589671   -6.298911
  C      3.145873   -1.768431   -6.486753
  N      4.019102   -3.864307   -6.227427
  H      4.768490   -4.591153   -5.990773
  H      3.122405   -4.333392   -6.314620
  H      3.281635   -0.777786   -6.566549
  H      2.212549   -2.134193   -6.562246
  O      5.406154   -5.899480   -5.512972
  F      3.111910   -6.445079   -6.043792
  C      6.419260   -2.542944   -5.077630
  C      5.872267   -5.002756   -2.427819
  C      6.173994   -6.485522   -2.606315
  H      6.734852   -6.613767   -3.534015
  H      6.821463   -6.831018   -1.793617
  H      4.469612   -7.406168   -1.655876
  H      5.230134   -8.398678   -2.885906
  C      5.896512   -2.169314   -3.694552
  H      7.428880   -2.143665   -5.208078
  H      6.505894   -3.627541   -5.175502
  C      6.807804   -2.623428   -2.551019
  H      4.894708   -2.589732   -3.557501
  H      5.778823   -1.081255   -3.635790
  C      7.111544   -4.122463   -2.520363
  H      7.751615   -2.071393   -2.614406
  H      6.345837   -2.326401   -1.604086
  H      5.362882   -4.828697   -1.471335
  H      5.174429   -4.702577   -3.211298
  H      7.778329   -4.329347   -1.677651
  H      7.673189   -4.402845   -3.417586
  O      4.763396   -8.239424   -5.698629
  H      6.036826   -2.198189   -7.176852
  H      5.467610   -0.907371   -6.127968

 Total Charge           Charge          ....    0
 Multiplicity           Mult            ....    1
 Number of Electrons    NEL             ....  136
 Basis Dimension        Dim             ....  808

ORBITAL ENERGIES
----------------

  NO   OCC          E(Eh)            E(eV)
   0   2.0000     -89.289128     -2429.6807
   1   2.0000     -24.909537      -677.8230
   2   2.0000     -19.247042      -523.7386
   3   2.0000     -19.240072      -523.5490
   4   2.0000     -14.355874      -390.6432
   5   2.0000     -10.299914      -280.2749
   6   2.0000     -10.260235      -279.1952
   7   2.0000     -10.230080      -278.3746
   8   2.0000     -10.225941      -278.2620
   9   2.0000     -10.220550      -278.1153
  10   2.0000     -10.214818      -277.9593
  11   2.0000     -10.211324      -277.8643
  12   2.0000     -10.206132      -277.7230
  13   2.0000     -10.205584      -277.7080
  14   2.0000     -10.205500      -277.7058
  15   2.0000     -10.132408      -275.7169
  16   2.0000      -8.235552      -224.1008
  17   2.0000      -6.175855      -168.0536
  18   2.0000      -6.169655      -167.8849
  19   2.0000      -6.169329      -167.8760
  20   2.0000      -1.428290       -38.8657
  21   2.0000      -1.163081       -31.6490
  22   2.0000      -1.068346       -29.0712
  23   2.0000      -0.938775       -25.5454
  24   2.0000      -0.874686       -23.8014
  25   2.0000      -0.836515       -22.7627
  26   2.0000      -0.811072       -22.0704
  27   2.0000      -0.782601       -21.2957
  28   2.0000      -0.759909       -20.6782
  29   2.0000      -0.731530       -19.9059
  30   2.0000      -0.710438       -19.3320
  31   2.0000      -0.674484       -18.3536
  32   2.0000      -0.640272       -17.4227
  33   2.0000      -0.628980       -17.1154
  34   2.0000      -0.620339       -16.8803
  35   2.0000      -0.610296       -16.6070
  36   2.0000      -0.595873       -16.2145
  37   2.0000      -0.577559       -15.7162
  38   2.0000      -0.568572       -15.4716
  39   2.0000      -0.535743       -14.5783
  40   2.0000      -0.521037       -14.1781
  41   2.0000      -0.511988       -13.9319
  42   2.0000      -0.496756       -13.5174
  43   2.0000      -0.482235       -13.1223
  44   2.0000      -0.474637       -12.9155
  45   2.0000      -0.470886       -12.8135
  46   2.0000      -0.460830       -12.5398
  47   2.0000      -0.445123       -12.1124
  48   2.0000      -0.436806       -11.8861
  49   2.0000      -0.432131       -11.7589
  50   2.0000      -0.425888       -11.5890
  51   2.0000      -0.416314       -11.3285
  52   2.0000      -0.404016       -10.9938
  53   2.0000      -0.397734       -10.8229
  54   2.0000      -0.385868       -10.5000
  55   2.0000      -0.376010       -10.2317
  56   2.0000      -0.373383       -10.1603
  57   2.0000      -0.370261       -10.0753
  58   2.0000      -0.362806        -9.8724
  59   2.0000      -0.349897        -9.5212
  60   2.0000      -0.344801        -9.3825
  61   2.0000      -0.341864        -9.3026
  62   2.0000      -0.337738        -9.1903
  63   2.0000      -0.328724        -8.9450
  64   2.0000      -0.320724        -8.7273
  65   2.0000      -0.314031        -8.5452
  66   2.0000      -0.310577        -8.4512
  67   2.0000      -0.178751        -4.8641
  68   0.0000      -0.014049        -0.3823
  69   0.0000      -0.000923        -0.0251
  70   0.0000       0.011684         0.3179
  71   0.0000       0.018155         0.4940
  72   0.0000       0.027349         0.7442

MULLIKEN ATOMIC CHARGES
-----------------------
   0 C :   -0.099431
   1 C :   -0.382627
   2 C :   -0.339808
   3 H :    0.349441
   4 H :    0.238444
   5 S :    0.934547
   6 C :    0.640862
   7 C :   -1.382427
   8 N :   -0.085327
   9 H :    0.203837
  10 H :    0.084708
  11 H :    0.236869
  12 H :    0.248445
  13 O :   -0.655268
  14 F :   -0.164784
  15 C :   -0.191938
  16 C :    0.138565
  17 C :   -0.281210
  18 H :    0.152176
  19 H :    0.190856
  20 H :    0.154582
  21 H :    0.109362
  22 C :   -0.126950
  23 H :    0.091652
  24 H :    0.009086
  25 C :   -0.397779
  26 H :    0.152675
  27 H :    0.121686
  28 C :   -0.383783
  29 H :    0.158119
  30 H :    0.145917
  31 H :    0.179092
  32 H :   -0.213113
  33 H :    0.162198
  34 H :    0.220267
  35 O :   -0.511413
  36 H :    0.122599
  37 H :    0.169872
Sum of atomic charges:    0.0000000

LOEWDIN ATOMIC CHARGES
----------------------
   0 C :   -0.144107
   1 C :   -0.210557
   2 C :   -0.223784
   3 H :    0.105184
   4 H :    0.114655
   5 S :    0.655331
   6 C :   -0.497200
   7 C :    0.018420
   8 N :    0.098253
   9 H :    0.039303
  10 H :    0.096939
  11 H :    0.005987
  12 H :    0.009891
  13 O :   -0.298328
  14 F :   -0.060236
  15 C :   -0.205602
  16 C :   -0.223065
  17 C :   -0.213154
  18 H :    0.108462
  19 H :    0.121544
  20 H :    0.124193
  21 H :    0.116385
  22 C :   -0.211889
  23 H :    0.118885
  24 H :    0.090986
  25 C :   -0.212604
  26 H :    0.109468
  27 H :    0.118039
  28 C :   -0.214090
  29 H :    0.110469
  30 H :    0.109525
  31 H :    0.129546
  32 H :    0.082524
  33 H :    0.114537
  34 H :    0.112364
  35 O :   -0.233924
  36 H :    0.121987
  37 H :    0.115663

  Mayer bond orders larger than 0.100000
B(  0-C ,  6-C ) :   0.8006 B(  0-C , 15-C ) :   0.9123 B(  0-C , 22-C ) :   0.1272
B(  0-C , 24-H ) :   0.1298 B(  0-C , 36-H ) :   0.8821 B(  0-C , 37-H ) :   0.8506
B(  1-C ,  2-C ) :   1.2045 B(  1-C ,  5-S ) :   0.2142 B(  1-C , 16-C ) :   0.1964
B(  1-C , 17-C ) :   1.0347 B(  1-C , 20-H ) :   0.9024 B(  1-C , 21-H ) :   0.9237
B(  2-C ,  3-H ) :   0.8242 B(  2-C ,  4-H ) :   0.8525 B(  2-C ,  5-S ) :   0.7597
B(  2-C , 35-O ) :   0.1079 B(  5-S , 13-O ) :   1.7409 B(  5-S , 14-F ) :   1.0052
B(  5-S , 35-O ) :   1.6396 B(  6-C ,  7-C ) :   1.2496 B(  6-C ,  8-N ) :   1.1452
B(  6-C ,  9-H ) :  -0.1145 B(  6-C , 22-C ) :   0.1650 B(  7-C , 11-H ) :   0.9970
B(  7-C , 12-H ) :   0.9956 B(  8-N ,  9-H ) :   0.8700 B(  8-N , 10-H ) :   0.9634
B(  8-N , 15-C ) :   0.1555 B( 13-O , 17-C ) :   0.1103 B( 15-C , 16-C ) :  -0.1091
B( 15-C , 22-C ) :   0.7501 B( 15-C , 23-H ) :   0.8559 B( 15-C , 24-H ) :   1.1445
B( 15-C , 25-C ) :   0.2502 B( 15-C , 28-C ) :   0.2015 B( 16-C , 17-C ) :   0.6446
B( 16-C , 22-C ) :   0.1155 B( 16-C , 25-C ) :   0.2816 B( 16-C , 28-C ) :   0.6210
B( 16-C , 31-H ) :   0.7641 B( 16-C , 32-H ) :   1.4555 B( 17-C , 18-H ) :   0.8875
B( 17-C , 19-H ) :   0.9071 B( 17-C , 28-C ) :   0.5116 B( 17-C , 31-H ) :  -0.1165
B( 22-C , 25-C ) :   1.0312 B( 22-C , 26-H ) :   0.9811 B( 22-C , 27-H ) :   0.8953
B( 25-C , 28-C ) :   1.0269 B( 25-C , 29-H ) :   0.9394 B( 25-C , 30-H ) :   0.9276
B( 28-C , 31-H ) :  -0.1167 B( 28-C , 33-H ) :   0.9388 B( 28-C , 34-H ) :   0.8623
B( 31-H , 32-H ) :   0.1684

Dispersion correction           -0.040555848
FINAL SINGLE POINT ENERGY     -1134.949765781429

DIPOLE MOMENT
-------------
                                X             Y             Z
Electronic contribution:    -10.94993     -20.04212     -14.22437
Nuclear contribution   :     10.48431      18.81367      15.71750
                        -----------------------------------------
Total Dipole Moment    :     -0.46562      -1.22845       1.49313
                        -----------------------------------------
Magnitude (a.u.)       :      1.98880
Magnitude (Debye)      :      5.05512

Rotational constants in cm-1:     0.017977     0.012528     0.008321
Rotational constants in MHz :   538.924099   375.570730   249.458530

                             ****ORCA TERMINATED NORMALLY****
TOTAL RUN TIME: 0 days 0 hours 9 minutes 57 seconds 899 msec
