                         Program Version 5.0.0 -  RELEASE  -
|  1> !PBE0 D3BJ RIJCOSX def2-TZVPD def2/J TightSCF xyzfile
|  2>
|  3> *xyzfile 0 1 D4.xyz
|  4>
|  5> %MaxCore 64000
|  6>
|  7> %pal nprocs 4
|  8> end
|  9>
| 10> %scf
| 11>   MaxIter 150
| 12> end
| 13>
| 14>
| 15>                          ****END OF INPUT****

CARTESIAN COORDINATES (ANGSTROEM)
---------------------------------
  C      5.558206   -1.992914   -6.215054
  C      4.930199   -7.375319   -2.649623
  C      3.841892   -6.951611   -3.632829
  H      3.458144   -5.954425   -3.407121
  H      2.988484   -7.643606   -3.567078
  S      4.318115   -6.915930   -5.368692
  C      4.181880   -2.589671   -6.298911
  N      3.145873   -1.768431   -6.486753
  C      4.019102   -3.864307   -6.227427
  H      4.768490   -4.591153   -5.990773
  H      3.122405   -4.333392   -6.314620
  H      3.281635   -0.777786   -6.566549
  H      2.212549   -2.134193   -6.562246
  O      5.406154   -5.899480   -5.512972
  F      3.111910   -6.445079   -6.043792
  C      6.419260   -2.542944   -5.077630
  C      5.872267   -5.002756   -2.427819
  C      6.173994   -6.485522   -2.606315
  H      6.734852   -6.613767   -3.534015
  H      6.821463   -6.831018   -1.793617
  H      4.469612   -7.406168   -1.655876
  H      5.230134   -8.398678   -2.885906
  C      5.896512   -2.169314   -3.694552
  H      7.428880   -2.143665   -5.208078
  H      6.505894   -3.627541   -5.175502
  C      6.807804   -2.623428   -2.551019
  H      4.894708   -2.589732   -3.557501
  H      5.778823   -1.081255   -3.635790
  C      7.111544   -4.122463   -2.520363
  H      7.751615   -2.071393   -2.614406
  H      6.345837   -2.326401   -1.604086
  H      5.362882   -4.828697   -1.471335
  H      5.174429   -4.702577   -3.211298
  H      7.778329   -4.329347   -1.677651
  H      7.673189   -4.402845   -3.417586
  O      4.763396   -8.239424   -5.698629
  H      6.036826   -2.198189   -7.176852
  H      5.467610   -0.907371   -6.127968

 Total Charge           Charge          ....    0
 Multiplicity           Mult            ....    1
 Number of Electrons    NEL             ....  136
 Basis Dimension        Dim             ....  808

ORBITAL ENERGIES
----------------

  NO   OCC          E(Eh)            E(eV)
   0   2.0000     -89.265945     -2429.0499
   1   2.0000     -24.884231      -677.1344
   2   2.0000     -19.225886      -523.1630
   3   2.0000     -19.209930      -522.7288
   4   2.0000     -14.370677      -391.0460
   5   2.0000     -10.283669      -279.8329
   6   2.0000     -10.248053      -278.8637
   7   2.0000     -10.225848      -278.2595
   8   2.0000     -10.219590      -278.0892
   9   2.0000     -10.211508      -277.8692
  10   2.0000     -10.209327      -277.8099
  11   2.0000     -10.208761      -277.7945
  12   2.0000     -10.207907      -277.7713
  13   2.0000     -10.203585      -277.6537
  14   2.0000     -10.203181      -277.6427
  15   2.0000     -10.123254      -275.4677
  16   2.0000      -8.212179      -223.4648
  17   2.0000      -6.152338      -167.4136
  18   2.0000      -6.146299      -167.2493
  19   2.0000      -6.146172      -167.2458
  20   2.0000      -1.403082       -38.1798
  21   2.0000      -1.139784       -31.0151
  22   2.0000      -1.041974       -28.3536
  23   2.0000      -0.939496       -25.5650
  24   2.0000      -0.860542       -23.4165
  25   2.0000      -0.831334       -22.6218
  26   2.0000      -0.803699       -21.8698
  27   2.0000      -0.778701       -21.1895
  28   2.0000      -0.745601       -20.2888
  29   2.0000      -0.727078       -19.7848
  30   2.0000      -0.701001       -19.0752
  31   2.0000      -0.671227       -18.2650
  32   2.0000      -0.636381       -17.3168
  33   2.0000      -0.616508       -16.7760
  34   2.0000      -0.602145       -16.3852
  35   2.0000      -0.586582       -15.9617
  36   2.0000      -0.582221       -15.8430
  37   2.0000      -0.568564       -15.4714
  38   2.0000      -0.555013       -15.1027
  39   2.0000      -0.528817       -14.3898
  40   2.0000      -0.510235       -13.8842
  41   2.0000      -0.506956       -13.7950
  42   2.0000      -0.493045       -13.4164
  43   2.0000      -0.481407       -13.0998
  44   2.0000      -0.471569       -12.8321
  45   2.0000      -0.462900       -12.5961
  46   2.0000      -0.457347       -12.4451
  47   2.0000      -0.439484       -11.9590
  48   2.0000      -0.428081       -11.6487
  49   2.0000      -0.422706       -11.5024
  50   2.0000      -0.420023       -11.4294
  51   2.0000      -0.405917       -11.0456
  52   2.0000      -0.400086       -10.8869
  53   2.0000      -0.382591       -10.4108
  54   2.0000      -0.377012       -10.2590
  55   2.0000      -0.369660       -10.0590
  56   2.0000      -0.362700        -9.8696
  57   2.0000      -0.354503        -9.6465
  58   2.0000      -0.351374        -9.5614
  59   2.0000      -0.347192        -9.4476
  60   2.0000      -0.334988        -9.1155
  61   2.0000      -0.333861        -9.0848
  62   2.0000      -0.331689        -9.0257
  63   2.0000      -0.318309        -8.6616
  64   2.0000      -0.313631        -8.5343
  65   2.0000      -0.310212        -8.4413
  66   2.0000      -0.282675        -7.6920
  67   2.0000      -0.189318        -5.1516
  68   0.0000      -0.001844        -0.0502
  69   0.0000       0.011896         0.3237
  70   0.0000       0.016095         0.4380
  71   0.0000       0.019614         0.5337
  72   0.0000       0.026651         0.7252

MULLIKEN ATOMIC CHARGES
-----------------------
   0 C :   -0.192775
   1 C :   -0.394246
   2 C :   -0.332483
   3 H :    0.335827
   4 H :    0.241729
   5 S :    0.884370
   6 C :    0.589862
   7 N :   -0.298438
   8 C :   -1.283293
   9 H :    0.462891
  10 H :    0.290137
  11 H :    0.143385
  12 H :    0.133412
  13 O :   -0.599293
  14 F :   -0.132183
  15 C :   -0.101587
  16 C :    0.206210
  17 C :   -0.284760
  18 H :    0.158708
  19 H :    0.189268
  20 H :    0.146092
  21 H :    0.108022
  22 C :   -0.175259
  23 H :    0.104495
  24 H :   -0.026879
  25 C :   -0.446304
  26 H :    0.151680
  27 H :    0.153660
  28 C :   -0.365100
  29 H :    0.152771
  30 H :    0.136337
  31 H :    0.169636
  32 H :   -0.271076
  33 H :    0.159373
  34 H :    0.224870
  35 O :   -0.526002
  36 H :    0.098834
  37 H :    0.188109
Sum of atomic charges:   -0.0000000

LOEWDIN ATOMIC CHARGES
----------------------
   0 C :   -0.142950
   1 C :   -0.212523
   2 C :   -0.225281
   3 H :    0.103978
   4 H :    0.112349
   5 S :    0.644521
   6 C :   -0.468756
   7 N :    0.101678
   8 C :   -0.006415
   9 H :   -0.017731
  10 H :    0.022830
  11 H :    0.090861
  12 H :    0.103104
  13 O :   -0.311579
  14 F :   -0.067431
  15 C :   -0.200785
  16 C :   -0.222275
  17 C :   -0.213852
  18 H :    0.108659
  19 H :    0.119985
  20 H :    0.122021
  21 H :    0.115365
  22 C :   -0.213434
  23 H :    0.118959
  24 H :    0.097022
  25 C :   -0.213195
  26 H :    0.108854
  27 H :    0.114443
  28 C :   -0.213880
  29 H :    0.109531
  30 H :    0.108826
  31 H :    0.128334
  32 H :    0.084491
  33 H :    0.113895
  34 H :    0.112936
  35 O :   -0.244775
  36 H :    0.123817
  37 H :    0.108405

  Mayer bond orders larger than 0.100000
B(  0-C ,  6-C ) :   0.4878 B(  0-C ,  8-C ) :  -0.1329 B(  0-C , 15-C ) :   0.8993
B(  0-C , 22-C ) :   0.1871 B(  0-C , 24-H ) :   0.1132 B(  0-C , 36-H ) :   0.8218
B(  0-C , 37-H ) :   1.0276 B(  1-C ,  2-C ) :   1.2073 B(  1-C ,  5-S ) :   0.2263
B(  1-C , 16-C ) :   0.1880 B(  1-C , 17-C ) :   1.0274 B(  1-C , 20-H ) :   0.9029
B(  1-C , 21-H ) :   0.9215 B(  2-C ,  3-H ) :   0.8371 B(  2-C ,  4-H ) :   0.8562
B(  2-C ,  5-S ) :   0.7441 B(  2-C , 32-H ) :   0.1010 B(  2-C , 35-O ) :   0.1224
B(  5-S ,  8-C ) :   0.1502 B(  5-S , 13-O ) :   1.7858 B(  5-S , 14-F ) :   1.0035
B(  5-S , 35-O ) :   1.6148 B(  6-C ,  7-N ) :   1.0185 B(  6-C ,  8-C ) :   1.3548
B(  6-C ,  9-H ) :   0.2764 B(  6-C , 10-H ) :  -0.1906 B(  6-C , 15-C ) :   0.1206
B(  6-C , 22-C ) :   0.1397 B(  6-C , 37-H ) :  -0.1924 B(  7-N , 11-H ) :   1.0419
B(  7-N , 12-H ) :   1.0312 B(  8-C ,  9-H ) :   0.7622 B(  8-C , 10-H ) :   1.0134
B(  8-C , 13-O ) :   0.1383 B(  9-H , 13-O ) :  -0.3233 B( 13-O , 17-C ) :   0.1052
B( 15-C , 16-C ) :  -0.1151 B( 15-C , 22-C ) :   0.6745 B( 15-C , 23-H ) :   0.8384
B( 15-C , 24-H ) :   1.1751 B( 15-C , 25-C ) :   0.2477 B( 15-C , 28-C ) :   0.2035
B( 16-C , 17-C ) :   0.6506 B( 16-C , 22-C ) :   0.1273 B( 16-C , 25-C ) :   0.2723
B( 16-C , 28-C ) :   0.6138 B( 16-C , 31-H ) :   0.7785 B( 16-C , 32-H ) :   1.4388
B( 17-C , 18-H ) :   0.8724 B( 17-C , 19-H ) :   0.9114 B( 17-C , 28-C ) :   0.5262
B( 17-C , 31-H ) :  -0.1186 B( 22-C , 25-C ) :   1.0319 B( 22-C , 26-H ) :   1.0098
B( 22-C , 27-H ) :   0.8735 B( 23-H , 24-H ) :   0.1023 B( 25-C , 28-C ) :   1.0440
B( 25-C , 29-H ) :   0.9377 B( 25-C , 30-H ) :   0.9323 B( 28-C , 31-H ) :  -0.1137
B( 28-C , 33-H ) :   0.9421 B( 28-C , 34-H ) :   0.8555 B( 31-H , 32-H ) :   0.1559

Dispersion correction           -0.040812854
FINAL SINGLE POINT ENERGY     -1134.937645482500

DIPOLE MOMENT
-------------
                                X             Y             Z
Electronic contribution:    -11.68391     -18.15608     -14.65065
Nuclear contribution   :     10.61624      18.49702      15.75668
                        -----------------------------------------
Total Dipole Moment    :     -1.06767       0.34095       1.10603
                        -----------------------------------------
Magnitude (a.u.)       :      1.57463
Magnitude (Debye)      :      4.00240

Rotational constants in cm-1:     0.017796     0.012372     0.008231
Rotational constants in MHz :   533.524905   370.895973   246.762347

                             ****ORCA TERMINATED NORMALLY****
TOTAL RUN TIME: 0 days 0 hours 9 minutes 58 seconds 756 msec
