                         Program Version 5.0.0 -  RELEASE  -
|  1> !PBE0 D3BJ RIJCOSX def2-TZVPD def2/J TightSCF xyzfile
|  2>
|  3> *xyzfile 0 1 D5.xyz
|  4>
|  5> %MaxCore 64000
|  6>
|  7> %pal nprocs 4
|  8> end
|  9>
| 10> %scf
| 11>   MaxIter 150
| 12> end
| 13>
| 14>
| 15>                          ****END OF INPUT****

CARTESIAN COORDINATES (ANGSTROEM)
---------------------------------
  C      5.558206   -1.992914   -6.215054
  C      4.930199   -7.375319   -2.649623
  C      3.841892   -6.951611   -3.632829
  H      3.458144   -5.954425   -3.407121
  H      2.988484   -7.643606   -3.567078
  S      4.318115   -6.915930   -5.368692
  C      4.181880   -2.589671   -6.298911
  C      3.145873   -1.768431   -6.486753
  N      4.019102   -3.864307   -6.227427
  H      4.768490   -4.591153   -5.990773
  H      3.122405   -4.333392   -6.314620
  H      3.281635   -0.777786   -6.566549
  H      2.212549   -2.134193   -6.562246
  O      5.406154   -5.899480   -5.512972
  O      3.111910   -6.445079   -6.043792
  C      6.419260   -2.542944   -5.077630
  C      5.872267   -5.002756   -2.427819
  C      6.173994   -6.485522   -2.606315
  H      6.734852   -6.613767   -3.534015
  H      6.821463   -6.831018   -1.793617
  H      4.469612   -7.406168   -1.655876
  H      5.230134   -8.398678   -2.885906
  C      5.896512   -2.169314   -3.694552
  H      7.428880   -2.143665   -5.208078
  H      6.505894   -3.627541   -5.175502
  C      6.807804   -2.623428   -2.551019
  H      4.894708   -2.589732   -3.557501
  H      5.778823   -1.081255   -3.635790
  C      7.111544   -4.122463   -2.520363
  H      7.751615   -2.071393   -2.614406
  H      6.345837   -2.326401   -1.604086
  H      5.362882   -4.828697   -1.471335
  H      5.174429   -4.702577   -3.211298
  H      7.778329   -4.329347   -1.677651
  H      7.673189   -4.402845   -3.417586
  F      4.763396   -8.239424   -5.698629
  H      6.036826   -2.198189   -7.176852
  H      5.467610   -0.907371   -6.127968

 Total Charge           Charge          ....    0
 Multiplicity           Mult            ....    1
 Number of Electrons    NEL             ....  136
 Basis Dimension        Dim             ....  808

ORBITAL ENERGIES
----------------

  NO   OCC          E(Eh)            E(eV)
   0   2.0000     -89.293214     -2429.7919
   1   2.0000     -24.922043      -678.1633
   2   2.0000     -19.241990      -523.6012
   3   2.0000     -19.241845      -523.5972
   4   2.0000     -14.338892      -390.1811
   5   2.0000     -10.301462      -280.3170
   6   2.0000     -10.262612      -279.2599
   7   2.0000     -10.233924      -278.4792
   8   2.0000     -10.221609      -278.1441
   9   2.0000     -10.214923      -277.9622
  10   2.0000     -10.214043      -277.9383
  11   2.0000     -10.209702      -277.8201
  12   2.0000     -10.202014      -277.6109
  13   2.0000     -10.201635      -277.6006
  14   2.0000     -10.197980      -277.5012
  15   2.0000     -10.120591      -275.3953
  16   2.0000      -8.239460      -224.2071
  17   2.0000      -6.179720      -168.1587
  18   2.0000      -6.173693      -167.9947
  19   2.0000      -6.173145      -167.9798
  20   2.0000      -1.447839       -39.3977
  21   2.0000      -1.157794       -31.5052
  22   2.0000      -1.060721       -28.8637
  23   2.0000      -0.923508       -25.1299
  24   2.0000      -0.878578       -23.9073
  25   2.0000      -0.835676       -22.7399
  26   2.0000      -0.809498       -22.0276
  27   2.0000      -0.780930       -21.2502
  28   2.0000      -0.761467       -20.7206
  29   2.0000      -0.730017       -19.8648
  30   2.0000      -0.707395       -19.2492
  31   2.0000      -0.672346       -18.2955
  32   2.0000      -0.646195       -17.5838
  33   2.0000      -0.637380       -17.3440
  34   2.0000      -0.625688       -17.0258
  35   2.0000      -0.611319       -16.6348
  36   2.0000      -0.590419       -16.0661
  37   2.0000      -0.573477       -15.6051
  38   2.0000      -0.563030       -15.3208
  39   2.0000      -0.527394       -14.3511
  40   2.0000      -0.523976       -14.2581
  41   2.0000      -0.516939       -14.0666
  42   2.0000      -0.496481       -13.5099
  43   2.0000      -0.480419       -13.0729
  44   2.0000      -0.474828       -12.9207
  45   2.0000      -0.466109       -12.6835
  46   2.0000      -0.455362       -12.3910
  47   2.0000      -0.444992       -12.1088
  48   2.0000      -0.435556       -11.8521
  49   2.0000      -0.432406       -11.7664
  50   2.0000      -0.417974       -11.3736
  51   2.0000      -0.412235       -11.2175
  52   2.0000      -0.404487       -11.0067
  53   2.0000      -0.389835       -10.6080
  54   2.0000      -0.381753       -10.3880
  55   2.0000      -0.372002       -10.1227
  56   2.0000      -0.369929       -10.0663
  57   2.0000      -0.361975        -9.8498
  58   2.0000      -0.360795        -9.8177
  59   2.0000      -0.351240        -9.5577
  60   2.0000      -0.341059        -9.2807
  61   2.0000      -0.338766        -9.2183
  62   2.0000      -0.333700        -9.0804
  63   2.0000      -0.325624        -8.8607
  64   2.0000      -0.317850        -8.6491
  65   2.0000      -0.307962        -8.3801
  66   2.0000      -0.303664        -8.2631
  67   2.0000      -0.165636        -4.5072
  68   0.0000      -0.021127        -0.5749
  69   0.0000       0.004412         0.1201
  70   0.0000       0.009431         0.2566
  71   0.0000       0.017063         0.4643
  72   0.0000       0.020511         0.5581

MULLIKEN ATOMIC CHARGES
-----------------------
   0 C :   -0.099061
   1 C :   -0.323651
   2 C :   -0.333312
   3 H :    0.290927
   4 H :    0.237759
   5 S :    0.931066
   6 C :    0.649796
   7 C :   -1.374686
   8 N :   -0.068931
   9 H :    0.129459
  10 H :    0.126200
  11 H :    0.236333
  12 H :    0.257461
  13 O :   -0.649007
  14 O :   -0.624259
  15 C :   -0.202333
  16 C :    0.156526
  17 C :   -0.243905
  18 H :    0.110294
  19 H :    0.193222
  20 H :    0.153328
  21 H :    0.121639
  22 C :   -0.124390
  23 H :    0.092085
  24 H :    0.019836
  25 C :   -0.394567
  26 H :    0.153223
  27 H :    0.121611
  28 C :   -0.398150
  29 H :    0.158193
  30 H :    0.144638
  31 H :    0.178932
  32 H :   -0.232536
  33 H :    0.160792
  34 H :    0.227992
  35 F :   -0.068576
  36 H :    0.119525
  37 H :    0.166528
Sum of atomic charges:   -0.0000000

LOEWDIN ATOMIC CHARGES
----------------------
   0 C :   -0.146099
   1 C :   -0.222102
   2 C :   -0.214972
   3 H :    0.116517
   4 H :    0.115656
   5 S :    0.664058
   6 C :   -0.498622
   7 C :    0.014745
   8 N :    0.108009
   9 H :    0.042692
  10 H :    0.095213
  11 H :    0.003044
  12 H :    0.009716
  13 O :   -0.302158
  14 O :   -0.269572
  15 C :   -0.206948
  16 C :   -0.221421
  17 C :   -0.218678
  18 H :    0.104179
  19 H :    0.120788
  20 H :    0.122355
  21 H :    0.111110
  22 C :   -0.211501
  23 H :    0.117849
  24 H :    0.089960
  25 C :   -0.212872
  26 H :    0.110138
  27 H :    0.118171
  28 C :   -0.214593
  29 H :    0.110283
  30 H :    0.109384
  31 H :    0.130208
  32 H :    0.084370
  33 H :    0.114063
  34 H :    0.111882
  35 F :   -0.020315
  36 H :    0.120818
  37 H :    0.114647

  Mayer bond orders larger than 0.100000
B(  0-C ,  6-C ) :   0.8018 B(  0-C , 15-C ) :   0.9152 B(  0-C , 22-C ) :   0.1282
B(  0-C , 24-H ) :   0.1306 B(  0-C , 36-H ) :   0.8823 B(  0-C , 37-H ) :   0.8505
B(  1-C ,  2-C ) :   1.0869 B(  1-C ,  5-S ) :   0.1786 B(  1-C , 16-C ) :   0.2021
B(  1-C , 17-C ) :   1.0078 B(  1-C , 20-H ) :   0.9178 B(  1-C , 21-H ) :   0.9291
B(  2-C ,  3-H ) :   0.8932 B(  2-C ,  4-H ) :   0.8812 B(  2-C ,  5-S ) :   0.7838
B(  2-C , 14-O ) :   0.1120 B(  2-C , 32-H ) :   0.1216 B(  5-S , 13-O ) :   1.7726
B(  5-S , 14-O ) :   1.6755 B(  5-S , 35-F ) :   0.9951 B(  6-C ,  7-C ) :   1.2892
B(  6-C ,  8-N ) :   1.0890 B(  6-C ,  9-H ) :  -0.1486 B(  6-C , 22-C ) :   0.1620
B(  7-C , 11-H ) :   1.0043 B(  7-C , 12-H ) :   0.9757 B(  8-N ,  9-H ) :   0.9180
B(  8-N , 10-H ) :   0.9791 B(  8-N , 15-C ) :   0.1578 B( 13-O , 14-O ) :   0.1261
B( 13-O , 17-C ) :   0.1008 B( 15-C , 16-C ) :  -0.1087 B( 15-C , 22-C ) :   0.7486
B( 15-C , 23-H ) :   0.8527 B( 15-C , 24-H ) :   1.1468 B( 15-C , 25-C ) :   0.2525
B( 15-C , 28-C ) :   0.2033 B( 16-C , 17-C ) :   0.6589 B( 16-C , 22-C ) :   0.1119
B( 16-C , 25-C ) :   0.2803 B( 16-C , 28-C ) :   0.6189 B( 16-C , 31-H ) :   0.7567
B( 16-C , 32-H ) :   1.4493 B( 17-C , 18-H ) :   0.8877 B( 17-C , 19-H ) :   0.9130
B( 17-C , 28-C ) :   0.5198 B( 17-C , 31-H ) :  -0.1204 B( 22-C , 25-C ) :   1.0247
B( 22-C , 26-H ) :   0.9814 B( 22-C , 27-H ) :   0.8945 B( 25-C , 28-C ) :   1.0323
B( 25-C , 29-H ) :   0.9408 B( 25-C , 30-H ) :   0.9263 B( 28-C , 31-H ) :  -0.1168
B( 28-C , 33-H ) :   0.9374 B( 28-C , 34-H ) :   0.8599 B( 31-H , 32-H ) :   0.1749

Dispersion correction           -0.040629550
FINAL SINGLE POINT ENERGY     -1134.941199005737

DIPOLE MOMENT
-------------
                                X             Y             Z
Electronic contribution:     -8.08194     -23.36858     -13.61686
Nuclear contribution   :      8.54118      20.92489      15.31138
                        -----------------------------------------
Total Dipole Moment    :      0.45924      -2.44369       1.69452
                        -----------------------------------------
Magnitude (a.u.)       :      3.00897
Magnitude (Debye)      :      7.64819

Rotational constants in cm-1:     0.018156     0.012306     0.008278
Rotational constants in MHz :   544.309022   368.914527   248.178402

                             ****ORCA TERMINATED NORMALLY****
TOTAL RUN TIME: 0 days 0 hours 10 minutes 23 seconds 235 msec
