                         Program Version 5.0.0 -  RELEASE  -
|  1> !PBE0 D3BJ RIJCOSX def2-TZVPD def2/J TightSCF xyzfile
|  2>
|  3> *xyzfile 0 1 D6.xyz
|  4>
|  5> %MaxCore 64000
|  6>
|  7> %pal nprocs 4
|  8> end
|  9>
| 10> %scf
| 11>   MaxIter 150
| 12> end
| 13>
| 14>
| 15>                          ****END OF INPUT****

CARTESIAN COORDINATES (ANGSTROEM)
---------------------------------
  C      5.558206   -1.992914   -6.215054
  C      4.930199   -7.375319   -2.649623
  C      3.841892   -6.951611   -3.632829
  H      3.458144   -5.954425   -3.407121
  H      2.988484   -7.643606   -3.567078
  S      4.318115   -6.915930   -5.368692
  C      4.181880   -2.589671   -6.298911
  N      3.145873   -1.768431   -6.486753
  C      4.019102   -3.864307   -6.227427
  H      4.768490   -4.591153   -5.990773
  H      3.122405   -4.333392   -6.314620
  H      3.281635   -0.777786   -6.566549
  H      2.212549   -2.134193   -6.562246
  O      5.406154   -5.899480   -5.512972
  O      3.111910   -6.445079   -6.043792
  C      6.419260   -2.542944   -5.077630
  C      5.872267   -5.002756   -2.427819
  C      6.173994   -6.485522   -2.606315
  H      6.734852   -6.613767   -3.534015
  H      6.821463   -6.831018   -1.793617
  H      4.469612   -7.406168   -1.655876
  H      5.230134   -8.398678   -2.885906
  C      5.896512   -2.169314   -3.694552
  H      7.428880   -2.143665   -5.208078
  H      6.505894   -3.627541   -5.175502
  C      6.807804   -2.623428   -2.551019
  H      4.894708   -2.589732   -3.557501
  H      5.778823   -1.081255   -3.635790
  C      7.111544   -4.122463   -2.520363
  H      7.751615   -2.071393   -2.614406
  H      6.345837   -2.326401   -1.604086
  H      5.362882   -4.828697   -1.471335
  H      5.174429   -4.702577   -3.211298
  H      7.778329   -4.329347   -1.677651
  H      7.673189   -4.402845   -3.417586
  F      4.763396   -8.239424   -5.698629
  H      6.036826   -2.198189   -7.176852
  H      5.467610   -0.907371   -6.127968

 Total Charge           Charge          ....    0
 Multiplicity           Mult            ....    1
 Number of Electrons    NEL             ....  136
 Basis Dimension        Dim             ....  808

ORBITAL ENERGIES
----------------

  NO   OCC          E(Eh)            E(eV)
   0   2.0000     -89.268336     -2429.1149
   1   2.0000     -24.900325      -677.5723
   2   2.0000     -19.217648      -522.9388
   3   2.0000     -19.213822      -522.8347
   4   2.0000     -14.358845      -390.7240
   5   2.0000     -10.284495      -279.8553
   6   2.0000     -10.250169      -278.9213
   7   2.0000     -10.223190      -278.1871
   8   2.0000     -10.212378      -277.8929
   9   2.0000     -10.211573      -277.8710
  10   2.0000     -10.208649      -277.7915
  11   2.0000     -10.206058      -277.7210
  12   2.0000     -10.201303      -277.5916
  13   2.0000     -10.199288      -277.5367
  14   2.0000     -10.198592      -277.5178
  15   2.0000     -10.108238      -275.0591
  16   2.0000      -8.214556      -223.5294
  17   2.0000      -6.154937      -167.4843
  18   2.0000      -6.148635      -167.3129
  19   2.0000      -6.148310      -167.3040
  20   2.0000      -1.426497       -38.8170
  21   2.0000      -1.132005       -30.8034
  22   2.0000      -1.034398       -28.1474
  23   2.0000      -0.927499       -25.2385
  24   2.0000      -0.864001       -23.5107
  25   2.0000      -0.829504       -22.5720
  26   2.0000      -0.800920       -21.7942
  27   2.0000      -0.777019       -21.1438
  28   2.0000      -0.747791       -20.3484
  29   2.0000      -0.725294       -19.7363
  30   2.0000      -0.699725       -19.0405
  31   2.0000      -0.668195       -18.1825
  32   2.0000      -0.635299       -17.2874
  33   2.0000      -0.622075       -16.9275
  34   2.0000      -0.615730       -16.7549
  35   2.0000      -0.600948       -16.3526
  36   2.0000      -0.575187       -15.6516
  37   2.0000      -0.565033       -15.3753
  38   2.0000      -0.546793       -14.8790
  39   2.0000      -0.518974       -14.1220
  40   2.0000      -0.511113       -13.9081
  41   2.0000      -0.503502       -13.7010
  42   2.0000      -0.487759       -13.2726
  43   2.0000      -0.480145       -13.0654
  44   2.0000      -0.475336       -12.9345
  45   2.0000      -0.462445       -12.5838
  46   2.0000      -0.457175       -12.4404
  47   2.0000      -0.434277       -11.8173
  48   2.0000      -0.429698       -11.6927
  49   2.0000      -0.424012       -11.5380
  50   2.0000      -0.423339       -11.5196
  51   2.0000      -0.404083       -10.9957
  52   2.0000      -0.386690       -10.5224
  53   2.0000      -0.379444       -10.3252
  54   2.0000      -0.368199       -10.0192
  55   2.0000      -0.360775        -9.8172
  56   2.0000      -0.358780        -9.7629
  57   2.0000      -0.351702        -9.5703
  58   2.0000      -0.343784        -9.3548
  59   2.0000      -0.339280        -9.2323
  60   2.0000      -0.332805        -9.0561
  61   2.0000      -0.329520        -8.9667
  62   2.0000      -0.327581        -8.9139
  63   2.0000      -0.316118        -8.6020
  64   2.0000      -0.310676        -8.4539
  65   2.0000      -0.304915        -8.2972
  66   2.0000      -0.280350        -7.6287
  67   2.0000      -0.175630        -4.7791
  68   0.0000      -0.008067        -0.2195
  69   0.0000       0.014388         0.3915
  70   0.0000       0.017849         0.4857
  71   0.0000       0.021049         0.5728
  72   0.0000       0.029423         0.8006

MULLIKEN ATOMIC CHARGES
-----------------------
   0 C :   -0.190942
   1 C :   -0.334897
   2 C :   -0.323708
   3 H :    0.280928
   4 H :    0.238970
   5 S :    0.867823
   6 C :    0.763125
   7 N :   -0.300558
   8 C :   -1.346100
   9 H :    0.376309
  10 H :    0.294598
  11 H :    0.138254
  12 H :    0.136722
  13 O :   -0.601355
  14 O :   -0.594096
  15 C :   -0.103504
  16 C :    0.236495
  17 C :   -0.252872
  18 H :    0.116515
  19 H :    0.192229
  20 H :    0.146467
  21 H :    0.116466
  22 C :   -0.173676
  23 H :    0.104637
  24 H :   -0.023684
  25 C :   -0.445215
  26 H :    0.153807
  27 H :    0.155178
  28 C :   -0.378972
  29 H :    0.153061
  30 H :    0.134284
  31 H :    0.168100
  32 H :   -0.303235
  33 H :    0.158391
  34 H :    0.232237
  35 F :   -0.071612
  36 H :    0.092442
  37 H :    0.187387
Sum of atomic charges:    0.0000000

LOEWDIN ATOMIC CHARGES
----------------------
   0 C :   -0.145801
   1 C :   -0.224038
   2 C :   -0.217462
   3 H :    0.114896
   4 H :    0.113090
   5 S :    0.650728
   6 C :   -0.470348
   7 N :    0.097964
   8 C :    0.002699
   9 H :   -0.012958
  10 H :    0.023680
  11 H :    0.088235
  12 H :    0.102957
  13 O :   -0.312905
  14 O :   -0.276548
  15 C :   -0.202604
  16 C :   -0.220704
  17 C :   -0.219540
  18 H :    0.104184
  19 H :    0.119188
  20 H :    0.120167
  21 H :    0.110043
  22 C :   -0.213174
  23 H :    0.117782
  24 H :    0.095717
  25 C :   -0.213554
  26 H :    0.109388
  27 H :    0.114544
  28 C :   -0.214427
  29 H :    0.109305
  30 H :    0.108631
  31 H :    0.128980
  32 H :    0.086141
  33 H :    0.113395
  34 H :    0.112428
  35 F :   -0.029408
  36 H :    0.122108
  37 H :    0.107224

  Mayer bond orders larger than 0.100000
B(  0-C ,  6-C ) :   0.4750 B(  0-C ,  8-C ) :  -0.1140 B(  0-C , 15-C ) :   0.8981
B(  0-C , 22-C ) :   0.1879 B(  0-C , 24-H ) :   0.1164 B(  0-C , 36-H ) :   0.8197
B(  0-C , 37-H ) :   1.0282 B(  1-C ,  2-C ) :   1.0921 B(  1-C ,  5-S ) :   0.1864
B(  1-C , 16-C ) :   0.1934 B(  1-C , 17-C ) :   1.0009 B(  1-C , 20-H ) :   0.9177
B(  1-C , 21-H ) :   0.9294 B(  2-C ,  3-H ) :   0.9038 B(  2-C ,  4-H ) :   0.8792
B(  2-C ,  5-S ) :   0.7718 B(  2-C , 14-O ) :   0.1124 B(  2-C , 32-H ) :   0.1279
B(  5-S ,  8-C ) :   0.1301 B(  5-S , 13-O ) :   1.8237 B(  5-S , 14-O ) :   1.6631
B(  5-S , 35-F ) :   0.9803 B(  6-C ,  7-N ) :   1.0261 B(  6-C ,  8-C ) :   0.9889
B(  6-C ,  9-H ) :   0.2461 B(  6-C , 10-H ) :  -0.2796 B(  6-C , 15-C ) :   0.1140
B(  6-C , 22-C ) :   0.1451 B(  6-C , 37-H ) :  -0.1938 B(  7-N , 11-H ) :   1.0474
B(  7-N , 12-H ) :   1.0284 B(  8-C ,  9-H ) :   0.9510 B(  8-C , 10-H ) :   1.0951
B(  8-C , 13-O ) :   0.1260 B(  9-H , 13-O ) :  -0.3142 B( 13-O , 14-O ) :   0.1296
B( 13-O , 17-C ) :   0.1007 B( 15-C , 16-C ) :  -0.1160 B( 15-C , 22-C ) :   0.6767
B( 15-C , 23-H ) :   0.8392 B( 15-C , 24-H ) :   1.1770 B( 15-C , 25-C ) :   0.2479
B( 15-C , 28-C ) :   0.2053 B( 16-C , 17-C ) :   0.6646 B( 16-C , 22-C ) :   0.1226
B( 16-C , 25-C ) :   0.2713 B( 16-C , 28-C ) :   0.6104 B( 16-C , 31-H ) :   0.7739
B( 16-C , 32-H ) :   1.4311 B( 17-C , 18-H ) :   0.8745 B( 17-C , 19-H ) :   0.9169
B( 17-C , 28-C ) :   0.5356 B( 17-C , 31-H ) :  -0.1256 B( 22-C , 25-C ) :   1.0239
B( 22-C , 26-H ) :   1.0122 B( 22-C , 27-H ) :   0.8715 B( 25-C , 28-C ) :   1.0504
B( 25-C , 29-H ) :   0.9392 B( 25-C , 30-H ) :   0.9322 B( 28-C , 31-H ) :  -0.1133
B( 28-C , 33-H ) :   0.9417 B( 28-C , 34-H ) :   0.8535 B( 31-H , 32-H ) :   0.1628

Dispersion correction           -0.040891433
FINAL SINGLE POINT ENERGY     -1134.925139610840

DIPOLE MOMENT
-------------
                                X             Y             Z
Electronic contribution:     -8.83268     -21.48483     -14.06111
Nuclear contribution   :      8.67311      20.60825      15.35056
                        -----------------------------------------
Total Dipole Moment    :     -0.15957      -0.87658       1.28945
                        -----------------------------------------
Magnitude (a.u.)       :      1.56734
Magnitude (Debye)      :      3.98385

Rotational constants in cm-1:     0.017976     0.012151     0.008188
Rotational constants in MHz :   538.898457   364.286417   245.482451

                             ****ORCA TERMINATED NORMALLY****
TOTAL RUN TIME: 0 days 0 hours 9 minutes 52 seconds 355 msec
