                         Program Version 5.0.0 -  RELEASE  -
|  1> !B3LYP D3BJ RIJCOSX def2-TZVP def2/J TightSCF
|  2> *xyz -1 1
|  3> C         -0.87096        0.24804       -2.66280
|  4> C         -0.47749        0.60819       -4.10105
|  5> H          0.20677        1.45830       -4.11875
|  6> H         -1.36844        0.92942       -4.64785
|  7> C          0.18467       -0.50664       -4.91676
|  8> O         -0.15869       -1.70109       -4.65798
|  9> O          1.05594       -0.17441       -5.74037
| 10> H         -1.54056       -0.58646       -2.67455
| 11> H         -1.35339        1.08600       -2.20455
| 12> H          0.00660       -0.00662       -2.10609
| 13> *
| 14>
| 15> %MaxCore 64000
| 16>
| 17> %pal nprocs 4
| 18> end
| 19>
| 20> %scf
| 21>   MaxIter 150
| 22> end
| 23>
| 24>
| 25>                          ****END OF INPUT****

CARTESIAN COORDINATES (ANGSTROEM)
---------------------------------
  C     -0.870960    0.248040   -2.662800
  C     -0.477490    0.608190   -4.101050
  H      0.206770    1.458300   -4.118750
  H     -1.368440    0.929420   -4.647850
  C      0.184670   -0.506640   -4.916760
  O     -0.158690   -1.701090   -4.657980
  O      1.055940   -0.174410   -5.740370
  H     -1.540560   -0.586460   -2.674550
  H     -1.353390    1.086000   -2.204550
  H      0.006600   -0.006620   -2.106090

 Total Charge           Charge          ....   -1
 Multiplicity           Mult            ....    1
 Number of Electrons    NEL             ....   40
 Basis Dimension        Dim             ....  185

ORBITAL ENERGIES
----------------

  NO   OCC          E(Eh)            E(eV)
   0   2.0000     -18.849756      -512.9279
   1   2.0000     -18.846677      -512.8442
   2   2.0000     -10.041845      -273.2525
   3   2.0000      -9.998655      -272.0772
   4   2.0000      -9.989283      -271.8222
   5   2.0000      -0.810281       -22.0489
   6   2.0000      -0.717427       -19.5222
   7   2.0000      -0.597841       -16.2681
   8   2.0000      -0.469982       -12.7889
   9   2.0000      -0.311002        -8.4628
  10   2.0000      -0.288259        -7.8439
  11   2.0000      -0.254311        -6.9202
  12   2.0000      -0.222007        -6.0411
  13   2.0000      -0.209379        -5.6975
  14   2.0000      -0.200279        -5.4499
  15   2.0000      -0.171568        -4.6686
  16   2.0000      -0.152503        -4.1498
  17   2.0000      -0.039364        -1.0711
  18   2.0000      -0.033590        -0.9140
  19   2.0000      -0.018811        -0.5119
  20   0.0000       0.182943         4.9781
  21   0.0000       0.224537         6.1100
  22   0.0000       0.237987         6.4759
  23   0.0000       0.247333         6.7303
  24   0.0000       0.262639         7.1468

MULLIKEN ATOMIC CHARGES
-----------------------
   0 C :   -0.269382
   1 C :   -0.144128
   2 H :    0.035694
   3 H :    0.028291
   4 C :    0.204337
   5 O :   -0.541360
   6 O :   -0.507447
   7 H :    0.082876
   8 H :    0.041185
   9 H :    0.069934
Sum of atomic charges:   -1.0000000

LOEWDIN ATOMIC CHARGES
----------------------
   0 C :   -0.323579
   1 C :   -0.291102
   2 H :    0.118099
   3 H :    0.119628
   4 C :   -0.697716
   5 O :   -0.131734
   6 O :   -0.095152
   7 H :    0.107833
   8 H :    0.089196
   9 H :    0.104527

  Mayer bond orders larger than 0.100000
B(  0-C ,  1-C ) :   0.9325 B(  0-C ,  7-H ) :   0.9736 B(  0-C ,  8-H ) :   0.9647
B(  0-C ,  9-H ) :   0.9800 B(  1-C ,  2-H ) :   0.9592 B(  1-C ,  3-H ) :   0.9562
B(  1-C ,  4-C ) :   0.9375 B(  4-C ,  5-O ) :   1.8400 B(  4-C ,  6-O ) :   1.9006

Dispersion correction           -0.010902249
FINAL SINGLE POINT ENERGY      -267.810957320238

DIPOLE MOMENT
-------------
                                X             Y             Z
Electronic contribution:      2.67573      -2.97493      -4.63207
Nuclear contribution   :     -3.54611       4.15440       5.90446
                        -----------------------------------------
Total Dipole Moment    :     -0.87038       1.17948       1.27239
                        -----------------------------------------
Magnitude (a.u.)       :      1.94106
Magnitude (Debye)      :      4.93378

Rotational constants in cm-1:     0.332789     0.132085     0.101080
Rotational constants in MHz :  9976.755824  3959.803182  3030.288811

                             ****ORCA TERMINATED NORMALLY****
TOTAL RUN TIME: 0 days 0 hours 0 minutes 20 seconds 25 msec
