                         Program Version 5.0.0 -  RELEASE  -
|  1> !B3LYP D3BJ RIJCOSX def2-TZVP def2/J TightSCF
|  2> *xyz 1 1
|  3> C          2.48645       -2.67712       -2.56345
|  4> C          3.03764       -2.36672       -3.92351
|  5> N          2.28036       -2.45441       -4.96769
|  6> N          4.32174       -2.01793       -4.01664
|  7> H          4.87994       -1.91167       -3.17382
|  8> H          4.71015       -1.67088       -4.88356
|  9> H          1.27042       -2.41265       -4.86614
| 10> H          2.58183       -2.05528       -5.84688
| 11> C          2.49799       -1.46946       -1.61030
| 12> H          1.47259       -3.05153       -2.69437
| 13> H          3.08320       -3.49064       -2.14147
| 14> H          1.91240       -0.67831       -2.02991
| 15> H          3.50450       -1.13364       -1.47227
| 16> H          2.08509       -1.75655       -0.66585
| 17> *
| 18>
| 19> %MaxCore 64000
| 20>
| 21> %pal nprocs 4
| 22> end
| 23>
| 24> %scf
| 25>   MaxIter 150
| 26> end
| 27>
| 28>
| 29>                          ****END OF INPUT****

CARTESIAN COORDINATES (ANGSTROEM)
---------------------------------
  C      2.486450   -2.677120   -2.563450
  C      3.037640   -2.366720   -3.923510
  N      2.280360   -2.454410   -4.967690
  N      4.321740   -2.017930   -4.016640
  H      4.879940   -1.911670   -3.173820
  H      4.710150   -1.670880   -4.883560
  H      1.270420   -2.412650   -4.866140
  H      2.581830   -2.055280   -5.846880
  C      2.497990   -1.469460   -1.610300
  H      1.472590   -3.051530   -2.694370
  H      3.083200   -3.490640   -2.141470
  H      1.912400   -0.678310   -2.029910
  H      3.504500   -1.133640   -1.472270
  H      2.085090   -1.756550   -0.665850

 Total Charge           Charge          ....    1
 Multiplicity           Mult            ....    1
 Number of Electrons    NEL             ....   40
 Basis Dimension        Dim             ....  209

ORBITAL ENERGIES
----------------

  NO   OCC          E(Eh)            E(eV)
   0   2.0000     -14.563903      -396.3040
   1   2.0000     -14.558577      -396.1590
   2   2.0000     -10.492255      -285.5088
   3   2.0000     -10.367505      -282.1141
   4   2.0000     -10.325253      -280.9644
   5   2.0000      -1.207437       -32.8560
   6   2.0000      -1.111852       -30.2550
   7   2.0000      -0.968715       -26.3601
   8   2.0000      -0.866236       -23.5715
   9   2.0000      -0.815654       -22.1951
  10   2.0000      -0.775385       -21.0993
  11   2.0000      -0.750387       -20.4191
  12   2.0000      -0.702549       -19.1173
  13   2.0000      -0.651327       -17.7235
  14   2.0000      -0.623768       -16.9736
  15   2.0000      -0.608644       -16.5620
  16   2.0000      -0.549630       -14.9562
  17   2.0000      -0.539714       -14.6864
  18   2.0000      -0.530117       -14.4252
  19   2.0000      -0.496858       -13.5202
  20   0.0000      -0.214523        -5.8375
  21   0.0000      -0.161598        -4.3973
  22   0.0000      -0.118452        -3.2232
  23   0.0000      -0.115791        -3.1508
  24   0.0000      -0.083119        -2.2618

MULLIKEN ATOMIC CHARGES
-----------------------
   0 C :   -0.233457
   1 C :    0.332393
   2 N :   -0.300946
   3 N :   -0.338194
   4 H :    0.291784
   5 H :    0.272989
   6 H :    0.292975
   7 H :    0.269140
   8 C :   -0.310318
   9 H :    0.136518
  10 H :    0.172545
  11 H :    0.133845
  12 H :    0.113645
  13 H :    0.167080
Sum of atomic charges:    1.0000000

LOEWDIN ATOMIC CHARGES
----------------------
   0 C :   -0.213787
   1 C :   -0.287340
   2 N :    0.127101
   3 N :    0.105243
   4 H :    0.206734
   5 H :    0.195005
   6 H :    0.212102
   7 H :    0.199240
   8 C :   -0.255401
   9 H :    0.156296
  10 H :    0.169676
  11 H :    0.127351
  12 H :    0.119678
  13 H :    0.138103

  Mayer bond orders larger than 0.100000
B(  0-C ,  1-C ) :   0.9638 B(  0-C ,  8-C ) :   0.9465 B(  0-C ,  9-H ) :   0.9731
B(  0-C , 10-H ) :   0.9388 B(  1-C ,  2-N ) :   1.4737 B(  1-C ,  3-N ) :   1.4204
B(  2-N ,  6-H ) :   0.8842 B(  2-N ,  7-H ) :   0.8947 B(  3-N ,  4-H ) :   0.8912
B(  3-N ,  5-H ) :   0.8947 B(  8-C , 11-H ) :   0.9627 B(  8-C , 12-H ) :   0.9698
B(  8-C , 13-H ) :   0.9650

Dispersion correction           -0.016681930
FINAL SINGLE POINT ENERGY      -228.990015841336

DIPOLE MOMENT
-------------
                                X             Y             Z
Electronic contribution:      1.05790      -1.06663      -3.91729
Nuclear contribution   :     -0.84604       1.34287       2.92710
                        -----------------------------------------
Total Dipole Moment    :      0.21186       0.27624      -0.99019
                        -----------------------------------------
Magnitude (a.u.)       :      1.04960
Magnitude (Debye)      :      2.66788

Rotational constants in cm-1:     0.265816     0.126189     0.097583
Rotational constants in MHz :  7968.948902  3783.040103  2925.457702

                             ****ORCA TERMINATED NORMALLY****
TOTAL RUN TIME: 0 days 0 hours 0 minutes 25 seconds 737 msec
