                         Program Version 5.0.0 -  RELEASE  -
|  1> !B3LYP D3BJ RIJCOSX def2-TZVP def2/J TightSCF
|  2> *xyz 0 1
|  3> C         -0.87096        0.24804       -2.66280
|  4> C         -0.47749        0.60819       -4.10105
|  5> H          0.20677        1.45830       -4.11875
|  6> H         -1.36844        0.92942       -4.64785
|  7> C          0.18467       -0.50664       -4.91676
|  8> F         -0.15869       -1.70109       -4.65798
|  9> O          1.05594       -0.17441       -5.74037
| 10> H         -1.54056       -0.58646       -2.67455
| 11> H         -1.35339        1.08600       -2.20455
| 12> H          0.00660       -0.00662       -2.10609
| 13> *
| 14>
| 15> %MaxCore 64000
| 16>
| 17> %pal nprocs 4
| 18> end
| 19>
| 20> %scf
| 21>   MaxIter 150
| 22> end
| 23>
| 24>
| 25>                          ****END OF INPUT****

CARTESIAN COORDINATES (ANGSTROEM)
---------------------------------
  C     -0.870960    0.248040   -2.662800
  C     -0.477490    0.608190   -4.101050
  H      0.206770    1.458300   -4.118750
  H     -1.368440    0.929420   -4.647850
  C      0.184670   -0.506640   -4.916760
  F     -0.158690   -1.701090   -4.657980
  O      1.055940   -0.174410   -5.740370
  H     -1.540560   -0.586460   -2.674550
  H     -1.353390    1.086000   -2.204550
  H      0.006600   -0.006620   -2.106090

 Total Charge           Charge          ....    0
 Multiplicity           Mult            ....    1
 Number of Electrons    NEL             ....   40
 Basis Dimension        Dim             ....  185

ORBITAL ENERGIES
----------------

  NO   OCC          E(Eh)            E(eV)
   0   2.0000     -24.745939      -673.3712
   1   2.0000     -19.130781      -520.5750
   2   2.0000     -10.345754      -281.5223
   3   2.0000     -10.200942      -277.5817
   4   2.0000     -10.175381      -276.8862
   5   2.0000      -1.309175       -35.6245
   6   2.0000      -1.039166       -28.2771
   7   2.0000      -0.801407       -21.8074
   8   2.0000      -0.684990       -18.6395
   9   2.0000      -0.641559       -17.4577
  10   2.0000      -0.544787       -14.8244
  11   2.0000      -0.537885       -14.6366
  12   2.0000      -0.496377       -13.5071
  13   2.0000      -0.467396       -12.7185
  14   2.0000      -0.433851       -11.8057
  15   2.0000      -0.402712       -10.9584
  16   2.0000      -0.388578       -10.5737
  17   2.0000      -0.380018       -10.3408
  18   2.0000      -0.350454        -9.5363
  19   2.0000      -0.292983        -7.9725
  20   0.0000      -0.028221        -0.7679
  21   0.0000       0.025284         0.6880
  22   0.0000       0.071613         1.9487
  23   0.0000       0.091361         2.4861
  24   0.0000       0.097066         2.6413

MULLIKEN ATOMIC CHARGES
-----------------------
   0 C :   -0.311282
   1 C :   -0.210859
   2 H :    0.129294
   3 H :    0.115441
   4 C :    0.366431
   5 F :   -0.117479
   6 O :   -0.315089
   7 H :    0.111824
   8 H :    0.117168
   9 H :    0.114551
Sum of atomic charges:   -0.0000000

LOEWDIN ATOMIC CHARGES
----------------------
   0 C :   -0.292005
   1 C :   -0.254093
   2 H :    0.152184
   3 H :    0.151070
   4 C :   -0.493704
   5 F :    0.304124
   6 O :    0.078032
   7 H :    0.117351
   8 H :    0.118877
   9 H :    0.118164

  Mayer bond orders larger than 0.100000
B(  0-C ,  1-C ) :   0.9480 B(  0-C ,  7-H ) :   0.9698 B(  0-C ,  8-H ) :   0.9704
B(  0-C ,  9-H ) :   0.9752 B(  1-C ,  2-H ) :   0.9638 B(  1-C ,  3-H ) :   0.9381
B(  1-C ,  4-C ) :   1.0039 B(  4-C ,  5-F ) :   1.1321 B(  4-C ,  6-O ) :   2.0777

Dispersion correction           -0.010257549
FINAL SINGLE POINT ENERGY      -292.383874516199

DIPOLE MOMENT
-------------
                                X             Y             Z
Electronic contribution:      2.61826      -5.35737      -5.30842
Nuclear contribution   :     -3.42837       5.66737       6.17046
                        -----------------------------------------
Total Dipole Moment    :     -0.81011       0.31000       0.86203
                        -----------------------------------------
Magnitude (a.u.)       :      1.22290
Magnitude (Debye)      :      3.10836

Rotational constants in cm-1:     0.304660     0.130969     0.097716
Rotational constants in MHz :  9133.464515  3926.366384  2929.457090

                             ****ORCA TERMINATED NORMALLY****
TOTAL RUN TIME: 0 days 0 hours 0 minutes 19 seconds 350 msec
