                         Program Version 5.0.0 -  RELEASE  -
|  1> !B3LYP D3BJ RIJCOSX def2-TZVP def2/J TightSCF
|  2> *xyz 0 1
|  3> C          2.48645       -2.67712       -2.56345
|  4> C          3.03764       -2.36672       -3.92351
|  5> C          2.28036       -2.45441       -4.96769
|  6> N          4.32174       -2.01793       -4.01664
|  7> H          4.87994       -1.91167       -3.17382
|  8> H          4.71015       -1.67088       -4.88356
|  9> H          1.27042       -2.41265       -4.86614
| 10> H          2.58183       -2.05528       -5.84688
| 11> C          2.49799       -1.46946       -1.61030
| 12> H          1.47259       -3.05153       -2.69437
| 13> H          3.08320       -3.49064       -2.14147
| 14> H          1.91240       -0.67831       -2.02991
| 15> H          3.50450       -1.13364       -1.47227
| 16> H          2.08509       -1.75655       -0.66585
| 17> *
| 18>
| 19> %MaxCore 64000
| 20>
| 21> %pal nprocs 4
| 22> end
| 23>
| 24> %scf
| 25>   MaxIter 150
| 26> end
| 27>
| 28>
| 29>                          ****END OF INPUT****

CARTESIAN COORDINATES (ANGSTROEM)
---------------------------------
  C      2.486450   -2.677120   -2.563450
  C      3.037640   -2.366720   -3.923510
  C      2.280360   -2.454410   -4.967690
  N      4.321740   -2.017930   -4.016640
  H      4.879940   -1.911670   -3.173820
  H      4.710150   -1.670880   -4.883560
  H      1.270420   -2.412650   -4.866140
  H      2.581830   -2.055280   -5.846880
  C      2.497990   -1.469460   -1.610300
  H      1.472590   -3.051530   -2.694370
  H      3.083200   -3.490640   -2.141470
  H      1.912400   -0.678310   -2.029910
  H      3.504500   -1.133640   -1.472270
  H      2.085090   -1.756550   -0.665850

 Total Charge           Charge          ....    0
 Multiplicity           Mult            ....    1
 Number of Electrons    NEL             ....   40
 Basis Dimension        Dim             ....  209

ORBITAL ENERGIES
----------------

  NO   OCC          E(Eh)            E(eV)
   0   2.0000     -14.313614      -389.4932
   1   2.0000     -10.186679      -277.1936
   2   2.0000     -10.166619      -276.6478
   3   2.0000     -10.155629      -276.3487
   4   2.0000     -10.095948      -274.7247
   5   2.0000      -0.923630       -25.1333
   6   2.0000      -0.777920       -21.1683
   7   2.0000      -0.723838       -19.6966
   8   2.0000      -0.634727       -17.2718
   9   2.0000      -0.566313       -15.4101
  10   2.0000      -0.523712       -14.2509
  11   2.0000      -0.476429       -12.9643
  12   2.0000      -0.436301       -11.8724
  13   2.0000      -0.430524       -11.7152
  14   2.0000      -0.388156       -10.5623
  15   2.0000      -0.381785       -10.3889
  16   2.0000      -0.354984        -9.6596
  17   2.0000      -0.333569        -9.0769
  18   2.0000      -0.324753        -8.8370
  19   2.0000      -0.195566        -5.3216
  20   0.0000       0.023390         0.6365
  21   0.0000       0.042957         1.1689
  22   0.0000       0.070494         1.9182
  23   0.0000       0.076818         2.0903
  24   0.0000       0.088998         2.4218

MULLIKEN ATOMIC CHARGES
-----------------------
   0 C :   -0.186075
   1 C :    0.226383
   2 C :   -0.367589
   3 N :   -0.450518
   4 H :    0.218274
   5 H :    0.219958
   6 H :    0.083822
   7 H :    0.062956
   8 C :   -0.304511
   9 H :    0.100798
  10 H :    0.093127
  11 H :    0.110288
  12 H :    0.083156
  13 H :    0.109932
Sum of atomic charges:   -0.0000000

LOEWDIN ATOMIC CHARGES
----------------------
   0 C :   -0.231798
   1 C :   -0.358916
   2 C :   -0.275747
   3 N :   -0.004932
   4 H :    0.166126
   5 H :    0.168134
   6 H :    0.108052
   7 H :    0.098566
   8 C :   -0.290022
   9 H :    0.144413
  10 H :    0.137337
  11 H :    0.117123
  12 H :    0.107592
  13 H :    0.114072

  Mayer bond orders larger than 0.100000
B(  0-C ,  1-C ) :   0.9659 B(  0-C ,  8-C ) :   0.9463 B(  0-C ,  9-H ) :   0.9810
B(  0-C , 10-H ) :   0.9668 B(  1-C ,  2-C ) :   1.7964 B(  1-C ,  3-N ) :   1.1391
B(  2-C ,  6-H ) :   0.9876 B(  2-C ,  7-H ) :   0.9911 B(  3-N ,  4-H ) :   0.9300
B(  3-N ,  5-H ) :   0.9225 B(  8-C , 11-H ) :   0.9772 B(  8-C , 12-H ) :   0.9755
B(  8-C , 13-H ) :   0.9769

Dispersion correction           -0.017401463
FINAL SINGLE POINT ENERGY      -212.518276179421

DIPOLE MOMENT
-------------
                                X             Y             Z
Electronic contribution:      1.56516      -0.87224      -2.13060
Nuclear contribution   :     -0.99743       1.27863       2.57190
                        -----------------------------------------
Total Dipole Moment    :      0.56772       0.40638       0.44130
                        -----------------------------------------
Magnitude (a.u.)       :      0.82595
Magnitude (Debye)      :      2.09940

Rotational constants in cm-1:     0.274050     0.130114     0.100964
Rotational constants in MHz :  8215.815505  3900.722919  3026.834930

                             ****ORCA TERMINATED NORMALLY****
TOTAL RUN TIME: 0 days 0 hours 0 minutes 25 seconds 304 msec
