                         Program Version 5.0.0 -  RELEASE  -
|  1> !B3LYP D3BJ RIJCOSX def2-TZVP def2/J TightSCF
|  2> *xyz 0 1
|  3> C         -0.87096        0.24804       -2.66280
|  4> C         -0.47749        0.60819       -4.10105
|  5> H          0.20677        1.45830       -4.11875
|  6> H         -1.36844        0.92942       -4.64785
|  7> C          0.18467       -0.50664       -4.91676
|  8> O         -0.15869       -1.70109       -4.65798
|  9> F          1.05594       -0.17441       -5.74037
| 10> H         -1.54056       -0.58646       -2.67455
| 11> H         -1.35339        1.08600       -2.20455
| 12> H          0.00660       -0.00662       -2.10609
| 13> *
| 14>
| 15> %MaxCore 64000
| 16>
| 17> %pal nprocs 4
| 18> end
| 19>
| 20> %scf
| 21>   MaxIter 150
| 22> end
| 23>
| 24>
| 25>                          ****END OF INPUT****

CARTESIAN COORDINATES (ANGSTROEM)
---------------------------------
  C     -0.870960    0.248040   -2.662800
  C     -0.477490    0.608190   -4.101050
  H      0.206770    1.458300   -4.118750
  H     -1.368440    0.929420   -4.647850
  C      0.184670   -0.506640   -4.916760
  O     -0.158690   -1.701090   -4.657980
  F      1.055940   -0.174410   -5.740370
  H     -1.540560   -0.586460   -2.674550
  H     -1.353390    1.086000   -2.204550
  H      0.006600   -0.006620   -2.106090

 Total Charge           Charge          ....    0
 Multiplicity           Mult            ....    1
 Number of Electrons    NEL             ....   40
 Basis Dimension        Dim             ....  185

ORBITAL ENERGIES
----------------

  NO   OCC          E(Eh)            E(eV)
   0   2.0000     -24.755287      -673.6256
   1   2.0000     -19.127563      -520.4874
   2   2.0000     -10.348180      -281.5883
   3   2.0000     -10.202114      -277.6136
   4   2.0000     -10.169523      -276.7268
   5   2.0000      -1.327809       -36.1315
   6   2.0000      -1.024056       -27.8660
   7   2.0000      -0.797642       -21.7049
   8   2.0000      -0.694669       -18.9029
   9   2.0000      -0.640627       -17.4324
  10   2.0000      -0.552943       -15.0464
  11   2.0000      -0.538700       -14.6588
  12   2.0000      -0.507477       -13.8091
  13   2.0000      -0.466335       -12.6896
  14   2.0000      -0.431963       -11.7543
  15   2.0000      -0.395260       -10.7556
  16   2.0000      -0.376791       -10.2530
  17   2.0000      -0.375073       -10.2062
  18   2.0000      -0.345555        -9.4030
  19   2.0000      -0.290344        -7.9007
  20   0.0000      -0.030908        -0.8411
  21   0.0000       0.030360         0.8261
  22   0.0000       0.070901         1.9293
  23   0.0000       0.088396         2.4054
  24   0.0000       0.097123         2.6428

MULLIKEN ATOMIC CHARGES
-----------------------
   0 C :   -0.302119
   1 C :   -0.209976
   2 H :    0.106785
   3 H :    0.117448
   4 C :    0.378064
   5 O :   -0.345574
   6 F :   -0.093616
   7 H :    0.128503
   8 H :    0.111589
   9 H :    0.108895
Sum of atomic charges:    0.0000000

LOEWDIN ATOMIC CHARGES
----------------------
   0 C :   -0.281504
   1 C :   -0.258462
   2 H :    0.139785
   3 H :    0.152500
   4 C :   -0.498755
   5 O :    0.045302
   6 F :    0.342367
   7 H :    0.123398
   8 H :    0.116718
   9 H :    0.118652

  Mayer bond orders larger than 0.100000
B(  0-C ,  1-C ) :   0.9679 B(  0-C ,  7-H ) :   0.9692 B(  0-C ,  8-H ) :   0.9683
B(  0-C ,  9-H ) :   0.9770 B(  1-C ,  2-H ) :   0.9589 B(  1-C ,  3-H ) :   0.9319
B(  1-C ,  4-C ) :   0.9960 B(  4-C ,  5-O ) :   2.0343 B(  4-C ,  6-F ) :   1.1658

Dispersion correction           -0.010350740
FINAL SINGLE POINT ENERGY      -292.377211702876

DIPOLE MOMENT
-------------
                                X             Y             Z
Electronic contribution:      4.64819      -2.84812      -7.12890
Nuclear contribution   :     -4.75269       4.00281       7.35060
                        -----------------------------------------
Total Dipole Moment    :     -0.10451       1.15470       0.22170
                        -----------------------------------------
Magnitude (a.u.)       :      1.18042
Magnitude (Debye)      :      3.00039

Rotational constants in cm-1:     0.323805     0.124913     0.096140
Rotational constants in MHz :  9707.430323  3744.789513  2882.191141

                             ****ORCA TERMINATED NORMALLY****
TOTAL RUN TIME: 0 days 0 hours 0 minutes 19 seconds 146 msec
