                         Program Version 5.0.0 -  RELEASE  -
|  1> !B3LYP D3BJ RIJCOSX def2-TZVP def2/J TightSCF
|  2> *xyz 0 1
|  3> C          2.48645       -2.67712       -2.56345
|  4> C          3.03764       -2.36672       -3.92351
|  5> N          2.28036       -2.45441       -4.96769
|  6> C          4.32174       -2.01793       -4.01664
|  7> H          4.87994       -1.91167       -3.17382
|  8> H          4.71015       -1.67088       -4.88356
|  9> H          1.27042       -2.41265       -4.86614
| 10> H          2.58183       -2.05528       -5.84688
| 11> C          2.49799       -1.46946       -1.61030
| 12> H          1.47259       -3.05153       -2.69437
| 13> H          3.08320       -3.49064       -2.14147
| 14> H          1.91240       -0.67831       -2.02991
| 15> H          3.50450       -1.13364       -1.47227
| 16> H          2.08509       -1.75655       -0.66585
| 17> *
| 18>
| 19> %MaxCore 64000
| 20>
| 21> %pal nprocs 4
| 22> end
| 23>
| 24> %scf
| 25>   MaxIter 150
| 26> end
| 27>
| 28>
| 29>                          ****END OF INPUT****

CARTESIAN COORDINATES (ANGSTROEM)
---------------------------------
  C      2.486450   -2.677120   -2.563450
  C      3.037640   -2.366720   -3.923510
  N      2.280360   -2.454410   -4.967690
  C      4.321740   -2.017930   -4.016640
  H      4.879940   -1.911670   -3.173820
  H      4.710150   -1.670880   -4.883560
  H      1.270420   -2.412650   -4.866140
  H      2.581830   -2.055280   -5.846880
  C      2.497990   -1.469460   -1.610300
  H      1.472590   -3.051530   -2.694370
  H      3.083200   -3.490640   -2.141470
  H      1.912400   -0.678310   -2.029910
  H      3.504500   -1.133640   -1.472270
  H      2.085090   -1.756550   -0.665850

 Total Charge           Charge          ....    0
 Multiplicity           Mult            ....    1
 Number of Electrons    NEL             ....   40
 Basis Dimension        Dim             ....  209

ORBITAL ENERGIES
----------------

  NO   OCC          E(Eh)            E(eV)
   0   2.0000     -14.317434      -389.5972
   1   2.0000     -10.186905      -277.1998
   2   2.0000     -10.167371      -276.6682
   3   2.0000     -10.151708      -276.2420
   4   2.0000     -10.096839      -274.7490
   5   2.0000      -0.939147       -25.5555
   6   2.0000      -0.779019       -21.1982
   7   2.0000      -0.708037       -19.2667
   8   2.0000      -0.639713       -17.4075
   9   2.0000      -0.570206       -15.5161
  10   2.0000      -0.520419       -14.1613
  11   2.0000      -0.480749       -13.0818
  12   2.0000      -0.444258       -12.0889
  13   2.0000      -0.408641       -11.1197
  14   2.0000      -0.393431       -10.7058
  15   2.0000      -0.378344       -10.2953
  16   2.0000      -0.352690        -9.5972
  17   2.0000      -0.337212        -9.1760
  18   2.0000      -0.333418        -9.0728
  19   2.0000      -0.186092        -5.0638
  20   0.0000       0.025373         0.6904
  21   0.0000       0.037888         1.0310
  22   0.0000       0.069023         1.8782
  23   0.0000       0.075569         2.0563
  24   0.0000       0.091554         2.4913

MULLIKEN ATOMIC CHARGES
-----------------------
   0 C :   -0.191905
   1 C :    0.224900
   2 N :   -0.412811
   3 C :   -0.411742
   4 H :    0.084146
   5 H :    0.075804
   6 H :    0.215146
   7 H :    0.220256
   8 C :   -0.294719
   9 H :    0.073981
  10 H :    0.110419
  11 H :    0.096532
  12 H :    0.108225
  13 H :    0.101768
Sum of atomic charges:   -0.0000000

LOEWDIN ATOMIC CHARGES
----------------------
   0 C :   -0.232278
   1 C :   -0.372242
   2 N :    0.015136
   3 C :   -0.279192
   4 H :    0.102557
   5 H :    0.093233
   6 H :    0.167162
   7 H :    0.171859
   8 C :   -0.284257
   9 H :    0.129383
  10 H :    0.147338
  11 H :    0.114037
  12 H :    0.116097
  13 H :    0.111167

  Mayer bond orders larger than 0.100000
B(  0-C ,  1-C ) :   0.9272 B(  0-C ,  8-C ) :   0.9596 B(  0-C ,  9-H ) :   0.9854
B(  0-C , 10-H ) :   0.9786 B(  1-C ,  2-N ) :   1.1931 B(  1-C ,  3-C ) :   1.7266
B(  2-N ,  6-H ) :   0.9228 B(  2-N ,  7-H ) :   0.9230 B(  3-C ,  4-H ) :   0.9994
B(  3-C ,  5-H ) :   0.9865 B(  8-C , 11-H ) :   0.9763 B(  8-C , 12-H ) :   0.9766
B(  8-C , 13-H ) :   0.9733

Dispersion correction           -0.017450843
FINAL SINGLE POINT ENERGY      -212.518656708875

DIPOLE MOMENT
-------------
                                X             Y             Z
Electronic contribution:     -0.27848      -1.19873      -2.99119
Nuclear contribution   :     -0.52463       1.37972       2.79217
                        -----------------------------------------
Total Dipole Moment    :     -0.80311       0.18098      -0.19902
                        -----------------------------------------
Magnitude (a.u.)       :      0.84696
Magnitude (Debye)      :      2.15281

Rotational constants in cm-1:     0.281086     0.127387     0.100311
Rotational constants in MHz :  8426.743103  3818.969834  3007.238026

                             ****ORCA TERMINATED NORMALLY****
TOTAL RUN TIME: 0 days 0 hours 0 minutes 25 seconds 458 msec
