                         Program Version 5.0.0 -  RELEASE  -
|  1> !B3LYP D3BJ RIJCOSX def2-TZVP def2/J TightSCF xyzfile
|  2>
|  3> *xyzfile 0 1 D1.xyz
|  4>
|  5> %MaxCore 64000
|  6>
|  7> %pal nprocs 18
|  8> end
|  9>
| 10> %scf
| 11>   MaxIter 150
| 12> end
| 13>
| 14>
| 15>                          ****END OF INPUT****

CARTESIAN COORDINATES (ANGSTROEM)
---------------------------------
  C      2.486452   -2.677121   -2.563447
  C     -0.870963    0.248043   -2.662804
  C     -0.477492    0.608191   -4.101052
  H      0.206773    1.458299   -4.118748
  H     -1.368442    0.929419   -4.647855
  C      0.184673   -0.506640   -4.916760
  C      3.037640   -2.366715   -3.923509
  C      2.280360   -2.454408   -4.967692
  N      4.321736   -2.017932   -4.016641
  H      4.879940   -1.911668   -3.173823
  H      4.710148   -1.670882   -4.883561
  H      1.270423   -2.412650   -4.866143
  H      2.581829   -2.055282   -5.846878
  F     -0.158685   -1.701088   -4.657981
  O      1.055938   -0.174410   -5.740373
  C      2.497991   -1.469464   -1.610303
  C      1.582841   -0.321986   -2.042619
  H      2.193083   -1.833912   -0.625420
  H      3.523356   -1.103982   -1.490392
  C      0.100160   -0.673551   -1.915815
  H      1.822311   -0.040361   -3.072834
  H      1.813180    0.557019   -1.433266
  H     -0.063284   -1.679120   -2.301112
  H     -0.168820   -0.691680   -0.853831
  H     -1.001048    1.181040   -2.104071
  H     -1.844645   -0.246592   -2.663281
  H      1.472592   -3.051527   -2.694366
  H      3.083201   -3.490638   -2.141472

 Total Charge           Charge          ....    0
 Multiplicity           Mult            ....    1
 Number of Electrons    NEL             ....   94
 Basis Dimension        Dim             ....  468

ORBITAL ENERGIES
----------------

  NO   OCC          E(Eh)            E(eV)
   0   2.0000     -24.747078      -673.4022
   1   2.0000     -19.127624      -520.4891
   2   2.0000     -14.300722      -389.1424
   3   2.0000     -10.344280      -281.4822
   4   2.0000     -10.196546      -277.4621
   5   2.0000     -10.181126      -277.0425
   6   2.0000     -10.170699      -276.7588
   7   2.0000     -10.169192      -276.7178
   8   2.0000     -10.166253      -276.6378
   9   2.0000     -10.164966      -276.6028
  10   2.0000     -10.160183      -276.4726
  11   2.0000     -10.073791      -274.1218
  12   2.0000      -1.316907       -35.8349
  13   2.0000      -1.038455       -28.2578
  14   2.0000      -0.911339       -24.7988
  15   2.0000      -0.824992       -22.4492
  16   2.0000      -0.790381       -21.5074
  17   2.0000      -0.742326       -20.1997
  18   2.0000      -0.719326       -19.5739
  19   2.0000      -0.675552       -18.3827
  20   2.0000      -0.656007       -17.8509
  21   2.0000      -0.616031       -16.7631
  22   2.0000      -0.578956       -15.7542
  23   2.0000      -0.570379       -15.5208
  24   2.0000      -0.546634       -14.8747
  25   2.0000      -0.535563       -14.5734
  26   2.0000      -0.507983       -13.8229
  27   2.0000      -0.493597       -13.4315
  28   2.0000      -0.478498       -13.0206
  29   2.0000      -0.468908       -12.7596
  30   2.0000      -0.456656       -12.4262
  31   2.0000      -0.440792       -11.9946
  32   2.0000      -0.429384       -11.6841
  33   2.0000      -0.410714       -11.1761
  34   2.0000      -0.403209       -10.9719
  35   2.0000      -0.387203       -10.5363
  36   2.0000      -0.374793       -10.1986
  37   2.0000      -0.372047       -10.1239
  38   2.0000      -0.357029        -9.7152
  39   2.0000      -0.351078        -9.5533
  40   2.0000      -0.338955        -9.2234
  41   2.0000      -0.334349        -9.0981
  42   2.0000      -0.319385        -8.6909
  43   2.0000      -0.312339        -8.4992
  44   2.0000      -0.309551        -8.4233
  45   2.0000      -0.287416        -7.8210
  46   2.0000      -0.179903        -4.8954
  47   0.0000      -0.028429        -0.7736
  48   0.0000       0.023878         0.6498
  49   0.0000       0.032801         0.8926
  50   0.0000       0.050217         1.3665
  51   0.0000       0.056447         1.5360

MULLIKEN ATOMIC CHARGES
-----------------------
   0 C :   -0.236393
   1 C :   -0.164286
   2 C :   -0.217929
   3 H :    0.135620
   4 H :    0.127144
   5 C :    0.356344
   6 C :    0.195069
   7 C :   -0.347952
   8 N :   -0.457244
   9 H :    0.210975
  10 H :    0.219048
  11 H :    0.095244
  12 H :    0.072898
  13 F :   -0.124100
  14 O :   -0.311526
  15 C :   -0.131837
  16 C :   -0.202538
  17 H :    0.081123
  18 H :    0.082323
  19 C :   -0.198534
  20 H :    0.138278
  21 H :    0.080163
  22 H :    0.100875
  23 H :    0.093064
  24 H :    0.096759
  25 H :    0.098971
  26 H :    0.107628
  27 H :    0.100812
Sum of atomic charges:   -0.0000000

LOEWDIN ATOMIC CHARGES
----------------------
   0 C :   -0.213890
   1 C :   -0.260373
   2 C :   -0.231612
   3 H :    0.155197
   4 H :    0.153588
   5 C :   -0.495613
   6 C :   -0.374270
   7 C :   -0.263253
   8 N :   -0.010675
   9 H :    0.162280
  10 H :    0.167617
  11 H :    0.096998
  12 H :    0.100503
  13 F :    0.321966
  14 O :    0.101070
  15 C :   -0.255905
  16 C :   -0.255675
  17 H :    0.134119
  18 H :    0.128207
  19 C :   -0.264914
  20 H :    0.145579
  21 H :    0.132237
  22 H :    0.133713
  23 H :    0.135387
  24 H :    0.137726
  25 H :    0.137088
  26 H :    0.143007
  27 H :    0.139900

  Mayer bond orders larger than 0.100000
B(  0-C ,  6-C ) :   0.9589 B(  0-C , 15-C ) :   0.9334 B(  0-C , 26-H ) :   0.9992
B(  0-C , 27-H ) :   0.9709 B(  1-C ,  2-C ) :   0.9456 B(  1-C , 19-C ) :   0.9586
B(  1-C , 24-H ) :   0.9633 B(  1-C , 25-H ) :   0.9730 B(  2-C ,  3-H ) :   0.9626
B(  2-C ,  4-H ) :   0.9455 B(  2-C ,  5-C ) :   0.9966 B(  5-C , 13-F ) :   1.0946
B(  5-C , 14-O ) :   2.0564 B(  6-C ,  7-C ) :   1.7492 B(  6-C ,  8-N ) :   1.1079
B(  7-C , 11-H ) :   1.0164 B(  7-C , 12-H ) :   0.9880 B(  8-N ,  9-H ) :   0.9314
B(  8-N , 10-H ) :   0.9224 B( 15-C , 16-C ) :   0.9580 B( 15-C , 17-H ) :   0.9647
B( 15-C , 18-H ) :   0.9684 B( 16-C , 19-C ) :   0.9470 B( 16-C , 20-H ) :   0.9700
B( 16-C , 21-H ) :   0.9603 B( 19-C , 22-H ) :   0.9830 B( 19-C , 23-H ) :   0.9633

Dispersion correction           -0.051146776
FINAL SINGLE POINT ENERGY      -582.281856786813

DIPOLE MOMENT
-------------
                                X             Y             Z
Electronic contribution:     -3.66204      -1.62692     -10.26534
Nuclear contribution   :      3.32973       2.37270      11.37738
                        -----------------------------------------
Total Dipole Moment    :     -0.33231       0.74578       1.11204
                        -----------------------------------------
Magnitude (a.u.)       :      1.37959
Magnitude (Debye)      :      3.50664

Rotational constants in cm-1:     0.040902     0.025807     0.019036
Rotational constants in MHz :  1226.202138   773.670450   570.681201

                             ****ORCA TERMINATED NORMALLY****
TOTAL RUN TIME: 0 days 0 hours 0 minutes 59 seconds 791 msec
