                         Program Version 5.0.0 -  RELEASE  -
|  1> !B3LYP D3BJ RIJCOSX def2-TZVP def2/J TightSCF xyzfile
|  2>
|  3> *xyzfile 0 1 D2.xyz
|  4>
|  5> %MaxCore 64000
|  6>
|  7> %pal nprocs 18
|  8> end
|  9>
| 10> %scf
| 11>   MaxIter 150
| 12> end
| 13>
| 14>
| 15>                          ****END OF INPUT****

CARTESIAN COORDINATES (ANGSTROEM)
---------------------------------
  C      2.486452   -2.677121   -2.563447
  C     -0.870963    0.248043   -2.662804
  C     -0.477492    0.608191   -4.101052
  H      0.206773    1.458299   -4.118748
  H     -1.368442    0.929419   -4.647855
  C      0.184673   -0.506640   -4.916760
  C      3.037640   -2.366715   -3.923509
  N      2.280360   -2.454408   -4.967692
  C      4.321736   -2.017932   -4.016641
  H      4.879940   -1.911668   -3.173823
  H      4.710148   -1.670882   -4.883561
  H      1.270423   -2.412650   -4.866143
  H      2.581829   -2.055282   -5.846878
  F     -0.158685   -1.701088   -4.657981
  O      1.055938   -0.174410   -5.740373
  C      2.497991   -1.469464   -1.610303
  C      1.582841   -0.321986   -2.042619
  H      2.193083   -1.833912   -0.625420
  H      3.523356   -1.103982   -1.490392
  C      0.100160   -0.673551   -1.915815
  H      1.822311   -0.040361   -3.072834
  H      1.813180    0.557019   -1.433266
  H     -0.063284   -1.679120   -2.301112
  H     -0.168820   -0.691680   -0.853831
  H     -1.001048    1.181040   -2.104071
  H     -1.844645   -0.246592   -2.663281
  H      1.472592   -3.051527   -2.694366
  H      3.083201   -3.490638   -2.141472

 Total Charge           Charge          ....    0
 Multiplicity           Mult            ....    1
 Number of Electrons    NEL             ....   94
 Basis Dimension        Dim             ....  468

ORBITAL ENERGIES
----------------

  NO   OCC          E(Eh)            E(eV)
   0   2.0000     -24.775864      -674.1855
   1   2.0000     -19.147994      -521.0434
   2   2.0000     -14.290680      -388.8692
   3   2.0000     -10.363717      -282.0111
   4   2.0000     -10.208337      -277.7830
   5   2.0000     -10.188807      -277.2515
   6   2.0000     -10.174725      -276.8683
   7   2.0000     -10.174522      -276.8628
   8   2.0000     -10.167369      -276.6682
   9   2.0000     -10.163995      -276.5764
  10   2.0000     -10.161524      -276.5091
  11   2.0000     -10.084140      -274.4034
  12   2.0000      -1.344391       -36.5827
  13   2.0000      -1.058723       -28.8093
  14   2.0000      -0.922337       -25.0981
  15   2.0000      -0.833051       -22.6685
  16   2.0000      -0.793239       -21.5851
  17   2.0000      -0.752680       -20.4815
  18   2.0000      -0.708079       -19.2678
  19   2.0000      -0.689956       -18.7746
  20   2.0000      -0.666222       -18.1288
  21   2.0000      -0.625283       -17.0148
  22   2.0000      -0.591825       -16.1044
  23   2.0000      -0.584389       -15.9020
  24   2.0000      -0.566918       -15.4266
  25   2.0000      -0.539398       -14.6778
  26   2.0000      -0.511784       -13.9263
  27   2.0000      -0.496537       -13.5115
  28   2.0000      -0.481441       -13.1007
  29   2.0000      -0.475651       -12.9431
  30   2.0000      -0.470547       -12.8042
  31   2.0000      -0.443883       -12.0787
  32   2.0000      -0.427797       -11.6409
  33   2.0000      -0.420560       -11.4440
  34   2.0000      -0.408743       -11.1225
  35   2.0000      -0.392316       -10.6755
  36   2.0000      -0.386575       -10.5192
  37   2.0000      -0.376803       -10.2533
  38   2.0000      -0.366911        -9.9842
  39   2.0000      -0.357544        -9.7293
  40   2.0000      -0.345826        -9.4104
  41   2.0000      -0.338670        -9.2157
  42   2.0000      -0.324094        -8.8190
  43   2.0000      -0.323459        -8.8018
  44   2.0000      -0.315443        -8.5836
  45   2.0000      -0.302331        -8.2268
  46   2.0000      -0.171225        -4.6593
  47   0.0000      -0.046909        -1.2764
  48   0.0000       0.017624         0.4796
  49   0.0000       0.040965         1.1147
  50   0.0000       0.050597         1.3768
  51   0.0000       0.056707         1.5431

MULLIKEN ATOMIC CHARGES
-----------------------
   0 C :   -0.227014
   1 C :   -0.164399
   2 C :   -0.223026
   3 H :    0.143660
   4 H :    0.131867
   5 C :    0.347075
   6 C :    0.179518
   7 N :   -0.372054
   8 C :   -0.418525
   9 H :    0.074844
  10 H :    0.077583
  11 H :    0.211879
  12 H :    0.222917
  13 F :   -0.137285
  14 O :   -0.308439
  15 C :   -0.115564
  16 C :   -0.217322
  17 H :    0.072474
  18 H :    0.099596
  19 C :   -0.204900
  20 H :    0.139786
  21 H :    0.084680
  22 H :    0.098987
  23 H :    0.097450
  24 H :    0.101656
  25 H :    0.101629
  26 H :    0.088723
  27 H :    0.114202
Sum of atomic charges:   -0.0000000

LOEWDIN ATOMIC CHARGES
----------------------
   0 C :   -0.210426
   1 C :   -0.259898
   2 C :   -0.229487
   3 H :    0.158157
   4 H :    0.155489
   5 C :   -0.499737
   6 C :   -0.382444
   7 N :    0.034290
   8 C :   -0.287964
   9 H :    0.099748
  10 H :    0.093441
  11 H :    0.144001
  12 H :    0.170400
  13 F :    0.317191
  14 O :    0.094606
  15 C :   -0.246868
  16 C :   -0.256432
  17 H :    0.132149
  18 H :    0.137502
  19 C :   -0.266724
  20 H :    0.144238
  21 H :    0.134011
  22 H :    0.131156
  23 H :    0.136892
  24 H :    0.139615
  25 H :    0.137285
  26 H :    0.129721
  27 H :    0.150090

  Mayer bond orders larger than 0.100000
B(  0-C ,  6-C ) :   0.9193 B(  0-C , 15-C ) :   0.9563 B(  0-C , 26-H ) :   1.0011
B(  0-C , 27-H ) :   0.9716 B(  1-C ,  2-C ) :   0.9435 B(  1-C , 19-C ) :   0.9529
B(  1-C , 24-H ) :   0.9626 B(  1-C , 25-H ) :   0.9745 B(  2-C ,  3-H ) :   0.9619
B(  2-C ,  4-H ) :   0.9413 B(  2-C ,  5-C ) :   0.9981 B(  5-C , 13-F ) :   1.0684
B(  5-C , 14-O ) :   2.0524 B(  6-C ,  7-N ) :   1.2375 B(  6-C ,  8-C ) :   1.7180
B(  7-N , 11-H ) :   0.9194 B(  7-N , 12-H ) :   0.9235 B(  8-C ,  9-H ) :   0.9940
B(  8-C , 10-H ) :   0.9892 B( 15-C , 16-C ) :   0.9700 B( 15-C , 17-H ) :   0.9596
B( 15-C , 18-H ) :   0.9616 B( 16-C , 19-C ) :   0.9373 B( 16-C , 20-H ) :   0.9660
B( 16-C , 21-H ) :   0.9605 B( 19-C , 22-H ) :   0.9848 B( 19-C , 23-H ) :   0.9647

Dispersion correction           -0.050931621
FINAL SINGLE POINT ENERGY      -582.294102202481

DIPOLE MOMENT
-------------
                                X             Y             Z
Electronic contribution:     -5.34106      -1.80088     -10.90540
Nuclear contribution   :      3.65024       2.44123      11.52670
                        -----------------------------------------
Total Dipole Moment    :     -1.69081       0.64035       0.62130
                        -----------------------------------------
Magnitude (a.u.)       :      1.91179
Magnitude (Debye)      :      4.85937

Rotational constants in cm-1:     0.040600     0.026409     0.019262
Rotational constants in MHz :  1217.142957   791.712481   577.449390

                             ****ORCA TERMINATED NORMALLY****
TOTAL RUN TIME: 0 days 0 hours 0 minutes 58 seconds 535 msec
