                         Program Version 5.0.0 -  RELEASE  -
|  1> !B3LYP D3BJ RIJCOSX def2-TZVP def2/J TightSCF xyzfile
|  2>
|  3> *xyzfile 0 1 D3.xyz
|  4>
|  5> %MaxCore 64000
|  6>
|  7> %pal nprocs 18
|  8> end
|  9>
| 10> %scf
| 11>   MaxIter 150
| 12> end
| 13>
| 14>
| 15>                          ****END OF INPUT****

CARTESIAN COORDINATES (ANGSTROEM)
---------------------------------
  C      2.486452   -2.677121   -2.563447
  C     -0.870963    0.248043   -2.662804
  C     -0.477492    0.608191   -4.101052
  H      0.206773    1.458299   -4.118748
  H     -1.368442    0.929419   -4.647855
  C      0.184673   -0.506640   -4.916760
  C      3.037640   -2.366715   -3.923509
  C      2.280360   -2.454408   -4.967692
  N      4.321736   -2.017932   -4.016641
  H      4.879940   -1.911668   -3.173823
  H      4.710148   -1.670882   -4.883561
  H      1.270423   -2.412650   -4.866143
  H      2.581829   -2.055282   -5.846878
  O     -0.158685   -1.701088   -4.657981
  F      1.055938   -0.174410   -5.740373
  C      2.497991   -1.469464   -1.610303
  C      1.582841   -0.321986   -2.042619
  H      2.193083   -1.833912   -0.625420
  H      3.523356   -1.103982   -1.490392
  C      0.100160   -0.673551   -1.915815
  H      1.822311   -0.040361   -3.072834
  H      1.813180    0.557019   -1.433266
  H     -0.063284   -1.679120   -2.301112
  H     -0.168820   -0.691680   -0.853831
  H     -1.001048    1.181040   -2.104071
  H     -1.844645   -0.246592   -2.663281
  H      1.472592   -3.051527   -2.694366
  H      3.083201   -3.490638   -2.141472

 Total Charge           Charge          ....    0
 Multiplicity           Mult            ....    1
 Number of Electrons    NEL             ....   94
 Basis Dimension        Dim             ....  468

ORBITAL ENERGIES
----------------

  NO   OCC          E(Eh)            E(eV)
   0   2.0000     -24.754036      -673.5916
   1   2.0000     -19.126681      -520.4634
   2   2.0000     -14.299592      -389.1117
   3   2.0000     -10.349511      -281.6245
   4   2.0000     -10.199068      -277.5308
   5   2.0000     -10.178360      -276.9672
   6   2.0000     -10.168323      -276.6941
   7   2.0000     -10.163342      -276.5586
   8   2.0000     -10.163119      -276.5525
   9   2.0000     -10.160508      -276.4815
  10   2.0000     -10.155147      -276.3356
  11   2.0000     -10.066488      -273.9231
  12   2.0000      -1.327655       -36.1273
  13   2.0000      -1.033262       -28.1165
  14   2.0000      -0.909990       -24.7621
  15   2.0000      -0.819794       -22.3077
  16   2.0000      -0.787846       -21.4384
  17   2.0000      -0.740586       -20.1524
  18   2.0000      -0.717213       -19.5164
  19   2.0000      -0.678388       -18.4599
  20   2.0000      -0.652847       -17.7649
  21   2.0000      -0.612138       -16.6571
  22   2.0000      -0.574939       -15.6449
  23   2.0000      -0.561350       -15.2751
  24   2.0000      -0.548483       -14.9250
  25   2.0000      -0.528792       -14.3892
  26   2.0000      -0.518257       -14.1025
  27   2.0000      -0.505821       -13.7641
  28   2.0000      -0.475679       -12.9439
  29   2.0000      -0.468084       -12.7372
  30   2.0000      -0.452585       -12.3155
  31   2.0000      -0.438391       -11.9292
  32   2.0000      -0.430851       -11.7241
  33   2.0000      -0.402499       -10.9526
  34   2.0000      -0.396295       -10.7837
  35   2.0000      -0.393747       -10.7144
  36   2.0000      -0.377289       -10.2666
  37   2.0000      -0.365358        -9.9419
  38   2.0000      -0.357558        -9.7296
  39   2.0000      -0.352292        -9.5864
  40   2.0000      -0.335290        -9.1237
  41   2.0000      -0.327486        -8.9113
  42   2.0000      -0.316980        -8.6255
  43   2.0000      -0.310876        -8.4594
  44   2.0000      -0.308593        -8.3973
  45   2.0000      -0.266578        -7.2539
  46   2.0000      -0.178666        -4.8618
  47   0.0000      -0.033958        -0.9240
  48   0.0000       0.026688         0.7262
  49   0.0000       0.035277         0.9599
  50   0.0000       0.049341         1.3426
  51   0.0000       0.061728         1.6797

MULLIKEN ATOMIC CHARGES
-----------------------
   0 C :   -0.223610
   1 C :   -0.142837
   2 C :   -0.232694
   3 H :    0.119491
   4 H :    0.128960
   5 C :    0.387454
   6 C :    0.181059
   7 C :   -0.402567
   8 N :   -0.450748
   9 H :    0.210606
  10 H :    0.213199
  11 H :    0.160453
  12 H :    0.048881
  13 O :   -0.353842
  14 F :   -0.096209
  15 C :   -0.136592
  16 C :   -0.187165
  17 H :    0.082225
  18 H :    0.078934
  19 C :   -0.186977
  20 H :    0.105729
  21 H :    0.077473
  22 H :    0.120221
  23 H :    0.087850
  24 H :    0.094402
  25 H :    0.096289
  26 H :    0.121503
  27 H :    0.098514
Sum of atomic charges:   -0.0000000

LOEWDIN ATOMIC CHARGES
----------------------
   0 C :   -0.210947
   1 C :   -0.249596
   2 C :   -0.235471
   3 H :    0.143387
   4 H :    0.155281
   5 C :   -0.492048
   6 C :   -0.377171
   7 C :   -0.266627
   8 N :   -0.014234
   9 H :    0.161553
  10 H :    0.164720
  11 H :    0.098647
  12 H :    0.092278
  13 O :    0.072586
  14 F :    0.359201
  15 C :   -0.255417
  16 C :   -0.254938
  17 H :    0.134876
  18 H :    0.126736
  19 C :   -0.262124
  20 H :    0.138602
  21 H :    0.130882
  22 H :    0.140920
  23 H :    0.133814
  24 H :    0.136922
  25 H :    0.140823
  26 H :    0.148222
  27 H :    0.139121

  Mayer bond orders larger than 0.100000
B(  0-C ,  6-C ) :   0.9545 B(  0-C , 15-C ) :   0.9325 B(  0-C , 26-H ) :   0.9974
B(  0-C , 27-H ) :   0.9712 B(  1-C ,  2-C ) :   0.9667 B(  1-C , 19-C ) :   0.9725
B(  1-C , 24-H ) :   0.9668 B(  1-C , 25-H ) :   0.9627 B(  2-C ,  3-H ) :   0.9552
B(  2-C ,  4-H ) :   0.9383 B(  2-C ,  5-C ) :   1.0015 B(  5-C , 13-O ) :   1.9458
B(  5-C , 14-F ) :   1.1610 B(  6-C ,  7-C ) :   1.7448 B(  6-C ,  8-N ) :   1.1015
B(  7-C , 11-H ) :   0.9824 B(  7-C , 12-H ) :   0.9940 B(  8-N ,  9-H ) :   0.9312
B(  8-N , 10-H ) :   0.9228 B( 15-C , 16-C ) :   0.9660 B( 15-C , 17-H ) :   0.9649
B( 15-C , 18-H ) :   0.9689 B( 16-C , 19-C ) :   0.9566 B( 16-C , 20-H ) :   0.9676
B( 16-C , 21-H ) :   0.9610 B( 19-C , 22-H ) :   0.9738 B( 19-C , 23-H ) :   0.9617

Dispersion correction           -0.051411523
FINAL SINGLE POINT ENERGY      -582.276661700953

DIPOLE MOMENT
-------------
                                X             Y             Z
Electronic contribution:     -1.72481       0.90281     -12.11833
Nuclear contribution   :      1.88979       0.56282      12.66056
                        -----------------------------------------
Total Dipole Moment    :      0.16498       1.46563       0.54223
                        -----------------------------------------
Magnitude (a.u.)       :      1.57140
Magnitude (Debye)      :      3.99418

Rotational constants in cm-1:     0.040271     0.025954     0.018866
Rotational constants in MHz :  1207.302496   778.083475   565.600538

                             ****ORCA TERMINATED NORMALLY****
TOTAL RUN TIME: 0 days 0 hours 1 minutes 5 seconds 801 msec
