                         Program Version 5.0.0 -  RELEASE  -
|  1> !CAM-B3LYP RIJCOSX def2-SVPD def2/J TightSCF
|  2> *xyz -1 1
|  3> C         -0.96015       -0.52236       -0.48987
|  4> O          0.26170       -0.58031        0.13861
|  5> H         -0.85050       -0.82220       -1.51113
|  6> H         -1.33436        0.47929       -0.45044
|  7> H         -1.64624       -1.17908        0.00297
|  8> *
|  9>
| 10> %MaxCore 64000
| 11>
| 12> %pal nprocs 4
| 13> end
| 14>
| 15> %scf
| 16>   MaxIter 150
| 17> end
| 18>
| 19>
| 20>                          ****END OF INPUT****

CARTESIAN COORDINATES (ANGSTROEM)
---------------------------------
  C     -0.960150   -0.522360   -0.489870
  O      0.261700   -0.580310    0.138610
  H     -0.850500   -0.822200   -1.511130
  H     -1.334360    0.479290   -0.450440
  H     -1.646240   -1.179080    0.002970

 Total Charge           Charge          ....   -1
 Multiplicity           Mult            ....    1
 Number of Electrons    NEL             ....   18
 Basis Dimension        Dim             ....   67

ORBITAL ENERGIES
----------------

  NO   OCC          E(Eh)            E(eV)
   0   2.0000     -18.858424      -513.1638
   1   2.0000     -10.045663      -273.3564
   2   2.0000      -0.726687       -19.7741
   3   2.0000      -0.468925       -12.7601
   4   2.0000      -0.266073        -7.2402
   5   2.0000      -0.266057        -7.2398
   6   2.0000      -0.163934        -4.4609
   7   2.0000      -0.013181        -0.3587
   8   2.0000      -0.013171        -0.3584
   9   0.0000       0.225605         6.1390
  10   0.0000       0.300377         8.1737
  11   0.0000       0.300380         8.1737
  12   0.0000       0.309300         8.4165
  13   0.0000       0.344779         9.3819

MULLIKEN ATOMIC CHARGES
-----------------------
   0 C :    0.973671
   1 O :   -1.023142
   2 H :   -0.316920
   3 H :   -0.316794
   4 H :   -0.316815
Sum of atomic charges:   -1.0000000

LOEWDIN ATOMIC CHARGES
----------------------
   0 C :   -0.111706
   1 O :   -0.656334
   2 H :   -0.077339
   3 H :   -0.077298
   4 H :   -0.077323

  Mayer bond orders larger than 0.100000
B(  0-C ,  1-O ) :   1.1918 B(  0-C ,  2-H ) :   0.8761 B(  0-C ,  3-H ) :   0.8763
B(  0-C ,  4-H ) :   0.8762

FINAL SINGLE POINT ENERGY      -114.968555405883

DIPOLE MOMENT
-------------
                                X             Y             Z
Electronic contribution:      1.59125      -0.07543       0.81835
Nuclear contribution   :     -2.56864       0.12183      -1.32123
                        -----------------------------------------
Total Dipole Moment    :     -0.97739       0.04640      -0.50288
                        -----------------------------------------
Magnitude (a.u.)       :      1.10015
Magnitude (Debye)      :      2.79637

Rotational constants in cm-1:     5.477744     0.932677     0.932677
Rotational constants in MHz : 164218.635293 27960.967920 27960.945417

                             ****ORCA TERMINATED NORMALLY****
TOTAL RUN TIME: 0 days 0 hours 0 minutes 4 seconds 495 msec
