                         Program Version 5.0.0 -  RELEASE  -
|  1> !CAM-B3LYP RIJCOSX def2-SVPD def2/J TightSCF
|  2> *xyz 1 1
|  3> C          4.36645       -0.13321       -1.41606
|  4> C          3.05650       -0.32080       -0.70738
|  5> N          2.38983        0.71129       -0.24391
|  6> N          2.51600       -1.50772       -0.55023
|  7> H          2.96768       -2.32291       -0.95631
|  8> H          1.54987       -1.49063       -0.24988
|  9> H          2.74307        1.64947       -0.41280
| 10> H          1.44036        0.50278        0.03703
| 11> H          4.74975       -1.08632       -1.71533
| 12> H          5.06373        0.34075       -0.75722
| 13> H          4.21960        0.47966       -2.28077
| 14> *
| 15>
| 16> %MaxCore 64000
| 17>
| 18> %pal nprocs 4
| 19> end
| 20>
| 21> %scf
| 22>   MaxIter 150
| 23> end
| 24>
| 25>
| 26>                          ****END OF INPUT****

CARTESIAN COORDINATES (ANGSTROEM)
---------------------------------
  C      4.366450   -0.133210   -1.416060
  C      3.056500   -0.320800   -0.707380
  N      2.389830    0.711290   -0.243910
  N      2.516000   -1.507720   -0.550230
  H      2.967680   -2.322910   -0.956310
  H      1.549870   -1.490630   -0.249880
  H      2.743070    1.649470   -0.412800
  H      1.440360    0.502780    0.037030
  H      4.749750   -1.086320   -1.715330
  H      5.063730    0.340750   -0.757220
  H      4.219600    0.479660   -2.280770

 Total Charge           Charge          ....    1
 Multiplicity           Mult            ....    1
 Number of Electrons    NEL             ....   32
 Basis Dimension        Dim             ....  136

ORBITAL ENERGIES
----------------

  NO   OCC          E(Eh)            E(eV)
   0   2.0000     -14.660455      -398.9313
   1   2.0000     -14.657988      -398.8641
   2   2.0000     -10.595507      -288.3184
   3   2.0000     -10.462120      -284.6888
   4   2.0000      -1.297259       -35.3002
   5   2.0000      -1.187968       -32.3262
   6   2.0000      -1.035390       -28.1744
   7   2.0000      -0.914580       -24.8870
   8   2.0000      -0.857998       -23.3473
   9   2.0000      -0.846343       -23.0302
  10   2.0000      -0.781684       -21.2707
  11   2.0000      -0.738703       -20.1011
  12   2.0000      -0.692196       -18.8356
  13   2.0000      -0.674005       -18.3406
  14   2.0000      -0.649730       -17.6800
  15   2.0000      -0.566280       -15.4093
  16   0.0000      -0.173274        -4.7150
  17   0.0000      -0.134004        -3.6464
  18   0.0000      -0.088824        -2.4170
  19   0.0000      -0.080932        -2.2023
  20   0.0000      -0.060912        -1.6575

MULLIKEN ATOMIC CHARGES
-----------------------
   0 C :    0.796915
   1 C :    0.112019
   2 N :    0.226968
   3 N :    0.123983
   4 H :    0.003316
   5 H :   -0.066510
   6 H :   -0.013776
   7 H :   -0.116426
   8 H :   -0.007241
   9 H :   -0.019873
  10 H :   -0.039377
Sum of atomic charges:    1.0000000

LOEWDIN ATOMIC CHARGES
----------------------
   0 C :    0.239792
   1 C :   -0.070220
   2 N :    0.279723
   3 N :    0.283944
   4 H :    0.060414
   5 H :    0.044388
   6 H :    0.064643
   7 H :    0.043217
   8 H :    0.007595
   9 H :    0.023033
  10 H :    0.023470

  Mayer bond orders larger than 0.100000
B(  0-C ,  1-C ) :   1.3342 B(  0-C ,  8-H ) :   0.7205 B(  0-C ,  9-H ) :   0.6738
B(  0-C , 10-H ) :   0.7591 B(  1-C ,  2-N ) :   1.2298 B(  1-C ,  3-N ) :   1.1222
B(  1-C ,  5-H ) :  -0.1409 B(  1-C ,  7-H ) :  -0.1114 B(  1-C ,  8-H ) :   0.3052
B(  1-C ,  9-H ) :   0.2427 B(  1-C , 10-H ) :   0.1794 B(  2-N ,  3-N ) :   0.1954
B(  2-N ,  6-H ) :   1.1191 B(  2-N ,  7-H ) :   1.1881 B(  3-N ,  4-H ) :   1.1125
B(  3-N ,  5-H ) :   1.2136 B(  4-H ,  5-H ) :  -0.1523 B(  6-H ,  7-H ) :  -0.1410
B(  8-H ,  9-H ) :   0.1169 B(  8-H , 10-H ) :   0.1081

FINAL SINGLE POINT ENERGY      -189.486070005760

DIPOLE MOMENT
-------------
                                X             Y             Z
Electronic contribution:     -1.73582      -0.26536       1.09912
Nuclear contribution   :      1.22976       0.25273      -1.15956
                        -----------------------------------------
Total Dipole Moment    :     -0.50606      -0.01262      -0.06044
                        -----------------------------------------
Magnitude (a.u.)       :      0.50981
Magnitude (Debye)      :      1.29583

Rotational constants in cm-1:     0.347067     0.291236     0.163306
Rotational constants in MHz : 10404.811357  8731.035118  4895.793931

                             ****ORCA TERMINATED NORMALLY****
TOTAL RUN TIME: 0 days 0 hours 0 minutes 15 seconds 238 msec
