                         Program Version 5.0.0 -  RELEASE  -
|  1> !CAM-B3LYP RIJCOSX def2-SVPD def2/J TightSCF xyzfile
|  2>
|  3> *xyzfile 0 1 B.xyz
|  4>
|  5> %MaxCore 64000
|  6>
|  7> %pal nprocs 4
|  8> end
|  9>
| 10> %scf
| 11>   MaxIter 150
| 12> end
| 13>
| 14>
| 15>                          ****END OF INPUT****

CARTESIAN COORDINATES (ANGSTROEM)
---------------------------------
  C      4.366454   -0.133215   -1.416062
  C      4.508292   -0.931872   -2.724249
  H      4.753716   -1.972051   -2.488408
  C      3.294164   -0.918214   -3.656570
  H      5.385637   -0.536236   -3.242640
  H      2.483463   -1.477378   -3.185764
  H      3.553092   -1.478495   -4.560331
  C      2.772335    0.460100   -4.051448
  H      2.608762    1.065107   -3.155194
  C      1.465354    0.410537   -4.853644
  H      3.532940    0.988848   -4.635671
  C      0.326171   -0.375613   -4.192580
  H      1.666704   -0.022269   -5.839323
  H      1.138198    1.439246   -5.035449
  C     -0.017405    0.080588   -2.778406
  H      0.585573   -1.439385   -4.168057
  H     -0.560005   -0.311425   -4.831461
  H      0.902090    0.201296   -2.206729
  C     -0.903495   -0.873945   -1.987388
  H     -0.479549    1.074657   -2.811915
  H     -0.502554   -1.892096   -2.081204
  H     -1.917039   -0.895427   -2.406277
  C     -0.960148   -0.522365   -0.489867
  H     -1.690392   -1.208130   -0.021677
  H     -1.414490    0.486329   -0.406677
  O      0.261703   -0.580307    0.138611
  C      3.056503   -0.320797   -0.707384
  N      2.389825    0.711285   -0.243909
  N      2.515999   -1.507721   -0.550229
  H      2.967683   -2.322915   -0.956305
  H      1.549872   -1.490634   -0.249876
  H      2.743071    1.649471   -0.412802
  H      1.440364    0.502778    0.037031
  H      4.487835    0.932997   -1.611569
  H      5.169672   -0.414432   -0.729817

 Total Charge           Charge          ....    0
 Multiplicity           Mult            ....    1
 Number of Electrons    NEL             ....  104
 Basis Dimension        Dim             ....  439

ORBITAL ENERGIES
----------------

  NO   OCC          E(Eh)            E(eV)
   0   2.0000     -19.084630      -519.3192
   1   2.0000     -14.434046      -392.7704
   2   2.0000     -14.433735      -392.7619
   3   2.0000     -10.387561      -282.6599
   4   2.0000     -10.304759      -280.4067
   5   2.0000     -10.289083      -279.9802
   6   2.0000     -10.267601      -279.3956
   7   2.0000     -10.261296      -279.2241
   8   2.0000     -10.252265      -278.9783
   9   2.0000     -10.241433      -278.6836
  10   2.0000     -10.240037      -278.6456
  11   2.0000     -10.227933      -278.3162
  12   2.0000     -10.214777      -277.9582
  13   2.0000      -1.085361       -29.5342
  14   2.0000      -0.975388       -26.5416
  15   2.0000      -0.958317       -26.0771
  16   2.0000      -0.913627       -24.8611
  17   2.0000      -0.876687       -23.8559
  18   2.0000      -0.836104       -22.7515
  19   2.0000      -0.795557       -21.6482
  20   2.0000      -0.756698       -20.5908
  21   2.0000      -0.713087       -19.4041
  22   2.0000      -0.696673       -18.9574
  23   2.0000      -0.685202       -18.6453
  24   2.0000      -0.642802       -17.4915
  25   2.0000      -0.626043       -17.0355
  26   2.0000      -0.623428       -16.9643
  27   2.0000      -0.597238       -16.2517
  28   2.0000      -0.576810       -15.6958
  29   2.0000      -0.574198       -15.6247
  30   2.0000      -0.556535       -15.1441
  31   2.0000      -0.535502       -14.5717
  32   2.0000      -0.519097       -14.1254
  33   2.0000      -0.500317       -13.6143
  34   2.0000      -0.490472       -13.3464
  35   2.0000      -0.483196       -13.1484
  36   2.0000      -0.477254       -12.9867
  37   2.0000      -0.472300       -12.8519
  38   2.0000      -0.448881       -12.2147
  39   2.0000      -0.439107       -11.9487
  40   2.0000      -0.429409       -11.6848
  41   2.0000      -0.420003       -11.4289
  42   2.0000      -0.409577       -11.1452
  43   2.0000      -0.404799       -11.0151
  44   2.0000      -0.385616       -10.4931
  45   2.0000      -0.378721       -10.3055
  46   2.0000      -0.368599       -10.0301
  47   2.0000      -0.365398        -9.9430
  48   2.0000      -0.360246        -9.8028
  49   2.0000      -0.349193        -9.5020
  50   2.0000      -0.245592        -6.6829
  51   2.0000      -0.240946        -6.5565
  52   0.0000       0.016982         0.4621
  53   0.0000       0.030140         0.8201
  54   0.0000       0.044287         1.2051
  55   0.0000       0.059286         1.6133
  56   0.0000       0.067256         1.8301

MULLIKEN ATOMIC CHARGES
-----------------------
   0 C :    0.487273
   1 C :    0.590752
   2 H :   -0.075944
   3 C :    0.067536
   4 H :   -0.215741
   5 H :   -0.097214
   6 H :   -0.216734
   7 C :    0.148386
   8 H :   -0.033481
   9 C :    0.879389
  10 H :   -0.457542
  11 C :    0.254471
  12 H :   -0.103810
  13 H :   -0.073319
  14 C :    0.776983
  15 H :    0.080477
  16 H :   -0.529897
  17 H :   -1.053188
  18 C :    0.262826
  19 H :   -0.047605
  20 H :   -0.073000
  21 H :   -0.284033
  22 C :    1.015662
  23 H :   -0.234847
  24 H :   -0.147228
  25 O :   -1.060862
  26 C :   -0.029973
  27 N :    0.563844
  28 N :    0.588445
  29 H :   -0.100691
  30 H :   -0.341294
  31 H :   -0.101452
  32 H :   -0.275008
  33 H :    0.176501
  34 H :   -0.339683
Sum of atomic charges:    0.0000000

LOEWDIN ATOMIC CHARGES
----------------------
   0 C :    0.041814
   1 C :   -0.015681
   2 H :    0.018411
   3 C :   -0.027983
   4 H :    0.026307
   5 H :   -0.007526
   6 H :    0.032478
   7 C :   -0.031978
   8 H :   -0.002279
   9 C :   -0.025761
  10 H :    0.024263
  11 C :   -0.037369
  12 H :    0.020371
  13 H :    0.022338
  14 C :   -0.035107
  15 H :    0.009065
  16 H :    0.022147
  17 H :   -0.032071
  18 C :   -0.034236
  19 H :    0.034288
  20 H :    0.017736
  21 H :    0.018830
  22 C :   -0.058193
  23 H :    0.006671
  24 H :    0.011219
  25 O :   -0.438915
  26 C :   -0.067334
  27 N :    0.287136
  28 N :    0.297376
  29 H :    0.030421
  30 H :   -0.095874
  31 H :    0.033468
  32 H :   -0.102088
  33 H :    0.021400
  34 H :    0.036657

  Mayer bond orders larger than 0.100000
B(  0-C ,  1-C ) :   1.1661 B(  0-C ,  3-C ) :   0.1117 B(  0-C ,  4-H ) :   0.1879
B(  0-C , 26-C ) :   1.1851 B(  0-C , 33-H ) :   0.6967 B(  0-C , 34-H ) :   0.6097
B(  1-C ,  2-H ) :   0.6363 B(  1-C ,  3-C ) :   1.2439 B(  1-C ,  4-H ) :   0.7370
B(  1-C ,  5-H ) :   0.1245 B(  1-C ,  6-H ) :   0.1094 B(  1-C , 26-C ) :   0.1035
B(  1-C , 33-H ) :   0.1688 B(  1-C , 34-H ) :   0.1188 B(  2-H ,  3-C ) :   0.2883
B(  2-H ,  4-H ) :  -0.1668 B(  3-C ,  4-H ) :   0.1879 B(  3-C ,  5-H ) :   0.8204
B(  3-C ,  6-H ) :   0.7862 B(  3-C ,  7-C ) :   1.2266 B(  3-C ,  8-H ) :   0.1486
B(  3-C , 10-H ) :   0.1755 B(  5-H ,  7-C ) :   0.1647 B(  5-H , 15-H ) :   0.1949
B(  5-H , 16-H ) :  -0.1029 B(  6-H ,  7-C ) :   0.1535 B(  7-C ,  8-H ) :   0.8123
B(  7-C ,  9-C ) :   1.1102 B(  7-C , 10-H ) :   0.9044 B(  7-C , 11-C ) :   0.1824
B(  7-C , 12-H ) :   0.1278 B(  7-C , 13-H ) :   0.2966 B(  8-H , 17-H ) :   0.2334
B(  9-C , 11-C ) :   1.1129 B(  9-C , 12-H ) :   0.6554 B(  9-C , 13-H ) :   0.6104
B( 11-C , 12-H ) :   0.2208 B( 11-C , 13-H ) :   0.1541 B( 11-C , 14-C ) :   1.0911
B( 11-C , 15-H ) :   0.8077 B( 11-C , 16-H ) :   0.9031 B( 11-C , 17-H ) :   0.2200
B( 11-C , 19-H ) :   0.1222 B( 12-H , 13-H ) :  -0.1439 B( 14-C , 15-H ) :   0.1528
B( 14-C , 16-H ) :   0.2419 B( 14-C , 17-H ) :  -0.1445 B( 14-C , 18-C ) :   1.1399
B( 14-C , 19-H ) :   0.6098 B( 14-C , 20-H ) :   0.1483 B( 14-C , 21-H ) :   0.2702
B( 14-C , 22-C ) :   0.1386 B( 15-H , 16-H ) :  -0.1042 B( 17-H , 18-C ) :   0.2415
B( 17-H , 19-H ) :   0.2312 B( 17-H , 26-C ) :   0.1425 B( 18-C , 19-H ) :   0.1111
B( 18-C , 20-H ) :   0.8669 B( 18-C , 21-H ) :   0.7991 B( 18-C , 22-C ) :   1.0118
B( 18-C , 23-H ) :   0.2400 B( 18-C , 24-H ) :   0.1170 B( 18-C , 25-O ) :   0.1040
B( 20-H , 22-C ) :   0.1122 B( 22-C , 23-H ) :   0.6956 B( 22-C , 24-H ) :   0.7724
B( 22-C , 25-O ) :   1.0399 B( 24-H , 25-O ) :   0.1835 B( 25-O , 26-C ) :   0.1005
B( 25-O , 30-H ) :   0.3587 B( 25-O , 32-H ) :   0.3288 B( 26-C , 27-N ) :   1.1061
B( 26-C , 28-N ) :   1.1132 B( 26-C , 32-H ) :   0.1189 B( 26-C , 33-H ) :   0.2380
B( 26-C , 34-H ) :   0.3279 B( 27-N , 28-N ) :   0.2068 B( 27-N , 31-H ) :   1.1123
B( 27-N , 32-H ) :   1.0326 B( 28-N , 29-H ) :   1.0910 B( 28-N , 30-H ) :   1.0840
B( 29-H , 30-H ) :  -0.2439 B( 31-H , 32-H ) :  -0.1748

FINAL SINGLE POINT ENERGY      -578.335942292377

DIPOLE MOMENT
-------------
                                X             Y             Z
Electronic contribution:      2.80765      -0.26231       7.49290
Nuclear contribution   :     -0.17996       0.53390      -8.68067
                        -----------------------------------------
Total Dipole Moment    :      2.62769       0.27159      -1.18777
                        -----------------------------------------
Magnitude (a.u.)       :      2.89643
Magnitude (Debye)      :      7.36214

Rotational constants in cm-1:     0.028240     0.022734     0.014600
Rotational constants in MHz :   846.611263   681.554306   437.693928

                             ****ORCA TERMINATED NORMALLY****
TOTAL RUN TIME: 0 days 0 hours 4 minutes 50 seconds 917 msec
