                         Program Version 5.0.0 -  RELEASE  -
|  1> !CAM-B3LYP RIJCOSX def2-SVPD def2/J TightSCF
|  2> *xyz 0 1
|  3> C         -0.96015       -0.52236       -0.48987
|  4> F          0.26170       -0.58031        0.13861
|  5> H         -0.85050       -0.82220       -1.51113
|  6> H         -1.33436        0.47929       -0.45044
|  7> H         -1.64624       -1.17908        0.00297
|  8> *
|  9>
| 10> %MaxCore 64000
| 11>
| 12> %pal nprocs 4
| 13> end
| 14>
| 15> %scf
| 16>   MaxIter 150
| 17> end
| 18>
| 19>
| 20>                          ****END OF INPUT****

CARTESIAN COORDINATES (ANGSTROEM)
---------------------------------
  C     -0.960150   -0.522360   -0.489870
  F      0.261700   -0.580310    0.138610
  H     -0.850500   -0.822200   -1.511130
  H     -1.334360    0.479290   -0.450440
  H     -1.646240   -1.179080    0.002970

 Total Charge           Charge          ....    0
 Multiplicity           Mult            ....    1
 Number of Electrons    NEL             ....   18
 Basis Dimension        Dim             ....   67

ORBITAL ENERGIES
----------------

  NO   OCC          E(Eh)            E(eV)
   0   2.0000     -24.758439      -673.7114
   1   2.0000     -10.332697      -281.1670
   2   2.0000      -1.262517       -34.3548
   3   2.0000      -0.783333       -21.3156
   4   2.0000      -0.570314       -15.5190
   5   2.0000      -0.565826       -15.3969
   6   2.0000      -0.565817       -15.3967
   7   2.0000      -0.423552       -11.5254
   8   2.0000      -0.423547       -11.5253
   9   0.0000       0.053283         1.4499
  10   0.0000       0.097290         2.6474
  11   0.0000       0.132704         3.6111
  12   0.0000       0.132709         3.6112
  13   0.0000       0.174374         4.7450

MULLIKEN ATOMIC CHARGES
-----------------------
   0 C :    1.048248
   1 F :   -0.479000
   2 H :   -0.189809
   3 H :   -0.189694
   4 H :   -0.189746
Sum of atomic charges:   -0.0000000

LOEWDIN ATOMIC CHARGES
----------------------
   0 C :    0.268558
   1 F :   -0.252677
   2 H :   -0.005312
   3 H :   -0.005278
   4 H :   -0.005292

  Mayer bond orders larger than 0.100000
B(  0-C ,  1-F ) :   0.8522 B(  0-C ,  2-H ) :   0.9105 B(  0-C ,  3-H ) :   0.9106
B(  0-C ,  4-H ) :   0.9103

FINAL SINGLE POINT ENERGY      -139.595701667598

DIPOLE MOMENT
-------------
                                X             Y             Z
Electronic contribution:      2.58300      -0.12253       1.32844
Nuclear contribution   :     -3.25854       0.15455      -1.67609
                        -----------------------------------------
Total Dipole Moment    :     -0.67554       0.03202      -0.34765
                        -----------------------------------------
Magnitude (a.u.)       :      0.76042
Magnitude (Debye)      :      1.93284

Rotational constants in cm-1:     5.477744     0.868130     0.868129
Rotational constants in MHz : 164218.635293 26025.869915 26025.850419

                             ****ORCA TERMINATED NORMALLY****
TOTAL RUN TIME: 0 days 0 hours 0 minutes 4 seconds 258 msec
