                         Program Version 5.0.0 -  RELEASE  -
|  1> !CAM-B3LYP RIJCOSX def2-SVPD def2/J TightSCF
|  2> *xyz 0 1
|  3> C          4.36645       -0.13321       -1.41606
|  4> C          3.05650       -0.32080       -0.70738
|  5> C          2.38983        0.71129       -0.24391
|  6> N          2.51600       -1.50772       -0.55023
|  7> H          2.96768       -2.32291       -0.95631
|  8> H          1.54987       -1.49063       -0.24988
|  9> H          2.74307        1.64947       -0.41280
| 10> H          1.44036        0.50278        0.03703
| 11> H          4.74975       -1.08632       -1.71533
| 12> H          5.06373        0.34075       -0.75722
| 13> H          4.21960        0.47966       -2.28077
| 14> *
| 15>
| 16> %MaxCore 64000
| 17>
| 18> %pal nprocs 4
| 19> end
| 20>
| 21> %scf
| 22>   MaxIter 150
| 23> end
| 24>
| 25>
| 26>                          ****END OF INPUT****

CARTESIAN COORDINATES (ANGSTROEM)
---------------------------------
  C      4.366450   -0.133210   -1.416060
  C      3.056500   -0.320800   -0.707380
  C      2.389830    0.711290   -0.243910
  N      2.516000   -1.507720   -0.550230
  H      2.967680   -2.322910   -0.956310
  H      1.549870   -1.490630   -0.249880
  H      2.743070    1.649470   -0.412800
  H      1.440360    0.502780    0.037030
  H      4.749750   -1.086320   -1.715330
  H      5.063730    0.340750   -0.757220
  H      4.219600    0.479660   -2.280770

 Total Charge           Charge          ....    0
 Multiplicity           Mult            ....    1
 Number of Electrons    NEL             ....   32
 Basis Dimension        Dim             ....  136

ORBITAL ENERGIES
----------------

  NO   OCC          E(Eh)            E(eV)
   0   2.0000     -14.405695      -391.9989
   1   2.0000     -10.279889      -279.7300
   2   2.0000     -10.252507      -278.9849
   3   2.0000     -10.186878      -277.1990
   4   2.0000      -1.009166       -27.4608
   5   2.0000      -0.831643       -22.6302
   6   2.0000      -0.768108       -20.9013
   7   2.0000      -0.637060       -17.3353
   8   2.0000      -0.604718       -16.4552
   9   2.0000      -0.539506       -14.6807
  10   2.0000      -0.502984       -13.6869
  11   2.0000      -0.469225       -12.7683
  12   2.0000      -0.459270       -12.4974
  13   2.0000      -0.426234       -11.5984
  14   2.0000      -0.405236       -11.0270
  15   2.0000      -0.246681        -6.7125
  16   0.0000       0.048976         1.3327
  17   0.0000       0.084403         2.2967
  18   0.0000       0.086994         2.3672
  19   0.0000       0.090928         2.4743
  20   0.0000       0.122600         3.3361

MULLIKEN ATOMIC CHARGES
-----------------------
   0 C :    0.988705
   1 C :   -0.521692
   2 C :    0.561637
   3 N :    0.264077
   4 H :   -0.144114
   5 H :   -0.084571
   6 H :   -0.315250
   7 H :   -0.452221
   8 H :   -0.157247
   9 H :   -0.052506
  10 H :   -0.086817
Sum of atomic charges:   -0.0000000

LOEWDIN ATOMIC CHARGES
----------------------
   0 C :    0.172207
   1 C :   -0.290238
   2 C :    0.157669
   3 N :    0.162570
   4 H :    0.001738
   5 H :    0.002897
   6 H :   -0.075544
   7 H :   -0.090171
   8 H :   -0.027248
   9 H :   -0.006888
  10 H :   -0.006992

  Mayer bond orders larger than 0.100000
B(  0-C ,  1-C ) :   1.1616 B(  0-C ,  8-H ) :   0.6338 B(  0-C ,  9-H ) :   0.6755
B(  0-C , 10-H ) :   0.7455 B(  1-C ,  2-C ) :   1.8460 B(  1-C ,  3-N ) :   1.1506
B(  1-C ,  6-H ) :   0.1398 B(  1-C ,  7-H ) :   0.2621 B(  1-C ,  8-H ) :   0.3657
B(  1-C ,  9-H ) :   0.2409 B(  1-C , 10-H ) :   0.1832 B(  2-C ,  3-N ) :   0.2597
B(  2-C ,  6-H ) :   0.7972 B(  2-C ,  7-H ) :   0.7054 B(  3-N ,  4-H ) :   1.1390
B(  3-N ,  5-H ) :   1.1275 B(  4-H ,  5-H ) :  -0.1360

FINAL SINGLE POINT ENERGY      -173.027795001317

DIPOLE MOMENT
-------------
                                X             Y             Z
Electronic contribution:     -1.00255      -1.14881       0.66418
Nuclear contribution   :      1.07959       0.48266      -1.05101
                        -----------------------------------------
Total Dipole Moment    :      0.07703      -0.66615      -0.38683
                        -----------------------------------------
Magnitude (a.u.)       :      0.77417
Magnitude (Debye)      :      1.96778

Rotational constants in cm-1:     0.369235     0.294626     0.169175
Rotational constants in MHz : 11069.394850  8832.653024  5071.734673

                             ****ORCA TERMINATED NORMALLY****
TOTAL RUN TIME: 0 days 0 hours 0 minutes 14 seconds 959 msec
