                         Program Version 5.0.0 -  RELEASE  -
|  1> !CAM-B3LYP RIJCOSX def2-SVPD def2/J TightSCF
|  2> *xyz 0 1
|  3> C          4.36645       -0.13321       -1.41606
|  4> C          3.05650       -0.32080       -0.70738
|  5> N          2.38983        0.71129       -0.24391
|  6> C          2.51600       -1.50772       -0.55023
|  7> H          2.96768       -2.32291       -0.95631
|  8> H          1.54987       -1.49063       -0.24988
|  9> H          2.74307        1.64947       -0.41280
| 10> H          1.44036        0.50278        0.03703
| 11> H          4.74975       -1.08632       -1.71533
| 12> H          5.06373        0.34075       -0.75722
| 13> H          4.21960        0.47966       -2.28077
| 14> *
| 15>
| 16> %MaxCore 64000
| 17>
| 18> %pal nprocs 4
| 19> end
| 20>
| 21> %scf
| 22>   MaxIter 150
| 23> end
| 24>
| 25>
| 26>                          ****END OF INPUT****

CARTESIAN COORDINATES (ANGSTROEM)
---------------------------------
  C      4.366450   -0.133210   -1.416060
  C      3.056500   -0.320800   -0.707380
  N      2.389830    0.711290   -0.243910
  C      2.516000   -1.507720   -0.550230
  H      2.967680   -2.322910   -0.956310
  H      1.549870   -1.490630   -0.249880
  H      2.743070    1.649470   -0.412800
  H      1.440360    0.502780    0.037030
  H      4.749750   -1.086320   -1.715330
  H      5.063730    0.340750   -0.757220
  H      4.219600    0.479660   -2.280770

 Total Charge           Charge          ....    0
 Multiplicity           Mult            ....    1
 Number of Electrons    NEL             ....   32
 Basis Dimension        Dim             ....  136

ORBITAL ENERGIES
----------------

  NO   OCC          E(Eh)            E(eV)
   0   2.0000     -14.404319      -391.9615
   1   2.0000     -10.280598      -279.7493
   2   2.0000     -10.252122      -278.9744
   3   2.0000     -10.191019      -277.3117
   4   2.0000      -1.009276       -27.4638
   5   2.0000      -0.830802       -22.6073
   6   2.0000      -0.769644       -20.9431
   7   2.0000      -0.637162       -17.3381
   8   2.0000      -0.604908       -16.4604
   9   2.0000      -0.539784       -14.6883
  10   2.0000      -0.504773       -13.7356
  11   2.0000      -0.467290       -12.7156
  12   2.0000      -0.461732       -12.5644
  13   2.0000      -0.426386       -11.6025
  14   2.0000      -0.403721       -10.9858
  15   2.0000      -0.250220        -6.8088
  16   0.0000       0.049108         1.3363
  17   0.0000       0.085437         2.3249
  18   0.0000       0.089845         2.4448
  19   0.0000       0.091846         2.4993
  20   0.0000       0.123965         3.3733

MULLIKEN ATOMIC CHARGES
-----------------------
   0 C :    1.021182
   1 C :   -0.649428
   2 N :    0.369114
   3 C :    0.554660
   4 H :   -0.255539
   5 H :   -0.473635
   6 H :   -0.182549
   7 H :   -0.140629
   8 H :   -0.026460
   9 H :   -0.099963
  10 H :   -0.116753
Sum of atomic charges:    0.0000000

LOEWDIN ATOMIC CHARGES
----------------------
   0 C :    0.170474
   1 C :   -0.298315
   2 N :    0.160580
   3 C :    0.167392
   4 H :   -0.080564
   5 H :   -0.088099
   6 H :    0.006165
   7 H :    0.001850
   8 H :   -0.014171
   9 H :   -0.013737
  10 H :   -0.011575

  Mayer bond orders larger than 0.100000
B(  0-C ,  1-C ) :   1.3407 B(  0-C ,  8-H ) :   0.7457 B(  0-C ,  9-H ) :   0.6026
B(  0-C , 10-H ) :   0.6175 B(  1-C ,  2-N ) :   1.2459 B(  1-C ,  3-C ) :   1.7849
B(  1-C ,  5-H ) :   0.2434 B(  1-C ,  8-H ) :   0.2819 B(  1-C ,  9-H ) :   0.3111
B(  1-C , 10-H ) :   0.3187 B(  2-N ,  3-C ) :   0.2557 B(  2-N ,  6-H ) :   1.1440
B(  2-N ,  7-H ) :   1.1128 B(  3-C ,  4-H ) :   0.9194 B(  3-C ,  5-H ) :   0.6777
B(  6-H ,  7-H ) :  -0.1144 B(  8-H ,  9-H ) :   0.1026 B(  8-H , 10-H ) :   0.1153

FINAL SINGLE POINT ENERGY      -173.030897814435

DIPOLE MOMENT
-------------
                                X             Y             Z
Electronic contribution:     -1.13524       0.75691       0.94212
Nuclear contribution   :      1.10788      -0.01499      -1.11971
                        -----------------------------------------
Total Dipole Moment    :     -0.02735       0.74192      -0.17759
                        -----------------------------------------
Magnitude (a.u.)       :      0.76337
Magnitude (Debye)      :      1.94034

Rotational constants in cm-1:     0.367851     0.295709     0.169239
Rotational constants in MHz : 11027.892768  8865.123922  5073.656136

                             ****ORCA TERMINATED NORMALLY****
TOTAL RUN TIME: 0 days 0 hours 0 minutes 16 seconds 51 msec
