                         Program Version 5.0.0 -  RELEASE  -
|  1> !CAM-B3LYP RIJCOSX def2-SVPD def2/J TightSCF xyzfile
|  2>
|  3> *xyzfile 0 1 D1.xyz
|  4>
|  5> %MaxCore 64000
|  6>
|  7> %pal nprocs 4
|  8> end
|  9>
| 10> %scf
| 11>   MaxIter 150
| 12> end
| 13>
| 14>
| 15>                          ****END OF INPUT****

CARTESIAN COORDINATES (ANGSTROEM)
---------------------------------
  C      4.366454   -0.133215   -1.416062
  C      4.508292   -0.931872   -2.724249
  H      4.753716   -1.972051   -2.488408
  C      3.294164   -0.918214   -3.656570
  H      5.385637   -0.536236   -3.242640
  H      2.483463   -1.477378   -3.185764
  H      3.553092   -1.478495   -4.560331
  C      2.772335    0.460100   -4.051448
  H      2.608762    1.065107   -3.155194
  C      1.465354    0.410537   -4.853644
  H      3.532940    0.988848   -4.635671
  C      0.326171   -0.375613   -4.192580
  H      1.666704   -0.022269   -5.839323
  H      1.138198    1.439246   -5.035449
  C     -0.017405    0.080588   -2.778406
  H      0.585573   -1.439385   -4.168057
  H     -0.560005   -0.311425   -4.831461
  H      0.902090    0.201296   -2.206729
  C     -0.903495   -0.873945   -1.987388
  H     -0.479549    1.074657   -2.811915
  H     -0.502554   -1.892096   -2.081204
  H     -1.917039   -0.895427   -2.406277
  C     -0.960148   -0.522365   -0.489867
  H     -1.690392   -1.208130   -0.021677
  H     -1.414490    0.486329   -0.406677
  F      0.261703   -0.580307    0.138611
  C      3.056503   -0.320797   -0.707384
  C      2.389825    0.711285   -0.243909
  N      2.515999   -1.507721   -0.550229
  H      2.967683   -2.322915   -0.956305
  H      1.549872   -1.490634   -0.249876
  H      2.743071    1.649471   -0.412802
  H      1.440364    0.502778    0.037031
  H      4.487835    0.932997   -1.611569
  H      5.169672   -0.414432   -0.729817

 Total Charge           Charge          ....    0
 Multiplicity           Mult            ....    1
 Number of Electrons    NEL             ....  104
 Basis Dimension        Dim             ....  439

ORBITAL ENERGIES
----------------

  NO   OCC          E(Eh)            E(eV)
   0   2.0000     -24.792552      -674.6396
   1   2.0000     -14.379223      -391.2786
   2   2.0000     -10.352975      -281.7188
   3   2.0000     -10.271425      -279.4997
   4   2.0000     -10.260066      -279.1906
   5   2.0000     -10.250890      -278.9409
   6   2.0000     -10.250769      -278.9376
   7   2.0000     -10.248731      -278.8822
   8   2.0000     -10.248334      -278.8714
   9   2.0000     -10.245844      -278.8036
  10   2.0000     -10.244029      -278.7542
  11   2.0000     -10.242108      -278.7019
  12   2.0000     -10.164066      -276.5783
  13   2.0000      -1.304206       -35.4892
  14   2.0000      -0.991332       -26.9755
  15   2.0000      -0.897398       -24.4194
  16   2.0000      -0.874333       -23.7918
  17   2.0000      -0.847463       -23.0606
  18   2.0000      -0.808428       -21.9984
  19   2.0000      -0.780942       -21.2505
  20   2.0000      -0.760884       -20.7047
  21   2.0000      -0.712038       -19.3755
  22   2.0000      -0.690356       -18.7855
  23   2.0000      -0.659691       -17.9511
  24   2.0000      -0.629778       -17.1371
  25   2.0000      -0.615274       -16.7424
  26   2.0000      -0.609639       -16.5891
  27   2.0000      -0.600334       -16.3359
  28   2.0000      -0.590054       -16.0562
  29   2.0000      -0.559783       -15.2325
  30   2.0000      -0.544575       -14.8186
  31   2.0000      -0.531911       -14.4740
  32   2.0000      -0.513941       -13.9850
  33   2.0000      -0.508798       -13.8451
  34   2.0000      -0.498311       -13.5597
  35   2.0000      -0.491815       -13.3830
  36   2.0000      -0.467739       -12.7278
  37   2.0000      -0.458704       -12.4820
  38   2.0000      -0.448632       -12.2079
  39   2.0000      -0.440362       -11.9829
  40   2.0000      -0.432927       -11.7806
  41   2.0000      -0.424099       -11.5403
  42   2.0000      -0.416783       -11.3412
  43   2.0000      -0.408731       -11.1221
  44   2.0000      -0.405019       -11.0211
  45   2.0000      -0.396710       -10.7950
  46   2.0000      -0.378962       -10.3121
  47   2.0000      -0.377083       -10.2609
  48   2.0000      -0.369778       -10.0622
  49   2.0000      -0.366300        -9.9675
  50   2.0000      -0.363442        -9.8898
  51   2.0000      -0.230587        -6.2746
  52   0.0000       0.046215         1.2576
  53   0.0000       0.055722         1.5163
  54   0.0000       0.062949         1.7129
  55   0.0000       0.065189         1.7739
  56   0.0000       0.082962         2.2575

MULLIKEN ATOMIC CHARGES
-----------------------
   0 C :    0.652698
   1 C :    0.688093
   2 H :   -0.082465
   3 C :    0.030495
   4 H :   -0.210902
   5 H :   -0.072390
   6 H :   -0.279248
   7 C :    0.115654
   8 H :    0.028959
   9 C :    0.852886
  10 H :   -0.456664
  11 C :    0.219601
  12 H :   -0.093388
  13 H :   -0.077250
  14 C :    0.643772
  15 H :    0.098514
  16 H :   -0.522955
  17 H :   -0.971018
  18 C :    0.197836
  19 H :   -0.066621
  20 H :   -0.055056
  21 H :   -0.248159
  22 C :    1.221234
  23 H :   -0.202857
  24 H :   -0.081041
  25 F :   -0.779326
  26 C :   -0.774327
  27 C :    0.913298
  28 N :    0.658833
  29 H :   -0.133988
  30 H :   -0.383159
  31 H :   -0.381321
  32 H :   -0.372976
  33 H :    0.330732
  34 H :   -0.407495
Sum of atomic charges:   -0.0000000

LOEWDIN ATOMIC CHARGES
----------------------
   0 C :    0.020472
   1 C :   -0.023573
   2 H :    0.012473
   3 C :   -0.030617
   4 H :    0.018854
   5 H :   -0.012010
   6 H :    0.025916
   7 C :   -0.026875
   8 H :    0.004006
   9 C :   -0.025194
  10 H :    0.024272
  11 C :   -0.034319
  12 H :    0.020491
  13 H :    0.021440
  14 C :   -0.026126
  15 H :    0.010887
  16 H :    0.020302
  17 H :   -0.026519
  18 C :   -0.012883
  19 H :    0.037969
  20 H :    0.027549
  21 H :    0.033660
  22 C :    0.165656
  23 H :    0.035753
  24 H :    0.045567
  25 F :   -0.222941
  26 C :   -0.243212
  27 C :    0.184069
  28 N :    0.201322
  29 H :    0.003034
  30 H :   -0.064526
  31 H :   -0.072878
  32 H :   -0.135362
  33 H :    0.019437
  34 H :    0.023906

  Mayer bond orders larger than 0.100000
B(  0-C ,  1-C ) :   1.1600 B(  0-C ,  2-H ) :   0.1646 B(  0-C ,  4-H ) :   0.2491
B(  0-C , 26-C ) :   1.1825 B(  0-C , 27-C ) :   0.1312 B(  0-C , 31-H ) :  -0.1506
B(  0-C , 33-H ) :   0.7559 B(  0-C , 34-H ) :   0.4941 B(  1-C ,  2-H ) :   0.5587
B(  1-C ,  3-C ) :   1.2268 B(  1-C ,  4-H ) :   0.6731 B(  1-C ,  5-H ) :   0.1024
B(  1-C , 26-C ) :   0.2240 B(  1-C , 33-H ) :   0.1685 B(  2-H ,  3-C ) :   0.3393
B(  2-H ,  4-H ) :  -0.1825 B(  3-C ,  4-H ) :   0.2057 B(  3-C ,  5-H ) :   0.8286
B(  3-C ,  6-H ) :   0.8157 B(  3-C ,  7-C ) :   1.2338 B(  3-C ,  8-H ) :   0.1424
B(  3-C , 10-H ) :   0.1878 B(  5-H ,  7-C ) :   0.1504 B(  5-H , 15-H ) :   0.1724
B(  5-H , 16-H ) :  -0.1118 B(  6-H ,  7-C ) :   0.1427 B(  7-C ,  8-H ) :   0.8456
B(  7-C ,  9-C ) :   1.1110 B(  7-C , 10-H ) :   0.8865 B(  7-C , 11-C ) :   0.1749
B(  7-C , 12-H ) :   0.1254 B(  7-C , 13-H ) :   0.2980 B(  8-H , 17-H ) :   0.1944
B(  9-C , 11-C ) :   1.1145 B(  9-C , 12-H ) :   0.6670 B(  9-C , 13-H ) :   0.5994
B( 11-C , 12-H ) :   0.2214 B( 11-C , 13-H ) :   0.1549 B( 11-C , 14-C ) :   1.1544
B( 11-C , 15-H ) :   0.7991 B( 11-C , 16-H ) :   0.9151 B( 11-C , 17-H ) :   0.1921
B( 11-C , 19-H ) :   0.1268 B( 12-H , 13-H ) :  -0.1395 B( 14-C , 15-H ) :   0.1609
B( 14-C , 16-H ) :   0.2537 B( 14-C , 17-H ) :   0.1259 B( 14-C , 18-C ) :   1.1524
B( 14-C , 19-H ) :   0.6075 B( 14-C , 20-H ) :   0.1365 B( 14-C , 21-H ) :   0.2598
B( 14-C , 22-C ) :   0.1244 B( 14-C , 27-C ) :   0.2111 B( 15-H , 16-H ) :  -0.1047
B( 17-H , 18-C ) :   0.1841 B( 17-H , 19-H ) :   0.2761 B( 17-H , 26-C ) :   0.1292
B( 17-H , 27-C ) :  -0.1633 B( 17-H , 32-H ) :   0.1500 B( 18-C , 19-H ) :   0.1138
B( 18-C , 20-H ) :   0.8809 B( 18-C , 21-H ) :   0.7802 B( 18-C , 22-C ) :   1.1142
B( 18-C , 23-H ) :   0.2396 B( 18-C , 24-H ) :   0.1314 B( 18-C , 25-F ) :   0.1339
B( 22-C , 23-H ) :   0.6775 B( 22-C , 24-H ) :   0.7605 B( 22-C , 25-F ) :   0.6217
B( 24-H , 25-F ) :   0.1637 B( 25-F , 26-C ) :   0.1076 B( 25-F , 27-C ) :  -0.1339
B( 25-F , 30-H ) :   0.1526 B( 25-F , 32-H ) :   0.1684 B( 26-C , 27-C ) :   2.1301
B( 26-C , 28-N ) :   1.0078 B( 26-C , 31-H ) :   0.1897 B( 26-C , 32-H ) :   0.6618
B( 26-C , 34-H ) :   0.4422 B( 27-C , 28-N ) :   0.3794 B( 27-C , 31-H ) :   0.9437
B( 28-N , 29-H ) :   1.0672 B( 28-N , 30-H ) :   1.0508 B( 28-N , 31-H ) :   0.1697
B( 29-H , 30-H ) :  -0.2367 B( 30-H , 32-H ) :   0.1022 B( 31-H , 32-H ) :  -0.2407
B( 33-H , 34-H ) :  -0.1284

FINAL SINGLE POINT ENERGY      -586.250380217501

DIPOLE MOMENT
-------------
                                X             Y             Z
Electronic contribution:     -2.72576      -1.59772      10.43217
Nuclear contribution   :      1.82572       1.04089     -11.09065
                        -----------------------------------------
Total Dipole Moment    :     -0.90005      -0.55683      -0.65847
                        -----------------------------------------
Magnitude (a.u.)       :      1.24649
Magnitude (Debye)      :      3.16831

Rotational constants in cm-1:     0.028436     0.022359     0.014416
Rotational constants in MHz :   852.496561   670.291843   432.183951

                             ****ORCA TERMINATED NORMALLY****
TOTAL RUN TIME: 0 days 0 hours 4 minutes 33 seconds 388 msec
