                         Program Version 5.0.0 -  RELEASE  -
|  1> !LC-PBE RIJCOSX def2-SVPD def2/J TightSCF
|  2> *xyz -1 1
|  3> C         -0.01741        0.08059       -2.77841
|  4> C         -0.90349       -0.87394       -1.98739
|  5> H         -0.50255       -1.89210       -2.08120
|  6> H         -1.91704       -0.89543       -2.40628
|  7> C         -0.96015       -0.52236       -0.48987
|  8> H         -1.69039       -1.20813       -0.02168
|  9> H         -1.41449        0.48633       -0.40668
| 10> O          0.26170       -0.58031        0.13861
| 11> H         -0.01329       -0.20776       -3.80881
| 12> H          0.98025        0.04284       -2.39348
| 13> H         -0.39697        1.07694       -2.68836
| 14> *
| 15>
| 16> %MaxCore 64000
| 17>
| 18> %pal nprocs 4
| 19> end
| 20>
| 21> %scf
| 22>   MaxIter 150
| 23> end
| 24>
| 25>
| 26>                          ****END OF INPUT****

CARTESIAN COORDINATES (ANGSTROEM)
---------------------------------
  C     -0.017410    0.080590   -2.778410
  C     -0.903490   -0.873940   -1.987390
  H     -0.502550   -1.892100   -2.081200
  H     -1.917040   -0.895430   -2.406280
  C     -0.960150   -0.522360   -0.489870
  H     -1.690390   -1.208130   -0.021680
  H     -1.414490    0.486330   -0.406680
  O      0.261700   -0.580310    0.138610
  H     -0.013290   -0.207760   -3.808810
  H      0.980250    0.042840   -2.393480
  H     -0.396970    1.076940   -2.688360

 Total Charge           Charge          ....   -1
 Multiplicity           Mult            ....    1
 Number of Electrons    NEL             ....   34
 Basis Dimension        Dim             ....  139

ORBITAL ENERGIES
----------------

  NO   OCC          E(Eh)            E(eV)
   0   2.0000     -18.651464      -507.5321
   1   2.0000      -9.943624      -270.5798
   2   2.0000      -9.940951      -270.5070
   3   2.0000      -9.936567      -270.3877
   4   2.0000      -0.838522       -22.8174
   5   2.0000      -0.751460       -20.4483
   6   2.0000      -0.625980       -17.0338
   7   2.0000      -0.516811       -14.0631
   8   2.0000      -0.419494       -11.4150
   9   2.0000      -0.411850       -11.2070
  10   2.0000      -0.358543        -9.7565
  11   2.0000      -0.320167        -8.7122
  12   2.0000      -0.293996        -8.0000
  13   2.0000      -0.282762        -7.6943
  14   2.0000      -0.241124        -6.5613
  15   2.0000      -0.096771        -2.6333
  16   2.0000      -0.092593        -2.5196
  17   0.0000       0.230988         6.2855
  18   0.0000       0.256094         6.9687
  19   0.0000       0.273586         7.4447
  20   0.0000       0.308471         8.3939
  21   0.0000       0.325041         8.8448

MULLIKEN ATOMIC CHARGES
-----------------------
   0 C :    0.383548
   1 C :   -0.575766
   2 H :    0.010266
   3 H :   -0.021038
   4 C :    0.234760
   5 H :   -0.096251
   6 H :   -0.056937
   7 O :   -0.864047
   8 H :   -0.026789
   9 H :    0.032530
  10 H :   -0.020275
Sum of atomic charges:   -1.0000000

LOEWDIN ATOMIC CHARGES
----------------------
   0 C :    0.054840
   1 C :   -0.142301
   2 H :    0.017515
   3 H :    0.003275
   4 C :   -0.248960
   5 H :   -0.017568
   6 H :   -0.012256
   7 O :   -0.579139
   8 H :   -0.035557
   9 H :   -0.018487
  10 H :   -0.021361

  Mayer bond orders larger than 0.100000
B(  0-C ,  1-C ) :   1.2679 B(  0-C ,  8-H ) :   0.8403 B(  0-C ,  9-H ) :   0.8659
B(  0-C , 10-H ) :   0.8652 B(  1-C ,  2-H ) :   0.9903 B(  1-C ,  3-H ) :   1.0077
B(  1-C ,  4-C ) :   1.0507 B(  1-C ,  5-H ) :   0.1030 B(  1-C ,  8-H ) :   0.1549
B(  1-C ,  9-H ) :   0.1699 B(  1-C , 10-H ) :   0.1485 B(  2-H ,  4-C ) :   0.1040
B(  4-C ,  5-H ) :   0.9826 B(  4-C ,  6-H ) :   0.9700 B(  4-C ,  7-O ) :   1.3049

FINAL SINGLE POINT ENERGY      -192.998732753131

DIPOLE MOMENT
-------------
                                X             Y             Z
Electronic contribution:      1.08854      -0.49049       2.56502
Nuclear contribution   :     -2.03764       0.64089      -4.61583
                        -----------------------------------------
Total Dipole Moment    :     -0.94910       0.15041      -2.05081
                        -----------------------------------------
Magnitude (a.u.)       :      2.26478
Magnitude (Debye)      :      5.75661

Rotational constants in cm-1:     0.508897     0.174909     0.148249
Rotational constants in MHz : 15256.351998  5243.652192  4444.387232

                             ****ORCA TERMINATED NORMALLY****
TOTAL RUN TIME: 0 days 0 hours 0 minutes 11 seconds 12 msec
