                         Program Version 5.0.0 -  RELEASE  -
|  1> !LC-PBE RIJCOSX def2-SVPD def2/J TightSCF
|  2> *xyz 1 1
|  3> C          4.36645       -0.13321       -1.41606
|  4> C          4.50829       -0.93187       -2.72425
|  5> H          4.75372       -1.97205       -2.48841
|  6> C          3.29416       -0.91821       -3.65657
|  7> H          5.38564       -0.53624       -3.24264
|  8> C          3.05650       -0.32080       -0.70738
|  9> N          2.38983        0.71129       -0.24391
| 10> N          2.51600       -1.50772       -0.55023
| 11> H          2.96768       -2.32291       -0.95631
| 12> H          1.54987       -1.49063       -0.24988
| 13> H          2.74307        1.64947       -0.41280
| 14> H          1.44036        0.50278        0.03703
| 15> H          4.48784        0.93300       -1.61157
| 16> H          5.16967       -0.41443       -0.72982
| 17> H          3.50670       -1.50229       -4.52754
| 18> H          3.07837        0.08892       -3.94644
| 19> H          2.44880       -1.33173       -3.14739
| 20> *
| 21>
| 22> %MaxCore 64000
| 23>
| 24> %pal nprocs 4
| 25> end
| 26>
| 27> %scf
| 28>   MaxIter 150
| 29> end
| 30>
| 31>
| 32>                          ****END OF INPUT****

CARTESIAN COORDINATES (ANGSTROEM)
---------------------------------
  C      4.366450   -0.133210   -1.416060
  C      4.508290   -0.931870   -2.724250
  H      4.753720   -1.972050   -2.488410
  C      3.294160   -0.918210   -3.656570
  H      5.385640   -0.536240   -3.242640
  C      3.056500   -0.320800   -0.707380
  N      2.389830    0.711290   -0.243910
  N      2.516000   -1.507720   -0.550230
  H      2.967680   -2.322910   -0.956310
  H      1.549870   -1.490630   -0.249880
  H      2.743070    1.649470   -0.412800
  H      1.440360    0.502780    0.037030
  H      4.487840    0.933000   -1.611570
  H      5.169670   -0.414430   -0.729820
  H      3.506700   -1.502290   -4.527540
  H      3.078370    0.088920   -3.946440
  H      2.448800   -1.331730   -3.147390

 Total Charge           Charge          ....    1
 Multiplicity           Mult            ....    1
 Number of Electrons    NEL             ....   48
 Basis Dimension        Dim             ....  208

ORBITAL ENERGIES
----------------

  NO   OCC          E(Eh)            E(eV)
   0   2.0000     -14.475091      -393.8873
   1   2.0000     -14.473509      -393.8442
   2   2.0000     -10.457304      -284.5577
   3   2.0000     -10.326103      -280.9875
   4   2.0000     -10.292658      -280.0775
   5   2.0000     -10.256179      -279.0848
   6   2.0000      -1.382724       -37.6258
   7   2.0000      -1.266057       -34.4512
   8   2.0000      -1.149077       -31.2680
   9   2.0000      -1.055430       -28.7197
  10   2.0000      -0.985561       -26.8185
  11   2.0000      -0.947901       -25.7937
  12   2.0000      -0.915718       -24.9180
  13   2.0000      -0.883822       -24.0500
  14   2.0000      -0.842797       -22.9337
  15   2.0000      -0.812319       -22.1043
  16   2.0000      -0.776513       -21.1300
  17   2.0000      -0.735619       -20.0172
  18   2.0000      -0.721202       -19.6249
  19   2.0000      -0.698771       -19.0145
  20   2.0000      -0.640003       -17.4154
  21   2.0000      -0.634520       -17.2662
  22   2.0000      -0.625496       -17.0206
  23   2.0000      -0.615156       -16.7393
  24   0.0000      -0.120376        -3.2756
  25   0.0000      -0.077589        -2.1113
  26   0.0000      -0.038830        -1.0566
  27   0.0000      -0.036218        -0.9856
  28   0.0000      -0.008706        -0.2369

MULLIKEN ATOMIC CHARGES
-----------------------
   0 C :    0.053087
   1 C :   -0.539728
   2 H :    0.050698
   3 C :    0.493673
   4 H :   -0.049605
   5 C :    0.469235
   6 N :   -0.007030
   7 N :   -0.001709
   8 H :    0.097359
   9 H :   -0.031589
  10 H :    0.069057
  11 H :   -0.017838
  12 H :    0.243349
  13 H :    0.091415
  14 H :    0.048657
  15 H :    0.053557
  16 H :   -0.022588
Sum of atomic charges:    1.0000000

LOEWDIN ATOMIC CHARGES
----------------------
   0 C :    0.030861
   1 C :   -0.071609
   2 H :    0.035975
   3 C :    0.111496
   4 H :    0.050474
   5 C :   -0.048679
   6 N :    0.268360
   7 N :    0.274174
   8 H :    0.063617
   9 H :    0.054381
  10 H :    0.066800
  11 H :    0.052388
  12 H :    0.049661
  13 H :    0.068425
  14 H :    0.012665
  15 H :    0.006271
  16 H :   -0.025258

  Mayer bond orders larger than 0.100000
B(  0-C ,  1-C ) :   1.2346 B(  0-C ,  4-H ) :   0.1031 B(  0-C ,  5-C ) :   1.1831
B(  0-C , 12-H ) :   0.7977 B(  0-C , 13-H ) :   0.8028 B(  1-C ,  2-H ) :   0.9473
B(  1-C ,  3-C ) :   1.3567 B(  1-C ,  4-H ) :   1.0105 B(  1-C , 12-H ) :   0.1234
B(  1-C , 14-H ) :   0.1769 B(  1-C , 15-H ) :   0.1720 B(  1-C , 16-H ) :   0.1685
B(  3-C , 14-H ) :   0.8046 B(  3-C , 15-H ) :   0.8247 B(  3-C , 16-H ) :   0.8631
B(  5-C ,  6-N ) :   1.1096 B(  5-C ,  7-N ) :   1.1644 B(  5-C ,  9-H ) :  -0.1339
B(  5-C , 12-H ) :   0.1065 B(  5-C , 13-H ) :   0.1590 B(  6-N ,  7-N ) :   0.2007
B(  6-N , 10-H ) :   1.1040 B(  6-N , 11-H ) :   1.1744 B(  7-N ,  8-H ) :   1.0071
B(  7-N ,  9-H ) :   1.2440 B(  8-H ,  9-H ) :  -0.1660 B( 10-H , 11-H ) :  -0.1405

FINAL SINGLE POINT ENERGY      -267.279700685266

DIPOLE MOMENT
-------------
                                X             Y             Z
Electronic contribution:     -1.79076       0.89993       5.04094
Nuclear contribution   :      0.92830      -0.63755      -3.99475
                        -----------------------------------------
Total Dipole Moment    :     -0.86246       0.26238       1.04619
                        -----------------------------------------
Magnitude (a.u.)       :      1.38101
Magnitude (Debye)      :      3.51025

Rotational constants in cm-1:     0.183706     0.077449     0.071296
Rotational constants in MHz :  5507.368439  2321.870034  2137.394204

                             ****ORCA TERMINATED NORMALLY****
TOTAL RUN TIME: 0 days 0 hours 0 minutes 25 seconds 407 msec
