                         Program Version 5.0.0 -  RELEASE  -
|  1> !LC-PBE RIJCOSX def2-SVPD def2/J TightSCF xyzfile
|  2>
|  3> *xyzfile 0 1 B.xyz
|  4>
|  5> %MaxCore 64000
|  6>
|  7> %pal nprocs 4
|  8> end
|  9>
| 10> %scf
| 11>   MaxIter 150
| 12> end
| 13>
| 14>
| 15>                          ****END OF INPUT****

CARTESIAN COORDINATES (ANGSTROEM)
---------------------------------
  C      4.366454   -0.133215   -1.416062
  C      4.508292   -0.931872   -2.724249
  H      4.753716   -1.972051   -2.488408
  C      3.294164   -0.918214   -3.656570
  H      5.385637   -0.536236   -3.242640
  H      2.483463   -1.477378   -3.185764
  H      3.553092   -1.478495   -4.560331
  C      2.772335    0.460100   -4.051448
  H      2.608762    1.065107   -3.155194
  C      1.465354    0.410537   -4.853644
  H      3.532940    0.988848   -4.635671
  C      0.326171   -0.375613   -4.192580
  H      1.666704   -0.022269   -5.839323
  H      1.138198    1.439246   -5.035449
  C     -0.017405    0.080588   -2.778406
  H      0.585573   -1.439385   -4.168057
  H     -0.560005   -0.311425   -4.831461
  H      0.902090    0.201296   -2.206729
  C     -0.903495   -0.873945   -1.987388
  H     -0.479549    1.074657   -2.811915
  H     -0.502554   -1.892096   -2.081204
  H     -1.917039   -0.895427   -2.406277
  C     -0.960148   -0.522365   -0.489867
  H     -1.690392   -1.208130   -0.021677
  H     -1.414490    0.486329   -0.406677
  O      0.261703   -0.580307    0.138611
  C      3.056503   -0.320797   -0.707384
  N      2.389825    0.711285   -0.243909
  N      2.515999   -1.507721   -0.550229
  H      2.967683   -2.322915   -0.956305
  H      1.549872   -1.490634   -0.249876
  H      2.743071    1.649471   -0.412802
  H      1.440364    0.502778    0.037031
  H      4.487835    0.932997   -1.611569
  H      5.169672   -0.414432   -0.729817

 Total Charge           Charge          ....    0
 Multiplicity           Mult            ....    1
 Number of Electrons    NEL             ....  104
 Basis Dimension        Dim             ....  439

ORBITAL ENERGIES
----------------

  NO   OCC          E(Eh)            E(eV)
   0   2.0000     -18.860901      -513.2312
   1   2.0000     -14.257428      -387.9643
   2   2.0000     -14.256985      -387.9523
   3   2.0000     -10.262832      -279.2659
   4   2.0000     -10.175771      -276.8968
   5   2.0000     -10.160366      -276.4776
   6   2.0000     -10.138011      -275.8693
   7   2.0000     -10.131577      -275.6942
   8   2.0000     -10.122401      -275.4445
   9   2.0000     -10.111453      -275.1466
  10   2.0000     -10.107534      -275.0400
  11   2.0000     -10.097702      -274.7724
  12   2.0000     -10.084040      -274.4007
  13   2.0000      -1.179560       -32.0975
  14   2.0000      -1.061434       -28.8831
  15   2.0000      -1.043889       -28.4057
  16   2.0000      -1.012250       -27.5447
  17   2.0000      -0.973404       -26.4877
  18   2.0000      -0.929927       -25.3046
  19   2.0000      -0.886368       -24.1193
  20   2.0000      -0.845516       -23.0077
  21   2.0000      -0.795327       -21.6419
  22   2.0000      -0.779672       -21.2160
  23   2.0000      -0.768613       -20.9150
  24   2.0000      -0.722670       -19.6649
  25   2.0000      -0.704937       -19.1823
  26   2.0000      -0.701572       -19.0907
  27   2.0000      -0.676281       -18.4025
  28   2.0000      -0.656780       -17.8719
  29   2.0000      -0.643451       -17.5092
  30   2.0000      -0.632505       -17.2113
  31   2.0000      -0.610562       -16.6142
  32   2.0000      -0.592899       -16.1336
  33   2.0000      -0.572465       -15.5776
  34   2.0000      -0.562819       -15.3151
  35   2.0000      -0.554961       -15.1013
  36   2.0000      -0.549307       -14.9474
  37   2.0000      -0.544831       -14.8256
  38   2.0000      -0.517142       -14.0721
  39   2.0000      -0.507155       -13.8004
  40   2.0000      -0.494698       -13.4614
  41   2.0000      -0.485479       -13.2106
  42   2.0000      -0.474068       -12.9000
  43   2.0000      -0.468427       -12.7465
  44   2.0000      -0.449344       -12.2273
  45   2.0000      -0.441249       -12.0070
  46   2.0000      -0.430101       -11.7037
  47   2.0000      -0.429176       -11.6785
  48   2.0000      -0.420716       -11.4483
  49   2.0000      -0.411641       -11.2013
  50   2.0000      -0.307991        -8.3809
  51   2.0000      -0.303679        -8.2635
  52   0.0000       0.059913         1.6303
  53   0.0000       0.072369         1.9693
  54   0.0000       0.085620         2.3299
  55   0.0000       0.099388         2.7045
  56   0.0000       0.108047         2.9401

MULLIKEN ATOMIC CHARGES
-----------------------
   0 C :    0.147097
   1 C :    0.245860
   2 H :    0.065553
   3 C :   -0.209411
   4 H :   -0.031471
   5 H :    0.029776
   6 H :   -0.052084
   7 C :   -0.172641
   8 H :    0.107579
   9 C :    0.530226
  10 H :   -0.258092
  11 C :   -0.066933
  12 H :    0.056351
  13 H :    0.079532
  14 C :    0.414302
  15 H :    0.194281
  16 H :   -0.307430
  17 H :   -0.791449
  18 C :   -0.030371
  19 H :    0.077578
  20 H :    0.054398
  21 H :   -0.104684
  22 C :    0.634374
  23 H :   -0.059336
  24 H :   -0.013094
  25 O :   -0.982295
  26 C :    0.104475
  27 N :    0.303180
  28 N :    0.341136
  29 H :    0.000516
  30 H :   -0.271294
  31 H :    0.000653
  32 H :   -0.197449
  33 H :    0.296063
  34 H :   -0.134896
Sum of atomic charges:    0.0000000

LOEWDIN ATOMIC CHARGES
----------------------
   0 C :    0.019840
   1 C :   -0.039066
   2 H :    0.030606
   3 C :   -0.050472
   4 H :    0.038393
   5 H :    0.003635
   6 H :    0.044060
   7 C :   -0.054890
   8 H :    0.008985
   9 C :   -0.049710
  10 H :    0.036132
  11 C :   -0.061104
  12 H :    0.032704
  13 H :    0.034572
  14 C :   -0.056797
  15 H :    0.020800
  16 H :    0.034214
  17 H :   -0.022024
  18 C :   -0.059244
  19 H :    0.045952
  20 H :    0.030230
  21 H :    0.031339
  22 C :   -0.084843
  23 H :    0.019588
  24 H :    0.024250
  25 O :   -0.441779
  26 C :   -0.067894
  27 N :    0.271874
  28 N :    0.283691
  29 H :    0.040585
  30 H :   -0.092056
  31 H :    0.043877
  32 H :   -0.098538
  33 H :    0.033457
  34 H :    0.049633

  Mayer bond orders larger than 0.100000
B(  0-C ,  1-C ) :   1.2205 B(  0-C ,  4-H ) :   0.1372 B(  0-C , 26-C ) :   1.2105
B(  0-C , 33-H ) :   0.7355 B(  0-C , 34-H ) :   0.7801 B(  1-C ,  2-H ) :   0.7484
B(  1-C ,  3-C ) :   1.2965 B(  1-C ,  4-H ) :   0.8514 B(  1-C , 33-H ) :   0.1249
B(  2-H ,  3-C ) :   0.2169 B(  2-H ,  4-H ) :  -0.1108 B(  3-C ,  4-H ) :   0.1555
B(  3-C ,  5-H ) :   0.8850 B(  3-C ,  6-H ) :   0.8850 B(  3-C ,  7-C ) :   1.2741
B(  3-C ,  8-H ) :   0.1055 B(  3-C , 10-H ) :   0.1571 B(  5-H ,  7-C ) :   0.1238
B(  5-H , 15-H ) :   0.1642 B(  6-H ,  7-C ) :   0.1347 B(  7-C ,  8-H ) :   0.8560
B(  7-C ,  9-C ) :   1.1535 B(  7-C , 10-H ) :   1.0463 B(  7-C , 11-C ) :   0.1186
B(  7-C , 12-H ) :   0.1024 B(  7-C , 13-H ) :   0.2119 B(  8-H , 17-H ) :   0.2000
B(  9-C , 11-C ) :   1.1386 B(  9-C , 12-H ) :   0.7651 B(  9-C , 13-H ) :   0.7293
B( 11-C , 12-H ) :   0.1607 B( 11-C , 13-H ) :   0.1261 B( 11-C , 14-C ) :   1.1701
B( 11-C , 15-H ) :   0.8360 B( 11-C , 16-H ) :   1.0559 B( 11-C , 17-H ) :   0.1620
B( 14-C , 15-H ) :   0.1105 B( 14-C , 16-H ) :   0.2235 B( 14-C , 17-H ) :   0.3500
B( 14-C , 18-C ) :   1.2133 B( 14-C , 19-H ) :   0.7052 B( 14-C , 20-H ) :   0.1067
B( 14-C , 21-H ) :   0.2195 B( 17-H , 18-C ) :   0.1645 B( 17-H , 19-H ) :   0.2225
B( 17-H , 26-C ) :   0.1181 B( 18-C , 20-H ) :   0.9231 B( 18-C , 21-H ) :   0.9130
B( 18-C , 22-C ) :   1.0432 B( 18-C , 23-H ) :   0.1638 B( 22-C , 23-H ) :   0.8150
B( 22-C , 24-H ) :   0.8663 B( 22-C , 25-O ) :   1.1216 B( 24-H , 25-O ) :   0.1311
B( 25-O , 30-H ) :   0.3503 B( 25-O , 32-H ) :   0.3332 B( 26-C , 27-N ) :   1.1750
B( 26-C , 28-N ) :   1.1565 B( 26-C , 33-H ) :   0.1633 B( 26-C , 34-H ) :   0.2641
B( 27-N , 28-N ) :   0.1661 B( 27-N , 31-H ) :   1.1043 B( 27-N , 32-H ) :   1.0737
B( 28-N , 29-H ) :   1.0707 B( 28-N , 30-H ) :   1.1449 B( 29-H , 30-H ) :  -0.2270
B( 31-H , 32-H ) :  -0.1680

FINAL SINGLE POINT ENERGY      -576.769482898871

DIPOLE MOMENT
-------------
                                X             Y             Z
Electronic contribution:      2.82830      -0.25952       7.45312
Nuclear contribution   :     -0.17996       0.53390      -8.68067
                        -----------------------------------------
Total Dipole Moment    :      2.64834       0.27438      -1.22755
                        -----------------------------------------
Magnitude (a.u.)       :      2.93187
Magnitude (Debye)      :      7.45223

Rotational constants in cm-1:     0.028240     0.022734     0.014600
Rotational constants in MHz :   846.611263   681.554306   437.693928

                             ****ORCA TERMINATED NORMALLY****
TOTAL RUN TIME: 0 days 0 hours 3 minutes 27 seconds 594 msec
