                         Program Version 5.0.0 -  RELEASE  -
|  1> !LC-PBE RIJCOSX def2-SVPD def2/J TightSCF
|  2> *xyz 0 1
|  3> C         -0.01741        0.08059       -2.77841
|  4> C         -0.90349       -0.87394       -1.98739
|  5> H         -0.50255       -1.89210       -2.08120
|  6> H         -1.91704       -0.89543       -2.40628
|  7> C         -0.96015       -0.52236       -0.48987
|  8> H         -1.69039       -1.20813       -0.02168
|  9> H         -1.41449        0.48633       -0.40668
| 10> F          0.26170       -0.58031        0.13861
| 11> H         -0.01329       -0.20776       -3.80881
| 12> H          0.98025        0.04284       -2.39348
| 13> H         -0.39697        1.07694       -2.68836
| 14> *
| 15>
| 16> %MaxCore 64000
| 17>
| 18> %pal nprocs 4
| 19> end
| 20>
| 21> %scf
| 22>   MaxIter 150
| 23> end
| 24>
| 25>
| 26>                          ****END OF INPUT****

CARTESIAN COORDINATES (ANGSTROEM)
---------------------------------
  C     -0.017410    0.080590   -2.778410
  C     -0.903490   -0.873940   -1.987390
  H     -0.502550   -1.892100   -2.081200
  H     -1.917040   -0.895430   -2.406280
  C     -0.960150   -0.522360   -0.489870
  H     -1.690390   -1.208130   -0.021680
  H     -1.414490    0.486330   -0.406680
  F      0.261700   -0.580310    0.138610
  H     -0.013290   -0.207760   -3.808810
  H      0.980250    0.042840   -2.393480
  H     -0.396970    1.076940   -2.688360

 Total Charge           Charge          ....    0
 Multiplicity           Mult            ....    1
 Number of Electrons    NEL             ....   34
 Basis Dimension        Dim             ....  139

ORBITAL ENERGIES
----------------

  NO   OCC          E(Eh)            E(eV)
   0   2.0000     -24.494632      -666.5328
   1   2.0000     -10.207026      -277.7473
   2   2.0000     -10.136093      -275.8171
   3   2.0000     -10.113094      -275.1913
   4   2.0000      -1.338572       -36.4244
   5   2.0000      -0.964119       -26.2350
   6   2.0000      -0.853521       -23.2255
   7   2.0000      -0.753659       -20.5081
   8   2.0000      -0.660570       -17.9750
   9   2.0000      -0.646636       -17.5958
  10   2.0000      -0.618865       -16.8402
  11   2.0000      -0.580491       -15.7960
  12   2.0000      -0.542815       -14.7707
  13   2.0000      -0.514572       -14.0022
  14   2.0000      -0.483800       -13.1649
  15   2.0000      -0.458707       -12.4820
  16   2.0000      -0.457518       -12.4497
  17   0.0000       0.091220         2.4822
  18   0.0000       0.115668         3.1475
  19   0.0000       0.125035         3.4024
  20   0.0000       0.146812         3.9949
  21   0.0000       0.170621         4.6428

MULLIKEN ATOMIC CHARGES
-----------------------
   0 C :    0.375126
   1 C :   -0.620821
   2 H :    0.028580
   3 H :    0.021463
   4 C :    0.515352
   5 H :    0.009801
   6 H :    0.041592
   7 F :   -0.421469
   8 H :    0.011069
   9 H :    0.034649
  10 H :    0.004657
Sum of atomic charges:    0.0000000

LOEWDIN ATOMIC CHARGES
----------------------
   0 C :    0.086237
   1 C :   -0.094812
   2 H :    0.037326
   3 H :    0.038792
   4 C :    0.068484
   5 H :    0.041038
   6 H :    0.045670
   7 F :   -0.206393
   8 H :   -0.007180
   9 H :   -0.003468
  10 H :   -0.005695

  Mayer bond orders larger than 0.100000
B(  0-C ,  1-C ) :   1.2883 B(  0-C ,  8-H ) :   0.8633 B(  0-C ,  9-H ) :   0.8633
B(  0-C , 10-H ) :   0.8672 B(  1-C ,  2-H ) :   0.9905 B(  1-C ,  3-H ) :   0.9943
B(  1-C ,  4-C ) :   1.1665 B(  1-C ,  8-H ) :   0.1437 B(  1-C ,  9-H ) :   0.1489
B(  1-C , 10-H ) :   0.1362 B(  4-C ,  5-H ) :   0.9480 B(  4-C ,  6-H ) :   0.9381
B(  4-C ,  7-F ) :   0.7952

FINAL SINGLE POINT ENERGY      -217.587405741246

DIPOLE MOMENT
-------------
                                X             Y             Z
Electronic contribution:      2.20241      -0.77576       5.86684
Nuclear contribution   :     -2.83598       0.77614      -6.32113
                        -----------------------------------------
Total Dipole Moment    :     -0.63358       0.00038      -0.45429
                        -----------------------------------------
Magnitude (a.u.)       :      0.77962
Magnitude (Debye)      :      1.98163

Rotational constants in cm-1:     0.494803     0.164634     0.139827
Rotational constants in MHz : 14833.819345  4935.593559  4191.919783

                             ****ORCA TERMINATED NORMALLY****
TOTAL RUN TIME: 0 days 0 hours 0 minutes 9 seconds 302 msec
