                         Program Version 5.0.0 -  RELEASE  -
|  1> !LC-PBE RIJCOSX def2-SVPD def2/J TightSCF
|  2> *xyz 0 1
|  3> C          4.36645       -0.13321       -1.41606
|  4> C          4.50829       -0.93187       -2.72425
|  5> H          4.75372       -1.97205       -2.48841
|  6> C          3.29416       -0.91821       -3.65657
|  7> H          5.38564       -0.53624       -3.24264
|  8> C          3.05650       -0.32080       -0.70738
|  9> C          2.38983        0.71129       -0.24391
| 10> N          2.51600       -1.50772       -0.55023
| 11> H          2.96768       -2.32291       -0.95631
| 12> H          1.54987       -1.49063       -0.24988
| 13> H          2.74307        1.64947       -0.41280
| 14> H          1.44036        0.50278        0.03703
| 15> H          4.48784        0.93300       -1.61157
| 16> H          5.16967       -0.41443       -0.72982
| 17> H          3.50670       -1.50229       -4.52754
| 18> H          3.07837        0.08892       -3.94644
| 19> H          2.44880       -1.33173       -3.14739
| 20> *
| 21>
| 22> %MaxCore 64000
| 23>
| 24> %pal nprocs 4
| 25> end
| 26>
| 27> %scf
| 28>   MaxIter 150
| 29> end
| 30>
| 31>
| 32>                          ****END OF INPUT****

CARTESIAN COORDINATES (ANGSTROEM)
---------------------------------
  C      4.366450   -0.133210   -1.416060
  C      4.508290   -0.931870   -2.724250
  H      4.753720   -1.972050   -2.488410
  C      3.294160   -0.918210   -3.656570
  H      5.385640   -0.536240   -3.242640
  C      3.056500   -0.320800   -0.707380
  C      2.389830    0.711290   -0.243910
  N      2.516000   -1.507720   -0.550230
  H      2.967680   -2.322910   -0.956310
  H      1.549870   -1.490630   -0.249880
  H      2.743070    1.649470   -0.412800
  H      1.440360    0.502780    0.037030
  H      4.487840    0.933000   -1.611570
  H      5.169670   -0.414430   -0.729820
  H      3.506700   -1.502290   -4.527540
  H      3.078370    0.088920   -3.946440
  H      2.448800   -1.331730   -3.147390

 Total Charge           Charge          ....    0
 Multiplicity           Mult            ....    1
 Number of Electrons    NEL             ....   48
 Basis Dimension        Dim             ....  208

ORBITAL ENERGIES
----------------

  NO   OCC          E(Eh)            E(eV)
   0   2.0000     -14.227287      -387.1442
   1   2.0000     -10.150554      -276.2106
   2   2.0000     -10.130860      -275.6747
   3   2.0000     -10.128055      -275.5984
   4   2.0000     -10.108681      -275.0712
   5   2.0000     -10.058073      -273.6941
   6   2.0000      -1.102111       -29.9900
   7   2.0000      -0.965850       -26.2821
   8   2.0000      -0.903257       -24.5789
   9   2.0000      -0.849637       -23.1198
  10   2.0000      -0.759589       -20.6695
  11   2.0000      -0.710073       -19.3221
  12   2.0000      -0.680562       -18.5190
  13   2.0000      -0.607200       -16.5227
  14   2.0000      -0.600451       -16.3391
  15   2.0000      -0.599416       -16.3109
  16   2.0000      -0.532694       -14.4953
  17   2.0000      -0.530574       -14.4376
  18   2.0000      -0.516070       -14.0430
  19   2.0000      -0.501553       -13.6480
  20   2.0000      -0.465828       -12.6758
  21   2.0000      -0.460476       -12.5302
  22   2.0000      -0.450616       -12.2619
  23   2.0000      -0.309509        -8.4222
  24   0.0000       0.086859         2.3635
  25   0.0000       0.108900         2.9633
  26   0.0000       0.117500         3.1973
  27   0.0000       0.123894         3.3713
  28   0.0000       0.138189         3.7603

MULLIKEN ATOMIC CHARGES
-----------------------
   0 C :    0.210147
   1 C :   -0.529192
   2 H :    0.019336
   3 C :    0.515163
   4 H :   -0.072657
   5 C :   -0.351832
   6 C :    0.203322
   7 N :    0.168699
   8 H :   -0.012744
   9 H :   -0.070427
  10 H :   -0.105999
  11 H :   -0.278454
  12 H :    0.283119
  13 H :   -0.002299
  14 H :    0.038503
  15 H :    0.022756
  16 H :   -0.037441
Sum of atomic charges:    0.0000000

LOEWDIN ATOMIC CHARGES
----------------------
   0 C :   -0.008523
   1 C :   -0.095992
   2 H :    0.021460
   3 C :    0.094651
   4 H :    0.028505
   5 C :   -0.274184
   6 C :    0.145028
   7 N :    0.155217
   8 H :    0.014443
   9 H :    0.016301
  10 H :   -0.065041
  11 H :   -0.071555
  12 H :    0.034949
  13 H :    0.039757
  14 H :   -0.007767
  15 H :   -0.002098
  16 H :   -0.025150

  Mayer bond orders larger than 0.100000
B(  0-C ,  1-C ) :   1.2215 B(  0-C ,  2-H ) :   0.1187 B(  0-C ,  4-H ) :   0.1312
B(  0-C ,  5-C ) :   1.2372 B(  0-C , 12-H ) :   0.7874 B(  0-C , 13-H ) :   0.7673
B(  1-C ,  2-H ) :   0.9252 B(  1-C ,  3-C ) :   1.3336 B(  1-C ,  4-H ) :   0.9827
B(  1-C , 12-H ) :   0.1302 B(  1-C , 14-H ) :   0.1825 B(  1-C , 15-H ) :   0.1805
B(  1-C , 16-H ) :   0.1752 B(  3-C , 14-H ) :   0.7784 B(  3-C , 15-H ) :   0.8210
B(  3-C , 16-H ) :   0.8735 B(  5-C ,  6-C ) :   1.9646 B(  5-C ,  7-N ) :   1.1942
B(  5-C , 11-H ) :   0.2933 B(  5-C , 13-H ) :   0.2210 B(  6-C ,  7-N ) :   0.3063
B(  6-C , 10-H ) :   1.0098 B(  6-C , 11-H ) :   0.6908 B(  7-N ,  8-H ) :   1.0122
B(  7-N ,  9-H ) :   1.1297 B(  8-H ,  9-H ) :  -0.1468

FINAL SINGLE POINT ENERGY      -250.838383472527

DIPOLE MOMENT
-------------
                                X             Y             Z
Electronic contribution:     -0.62431      -0.28717       3.28053
Nuclear contribution   :      0.70803      -0.34641      -3.68680
                        -----------------------------------------
Total Dipole Moment    :      0.08372      -0.63359      -0.40627
                        -----------------------------------------
Magnitude (a.u.)       :      0.75730
Magnitude (Debye)      :      1.92489

Rotational constants in cm-1:     0.186653     0.080341     0.073591
Rotational constants in MHz :  5595.710092  2408.571280  2206.200061

                             ****ORCA TERMINATED NORMALLY****
TOTAL RUN TIME: 0 days 0 hours 0 minutes 27 seconds 247 msec
