                         Program Version 5.0.0 -  RELEASE  -
|  1> !LC-PBE RIJCOSX def2-SVPD def2/J TightSCF
|  2> *xyz 0 1
|  3> C          4.36645       -0.13321       -1.41606
|  4> C          4.50829       -0.93187       -2.72425
|  5> H          4.75372       -1.97205       -2.48841
|  6> C          3.29416       -0.91821       -3.65657
|  7> H          5.38564       -0.53624       -3.24264
|  8> C          3.05650       -0.32080       -0.70738
|  9> N          2.38983        0.71129       -0.24391
| 10> C          2.51600       -1.50772       -0.55023
| 11> H          2.96768       -2.32291       -0.95631
| 12> H          1.54987       -1.49063       -0.24988
| 13> H          2.74307        1.64947       -0.41280
| 14> H          1.44036        0.50278        0.03703
| 15> H          4.48784        0.93300       -1.61157
| 16> H          5.16967       -0.41443       -0.72982
| 17> H          3.50670       -1.50229       -4.52754
| 18> H          3.07837        0.08892       -3.94644
| 19> H          2.44880       -1.33173       -3.14739
| 20> *
| 21>
| 22> %MaxCore 64000
| 23>
| 24> %pal nprocs 4
| 25> end
| 26>
| 27> %scf
| 28>   MaxIter 150
| 29> end
| 30>
| 31>
| 32>                          ****END OF INPUT****

CARTESIAN COORDINATES (ANGSTROEM)
---------------------------------
  C      4.366450   -0.133210   -1.416060
  C      4.508290   -0.931870   -2.724250
  H      4.753720   -1.972050   -2.488410
  C      3.294160   -0.918210   -3.656570
  H      5.385640   -0.536240   -3.242640
  C      3.056500   -0.320800   -0.707380
  N      2.389830    0.711290   -0.243910
  C      2.516000   -1.507720   -0.550230
  H      2.967680   -2.322910   -0.956310
  H      1.549870   -1.490630   -0.249880
  H      2.743070    1.649470   -0.412800
  H      1.440360    0.502780    0.037030
  H      4.487840    0.933000   -1.611570
  H      5.169670   -0.414430   -0.729820
  H      3.506700   -1.502290   -4.527540
  H      3.078370    0.088920   -3.946440
  H      2.448800   -1.331730   -3.147390

 Total Charge           Charge          ....    0
 Multiplicity           Mult            ....    1
 Number of Electrons    NEL             ....   48
 Basis Dimension        Dim             ....  208

ORBITAL ENERGIES
----------------

  NO   OCC          E(Eh)            E(eV)
   0   2.0000     -14.227756      -387.1569
   1   2.0000     -10.150849      -276.2186
   2   2.0000     -10.129761      -275.6448
   3   2.0000     -10.125432      -275.5270
   4   2.0000     -10.101297      -274.8703
   5   2.0000     -10.056146      -273.6416
   6   2.0000      -1.101996       -29.9868
   7   2.0000      -0.967093       -26.3159
   8   2.0000      -0.889509       -24.2048
   9   2.0000      -0.854932       -23.2639
  10   2.0000      -0.763846       -20.7853
  11   2.0000      -0.698961       -19.0197
  12   2.0000      -0.674481       -18.3536
  13   2.0000      -0.629796       -17.1376
  14   2.0000      -0.601162       -16.3585
  15   2.0000      -0.572791       -15.5864
  16   2.0000      -0.541749       -14.7417
  17   2.0000      -0.526816       -14.3354
  18   2.0000      -0.506106       -13.7718
  19   2.0000      -0.498034       -13.5522
  20   2.0000      -0.466540       -12.6952
  21   2.0000      -0.454870       -12.3776
  22   2.0000      -0.450984       -12.2719
  23   2.0000      -0.307319        -8.3626
  24   0.0000       0.091688         2.4950
  25   0.0000       0.108808         2.9608
  26   0.0000       0.115087         3.1317
  27   0.0000       0.122610         3.3364
  28   0.0000       0.141856         3.8601

MULLIKEN ATOMIC CHARGES
-----------------------
   0 C :    0.346571
   1 C :   -0.558603
   2 H :    0.064258
   3 C :    0.509697
   4 H :   -0.091178
   5 C :   -0.224017
   6 N :    0.102100
   7 C :    0.319127
   8 H :   -0.072364
   9 H :   -0.435967
  10 H :   -0.075160
  11 H :   -0.027673
  12 H :    0.111539
  13 H :   -0.008792
  14 H :    0.014496
  15 H :    0.021053
  16 H :    0.004914
Sum of atomic charges:   -0.0000000

LOEWDIN ATOMIC CHARGES
----------------------
   0 C :   -0.008496
   1 C :   -0.090767
   2 H :    0.027630
   3 C :    0.095492
   4 H :    0.027196
   5 C :   -0.263910
   6 N :    0.149496
   7 C :    0.140059
   8 H :   -0.061087
   9 H :   -0.070185
  10 H :    0.012848
  11 H :    0.013954
  12 H :    0.024132
  13 H :    0.042031
  14 H :   -0.008003
  15 H :   -0.005682
  16 H :   -0.024710

  Mayer bond orders larger than 0.100000
B(  0-C ,  1-C ) :   1.2244 B(  0-C ,  4-H ) :   0.1395 B(  0-C ,  5-C ) :   1.0889
B(  0-C , 12-H ) :   0.7086 B(  0-C , 13-H ) :   0.8337 B(  1-C ,  2-H ) :   0.9211
B(  1-C ,  3-C ) :   1.3493 B(  1-C ,  4-H ) :   0.9874 B(  1-C , 12-H ) :   0.1170
B(  1-C , 13-H ) :   0.1077 B(  1-C , 14-H ) :   0.1904 B(  1-C , 15-H ) :   0.1832
B(  1-C , 16-H ) :   0.1935 B(  3-C , 14-H ) :   0.7831 B(  3-C , 15-H ) :   0.8254
B(  3-C , 16-H ) :   0.8592 B(  5-C ,  6-N ) :   1.1490 B(  5-C ,  7-C ) :   2.0179
B(  5-C ,  8-H ) :   0.1465 B(  5-C ,  9-H ) :   0.2306 B(  5-C , 12-H ) :   0.1748
B(  5-C , 13-H ) :   0.1470 B(  6-N ,  7-C ) :   0.2561 B(  6-N , 10-H ) :   1.1395
B(  6-N , 11-H ) :   1.0958 B(  7-C ,  8-H ) :   0.7704 B(  7-C ,  9-H ) :   0.8121
B(  8-H ,  9-H ) :  -0.1236 B( 10-H , 11-H ) :  -0.1194

FINAL SINGLE POINT ENERGY      -250.836523690977

DIPOLE MOMENT
-------------
                                X             Y             Z
Electronic contribution:     -0.73518       1.57523       3.56756
Nuclear contribution   :      0.73787      -0.87128      -3.75926
                        -----------------------------------------
Total Dipole Moment    :      0.00269       0.70395      -0.19170
                        -----------------------------------------
Magnitude (a.u.)       :      0.72959
Magnitude (Debye)      :      1.85448

Rotational constants in cm-1:     0.191039     0.078358     0.072723
Rotational constants in MHz :  5727.202281  2349.118247  2180.181745

                             ****ORCA TERMINATED NORMALLY****
TOTAL RUN TIME: 0 days 0 hours 0 minutes 27 seconds 175 msec
