                         Program Version 5.0.0 -  RELEASE  -
|  1> !LC-PBE RIJCOSX def2-SVPD def2/J TightSCF xyzfile
|  2>
|  3> *xyzfile 0 1 D1.xyz
|  4>
|  5> %MaxCore 64000
|  6>
|  7> %pal nprocs 4
|  8> end
|  9>
| 10> %scf
| 11>   MaxIter 150
| 12> end
| 13>
| 14>
| 15>                          ****END OF INPUT****

CARTESIAN COORDINATES (ANGSTROEM)
---------------------------------
  C      4.366454   -0.133215   -1.416062
  C      4.508292   -0.931872   -2.724249
  H      4.753716   -1.972051   -2.488408
  C      3.294164   -0.918214   -3.656570
  H      5.385637   -0.536236   -3.242640
  H      2.483463   -1.477378   -3.185764
  H      3.553092   -1.478495   -4.560331
  C      2.772335    0.460100   -4.051448
  H      2.608762    1.065107   -3.155194
  C      1.465354    0.410537   -4.853644
  H      3.532940    0.988848   -4.635671
  C      0.326171   -0.375613   -4.192580
  H      1.666704   -0.022269   -5.839323
  H      1.138198    1.439246   -5.035449
  C     -0.017405    0.080588   -2.778406
  H      0.585573   -1.439385   -4.168057
  H     -0.560005   -0.311425   -4.831461
  H      0.902090    0.201296   -2.206729
  C     -0.903495   -0.873945   -1.987388
  H     -0.479549    1.074657   -2.811915
  H     -0.502554   -1.892096   -2.081204
  H     -1.917039   -0.895427   -2.406277
  C     -0.960148   -0.522365   -0.489867
  H     -1.690392   -1.208130   -0.021677
  H     -1.414490    0.486329   -0.406677
  F      0.261703   -0.580307    0.138611
  C      3.056503   -0.320797   -0.707384
  C      2.389825    0.711285   -0.243909
  N      2.515999   -1.507721   -0.550229
  H      2.967683   -2.322915   -0.956305
  H      1.549872   -1.490634   -0.249876
  H      2.743071    1.649471   -0.412802
  H      1.440364    0.502778    0.037031
  H      4.487835    0.932997   -1.611569
  H      5.169672   -0.414432   -0.729817

 Total Charge           Charge          ....    0
 Multiplicity           Mult            ....    1
 Number of Electrons    NEL             ....  104
 Basis Dimension        Dim             ....  439

ORBITAL ENERGIES
----------------

  NO   OCC          E(Eh)            E(eV)
   0   2.0000     -24.526838      -667.4092
   1   2.0000     -14.201613      -386.4455
   2   2.0000     -10.222295      -278.1628
   3   2.0000     -10.141419      -275.9620
   4   2.0000     -10.133315      -275.7415
   5   2.0000     -10.121627      -275.4235
   6   2.0000     -10.120868      -275.4028
   7   2.0000     -10.118725      -275.3445
   8   2.0000     -10.118341      -275.3341
   9   2.0000     -10.115969      -275.2695
  10   2.0000     -10.114159      -275.2203
  11   2.0000     -10.112038      -275.1625
  12   2.0000     -10.031887      -272.9815
  13   2.0000      -1.378744       -37.5175
  14   2.0000      -1.083339       -29.4792
  15   2.0000      -0.996352       -27.1121
  16   2.0000      -0.970910       -26.4198
  17   2.0000      -0.942487       -25.6464
  18   2.0000      -0.899192       -24.4683
  19   2.0000      -0.870742       -23.6941
  20   2.0000      -0.849911       -23.1273
  21   2.0000      -0.797611       -21.7041
  22   2.0000      -0.774560       -21.0768
  23   2.0000      -0.743043       -20.2192
  24   2.0000      -0.709416       -19.3042
  25   2.0000      -0.693797       -18.8792
  26   2.0000      -0.687864       -18.7177
  27   2.0000      -0.676797       -18.4166
  28   2.0000      -0.667725       -18.1697
  29   2.0000      -0.637573       -17.3492
  30   2.0000      -0.621088       -16.9007
  31   2.0000      -0.606989       -16.5170
  32   2.0000      -0.587738       -15.9932
  33   2.0000      -0.581573       -15.8254
  34   2.0000      -0.571112       -15.5407
  35   2.0000      -0.564431       -15.3589
  36   2.0000      -0.537819       -14.6348
  37   2.0000      -0.527322       -14.3492
  38   2.0000      -0.516080       -14.0432
  39   2.0000      -0.507601       -13.8125
  40   2.0000      -0.500454       -13.6180
  41   2.0000      -0.489394       -13.3171
  42   2.0000      -0.484021       -13.1709
  43   2.0000      -0.472577       -12.8595
  44   2.0000      -0.468677       -12.7534
  45   2.0000      -0.458610       -12.4794
  46   2.0000      -0.442662       -12.0454
  47   2.0000      -0.440274       -11.9805
  48   2.0000      -0.429794       -11.6953
  49   2.0000      -0.426528       -11.6064
  50   2.0000      -0.424954       -11.5636
  51   2.0000      -0.289656        -7.8819
  52   0.0000       0.086268         2.3475
  53   0.0000       0.095921         2.6101
  54   0.0000       0.102776         2.7967
  55   0.0000       0.104316         2.8386
  56   0.0000       0.123504         3.3607

MULLIKEN ATOMIC CHARGES
-----------------------
   0 C :    0.292243
   1 C :    0.344816
   2 H :    0.056609
   3 C :   -0.243095
   4 H :   -0.033480
   5 H :    0.049603
   6 H :   -0.110136
   7 C :   -0.208053
   8 H :    0.170418
   9 C :    0.506996
  10 H :   -0.256720
  11 C :   -0.103484
  12 H :    0.065310
  13 H :    0.075890
  14 C :    0.289375
  15 H :    0.215772
  16 H :   -0.302001
  17 H :   -0.701938
  18 C :   -0.119676
  19 H :    0.066139
  20 H :    0.080385
  21 H :   -0.063832
  22 C :    0.838090
  23 H :   -0.014020
  24 H :    0.063793
  25 F :   -0.722098
  26 C :   -0.676632
  27 C :    0.567351
  28 N :    0.420300
  29 H :   -0.032421
  30 H :   -0.294023
  31 H :   -0.248056
  32 H :   -0.209613
  33 H :    0.441041
  34 H :   -0.204853
Sum of atomic charges:   -0.0000000

LOEWDIN ATOMIC CHARGES
----------------------
   0 C :   -0.001829
   1 C :   -0.047168
   2 H :    0.024844
   3 C :   -0.053015
   4 H :    0.031198
   5 H :   -0.000717
   6 H :    0.037744
   7 C :   -0.049749
   8 H :    0.015176
   9 C :   -0.049190
  10 H :    0.036159
  11 C :   -0.057938
  12 H :    0.032787
  13 H :    0.033691
  14 C :   -0.047806
  15 H :    0.022547
  16 H :    0.032452
  17 H :   -0.016198
  18 C :   -0.037537
  19 H :    0.049424
  20 H :    0.039726
  21 H :    0.045593
  22 C :    0.139910
  23 H :    0.047608
  24 H :    0.057285
  25 F :   -0.214895
  26 C :   -0.250963
  27 C :    0.159041
  28 N :    0.185363
  29 H :    0.013672
  30 H :   -0.059598
  31 H :   -0.059323
  32 H :   -0.126911
  33 H :    0.031205
  34 H :    0.037412

  Mayer bond orders larger than 0.100000
B(  0-C ,  1-C ) :   1.2276 B(  0-C ,  2-H ) :   0.1270 B(  0-C ,  4-H ) :   0.1860
B(  0-C , 26-C ) :   1.2464 B(  0-C , 31-H ) :  -0.1279 B(  0-C , 33-H ) :   0.7454
B(  0-C , 34-H ) :   0.7117 B(  1-C ,  2-H ) :   0.6863 B(  1-C ,  3-C ) :   1.2797
B(  1-C ,  4-H ) :   0.8005 B(  1-C , 26-C ) :   0.1594 B(  1-C , 33-H ) :   0.1243
B(  2-H ,  3-C ) :   0.2556 B(  2-H ,  4-H ) :  -0.1255 B(  3-C ,  4-H ) :   0.1685
B(  3-C ,  5-H ) :   0.8859 B(  3-C ,  6-H ) :   0.9225 B(  3-C ,  7-C ) :   1.2818
B(  3-C ,  8-H ) :   0.1045 B(  3-C , 10-H ) :   0.1637 B(  5-H ,  7-C ) :   0.1096
B(  5-H , 15-H ) :   0.1449 B(  6-H ,  7-C ) :   0.1325 B(  7-C ,  8-H ) :   0.8688
B(  7-C ,  9-C ) :   1.1539 B(  7-C , 10-H ) :   1.0302 B(  7-C , 11-C ) :   0.1124
B(  7-C , 12-H ) :   0.1022 B(  7-C , 13-H ) :   0.2144 B(  8-H , 17-H ) :   0.1708
B(  9-C , 11-C ) :   1.1433 B(  9-C , 12-H ) :   0.7712 B(  9-C , 13-H ) :   0.7216
B( 11-C , 12-H ) :   0.1586 B( 11-C , 13-H ) :   0.1269 B( 11-C , 14-C ) :   1.2315
B( 11-C , 15-H ) :   0.8232 B( 11-C , 16-H ) :   1.0638 B( 11-C , 17-H ) :   0.1363
B( 11-C , 19-H ) :   0.1048 B( 14-C , 15-H ) :   0.1184 B( 14-C , 16-H ) :   0.2279
B( 14-C , 17-H ) :   0.5332 B( 14-C , 18-C ) :   1.2107 B( 14-C , 19-H ) :   0.7105
B( 14-C , 21-H ) :   0.2123 B( 14-C , 27-C ) :   0.1764 B( 17-H , 18-C ) :   0.1246
B( 17-H , 19-H ) :   0.2647 B( 17-H , 27-C ) :  -0.1291 B( 17-H , 32-H ) :   0.1176
B( 18-C , 20-H ) :   0.9348 B( 18-C , 21-H ) :   0.8956 B( 18-C , 22-C ) :   1.1437
B( 18-C , 23-H ) :   0.1651 B( 18-C , 25-F ) :   0.1042 B( 22-C , 23-H ) :   0.8007
B( 22-C , 24-H ) :   0.8410 B( 22-C , 25-F ) :   0.7016 B( 24-H , 25-F ) :   0.1264
B( 25-F , 30-H ) :   0.1404 B( 25-F , 32-H ) :   0.1611 B( 26-C , 27-C ) :   2.2455
B( 26-C , 28-N ) :   1.0159 B( 26-C , 31-H ) :   0.1478 B( 26-C , 32-H ) :   0.5417
B( 26-C , 34-H ) :   0.3543 B( 27-C , 28-N ) :   0.3512 B( 27-C , 31-H ) :   1.0440
B( 27-C , 32-H ) :   0.1913 B( 28-N , 29-H ) :   1.0660 B( 28-N , 30-H ) :   1.1194
B( 28-N , 31-H ) :   0.1425 B( 29-H , 30-H ) :  -0.2222 B( 31-H , 32-H ) :  -0.2168

FINAL SINGLE POINT ENERGY      -584.673678398144

DIPOLE MOMENT
-------------
                                X             Y             Z
Electronic contribution:     -2.73234      -1.59889      10.40770
Nuclear contribution   :      1.82572       1.04089     -11.09065
                        -----------------------------------------
Total Dipole Moment    :     -0.90662      -0.55799      -0.68295
                        -----------------------------------------
Magnitude (a.u.)       :      1.26481
Magnitude (Debye)      :      3.21488

Rotational constants in cm-1:     0.028436     0.022359     0.014416
Rotational constants in MHz :   852.496561   670.291843   432.183951

                             ****ORCA TERMINATED NORMALLY****
TOTAL RUN TIME: 0 days 0 hours 3 minutes 37 seconds 790 msec
