                         Program Version 5.0.0 -  RELEASE  -
|  1> !LC-PBE RIJCOSX def2-SVPD def2/J TightSCF xyzfile
|  2>
|  3> *xyzfile 0 1 D2.xyz
|  4>
|  5> %MaxCore 64000
|  6>
|  7> %pal nprocs 4
|  8> end
|  9>
| 10> %scf
| 11>   MaxIter 150
| 12> end
| 13>
| 14>
| 15>                          ****END OF INPUT****

CARTESIAN COORDINATES (ANGSTROEM)
---------------------------------
  C      4.366454   -0.133215   -1.416062
  C      4.508292   -0.931872   -2.724249
  H      4.753716   -1.972051   -2.488408
  C      3.294164   -0.918214   -3.656570
  H      5.385637   -0.536236   -3.242640
  H      2.483463   -1.477378   -3.185764
  H      3.553092   -1.478495   -4.560331
  C      2.772335    0.460100   -4.051448
  H      2.608762    1.065107   -3.155194
  C      1.465354    0.410537   -4.853644
  H      3.532940    0.988848   -4.635671
  C      0.326171   -0.375613   -4.192580
  H      1.666704   -0.022269   -5.839323
  H      1.138198    1.439246   -5.035449
  C     -0.017405    0.080588   -2.778406
  H      0.585573   -1.439385   -4.168057
  H     -0.560005   -0.311425   -4.831461
  H      0.902090    0.201296   -2.206729
  C     -0.903495   -0.873945   -1.987388
  H     -0.479549    1.074657   -2.811915
  H     -0.502554   -1.892096   -2.081204
  H     -1.917039   -0.895427   -2.406277
  C     -0.960148   -0.522365   -0.489867
  H     -1.690392   -1.208130   -0.021677
  H     -1.414490    0.486329   -0.406677
  F      0.261703   -0.580307    0.138611
  C      3.056503   -0.320797   -0.707384
  N      2.389825    0.711285   -0.243909
  C      2.515999   -1.507721   -0.550229
  H      2.967683   -2.322915   -0.956305
  H      1.549872   -1.490634   -0.249876
  H      2.743071    1.649471   -0.412802
  H      1.440364    0.502778    0.037031
  H      4.487835    0.932997   -1.611569
  H      5.169672   -0.414432   -0.729817

 Total Charge           Charge          ....    0
 Multiplicity           Mult            ....    1
 Number of Electrons    NEL             ....  104
 Basis Dimension        Dim             ....  439

ORBITAL ENERGIES
----------------

  NO   OCC          E(Eh)            E(eV)
   0   2.0000     -24.527021      -667.4142
   1   2.0000     -14.201770      -386.4498
   2   2.0000     -10.222628      -278.1719
   3   2.0000     -10.139795      -275.9178
   4   2.0000     -10.132982      -275.7325
   5   2.0000     -10.121230      -275.4127
   6   2.0000     -10.120625      -275.3962
   7   2.0000     -10.118861      -275.3482
   8   2.0000     -10.117311      -275.3060
   9   2.0000     -10.116692      -275.2892
  10   2.0000     -10.113880      -275.2127
  11   2.0000     -10.107885      -275.0495
  12   2.0000     -10.030300      -272.9383
  13   2.0000      -1.378920       -37.5223
  14   2.0000      -1.083280       -29.4775
  15   2.0000      -0.996235       -27.1089
  16   2.0000      -0.970642       -26.4125
  17   2.0000      -0.943412       -25.6715
  18   2.0000      -0.895634       -24.3714
  19   2.0000      -0.862099       -23.4589
  20   2.0000      -0.851686       -23.1756
  21   2.0000      -0.802005       -21.8237
  22   2.0000      -0.775936       -21.1143
  23   2.0000      -0.744522       -20.2595
  24   2.0000      -0.706895       -19.2356
  25   2.0000      -0.698230       -18.9998
  26   2.0000      -0.680520       -18.5179
  27   2.0000      -0.675241       -18.3743
  28   2.0000      -0.662966       -18.0402
  29   2.0000      -0.632565       -17.2130
  30   2.0000      -0.625571       -17.0226
  31   2.0000      -0.608439       -16.5565
  32   2.0000      -0.595415       -16.2021
  33   2.0000      -0.579946       -15.7811
  34   2.0000      -0.571932       -15.5631
  35   2.0000      -0.555892       -15.1266
  36   2.0000      -0.537655       -14.6303
  37   2.0000      -0.526405       -14.3242
  38   2.0000      -0.516281       -14.0487
  39   2.0000      -0.502353       -13.6697
  40   2.0000      -0.498693       -13.5701
  41   2.0000      -0.492502       -13.4017
  42   2.0000      -0.483583       -13.1590
  43   2.0000      -0.480093       -13.0640
  44   2.0000      -0.461217       -12.5504
  45   2.0000      -0.454834       -12.3767
  46   2.0000      -0.443502       -12.0683
  47   2.0000      -0.436454       -11.8765
  48   2.0000      -0.431932       -11.7535
  49   2.0000      -0.427405       -11.6303
  50   2.0000      -0.422405       -11.4942
  51   2.0000      -0.288429        -7.8486
  52   0.0000       0.087251         2.3742
  53   0.0000       0.097086         2.6418
  54   0.0000       0.100991         2.7481
  55   0.0000       0.105710         2.8765
  56   0.0000       0.119310         3.2466

MULLIKEN ATOMIC CHARGES
-----------------------
   0 C :    0.385359
   1 C :    0.242056
   2 H :    0.156400
   3 C :   -0.171266
   4 H :   -0.092813
   5 H :   -0.014509
   6 H :   -0.104423
   7 C :   -0.164763
   8 H :    0.096662
   9 C :    0.536978
  10 H :   -0.257024
  11 C :   -0.114819
  12 H :    0.059105
  13 H :    0.077935
  14 C :    0.490094
  15 H :    0.206469
  16 H :   -0.291617
  17 H :   -0.784450
  18 C :   -0.147245
  19 H :    0.076044
  20 H :    0.107327
  21 H :   -0.065469
  22 C :    0.841754
  23 H :    0.008296
  24 H :    0.046890
  25 F :   -0.729136
  26 C :   -0.551655
  27 N :    0.365992
  28 C :    0.599474
  29 H :   -0.176764
  30 H :   -0.525879
  31 H :   -0.027789
  32 H :   -0.149573
  33 H :    0.245970
  34 H :   -0.173612
Sum of atomic charges:   -0.0000000

LOEWDIN ATOMIC CHARGES
----------------------
   0 C :   -0.003051
   1 C :   -0.041614
   2 H :    0.030899
   3 C :   -0.051376
   4 H :    0.029862
   5 H :   -0.000301
   6 H :    0.038248
   7 C :   -0.052669
   8 H :    0.011120
   9 C :   -0.049452
  10 H :    0.035629
  11 C :   -0.055997
  12 H :    0.033622
  13 H :    0.032549
  14 C :   -0.051569
  15 H :    0.025142
  16 H :    0.032877
  17 H :   -0.015590
  18 C :   -0.034946
  19 H :    0.046592
  20 H :    0.043923
  21 H :    0.045637
  22 C :    0.139519
  23 H :    0.049403
  24 H :    0.053768
  25 F :   -0.214440
  26 C :   -0.246253
  27 N :    0.173358
  28 C :    0.169353
  29 H :   -0.059896
  30 H :   -0.125875
  31 H :    0.015433
  32 H :   -0.063999
  33 H :    0.020462
  34 H :    0.039635

  Mayer bond orders larger than 0.100000
B(  0-C ,  1-C ) :   1.1726 B(  0-C ,  4-H ) :   0.1521 B(  0-C , 26-C ) :   1.2571
B(  0-C , 29-H ) :  -0.1190 B(  0-C , 33-H ) :   0.6193 B(  0-C , 34-H ) :   0.8330
B(  1-C ,  2-H ) :   0.6956 B(  1-C ,  3-C ) :   1.3047 B(  1-C ,  4-H ) :   0.8715
B(  1-C ,  5-H ) :   0.1128 B(  1-C , 26-C ) :   0.1100 B(  1-C , 33-H ) :   0.1069
B(  2-H ,  3-C ) :   0.2194 B(  2-H ,  4-H ) :  -0.1424 B(  3-C ,  4-H ) :   0.1931
B(  3-C ,  5-H ) :   0.8704 B(  3-C ,  6-H ) :   0.9013 B(  3-C ,  7-C ) :   1.2648
B(  3-C ,  8-H ) :   0.1008 B(  3-C , 10-H ) :   0.1626 B(  4-H , 29-H ) :  -0.1206
B(  5-H ,  7-C ) :   0.1071 B(  5-H , 15-H ) :   0.1406 B(  5-H , 29-H ) :   0.1365
B(  5-H , 30-H ) :  -0.1102 B(  6-H ,  7-C ) :   0.1535 B(  7-C ,  8-H ) :   0.8675
B(  7-C ,  9-C ) :   1.1524 B(  7-C , 10-H ) :   1.0318 B(  7-C , 11-C ) :   0.1195
B(  7-C , 12-H ) :   0.1029 B(  7-C , 13-H ) :   0.2182 B(  8-H , 17-H ) :   0.2074
B(  9-C , 11-C ) :   1.1426 B(  9-C , 12-H ) :   0.7643 B(  9-C , 13-H ) :   0.7274
B( 11-C , 12-H ) :   0.1558 B( 11-C , 13-H ) :   0.1196 B( 11-C , 14-C ) :   1.2085
B( 11-C , 15-H ) :   0.8303 B( 11-C , 16-H ) :   1.0544 B( 11-C , 17-H ) :   0.1770
B( 14-C , 15-H ) :   0.1187 B( 14-C , 16-H ) :   0.2121 B( 14-C , 17-H ) :   0.2549
B( 14-C , 18-C ) :   1.1837 B( 14-C , 19-H ) :   0.6690 B( 14-C , 20-H ) :   0.1040
B( 14-C , 21-H ) :   0.1916 B( 17-H , 18-C ) :   0.1344 B( 17-H , 19-H ) :   0.3053
B( 18-C , 20-H ) :   0.9218 B( 18-C , 21-H ) :   0.9151 B( 18-C , 22-C ) :   1.1481
B( 18-C , 23-H ) :   0.1609 B( 22-C , 23-H ) :   0.7877 B( 22-C , 24-H ) :   0.8420
B( 22-C , 25-F ) :   0.7185 B( 24-H , 25-F ) :   0.1296 B( 25-F , 30-H ) :   0.2221
B( 26-C , 27-N ) :   1.0559 B( 26-C , 28-C ) :   2.1580 B( 26-C , 30-H ) :   0.4969
B( 26-C , 33-H ) :   0.2119 B( 26-C , 34-H ) :   0.2550 B( 27-N , 28-C ) :   0.3430
B( 27-N , 29-H ) :   0.1525 B( 27-N , 31-H ) :   1.0764 B( 27-N , 32-H ) :   1.0639
B( 28-C , 29-H ) :   0.8235 B( 28-C , 30-H ) :   0.3113 B( 29-H , 30-H ) :  -0.2918
B( 31-H , 32-H ) :  -0.1613

FINAL SINGLE POINT ENERGY      -584.672800291633

DIPOLE MOMENT
-------------
                                X             Y             Z
Electronic contribution:     -2.82942       0.00934      10.63916
Nuclear contribution   :      1.85154       0.58682     -11.15333
                        -----------------------------------------
Total Dipole Moment    :     -0.97789       0.59616      -0.51417
                        -----------------------------------------
Magnitude (a.u.)       :      1.25541
Magnitude (Debye)      :      3.19099

Rotational constants in cm-1:     0.028379     0.022321     0.014415
Rotational constants in MHz :   850.785777   669.176075   432.155504

                             ****ORCA TERMINATED NORMALLY****
TOTAL RUN TIME: 0 days 0 hours 3 minutes 45 seconds 397 msec
