                         Program Version 5.0.0 -  RELEASE  -
|  1> !wB97X-D3 RIJCOSX def2-SVPD def2/J TightSCF
|  2> *xyz -1 1
|  3> C         -0.46129        2.23469       -4.98962
|  4> C          0.84888        2.66797       -4.30235
|  5> C          2.09343        1.86104       -4.65684
|  6> H          2.44481        2.04157       -5.67499
|  7> H          2.90175        2.13786       -3.98034
|  8> S          1.87964        0.07859       -4.46297
|  9> O          3.20757       -0.46611       -4.42026
| 10> O          1.07506       -0.05616       -3.26876
| 11> O          1.13166       -0.31996       -5.67903
| 12> H          0.66843        2.55943       -3.23285
| 13> H          1.03407        3.72943       -4.49708
| 14> H         -0.35183        2.31783       -6.05075
| 15> H         -1.26108        2.86600       -4.66300
| 16> H         -0.68032        1.21949       -4.73211
| 17> *
| 18>
| 19> %MaxCore 64000
| 20>
| 21> %pal nprocs 8
| 22> end
| 23>
| 24> %scf
| 25>   MaxIter 150
| 26> end
| 27>
| 28>
| 29>                          ****END OF INPUT****

CARTESIAN COORDINATES (ANGSTROEM)
---------------------------------
  C     -0.461290    2.234690   -4.989620
  C      0.848880    2.667970   -4.302350
  C      2.093430    1.861040   -4.656840
  H      2.444810    2.041570   -5.674990
  H      2.901750    2.137860   -3.980340
  S      1.879640    0.078590   -4.462970
  O      3.207570   -0.466110   -4.420260
  O      1.075060   -0.056160   -3.268760
  O      1.131660   -0.319960   -5.679030
  H      0.668430    2.559430   -3.232850
  H      1.034070    3.729430   -4.497080
  H     -0.351830    2.317830   -6.050750
  H     -1.261080    2.866000   -4.663000
  H     -0.680320    1.219490   -4.732110

 Total Charge           Charge          ....   -1
 Multiplicity           Mult            ....    1
 Number of Electrons    NEL             ....   66
 Basis Dimension        Dim             ....  212

ORBITAL ENERGIES
----------------

  NO   OCC          E(Eh)            E(eV)
   0   2.0000     -88.979463     -2421.2543
   1   2.0000     -19.032162      -517.8915
   2   2.0000     -19.029772      -517.8264
   3   2.0000     -19.016116      -517.4548
   4   2.0000     -10.158017      -276.4137
   5   2.0000     -10.151291      -276.2307
   6   2.0000     -10.135823      -275.8098
   7   2.0000      -8.052940      -219.1316
   8   2.0000      -6.012528      -163.6092
   9   2.0000      -6.012359      -163.6046
  10   2.0000      -6.011995      -163.5947
  11   2.0000      -1.053943       -28.6792
  12   2.0000      -0.913871       -24.8677
  13   2.0000      -0.887397       -24.1473
  14   2.0000      -0.764104       -20.7923
  15   2.0000      -0.672263       -18.2932
  16   2.0000      -0.573798       -15.6138
  17   2.0000      -0.486947       -13.2505
  18   2.0000      -0.437468       -11.9041
  19   2.0000      -0.418936       -11.3998
  20   2.0000      -0.398185       -10.8352
  21   2.0000      -0.383186       -10.4270
  22   2.0000      -0.366133        -9.9630
  23   2.0000      -0.351513        -9.5652
  24   2.0000      -0.319698        -8.6994
  25   2.0000      -0.309294        -8.4163
  26   2.0000      -0.290608        -7.9079
  27   2.0000      -0.255455        -6.9513
  28   2.0000      -0.252824        -6.8797
  29   2.0000      -0.218629        -5.9492
  30   2.0000      -0.206897        -5.6300
  31   2.0000      -0.194634        -5.2963
  32   2.0000      -0.165361        -4.4997
  33   0.0000       0.205029         5.5791
  34   0.0000       0.223903         6.0927
  35   0.0000       0.227646         6.1946
  36   0.0000       0.232356         6.3227
  37   0.0000       0.252796         6.8789

MULLIKEN ATOMIC CHARGES
-----------------------
   0 C :    0.699324
   1 C :   -0.267684
   2 C :    0.066407
   3 H :   -0.014360
   4 H :   -0.013338
   5 S :    1.316894
   6 O :   -0.824547
   7 O :   -0.809526
   8 O :   -0.821929
   9 H :    0.060532
  10 H :   -0.195153
  11 H :   -0.059019
  12 H :   -0.100584
  13 H :   -0.037018
Sum of atomic charges:   -1.0000000

LOEWDIN ATOMIC CHARGES
----------------------
   0 C :    0.116208
   1 C :   -0.095394
   2 C :   -0.092780
   3 H :    0.008883
   4 H :    0.000699
   5 S :    0.864832
   6 O :   -0.571561
   7 O :   -0.568875
   8 O :   -0.591911
   9 H :    0.010797
  10 H :    0.005264
  11 H :   -0.018902
  12 H :   -0.033334
  13 H :   -0.033925

  Mayer bond orders larger than 0.100000
B(  0-C ,  1-C ) :   1.2600 B(  0-C , 11-H ) :   0.7805 B(  0-C , 12-H ) :   0.7842
B(  0-C , 13-H ) :   0.8302 B(  1-C ,  2-C ) :   1.2184 B(  1-C ,  3-H ) :   0.1236
B(  1-C ,  4-H ) :   0.1320 B(  1-C ,  9-H ) :   0.8679 B(  1-C , 10-H ) :   0.9433
B(  1-C , 11-H ) :   0.1991 B(  1-C , 12-H ) :   0.1949 B(  1-C , 13-H ) :   0.2002
B(  2-C ,  3-H ) :   0.9398 B(  2-C ,  4-H ) :   0.9214 B(  2-C ,  5-S ) :   0.9303
B(  2-C ,  9-H ) :   0.1196 B(  2-C , 10-H ) :   0.1118 B(  5-S ,  6-O ) :   1.3847
B(  5-S ,  7-O ) :   1.3014 B(  5-S ,  8-O ) :   1.2747

Dispersion correction           -0.004656562
FINAL SINGLE POINT ENERGY      -741.970967739521

DIPOLE MOMENT
-------------
                                X             Y             Z
Electronic contribution:      4.87094      -9.00813       1.03685
Nuclear contribution   :     -5.21326      11.14780      -1.06438
                        -----------------------------------------
Total Dipole Moment    :     -0.34233       2.13967      -0.02753
                        -----------------------------------------
Magnitude (a.u.)       :      2.16706
Magnitude (Debye)      :      5.50822

Rotational constants in cm-1:     0.135673     0.057896     0.054396
Rotational constants in MHz :  4067.361083  1735.682437  1630.763840

                             ****ORCA TERMINATED NORMALLY****
TOTAL RUN TIME: 0 days 0 hours 0 minutes 22 seconds 936 msec
