                         Program Version 5.0.0 -  RELEASE  -
|  1> !wB97X-D3 RIJCOSX def2-SVPD def2/J TightSCF
|  2> *xyz 1 1
|  3> C         -0.46129        2.23469       -4.98962
|  4> C          0.84888        2.66797       -4.30235
|  5> C          2.09343        1.86104       -4.65684
|  6> C         -0.42384        2.39877       -6.47432
|  7> N         -0.95947        3.49265       -7.00740
|  8> N          0.14558        1.48689       -7.20399
|  9> H          0.56537        0.69681       -6.72386
| 10> H          0.22068        1.58177       -8.20752
| 11> H         -1.40624        4.18151       -6.40326
| 12> H         -0.93421        3.68160       -7.99947
| 13> H          0.66843        2.55943       -3.23285
| 14> H          1.03407        3.72943       -4.49708
| 15> H         -1.28888        2.82674       -4.59500
| 16> H         -0.65170        1.18634       -4.75655
| 17> H          2.29129        1.95234       -5.70442
| 18> H          1.93270        0.83176       -4.41261
| 19> H          2.92953        2.23285       -4.10223
| 20> *
| 21>
| 22> %MaxCore 64000
| 23>
| 24> %pal nprocs 8
| 25> end
| 26>
| 27> %scf
| 28>   MaxIter 150
| 29> end
| 30>
| 31>
| 32>                          ****END OF INPUT****

CARTESIAN COORDINATES (ANGSTROEM)
---------------------------------
  C     -0.461290    2.234690   -4.989620
  C      0.848880    2.667970   -4.302350
  C      2.093430    1.861040   -4.656840
  C     -0.423840    2.398770   -6.474320
  N     -0.959470    3.492650   -7.007400
  N      0.145580    1.486890   -7.203990
  H      0.565370    0.696810   -6.723860
  H      0.220680    1.581770   -8.207520
  H     -1.406240    4.181510   -6.403260
  H     -0.934210    3.681600   -7.999470
  H      0.668430    2.559430   -3.232850
  H      1.034070    3.729430   -4.497080
  H     -1.288880    2.826740   -4.595000
  H     -0.651700    1.186340   -4.756550
  H      2.291290    1.952340   -5.704420
  H      1.932700    0.831760   -4.412610
  H      2.929530    2.232850   -4.102230

 Total Charge           Charge          ....    1
 Multiplicity           Mult            ....    1
 Number of Electrons    NEL             ....   48
 Basis Dimension        Dim             ....  208

ORBITAL ENERGIES
----------------

  NO   OCC          E(Eh)            E(eV)
   0   2.0000     -14.683019      -399.5453
   1   2.0000     -14.679184      -399.4409
   2   2.0000     -10.612388      -288.7778
   3   2.0000     -10.484169      -285.2887
   4   2.0000     -10.451343      -284.3955
   5   2.0000     -10.418482      -283.5013
   6   2.0000      -1.312889       -35.7255
   7   2.0000      -1.214617       -33.0514
   8   2.0000      -1.084677       -29.5156
   9   2.0000      -0.998885       -27.1810
  10   2.0000      -0.937955       -25.5231
  11   2.0000      -0.892353       -24.2822
  12   2.0000      -0.876686       -23.8558
  13   2.0000      -0.835343       -22.7308
  14   2.0000      -0.798988       -21.7416
  15   2.0000      -0.756646       -20.5894
  16   2.0000      -0.723758       -19.6945
  17   2.0000      -0.706356       -19.2209
  18   2.0000      -0.672907       -18.3107
  19   2.0000      -0.658285       -17.9129
  20   2.0000      -0.604086       -16.4380
  21   2.0000      -0.593025       -16.1370
  22   2.0000      -0.591098       -16.0846
  23   2.0000      -0.578131       -15.7317
  24   0.0000      -0.125298        -3.4095
  25   0.0000      -0.077043        -2.0965
  26   0.0000      -0.036108        -0.9825
  27   0.0000      -0.032374        -0.8809
  28   0.0000      -0.010354        -0.2817

MULLIKEN ATOMIC CHARGES
-----------------------
   0 C :   -0.013020
   1 C :   -0.356222
   2 C :    0.670567
   3 C :    0.849515
   4 N :   -0.100410
   5 N :   -0.017304
   6 H :    0.129389
   7 H :   -0.094450
   8 H :    0.088601
   9 H :   -0.087907
  10 H :    0.011387
  11 H :   -0.032336
  12 H :    0.005321
  13 H :    0.073510
  14 H :   -0.085209
  15 H :    0.005851
  16 H :   -0.047284
Sum of atomic charges:    1.0000000

LOEWDIN ATOMIC CHARGES
----------------------
   0 C :    0.043768
   1 C :   -0.040672
   2 C :    0.131348
   3 C :   -0.033164
   4 N :    0.273226
   5 N :    0.282879
   6 H :    0.052104
   7 H :    0.057331
   8 H :    0.056265
   9 H :    0.045930
  10 H :    0.039000
  11 H :    0.034169
  12 H :    0.040545
  13 H :    0.047994
  14 H :   -0.029407
  15 H :   -0.005075
  16 H :    0.003759

  Mayer bond orders larger than 0.100000
B(  0-C ,  1-C ) :   1.1704 B(  0-C ,  3-C ) :   1.0669 B(  0-C ,  4-N ) :   0.1120
B(  0-C ,  5-N ) :   0.1057 B(  0-C , 10-H ) :   0.1028 B(  0-C , 12-H ) :   0.9148
B(  0-C , 13-H ) :   0.8577 B(  1-C ,  2-C ) :   1.2978 B(  1-C , 10-H ) :   0.9234
B(  1-C , 11-H ) :   0.9928 B(  1-C , 12-H ) :   0.1115 B(  1-C , 13-H ) :   0.1271
B(  1-C , 14-H ) :   0.1953 B(  1-C , 15-H ) :   0.1948 B(  1-C , 16-H ) :   0.1948
B(  2-C , 14-H ) :   0.8197 B(  2-C , 15-H ) :   0.8007 B(  2-C , 16-H ) :   0.8262
B(  3-C ,  4-N ) :   1.0074 B(  3-C ,  5-N ) :   1.1062 B(  3-C ,  7-H ) :  -0.1815
B(  3-C ,  9-H ) :  -0.1623 B(  4-N ,  5-N ) :   0.1578 B(  4-N ,  8-H ) :   1.0696
B(  4-N ,  9-H ) :   1.2920 B(  5-N ,  6-H ) :   0.9971 B(  5-N ,  7-H ) :   1.3365
B(  6-H ,  7-H ) :  -0.1813 B(  8-H ,  9-H ) :  -0.1695

Dispersion correction           -0.004586189
FINAL SINGLE POINT ENERGY      -268.101909320879

DIPOLE MOMENT
-------------
                                X             Y             Z
Electronic contribution:     -3.55140       0.62630      -4.30417
Nuclear contribution   :      2.80679      -0.44323       2.95915
                        -----------------------------------------
Total Dipole Moment    :     -0.74461       0.18307      -1.34502
                        -----------------------------------------
Magnitude (a.u.)       :      1.54823
Magnitude (Debye)      :      3.93529

Rotational constants in cm-1:     0.187834     0.079484     0.065778
Rotational constants in MHz :  5631.136036  2382.861517  1971.985559

                             ****ORCA TERMINATED NORMALLY****
TOTAL RUN TIME: 0 days 0 hours 0 minutes 21 seconds 174 msec
