                         Program Version 5.0.0 -  RELEASE  -
|  1> !wB97X-D3 RIJCOSX def2-SVPD def2/J TightSCF
|  2> *xyz 0 1
|  3> C         -0.46129        2.23469       -4.98962
|  4> C          0.84888        2.66797       -4.30235
|  5> C          2.09343        1.86104       -4.65684
|  6> H          2.44481        2.04157       -5.67499
|  7> H          2.90175        2.13786       -3.98034
|  8> S          1.87964        0.07859       -4.46297
|  9> F          3.20757       -0.46611       -4.42026
| 10> O          1.07506       -0.05616       -3.26876
| 11> O          1.13166       -0.31996       -5.67903
| 12> H          0.66843        2.55943       -3.23285
| 13> H          1.03407        3.72943       -4.49708
| 14> H         -0.35183        2.31783       -6.05075
| 15> H         -1.26108        2.86600       -4.66300
| 16> H         -0.68032        1.21949       -4.73211
| 17> *
| 18>
| 19> %MaxCore 64000
| 20>
| 21> %pal nprocs 8
| 22> end
| 23>
| 24> %scf
| 25>   MaxIter 150
| 26> end
| 27>
| 28>
| 29>                          ****END OF INPUT****

CARTESIAN COORDINATES (ANGSTROEM)
---------------------------------
  C     -0.461290    2.234690   -4.989620
  C      0.848880    2.667970   -4.302350
  C      2.093430    1.861040   -4.656840
  H      2.444810    2.041570   -5.674990
  H      2.901750    2.137860   -3.980340
  S      1.879640    0.078590   -4.462970
  F      3.207570   -0.466110   -4.420260
  O      1.075060   -0.056160   -3.268760
  O      1.131660   -0.319960   -5.679030
  H      0.668430    2.559430   -3.232850
  H      1.034070    3.729430   -4.497080
  H     -0.351830    2.317830   -6.050750
  H     -1.261080    2.866000   -4.663000
  H     -0.680320    1.219490   -4.732110

 Total Charge           Charge          ....    0
 Multiplicity           Mult            ....    1
 Number of Electrons    NEL             ....   66
 Basis Dimension        Dim             ....  212

ORBITAL ENERGIES
----------------

  NO   OCC          E(Eh)            E(eV)
   0   2.0000     -89.237564     -2428.2776
   1   2.0000     -24.928011      -678.3257
   2   2.0000     -19.261694      -524.1373
   3   2.0000     -19.248477      -523.7777
   4   2.0000     -10.351157      -281.6693
   5   2.0000     -10.316343      -280.7220
   6   2.0000     -10.277396      -279.6622
   7   2.0000      -8.311940      -226.1794
   8   2.0000      -6.275566      -170.7668
   9   2.0000      -6.269192      -170.5934
  10   2.0000      -6.267893      -170.5580
  11   2.0000      -1.502884       -40.8955
  12   2.0000      -1.226846       -33.3842
  13   2.0000      -1.119718       -30.4691
  14   2.0000      -0.941011       -25.6062
  15   2.0000      -0.867776       -23.6134
  16   2.0000      -0.819389       -22.2967
  17   2.0000      -0.744820       -20.2676
  18   2.0000      -0.703171       -19.1343
  19   2.0000      -0.689922       -18.7737
  20   2.0000      -0.661942       -18.0124
  21   2.0000      -0.598526       -16.2867
  22   2.0000      -0.587050       -15.9744
  23   2.0000      -0.557099       -15.1594
  24   2.0000      -0.550522       -14.9805
  25   2.0000      -0.522464       -14.2170
  26   2.0000      -0.489569       -13.3219
  27   2.0000      -0.469055       -12.7636
  28   2.0000      -0.465009       -12.6535
  29   2.0000      -0.444656       -12.0997
  30   2.0000      -0.433342       -11.7918
  31   2.0000      -0.413095       -11.2409
  32   2.0000      -0.405161       -11.0250
  33   0.0000       0.064393         1.7522
  34   0.0000       0.086758         2.3608
  35   0.0000       0.094291         2.5658
  36   0.0000       0.099429         2.7056
  37   0.0000       0.117701         3.2028

MULLIKEN ATOMIC CHARGES
-----------------------
   0 C :    0.689101
   1 C :   -0.291844
   2 C :    0.004646
   3 H :    0.052392
   4 H :    0.057960
   5 S :    1.522701
   6 F :   -0.447128
   7 O :   -0.675002
   8 O :   -0.688671
   9 H :    0.084823
  10 H :   -0.146242
  11 H :   -0.038567
  12 H :   -0.067389
  13 H :   -0.056778
Sum of atomic charges:   -0.0000000

LOEWDIN ATOMIC CHARGES
----------------------
   0 C :    0.137567
   1 C :   -0.065687
   2 C :   -0.056616
   3 H :    0.027625
   4 H :    0.017124
   5 S :    1.132090
   6 F :   -0.252330
   7 O :   -0.464088
   8 O :   -0.484053
   9 H :    0.024489
  10 H :    0.032070
  11 H :   -0.007493
  12 H :   -0.012022
  13 H :   -0.028676

  Mayer bond orders larger than 0.100000
B(  0-C ,  1-C ) :   1.2763 B(  0-C , 11-H ) :   0.7874 B(  0-C , 12-H ) :   0.7975
B(  0-C , 13-H ) :   0.8366 B(  1-C ,  2-C ) :   1.2719 B(  1-C ,  3-H ) :   0.1193
B(  1-C ,  4-H ) :   0.1417 B(  1-C ,  9-H ) :   0.8663 B(  1-C , 10-H ) :   0.9547
B(  1-C , 11-H ) :   0.1906 B(  1-C , 12-H ) :   0.1848 B(  1-C , 13-H ) :   0.1850
B(  2-C ,  3-H ) :   0.9395 B(  2-C ,  4-H ) :   0.8795 B(  2-C ,  5-S ) :   0.9693
B(  2-C ,  9-H ) :   0.1157 B(  2-C , 10-H ) :   0.1034 B(  5-S ,  6-F ) :   0.6878
B(  5-S ,  7-O ) :   1.5007 B(  5-S ,  8-O ) :   1.4716

Dispersion correction           -0.004635921
FINAL SINGLE POINT ENERGY      -766.449248461299

DIPOLE MOMENT
-------------
                                X             Y             Z
Electronic contribution:      8.10268     -11.19442       1.23225
Nuclear contribution   :     -7.07796      12.41139      -1.18012
                        -----------------------------------------
Total Dipole Moment    :      1.02472       1.21696       0.05212
                        -----------------------------------------
Magnitude (a.u.)       :      1.59178
Magnitude (Debye)      :      4.04599

Rotational constants in cm-1:     0.134396     0.055628     0.052255
Rotational constants in MHz :  4029.100214  1667.685325  1566.551712

                             ****ORCA TERMINATED NORMALLY****
TOTAL RUN TIME: 0 days 0 hours 0 minutes 22 seconds 809 msec
