                         Program Version 5.0.0 -  RELEASE  -
|  1> !wB97X-D3 RIJCOSX def2-SVPD def2/J TightSCF
|  2> *xyz 0 1
|  3> C         -0.46129        2.23469       -4.98962
|  4> C          0.84888        2.66797       -4.30235
|  5> C          2.09343        1.86104       -4.65684
|  6> C         -0.42384        2.39877       -6.47432
|  7> C         -0.95947        3.49265       -7.00740
|  8> N          0.14558        1.48689       -7.20399
|  9> H          0.56537        0.69681       -6.72386
| 10> H          0.22068        1.58177       -8.20752
| 11> H         -1.40624        4.18151       -6.40326
| 12> H         -0.93421        3.68160       -7.99947
| 13> H          0.66843        2.55943       -3.23285
| 14> H          1.03407        3.72943       -4.49708
| 15> H         -1.28888        2.82674       -4.59500
| 16> H         -0.65170        1.18634       -4.75655
| 17> H          2.29129        1.95234       -5.70442
| 18> H          1.93270        0.83176       -4.41261
| 19> H          2.92953        2.23285       -4.10223
| 20> *
| 21>
| 22> %MaxCore 64000
| 23>
| 24> %pal nprocs 8
| 25> end
| 26>
| 27> %scf
| 28>   MaxIter 150
| 29> end
| 30>
| 31>
| 32>                          ****END OF INPUT****

CARTESIAN COORDINATES (ANGSTROEM)
---------------------------------
  C     -0.461290    2.234690   -4.989620
  C      0.848880    2.667970   -4.302350
  C      2.093430    1.861040   -4.656840
  C     -0.423840    2.398770   -6.474320
  C     -0.959470    3.492650   -7.007400
  N      0.145580    1.486890   -7.203990
  H      0.565370    0.696810   -6.723860
  H      0.220680    1.581770   -8.207520
  H     -1.406240    4.181510   -6.403260
  H     -0.934210    3.681600   -7.999470
  H      0.668430    2.559430   -3.232850
  H      1.034070    3.729430   -4.497080
  H     -1.288880    2.826740   -4.595000
  H     -0.651700    1.186340   -4.756550
  H      2.291290    1.952340   -5.704420
  H      1.932700    0.831760   -4.412610
  H      2.929530    2.232850   -4.102230

 Total Charge           Charge          ....    0
 Multiplicity           Mult            ....    1
 Number of Electrons    NEL             ....   48
 Basis Dimension        Dim             ....  208

ORBITAL ENERGIES
----------------

  NO   OCC          E(Eh)            E(eV)
   0   2.0000     -14.439915      -392.9301
   1   2.0000     -10.309886      -280.5463
   2   2.0000     -10.287959      -279.9496
   3   2.0000     -10.286420      -279.9077
   4   2.0000     -10.273966      -279.5688
   5   2.0000     -10.219154      -278.0773
   6   2.0000      -1.045913       -28.4607
   7   2.0000      -0.904306       -24.6074
   8   2.0000      -0.844672       -22.9847
   9   2.0000      -0.788638       -21.4599
  10   2.0000      -0.712465       -19.3872
  11   2.0000      -0.668935       -18.2027
  12   2.0000      -0.629536       -17.1305
  13   2.0000      -0.589167       -16.0321
  14   2.0000      -0.552798       -15.0424
  15   2.0000      -0.533876       -14.5275
  16   2.0000      -0.508845       -13.8464
  17   2.0000      -0.488083       -13.2814
  18   2.0000      -0.472091       -12.8463
  19   2.0000      -0.457740       -12.4557
  20   2.0000      -0.433113       -11.7856
  21   2.0000      -0.420681       -11.4473
  22   2.0000      -0.417310       -11.3556
  23   2.0000      -0.274568        -7.4714
  24   0.0000       0.087647         2.3850
  25   0.0000       0.113327         3.0838
  26   0.0000       0.117450         3.1960
  27   0.0000       0.121756         3.3132
  28   0.0000       0.141282         3.8445

MULLIKEN ATOMIC CHARGES
-----------------------
   0 C :    0.224158
   1 C :   -0.358552
   2 C :    0.676144
   3 C :   -0.037681
   4 C :    0.426470
   5 N :    0.160755
   6 H :   -0.029208
   7 H :   -0.168677
   8 H :   -0.136151
   9 H :   -0.487432
  10 H :   -0.036373
  11 H :   -0.083776
  12 H :    0.061000
  13 H :   -0.042451
  14 H :   -0.071613
  15 H :   -0.011420
  16 H :   -0.085195
Sum of atomic charges:    0.0000000

LOEWDIN ATOMIC CHARGES
----------------------
   0 C :    0.003781
   1 C :   -0.062784
   2 C :    0.110924
   3 C :   -0.263052
   4 C :    0.170451
   5 N :    0.167813
   6 H :    0.003778
   7 H :    0.018303
   8 H :   -0.080629
   9 H :   -0.089040
  10 H :    0.015517
  11 H :    0.025040
  12 H :    0.024515
  13 H :    0.021851
  14 H :   -0.031473
  15 H :   -0.017767
  16 H :   -0.017227

  Mayer bond orders larger than 0.100000
B(  0-C ,  1-C ) :   1.1519 B(  0-C ,  3-C ) :   1.1297 B(  0-C ,  4-C ) :   0.1614
B(  0-C ,  5-N ) :   0.1164 B(  0-C , 11-H ) :   0.1148 B(  0-C , 12-H ) :   0.8477
B(  0-C , 13-H ) :   0.7706 B(  1-C ,  2-C ) :   1.2734 B(  1-C , 10-H ) :   0.9142
B(  1-C , 11-H ) :   1.0093 B(  1-C , 12-H ) :   0.1151 B(  1-C , 13-H ) :   0.1463
B(  1-C , 14-H ) :   0.2041 B(  1-C , 15-H ) :   0.2060 B(  1-C , 16-H ) :   0.2042
B(  2-C , 14-H ) :   0.8356 B(  2-C , 15-H ) :   0.7898 B(  2-C , 16-H ) :   0.8026
B(  3-C ,  4-C ) :   1.7358 B(  3-C ,  5-N ) :   1.1334 B(  3-C ,  7-H ) :  -0.1101
B(  3-C ,  9-H ) :   0.1481 B(  3-C , 12-H ) :   0.1337 B(  3-C , 13-H ) :   0.1699
B(  4-C ,  5-N ) :   0.2681 B(  4-C ,  8-H ) :   0.9372 B(  4-C ,  9-H ) :   0.7310
B(  5-N ,  6-H ) :   1.0091 B(  5-N ,  7-H ) :   1.2882 B(  6-H ,  7-H ) :  -0.1627

Dispersion correction           -0.004595727
FINAL SINGLE POINT ENERGY      -251.641696341015

DIPOLE MOMENT
-------------
                                X             Y             Z
Electronic contribution:     -2.07815      -0.44732      -2.62591
Nuclear contribution   :      2.52905      -0.17478       2.67366
                        -----------------------------------------
Total Dipole Moment    :      0.45090      -0.62210       0.04775
                        -----------------------------------------
Magnitude (a.u.)       :      0.76981
Magnitude (Debye)      :      1.95670

Rotational constants in cm-1:     0.190920     0.082419     0.067855
Rotational constants in MHz :  5723.626725  2470.870287  2034.242308

                             ****ORCA TERMINATED NORMALLY****
TOTAL RUN TIME: 0 days 0 hours 0 minutes 21 seconds 568 msec
