                         Program Version 5.0.0 -  RELEASE  -
|  1> !wB97X-D3 RIJCOSX def2-SVPD def2/J TightSCF
|  2> *xyz 0 1
|  3> C         -0.46129        2.23469       -4.98962
|  4> C          0.84888        2.66797       -4.30235
|  5> C          2.09343        1.86104       -4.65684
|  6> H          2.44481        2.04157       -5.67499
|  7> H          2.90175        2.13786       -3.98034
|  8> S          1.87964        0.07859       -4.46297
|  9> O          3.20757       -0.46611       -4.42026
| 10> F          1.07506       -0.05616       -3.26876
| 11> O          1.13166       -0.31996       -5.67903
| 12> H          0.66843        2.55943       -3.23285
| 13> H          1.03407        3.72943       -4.49708
| 14> H         -0.35183        2.31783       -6.05075
| 15> H         -1.26108        2.86600       -4.66300
| 16> H         -0.68032        1.21949       -4.73211
| 17> *
| 18>
| 19> %MaxCore 64000
| 20>
| 21> %pal nprocs 8
| 22> end
| 23>
| 24> %scf
| 25>   MaxIter 150
| 26> end
| 27>
| 28>
| 29>                          ****END OF INPUT****

CARTESIAN COORDINATES (ANGSTROEM)
---------------------------------
  C     -0.461290    2.234690   -4.989620
  C      0.848880    2.667970   -4.302350
  C      2.093430    1.861040   -4.656840
  H      2.444810    2.041570   -5.674990
  H      2.901750    2.137860   -3.980340
  S      1.879640    0.078590   -4.462970
  O      3.207570   -0.466110   -4.420260
  F      1.075060   -0.056160   -3.268760
  O      1.131660   -0.319960   -5.679030
  H      0.668430    2.559430   -3.232850
  H      1.034070    3.729430   -4.497080
  H     -0.351830    2.317830   -6.050750
  H     -1.261080    2.866000   -4.663000
  H     -0.680320    1.219490   -4.732110

 Total Charge           Charge          ....    0
 Multiplicity           Mult            ....    1
 Number of Electrons    NEL             ....   66
 Basis Dimension        Dim             ....  212

ORBITAL ENERGIES
----------------

  NO   OCC          E(Eh)            E(eV)
   0   2.0000     -89.236535     -2428.2496
   1   2.0000     -24.922810      -678.1841
   2   2.0000     -19.264261      -524.2072
   3   2.0000     -19.247052      -523.7389
   4   2.0000     -10.350807      -281.6598
   5   2.0000     -10.323179      -280.9080
   6   2.0000     -10.289167      -279.9825
   7   2.0000      -8.310834      -226.1493
   8   2.0000      -6.274703      -170.7433
   9   2.0000      -6.267972      -170.5602
  10   2.0000      -6.266719      -170.5261
  11   2.0000      -1.494244       -40.6604
  12   2.0000      -1.229672       -33.4611
  13   2.0000      -1.122089       -30.5336
  14   2.0000      -0.947914       -25.7940
  15   2.0000      -0.864359       -23.5204
  16   2.0000      -0.822657       -22.3856
  17   2.0000      -0.746473       -20.3126
  18   2.0000      -0.703443       -19.1417
  19   2.0000      -0.697022       -18.9669
  20   2.0000      -0.651350       -17.7241
  21   2.0000      -0.596659       -16.2359
  22   2.0000      -0.586532       -15.9603
  23   2.0000      -0.566601       -15.4180
  24   2.0000      -0.548588       -14.9278
  25   2.0000      -0.533453       -14.5160
  26   2.0000      -0.493095       -13.4178
  27   2.0000      -0.484216       -13.1762
  28   2.0000      -0.474057       -12.8998
  29   2.0000      -0.455218       -12.3871
  30   2.0000      -0.430958       -11.7270
  31   2.0000      -0.415057       -11.2943
  32   2.0000      -0.404096       -10.9960
  33   0.0000       0.062985         1.7139
  34   0.0000       0.088802         2.4164
  35   0.0000       0.095747         2.6054
  36   0.0000       0.097428         2.6512
  37   0.0000       0.118092         3.2135

MULLIKEN ATOMIC CHARGES
-----------------------
   0 C :    0.714701
   1 C :   -0.273287
   2 C :    0.029517
   3 H :    0.051530
   4 H :    0.043217
   5 S :    1.468774
   6 O :   -0.683453
   7 F :   -0.400886
   8 O :   -0.688164
   9 H :    0.056650
  10 H :   -0.148604
  11 H :   -0.033514
  12 H :   -0.062530
  13 H :   -0.073949
Sum of atomic charges:    0.0000000

LOEWDIN ATOMIC CHARGES
----------------------
   0 C :    0.133451
   1 C :   -0.079510
   2 C :   -0.044116
   3 H :    0.039892
   4 H :    0.021174
   5 S :    1.124476
   6 O :   -0.459966
   7 F :   -0.253395
   8 O :   -0.482776
   9 H :    0.019562
  10 H :    0.030608
  11 H :   -0.003914
  12 H :   -0.011725
  13 H :   -0.033760

  Mayer bond orders larger than 0.100000
B(  0-C ,  1-C ) :   1.2746 B(  0-C , 11-H ) :   0.7904 B(  0-C , 12-H ) :   0.7983
B(  0-C , 13-H ) :   0.8287 B(  1-C ,  2-C ) :   1.2129 B(  1-C ,  3-H ) :   0.1188
B(  1-C ,  4-H ) :   0.1243 B(  1-C ,  9-H ) :   0.8772 B(  1-C , 10-H ) :   0.9598
B(  1-C , 11-H ) :   0.1964 B(  1-C , 12-H ) :   0.1852 B(  1-C , 13-H ) :   0.1885
B(  2-C ,  3-H ) :   0.9364 B(  2-C ,  4-H ) :   0.9298 B(  2-C ,  5-S ) :   1.0029
B(  2-C ,  9-H ) :   0.1071 B(  2-C , 10-H ) :   0.1010 B(  5-S ,  6-O ) :   1.5913
B(  5-S ,  7-F ) :   0.6635 B(  5-S ,  8-O ) :   1.4999 B( 11-H , 13-H ) :   0.1032

Dispersion correction           -0.004631075
FINAL SINGLE POINT ENERGY      -766.453051973072

DIPOLE MOMENT
-------------
                                X             Y             Z
Electronic contribution:      4.39878     -10.42566       3.17913
Nuclear contribution   :     -4.78457      11.97051      -2.41849
                        -----------------------------------------
Total Dipole Moment    :     -0.38579       1.54485       0.76064
                        -----------------------------------------
Magnitude (a.u.)       :      1.76464
Magnitude (Debye)      :      4.48536

Rotational constants in cm-1:     0.129206     0.056639     0.054229
Rotational constants in MHz :  3873.509495  1697.990779  1625.734877

                             ****ORCA TERMINATED NORMALLY****
TOTAL RUN TIME: 0 days 0 hours 0 minutes 22 seconds 822 msec
