                         Program Version 5.0.0 -  RELEASE  -
|  1> !wB97X-D3 RIJCOSX def2-SVPD def2/J TightSCF
|  2> *xyz 0 1
|  3> C         -0.46129        2.23469       -4.98962
|  4> C          0.84888        2.66797       -4.30235
|  5> C          2.09343        1.86104       -4.65684
|  6> C         -0.42384        2.39877       -6.47432
|  7> N         -0.95947        3.49265       -7.00740
|  8> C          0.14558        1.48689       -7.20399
|  9> H          0.56537        0.69681       -6.72386
| 10> H          0.22068        1.58177       -8.20752
| 11> H         -1.40624        4.18151       -6.40326
| 12> H         -0.93421        3.68160       -7.99947
| 13> H          0.66843        2.55943       -3.23285
| 14> H          1.03407        3.72943       -4.49708
| 15> H         -1.28888        2.82674       -4.59500
| 16> H         -0.65170        1.18634       -4.75655
| 17> H          2.29129        1.95234       -5.70442
| 18> H          1.93270        0.83176       -4.41261
| 19> H          2.92953        2.23285       -4.10223
| 20> *
| 21>
| 22> %MaxCore 64000
| 23>
| 24> %pal nprocs 8
| 25> end
| 26>
| 27> %scf
| 28>   MaxIter 150
| 29> end
| 30>
| 31>
| 32>                          ****END OF INPUT****

CARTESIAN COORDINATES (ANGSTROEM)
---------------------------------
  C     -0.461290    2.234690   -4.989620
  C      0.848880    2.667970   -4.302350
  C      2.093430    1.861040   -4.656840
  C     -0.423840    2.398770   -6.474320
  N     -0.959470    3.492650   -7.007400
  C      0.145580    1.486890   -7.203990
  H      0.565370    0.696810   -6.723860
  H      0.220680    1.581770   -8.207520
  H     -1.406240    4.181510   -6.403260
  H     -0.934210    3.681600   -7.999470
  H      0.668430    2.559430   -3.232850
  H      1.034070    3.729430   -4.497080
  H     -1.288880    2.826740   -4.595000
  H     -0.651700    1.186340   -4.756550
  H      2.291290    1.952340   -5.704420
  H      1.932700    0.831760   -4.412610
  H      2.929530    2.232850   -4.102230

 Total Charge           Charge          ....    0
 Multiplicity           Mult            ....    1
 Number of Electrons    NEL             ....   48
 Basis Dimension        Dim             ....  208

ORBITAL ENERGIES
----------------

  NO   OCC          E(Eh)            E(eV)
   0   2.0000     -14.436985      -392.8503
   1   2.0000     -10.307338      -280.4769
   2   2.0000     -10.287508      -279.9373
   3   2.0000     -10.285138      -279.8728
   4   2.0000     -10.264004      -279.2978
   5   2.0000     -10.218432      -278.0577
   6   2.0000      -1.033250       -28.1162
   7   2.0000      -0.904391       -24.6097
   8   2.0000      -0.841247       -22.8915
   9   2.0000      -0.794552       -21.6209
  10   2.0000      -0.702852       -19.1256
  11   2.0000      -0.667637       -18.1673
  12   2.0000      -0.622465       -16.9381
  13   2.0000      -0.582447       -15.8492
  14   2.0000      -0.553543       -15.0627
  15   2.0000      -0.536152       -14.5894
  16   2.0000      -0.492892       -13.4123
  17   2.0000      -0.490305       -13.3419
  18   2.0000      -0.471689       -12.8353
  19   2.0000      -0.458902       -12.4874
  20   2.0000      -0.428057       -11.6480
  21   2.0000      -0.418957       -11.4004
  22   2.0000      -0.411274       -11.1913
  23   2.0000      -0.280019        -7.6197
  24   0.0000       0.088864         2.4181
  25   0.0000       0.114820         3.1244
  26   0.0000       0.115922         3.1544
  27   0.0000       0.123864         3.3705
  28   0.0000       0.141180         3.8417

MULLIKEN ATOMIC CHARGES
-----------------------
   0 C :    0.207984
   1 C :   -0.344358
   2 C :    0.644845
   3 C :    0.079556
   4 N :    0.018639
   5 C :    0.427578
   6 H :    0.031944
   7 H :   -0.566224
   8 H :   -0.064325
   9 H :   -0.151304
  10 H :   -0.035265
  11 H :   -0.078674
  12 H :   -0.097907
  13 H :    0.080295
  14 H :   -0.031145
  15 H :   -0.007650
  16 H :   -0.113988
Sum of atomic charges:    0.0000000

LOEWDIN ATOMIC CHARGES
----------------------
   0 C :    0.003804
   1 C :   -0.064737
   2 C :    0.114624
   3 C :   -0.252363
   4 N :    0.161945
   5 C :    0.163007
   6 H :   -0.073321
   7 H :   -0.076994
   8 H :    0.002100
   9 H :    0.005615
  10 H :    0.015055
  11 H :    0.021450
  12 H :    0.014652
  13 H :    0.028708
  14 H :   -0.030804
  15 H :   -0.013847
  16 H :   -0.018894

  Mayer bond orders larger than 0.100000
B(  0-C ,  1-C ) :   1.1651 B(  0-C ,  3-C ) :   1.0146 B(  0-C ,  4-N ) :   0.1261
B(  0-C ,  5-C ) :   0.1930 B(  0-C , 10-H ) :   0.1176 B(  0-C , 11-H ) :   0.1102
B(  0-C , 12-H ) :   0.8563 B(  0-C , 13-H ) :   0.8141 B(  1-C ,  2-C ) :   1.2897
B(  1-C , 10-H ) :   0.8835 B(  1-C , 11-H ) :   0.9835 B(  1-C , 12-H ) :   0.1294
B(  1-C , 13-H ) :   0.1380 B(  1-C , 14-H ) :   0.2025 B(  1-C , 15-H ) :   0.2019
B(  1-C , 16-H ) :   0.2141 B(  2-C , 14-H ) :   0.8310 B(  2-C , 15-H ) :   0.7956
B(  2-C , 16-H ) :   0.8156 B(  3-C ,  4-N ) :   1.0841 B(  3-C ,  5-C ) :   1.8815
B(  3-C ,  6-H ) :   0.2128 B(  3-C ,  7-H ) :   0.1847 B(  3-C , 12-H ) :   0.1219
B(  4-N ,  5-C ) :   0.2407 B(  4-N ,  8-H ) :   1.1177 B(  4-N ,  9-H ) :   1.2649
B(  5-C ,  6-H ) :   0.7247 B(  5-C ,  7-H ) :   0.7904 B(  6-H ,  7-H ) :  -0.1151
B(  8-H ,  9-H ) :  -0.1540 B( 14-H , 15-H ) :   0.1040

Dispersion correction           -0.004539968
FINAL SINGLE POINT ENERGY      -251.641520256189

DIPOLE MOMENT
-------------
                                X             Y             Z
Electronic contribution:     -3.06467       1.27907      -2.48844
Nuclear contribution   :      2.79043      -0.64920       2.62716
                        -----------------------------------------
Total Dipole Moment    :     -0.27423       0.62986       0.13872
                        -----------------------------------------
Magnitude (a.u.)       :      0.70084
Magnitude (Debye)      :      1.78139

Rotational constants in cm-1:     0.196182     0.080190     0.067215
Rotational constants in MHz :  5881.393438  2404.041106  2015.067205

                             ****ORCA TERMINATED NORMALLY****
TOTAL RUN TIME: 0 days 0 hours 0 minutes 21 seconds 498 msec
