                         Program Version 5.0.0 -  RELEASE  -
|  1> !wB97X-D3 RIJCOSX def2-SVPD def2/J TightSCF
|  2> *xyz 0 1
|  3> C         -0.46129        2.23469       -4.98962
|  4> C          0.84888        2.66797       -4.30235
|  5> C          2.09343        1.86104       -4.65684
|  6> H          2.44481        2.04157       -5.67499
|  7> H          2.90175        2.13786       -3.98034
|  8> S          1.87964        0.07859       -4.46297
|  9> O          3.20757       -0.46611       -4.42026
| 10> O          1.07506       -0.05616       -3.26876
| 11> F          1.13166       -0.31996       -5.67903
| 12> H          0.66843        2.55943       -3.23285
| 13> H          1.03407        3.72943       -4.49708
| 14> H         -0.35183        2.31783       -6.05075
| 15> H         -1.26108        2.86600       -4.66300
| 16> H         -0.68032        1.21949       -4.73211
| 17> *
| 18>
| 19> %MaxCore 64000
| 20>
| 21> %pal nprocs 8
| 22> end
| 23>
| 24> %scf
| 25>   MaxIter 150
| 26> end
| 27>
| 28>
| 29>                          ****END OF INPUT****

CARTESIAN COORDINATES (ANGSTROEM)
---------------------------------
  C     -0.461290    2.234690   -4.989620
  C      0.848880    2.667970   -4.302350
  C      2.093430    1.861040   -4.656840
  H      2.444810    2.041570   -5.674990
  H      2.901750    2.137860   -3.980340
  S      1.879640    0.078590   -4.462970
  O      3.207570   -0.466110   -4.420260
  O      1.075060   -0.056160   -3.268760
  F      1.131660   -0.319960   -5.679030
  H      0.668430    2.559430   -3.232850
  H      1.034070    3.729430   -4.497080
  H     -0.351830    2.317830   -6.050750
  H     -1.261080    2.866000   -4.663000
  H     -0.680320    1.219490   -4.732110

 Total Charge           Charge          ....    0
 Multiplicity           Mult            ....    1
 Number of Electrons    NEL             ....   66
 Basis Dimension        Dim             ....  212

ORBITAL ENERGIES
----------------

  NO   OCC          E(Eh)            E(eV)
   0   2.0000     -89.235068     -2428.2096
   1   2.0000     -24.903670      -677.6633
   2   2.0000     -19.264150      -524.2042
   3   2.0000     -19.260488      -524.1045
   4   2.0000     -10.350147      -281.6418
   5   2.0000     -10.318080      -280.7692
   6   2.0000     -10.291656      -280.0502
   7   2.0000      -8.309266      -226.1066
   8   2.0000      -6.272870      -170.6935
   9   2.0000      -6.266649      -170.5242
  10   2.0000      -6.265360      -170.4891
  11   2.0000      -1.463004       -39.8104
  12   2.0000      -1.238125       -33.6911
  13   2.0000      -1.141822       -31.0706
  14   2.0000      -0.944740       -25.7077
  15   2.0000      -0.860497       -23.4153
  16   2.0000      -0.811531       -22.0829
  17   2.0000      -0.744256       -20.2522
  18   2.0000      -0.679505       -18.4903
  19   2.0000      -0.675038       -18.3687
  20   2.0000      -0.657320       -17.8866
  21   2.0000      -0.604537       -16.4503
  22   2.0000      -0.580978       -15.8092
  23   2.0000      -0.563416       -15.3313
  24   2.0000      -0.554838       -15.0979
  25   2.0000      -0.535916       -14.5830
  26   2.0000      -0.498972       -13.5777
  27   2.0000      -0.482470       -13.1287
  28   2.0000      -0.471036       -12.8175
  29   2.0000      -0.452499       -12.3131
  30   2.0000      -0.439914       -11.9707
  31   2.0000      -0.423324       -11.5192
  32   2.0000      -0.420845       -11.4518
  33   0.0000       0.068443         1.8624
  34   0.0000       0.089070         2.4237
  35   0.0000       0.095805         2.6070
  36   0.0000       0.097450         2.6518
  37   0.0000       0.119435         3.2500

MULLIKEN ATOMIC CHARGES
-----------------------
   0 C :    0.678109
   1 C :   -0.243246
   2 C :    0.002310
   3 H :    0.054542
   4 H :    0.054286
   5 S :    1.475862
   6 O :   -0.691102
   7 O :   -0.685409
   8 F :   -0.401366
   9 H :    0.088424
  10 H :   -0.144528
  11 H :   -0.044475
  12 H :   -0.059537
  13 H :   -0.083870
Sum of atomic charges:   -0.0000000

LOEWDIN ATOMIC CHARGES
----------------------
   0 C :    0.132688
   1 C :   -0.074526
   2 C :   -0.046622
   3 H :    0.026367
   4 H :    0.031562
   5 S :    1.121851
   6 O :   -0.460528
   7 O :   -0.462241
   8 F :   -0.271643
   9 H :    0.025349
  10 H :    0.030201
  11 H :   -0.010826
  12 H :   -0.009557
  13 H :   -0.032074

  Mayer bond orders larger than 0.100000
B(  0-C ,  1-C ) :   1.2722 B(  0-C , 11-H ) :   0.7893 B(  0-C , 12-H ) :   0.8071
B(  0-C , 13-H ) :   0.8408 B(  1-C ,  2-C ) :   1.2573 B(  1-C ,  3-H ) :   0.1196
B(  1-C ,  4-H ) :   0.1192 B(  1-C ,  9-H ) :   0.8735 B(  1-C , 10-H ) :   0.9481
B(  1-C , 11-H ) :   0.1886 B(  1-C , 12-H ) :   0.1829 B(  1-C , 13-H ) :   0.1813
B(  2-C ,  3-H ) :   0.9378 B(  2-C ,  4-H ) :   0.9133 B(  2-C ,  5-S ) :   0.9983
B(  2-C ,  9-H ) :   0.1184 B(  2-C , 10-H ) :   0.1000 B(  5-S ,  6-O ) :   1.5873
B(  5-S ,  7-O ) :   1.5298 B(  5-S ,  8-F ) :   0.6179

Dispersion correction           -0.004617727
FINAL SINGLE POINT ENERGY      -766.470013392224

DIPOLE MOMENT
-------------
                                X             Y             Z
Electronic contribution:      4.48192     -10.89221      -0.94691
Nuclear contribution   :     -4.84544      12.25421       0.17361
                        -----------------------------------------
Total Dipole Moment    :     -0.36352       1.36200      -0.77330
                        -----------------------------------------
Magnitude (a.u.)       :      1.60785
Magnitude (Debye)      :      4.08683

Rotational constants in cm-1:     0.128954     0.057447     0.053381
Rotational constants in MHz :  3865.954571  1722.226669  1600.330369

                             ****ORCA TERMINATED NORMALLY****
TOTAL RUN TIME: 0 days 0 hours 0 minutes 21 seconds 35 msec
