                         Program Version 5.0.0 -  RELEASE  -
|  1> !wB97X-D3 RIJCOSX def2-SVPD def2/J TightSCF xyzfile
|  2>
|  3> *xyzfile 0 1 D2.xyz
|  4>
|  5> %MaxCore 64000
|  6>
|  7> %pal nprocs 18
|  8> end
|  9>
| 10> %scf
| 11>   MaxIter 150
| 12> end
| 13>
| 14>
| 15>                          ****END OF INPUT****

CARTESIAN COORDINATES (ANGSTROEM)
---------------------------------
  C     -0.461293    2.234686   -4.989619
  C      0.848883    2.667967   -4.302351
  C      2.093434    1.861037   -4.656845
  H      2.444814    2.041567   -5.674990
  H      2.901748    2.137864   -3.980338
  S      1.879644    0.078594   -4.462965
  C     -0.423841    2.398772   -6.474317
  N     -0.959467    3.492647   -7.007401
  C      0.145585    1.486891   -7.203987
  H      0.565371    0.696807   -6.723858
  H      0.220682    1.581768   -8.207520
  H     -1.406243    4.181507   -6.403261
  H     -0.934215    3.681601   -7.999468
  F      3.207574   -0.466111   -4.420259
  O      1.075064   -0.056160   -3.268758
  O      1.131661   -0.319960   -5.679031
  H      0.668432    2.559427   -3.232850
  H      1.034074    3.729426   -4.497081
  H     -1.288884    2.826737   -4.594997
  H     -0.651696    1.186343   -4.756552

 Total Charge           Charge          ....    0
 Multiplicity           Mult            ....    1
 Number of Electrons    NEL             ....   88
 Basis Dimension        Dim             ....  296

ORBITAL ENERGIES
----------------

  NO   OCC          E(Eh)            E(eV)
   0   2.0000     -89.240458     -2428.3563
   1   2.0000     -24.929033      -678.3535
   2   2.0000     -19.263041      -524.1740
   3   2.0000     -19.250884      -523.8432
   4   2.0000     -14.431899      -392.7119
   5   2.0000     -10.349282      -281.6183
   6   2.0000     -10.318190      -280.7722
   7   2.0000     -10.299451      -280.2623
   8   2.0000     -10.292035      -280.0605
   9   2.0000     -10.195894      -277.4444
  10   2.0000      -8.314275      -226.2429
  11   2.0000      -6.277981      -170.8326
  12   2.0000      -6.271757      -170.6632
  13   2.0000      -6.270072      -170.6173
  14   2.0000      -1.503703       -40.9178
  15   2.0000      -1.230439       -33.4819
  16   2.0000      -1.126508       -30.6538
  17   2.0000      -1.028655       -27.9911
  18   2.0000      -0.943227       -25.6665
  19   2.0000      -0.880981       -23.9727
  20   2.0000      -0.836675       -22.7671
  21   2.0000      -0.811793       -22.0900
  22   2.0000      -0.749822       -20.4037
  23   2.0000      -0.706602       -19.2276
  24   2.0000      -0.698003       -18.9936
  25   2.0000      -0.670478       -18.2446
  26   2.0000      -0.666584       -18.1387
  27   2.0000      -0.617282       -16.7971
  28   2.0000      -0.602373       -16.3914
  29   2.0000      -0.591511       -16.0958
  30   2.0000      -0.576771       -15.6947
  31   2.0000      -0.560137       -15.2421
  32   2.0000      -0.542914       -14.7734
  33   2.0000      -0.507041       -13.7973
  34   2.0000      -0.499475       -13.5914
  35   2.0000      -0.488584       -13.2951
  36   2.0000      -0.472422       -12.8552
  37   2.0000      -0.457411       -12.4468
  38   2.0000      -0.435229       -11.8432
  39   2.0000      -0.433860       -11.8059
  40   2.0000      -0.417953       -11.3731
  41   2.0000      -0.412798       -11.2328
  42   2.0000      -0.388795       -10.5796
  43   2.0000      -0.271827        -7.3968
  44   0.0000       0.065512         1.7827
  45   0.0000       0.084013         2.2861
  46   0.0000       0.091868         2.4999
  47   0.0000       0.097802         2.6613
  48   0.0000       0.113743         3.0951

MULLIKEN ATOMIC CHARGES
-----------------------
   0 C :    0.272283
   1 C :    0.113710
   2 C :   -0.011402
   3 H :    0.245907
   4 H :   -0.103586
   5 S :    1.620287
   6 C :    0.136425
   7 N :   -0.015640
   8 C :    0.834408
   9 H :   -0.163310
  10 H :   -0.659523
  11 H :   -0.092051
  12 H :   -0.181879
  13 F :   -0.467449
  14 O :   -0.695041
  15 O :   -0.802034
  16 H :    0.155039
  17 H :   -0.164448
  18 H :   -0.156574
  19 H :    0.134877
Sum of atomic charges:   -0.0000000

LOEWDIN ATOMIC CHARGES
----------------------
   0 C :    0.029733
   1 C :   -0.008440
   2 C :   -0.038866
   3 H :    0.024649
   4 H :    0.017048
   5 S :    1.177372
   6 C :   -0.234855
   7 N :    0.155259
   8 C :    0.196392
   9 H :   -0.185407
  10 H :   -0.068373
  11 H :   -0.002430
  12 H :    0.004017
  13 F :   -0.247026
  14 O :   -0.458371
  15 O :   -0.466076
  16 H :    0.026089
  17 H :    0.037006
  18 H :    0.022889
  19 H :    0.019391

  Mayer bond orders larger than 0.100000
B(  0-C ,  1-C ) :   1.1780 B(  0-C ,  6-C ) :   1.0797 B(  0-C ,  7-N ) :   0.1123
B(  0-C ,  8-C ) :   0.1767 B(  0-C , 16-H ) :   0.1195 B(  0-C , 18-H ) :   0.7792
B(  0-C , 19-H ) :   0.8477 B(  1-C ,  2-C ) :   1.3558 B(  1-C ,  3-H ) :   0.1120
B(  1-C ,  4-H ) :   0.2005 B(  1-C , 16-H ) :   0.7730 B(  1-C , 17-H ) :   0.9071
B(  1-C , 18-H ) :   0.1574 B(  1-C , 19-H ) :   0.1331 B(  2-C ,  3-H ) :   0.8586
B(  2-C ,  4-H ) :   0.8397 B(  2-C ,  5-S ) :   0.9595 B(  2-C , 15-O ) :   0.1406
B(  2-C , 16-H ) :   0.1151 B(  5-S , 13-F ) :   0.6435 B(  5-S , 14-O ) :   1.5247
B(  5-S , 15-O ) :   1.4162 B(  6-C ,  7-N ) :   0.9538 B(  6-C ,  8-C ) :   1.9077
B(  6-C ,  9-H ) :   0.3136 B(  6-C , 10-H ) :   0.2036 B(  6-C , 12-H ) :  -0.1203
B(  6-C , 18-H ) :   0.1456 B(  7-N ,  8-C ) :   0.2894 B(  7-N , 11-H ) :   1.1599
B(  7-N , 12-H ) :   1.3326 B(  8-C ,  9-H ) :   0.5900 B(  8-C , 10-H ) :   0.7415
B(  9-H , 10-H ) :  -0.2382 B(  9-H , 15-O ) :   0.1347 B( 11-H , 12-H ) :  -0.1515

Dispersion correction           -0.008590975
FINAL SINGLE POINT ENERGY      -899.044289541788

DIPOLE MOMENT
-------------
                                X             Y             Z
Electronic contribution:      9.28178     -12.41327       5.40197
Nuclear contribution   :     -8.42493      13.96425      -5.19491
                        -----------------------------------------
Total Dipole Moment    :      0.85685       1.55098       0.20706
                        -----------------------------------------
Magnitude (a.u.)       :      1.78398
Magnitude (Debye)      :      4.53453

Rotational constants in cm-1:     0.082815     0.024151     0.022015
Rotational constants in MHz :  2482.732265   724.035221   660.002136

                             ****ORCA TERMINATED NORMALLY****
TOTAL RUN TIME: 0 days 0 hours 0 minutes 33 seconds 753 msec
