                         Program Version 5.0.0 -  RELEASE  -
|  1> !wB97X-D3 RIJCOSX def2-SVPD def2/J TightSCF xyzfile
|  2>
|  3> *xyzfile 0 1 D5.xyz
|  4>
|  5> %MaxCore 64000
|  6>
|  7> %pal nprocs 18
|  8> end
|  9>
| 10> %scf
| 11>   MaxIter 150
| 12> end
| 13>
| 14>
| 15>                          ****END OF INPUT****

CARTESIAN COORDINATES (ANGSTROEM)
---------------------------------
  C     -0.461293    2.234686   -4.989619
  C      0.848883    2.667967   -4.302351
  C      2.093434    1.861037   -4.656845
  H      2.444814    2.041567   -5.674990
  H      2.901748    2.137864   -3.980338
  S      1.879644    0.078594   -4.462965
  C     -0.423841    2.398772   -6.474317
  C     -0.959467    3.492647   -7.007401
  N      0.145585    1.486891   -7.203987
  H      0.565371    0.696807   -6.723858
  H      0.220682    1.581768   -8.207520
  H     -1.406243    4.181507   -6.403261
  H     -0.934215    3.681601   -7.999468
  O      3.207574   -0.466111   -4.420259
  O      1.075064   -0.056160   -3.268758
  F      1.131661   -0.319960   -5.679031
  H      0.668432    2.559427   -3.232850
  H      1.034074    3.729426   -4.497081
  H     -1.288884    2.826737   -4.594997
  H     -0.651696    1.186343   -4.756552

 Total Charge           Charge          ....    0
 Multiplicity           Mult            ....    1
 Number of Electrons    NEL             ....   88
 Basis Dimension        Dim             ....  296

ORBITAL ENERGIES
----------------

  NO   OCC          E(Eh)            E(eV)
   0   2.0000     -89.248102     -2428.5643
   1   2.0000     -24.929870      -678.3763
   2   2.0000     -19.276170      -524.5312
   3   2.0000     -19.272050      -524.4191
   4   2.0000     -14.442546      -393.0017
   5   2.0000     -10.356677      -281.8195
   6   2.0000     -10.321603      -280.8651
   7   2.0000     -10.321549      -280.8636
   8   2.0000     -10.306402      -280.4515
   9   2.0000     -10.230418      -278.3838
  10   2.0000      -8.322202      -226.4586
  11   2.0000      -6.286176      -171.0555
  12   2.0000      -6.279428      -170.8719
  13   2.0000      -6.277974      -170.8324
  14   2.0000      -1.492162       -40.6038
  15   2.0000      -1.251708       -34.0607
  16   2.0000      -1.153254       -31.3816
  17   2.0000      -1.057061       -28.7641
  18   2.0000      -0.952779       -25.9264
  19   2.0000      -0.884696       -24.0738
  20   2.0000      -0.860990       -23.4287
  21   2.0000      -0.811257       -22.0754
  22   2.0000      -0.769789       -20.9470
  23   2.0000      -0.714735       -19.4489
  24   2.0000      -0.702456       -19.1148
  25   2.0000      -0.681861       -18.5544
  26   2.0000      -0.664594       -18.0845
  27   2.0000      -0.642764       -17.4905
  28   2.0000      -0.608622       -16.5614
  29   2.0000      -0.593856       -16.1597
  30   2.0000      -0.580732       -15.8025
  31   2.0000      -0.575342       -15.6559
  32   2.0000      -0.552314       -15.0292
  33   2.0000      -0.526483       -14.3263
  34   2.0000      -0.507487       -13.8094
  35   2.0000      -0.497921       -13.5491
  36   2.0000      -0.488737       -13.2992
  37   2.0000      -0.476617       -12.9694
  38   2.0000      -0.452665       -12.3176
  39   2.0000      -0.449360       -12.2277
  40   2.0000      -0.439312       -11.9543
  41   2.0000      -0.432380       -11.7657
  42   2.0000      -0.427158       -11.6236
  43   2.0000      -0.285779        -7.7764
  44   0.0000       0.063685         1.7330
  45   0.0000       0.084255         2.2927
  46   0.0000       0.086043         2.3414
  47   0.0000       0.095056         2.5866
  48   0.0000       0.107550         2.9266

MULLIKEN ATOMIC CHARGES
-----------------------
   0 C :    0.360604
   1 C :    0.134249
   2 C :    0.048826
   3 H :    0.174303
   4 H :   -0.076316
   5 S :    1.510263
   6 C :   -0.018328
   7 C :    0.322409
   8 N :    0.601179
   9 H :   -0.380489
  10 H :   -0.187974
  11 H :   -0.110957
  12 H :   -0.422427
  13 O :   -0.686158
  14 O :   -0.699992
  15 F :   -0.542470
  16 H :    0.179826
  17 H :   -0.156815
  18 H :    0.035590
  19 H :   -0.085323
Sum of atomic charges:    0.0000000

LOEWDIN ATOMIC CHARGES
----------------------
   0 C :    0.026015
   1 C :   -0.013758
   2 C :   -0.033238
   3 H :    0.023711
   4 H :    0.032308
   5 S :    1.141081
   6 C :   -0.246657
   7 C :    0.173950
   8 N :    0.191924
   9 H :   -0.092573
  10 H :    0.025464
  11 H :   -0.079102
  12 H :   -0.085643
  13 O :   -0.449306
  14 O :   -0.451284
  15 F :   -0.274254
  16 H :    0.028024
  17 H :    0.038190
  18 H :    0.034786
  19 H :    0.010364

  Mayer bond orders larger than 0.100000
B(  0-C ,  1-C ) :   1.1744 B(  0-C ,  6-C ) :   1.1349 B(  0-C ,  8-N ) :   0.1084
B(  0-C , 16-H ) :   0.1327 B(  0-C , 17-H ) :   0.1169 B(  0-C , 18-H ) :   0.7569
B(  0-C , 19-H ) :   0.7662 B(  1-C ,  2-C ) :   1.3357 B(  1-C ,  3-H ) :   0.1214
B(  1-C ,  4-H ) :   0.1701 B(  1-C , 16-H ) :   0.7812 B(  1-C , 17-H ) :   0.9150
B(  1-C , 18-H ) :   0.1373 B(  1-C , 19-H ) :   0.1501 B(  2-C ,  3-H ) :   0.8771
B(  2-C ,  4-H ) :   0.8668 B(  2-C ,  5-S ) :   0.9956 B(  2-C , 16-H ) :   0.1283
B(  5-S , 13-O ) :   1.5678 B(  5-S , 14-O ) :   1.5493 B(  5-S , 15-F ) :   0.6461
B(  6-C ,  7-C ) :   1.7217 B(  6-C ,  8-N ) :   1.1038 B(  6-C , 10-H ) :  -0.1229
B(  6-C , 12-H ) :   0.1489 B(  6-C , 18-H ) :   0.1557 B(  6-C , 19-H ) :   0.1575
B(  7-C ,  8-N ) :   0.1742 B(  7-C , 11-H ) :   0.9457 B(  7-C , 12-H ) :   0.7064
B(  8-N ,  9-H ) :   0.9621 B(  8-N , 10-H ) :   1.2280 B(  9-H , 10-H ) :  -0.1916
B(  9-H , 15-F ) :   0.1338

Dispersion correction           -0.008651607
FINAL SINGLE POINT ENERGY      -899.073013000061

DIPOLE MOMENT
-------------
                                X             Y             Z
Electronic contribution:      6.41003     -13.37121       3.14737
Nuclear contribution   :     -6.26130      13.99605      -3.80018
                        -----------------------------------------
Total Dipole Moment    :      0.14873       0.62485      -0.65281
                        -----------------------------------------
Magnitude (a.u.)       :      0.91581
Magnitude (Debye)      :      2.32780

Rotational constants in cm-1:     0.079895     0.025630     0.022948
Rotational constants in MHz :  2395.188639   768.373696   687.955250

                             ****ORCA TERMINATED NORMALLY****
TOTAL RUN TIME: 0 days 0 hours 0 minutes 35 seconds 232 msec
