                         Program Version 5.0.0 -  RELEASE  -
|  1> !wB97X-D3 RIJCOSX def2-SVPD def2/J TightSCF xyzfile
|  2>
|  3> *xyzfile 0 1 D6.xyz
|  4>
|  5> %MaxCore 64000
|  6>
|  7> %pal nprocs 18
|  8> end
|  9>
| 10> %scf
| 11>   MaxIter 150
| 12> end
| 13>
| 14>
| 15>                          ****END OF INPUT****

CARTESIAN COORDINATES (ANGSTROEM)
---------------------------------
  C     -0.461293    2.234686   -4.989619
  C      0.848883    2.667967   -4.302351
  C      2.093434    1.861037   -4.656845
  H      2.444814    2.041567   -5.674990
  H      2.901748    2.137864   -3.980338
  S      1.879644    0.078594   -4.462965
  C     -0.423841    2.398772   -6.474317
  N     -0.959467    3.492647   -7.007401
  C      0.145585    1.486891   -7.203987
  H      0.565371    0.696807   -6.723858
  H      0.220682    1.581768   -8.207520
  H     -1.406243    4.181507   -6.403261
  H     -0.934215    3.681601   -7.999468
  O      3.207574   -0.466111   -4.420259
  O      1.075064   -0.056160   -3.268758
  F      1.131661   -0.319960   -5.679031
  H      0.668432    2.559427   -3.232850
  H      1.034074    3.729426   -4.497081
  H     -1.288884    2.826737   -4.594997
  H     -0.651696    1.186343   -4.756552

 Total Charge           Charge          ....    0
 Multiplicity           Mult            ....    1
 Number of Electrons    NEL             ....   88
 Basis Dimension        Dim             ....  296

ORBITAL ENERGIES
----------------

  NO   OCC          E(Eh)            E(eV)
   0   2.0000     -89.235332     -2428.2168
   1   2.0000     -24.904758      -677.6929
   2   2.0000     -19.263295      -524.1809
   3   2.0000     -19.260157      -524.0955
   4   2.0000     -14.448572      -393.1656
   5   2.0000     -10.346466      -281.5417
   6   2.0000     -10.320643      -280.8390
   7   2.0000     -10.320094      -280.8240
   8   2.0000     -10.306752      -280.4610
   9   2.0000     -10.222910      -278.1795
  10   2.0000      -8.309039      -226.1004
  11   2.0000      -6.272788      -170.6912
  12   2.0000      -6.266427      -170.5182
  13   2.0000      -6.265064      -170.4810
  14   2.0000      -1.468720       -39.9659
  15   2.0000      -1.238353       -33.6973
  16   2.0000      -1.141165       -31.0527
  17   2.0000      -1.045839       -28.4587
  18   2.0000      -0.947715       -25.7886
  19   2.0000      -0.884595       -24.0711
  20   2.0000      -0.835868       -22.7451
  21   2.0000      -0.825413       -22.4606
  22   2.0000      -0.750546       -20.4234
  23   2.0000      -0.710147       -19.3241
  24   2.0000      -0.680049       -18.5051
  25   2.0000      -0.665122       -18.0989
  26   2.0000      -0.657980       -17.9045
  27   2.0000      -0.637561       -17.3489
  28   2.0000      -0.605552       -16.4779
  29   2.0000      -0.593204       -16.1419
  30   2.0000      -0.574955       -15.6453
  31   2.0000      -0.562650       -15.3105
  32   2.0000      -0.553059       -15.0495
  33   2.0000      -0.513650       -13.9771
  34   2.0000      -0.505121       -13.7450
  35   2.0000      -0.495555       -13.4847
  36   2.0000      -0.479635       -13.0515
  37   2.0000      -0.472062       -12.8455
  38   2.0000      -0.445826       -12.1315
  39   2.0000      -0.438358       -11.9283
  40   2.0000      -0.435410       -11.8481
  41   2.0000      -0.422189       -11.4884
  42   2.0000      -0.419804       -11.4235
  43   2.0000      -0.292580        -7.9615
  44   0.0000       0.072598         1.9755
  45   0.0000       0.086572         2.3557
  46   0.0000       0.090644         2.4665
  47   0.0000       0.094804         2.5797
  48   0.0000       0.115605         3.1458

MULLIKEN ATOMIC CHARGES
-----------------------
   0 C :    0.258482
   1 C :    0.154907
   2 C :    0.037586
   3 H :    0.246927
   4 H :   -0.125825
   5 S :    1.501047
   6 C :    0.209632
   7 N :   -0.015033
   8 C :    0.901564
   9 H :   -0.213509
  10 H :   -0.651934
  11 H :   -0.083247
  12 H :   -0.179066
  13 O :   -0.698557
  14 O :   -0.717202
  15 F :   -0.567897
  16 H :    0.162202
  17 H :   -0.159619
  18 H :   -0.152666
  19 H :    0.092208
Sum of atomic charges:    0.0000000

LOEWDIN ATOMIC CHARGES
----------------------
   0 C :    0.026339
   1 C :   -0.016641
   2 C :   -0.032255
   3 H :    0.023233
   4 H :    0.030582
   5 S :    1.141302
   6 C :   -0.231703
   7 N :    0.163795
   8 C :    0.193191
   9 H :   -0.148870
  10 H :   -0.066208
  11 H :    0.003285
  12 H :    0.008064
  13 O :   -0.454443
  14 O :   -0.458427
  15 F :   -0.284848
  16 H :    0.027353
  17 H :    0.034705
  18 H :    0.025266
  19 H :    0.016279

  Mayer bond orders larger than 0.100000
B(  0-C ,  1-C ) :   1.1789 B(  0-C ,  6-C ) :   1.0703 B(  0-C ,  7-N ) :   0.1126
B(  0-C ,  8-C ) :   0.1508 B(  0-C , 16-H ) :   0.1164 B(  0-C , 18-H ) :   0.7968
B(  0-C , 19-H ) :   0.8614 B(  1-C ,  2-C ) :   1.3315 B(  1-C ,  3-H ) :   0.1175
B(  1-C ,  4-H ) :   0.1702 B(  1-C , 16-H ) :   0.7735 B(  1-C , 17-H ) :   0.8949
B(  1-C , 18-H ) :   0.1548 B(  1-C , 19-H ) :   0.1344 B(  2-C ,  3-H ) :   0.8548
B(  2-C ,  4-H ) :   0.8826 B(  2-C ,  5-S ) :   1.0098 B(  2-C , 15-F ) :   0.1184
B(  2-C , 16-H ) :   0.1220 B(  4-H ,  9-H ) :  -0.1075 B(  5-S , 13-O ) :   1.5515
B(  5-S , 14-O ) :   1.5325 B(  5-S , 15-F ) :   0.6834 B(  6-C ,  7-N ) :   0.9678
B(  6-C ,  8-C ) :   1.8769 B(  6-C ,  9-H ) :   0.3184 B(  6-C , 10-H ) :   0.2186
B(  6-C , 12-H ) :  -0.1212 B(  6-C , 18-H ) :   0.1445 B(  7-N ,  8-C ) :   0.2757
B(  7-N , 11-H ) :   1.1538 B(  7-N , 12-H ) :   1.3328 B(  8-C ,  9-H ) :   0.4508
B(  8-C , 10-H ) :   0.7541 B(  9-H , 10-H ) :  -0.2698 B(  9-H , 15-F ) :   0.1185
B( 11-H , 12-H ) :  -0.1520

Dispersion correction           -0.008588891
FINAL SINGLE POINT ENERGY      -899.064869705024

DIPOLE MOMENT
-------------
                                X             Y             Z
Electronic contribution:      5.53947     -11.93037       3.16040
Nuclear contribution   :     -6.15577      13.80449      -3.81895
                        -----------------------------------------
Total Dipole Moment    :     -0.61630       1.87412      -0.65855
                        -----------------------------------------
Magnitude (a.u.)       :      2.07986
Magnitude (Debye)      :      5.28660

Rotational constants in cm-1:     0.081431     0.024887     0.022470
Rotational constants in MHz :  2441.231544   746.086417   673.646914

                             ****ORCA TERMINATED NORMALLY****
TOTAL RUN TIME: 0 days 0 hours 0 minutes 41 seconds 79 msec
