                         Program Version 5.0.0 -  RELEASE  -
|  1> !PBE0 D3BJ RIJCOSX def2-SVP def2/J TightSCF
|  2> *xyz -1 1
|  3> C         -1.10433        0.25137       -2.86006
|  4> C         -0.71189        0.84252       -4.21834
|  5> H          0.15463        1.49980       -4.13091
|  6> H         -1.53813        1.45922       -4.58267
|  7> C         -0.39762       -0.20587       -5.28802
|  8> O          0.61717       -0.00535       -5.99827
|  9> O         -1.13317       -1.22138       -5.34147
| 10> H         -1.95489       -0.38644       -2.98099
| 11> H         -1.34603        1.04362       -2.18269
| 12> H         -0.28606       -0.31581       -2.46809
| 13> *
| 14>
| 15> %MaxCore 64000
| 16>
| 17> %pal nprocs 4
| 18> end
| 19>
| 20> %scf
| 21>   MaxIter 150
| 22> end
| 23>
| 24>
| 25>                          ****END OF INPUT****

CARTESIAN COORDINATES (ANGSTROEM)
---------------------------------
  C     -1.104330    0.251370   -2.860060
  C     -0.711890    0.842520   -4.218340
  H      0.154630    1.499800   -4.130910
  H     -1.538130    1.459220   -4.582670
  C     -0.397620   -0.205870   -5.288020
  O      0.617170   -0.005350   -5.998270
  O     -1.133170   -1.221380   -5.341470
  H     -1.954890   -0.386440   -2.980990
  H     -1.346030    1.043620   -2.182690
  H     -0.286060   -0.315810   -2.468090

 Total Charge           Charge          ....   -1
 Multiplicity           Mult            ....    1
 Number of Electrons    NEL             ....   40
 Basis Dimension        Dim             ....   95

ORBITAL ENERGIES
----------------

  NO   OCC          E(Eh)            E(eV)
   0   2.0000     -18.911978      -514.6211
   1   2.0000     -18.909675      -514.5584
   2   2.0000     -10.082492      -274.3585
   3   2.0000     -10.058920      -273.7171
   4   2.0000     -10.040587      -273.2183
   5   2.0000      -0.805267       -21.9124
   6   2.0000      -0.709859       -19.3162
   7   2.0000      -0.606685       -16.5087
   8   2.0000      -0.473097       -12.8736
   9   2.0000      -0.314010        -8.5447
  10   2.0000      -0.293063        -7.9746
  11   2.0000      -0.252041        -6.8584
  12   2.0000      -0.223741        -6.0883
  13   2.0000      -0.209641        -5.7046
  14   2.0000      -0.196784        -5.3548
  15   2.0000      -0.165970        -4.5163
  16   2.0000      -0.149796        -4.0762
  17   2.0000      -0.026330        -0.7165
  18   2.0000      -0.022497        -0.6122
  19   2.0000      -0.007052        -0.1919
  20   0.0000       0.226228         6.1560
  21   0.0000       0.275769         7.5041
  22   0.0000       0.283138         7.7046
  23   0.0000       0.293886         7.9970
  24   0.0000       0.298986         8.1358

MULLIKEN ATOMIC CHARGES
-----------------------
   0 C :   -0.033031
   1 C :   -0.083790
   2 H :   -0.025370
   3 H :   -0.013356
   4 C :    0.083134
   5 O :   -0.456527
   6 O :   -0.457883
   7 H :    0.013922
   8 H :   -0.032706
   9 H :    0.005607
Sum of atomic charges:   -1.0000000

LOEWDIN ATOMIC CHARGES
----------------------
   0 C :   -0.073780
   1 C :   -0.104443
   2 H :    0.000944
   3 H :    0.009018
   4 C :   -0.050674
   5 O :   -0.399209
   6 O :   -0.401921
   7 H :    0.013280
   8 H :   -0.005637
   9 H :    0.012423

  Mayer bond orders larger than 0.100000
B(  0-C ,  1-C ) :   1.0759 B(  0-C ,  7-H ) :   0.9608 B(  0-C ,  8-H ) :   0.9630
B(  0-C ,  9-H ) :   0.9763 B(  1-C ,  2-H ) :   0.9444 B(  1-C ,  3-H ) :   0.9388
B(  1-C ,  4-C ) :   0.9116 B(  4-C ,  5-O ) :   1.8471 B(  4-C ,  6-O ) :   1.8188
B(  5-O ,  6-O ) :   0.1135

Dispersion correction           -0.005443942
FINAL SINGLE POINT ENERGY      -267.323460876565

DIPOLE MOMENT
-------------
                                X             Y             Z
Electronic contribution:      1.60029      -2.49207      -5.40452
Nuclear contribution   :     -2.09607       3.44215       6.87744
                        -----------------------------------------
Total Dipole Moment    :     -0.49578       0.95007       1.47292
                        -----------------------------------------
Magnitude (a.u.)       :      1.82152
Magnitude (Debye)      :      4.62993

Rotational constants in cm-1:     0.324698     0.133739     0.103466
Rotational constants in MHz :  9734.203431  4009.406827  3101.846422

                             ****ORCA TERMINATED NORMALLY****
TOTAL RUN TIME: 0 days 0 hours 0 minutes 10 seconds 68 msec
