                         Program Version 5.0.0 -  RELEASE  -
|  1> !PBE0 D3BJ RIJCOSX def2-SVP def2/J TightSCF
|  2> *xyz 1 1
|  3> C          2.23447       -2.98975       -2.39762
|  4> N          2.75680       -2.94555       -3.76503
|  5> C          1.98721       -2.59045       -4.81898
|  6> N          0.74322       -3.01749       -4.91352
|  7> N          2.49964       -1.84860       -5.80324
|  8> H          3.30978       -1.29282       -5.55895
|  9> H          1.80103       -1.30430       -6.28913
| 10> H          3.71612       -2.62880       -3.82953
| 11> H          0.39583       -3.62775       -4.18502
| 12> H          0.03920       -2.45438       -5.37137
| 13> C          2.19120       -1.61950       -1.71549
| 14> H          2.87278       -3.66637       -1.82801
| 15> H          1.24619       -3.44744       -2.40784
| 16> H          1.56387       -0.96046       -2.27853
| 17> H          3.18033       -1.21449       -1.66568
| 18> H          1.79916       -1.72608       -0.72562
| 19> *
| 20>
| 21> %MaxCore 64000
| 22>
| 23> %pal nprocs 4
| 24> end
| 25>
| 26> %scf
| 27>   MaxIter 150
| 28> end
| 29>
| 30>
| 31>                          ****END OF INPUT****

CARTESIAN COORDINATES (ANGSTROEM)
---------------------------------
  C      2.234470   -2.989750   -2.397620
  N      2.756800   -2.945550   -3.765030
  C      1.987210   -2.590450   -4.818980
  N      0.743220   -3.017490   -4.913520
  N      2.499640   -1.848600   -5.803240
  H      3.309780   -1.292820   -5.558950
  H      1.801030   -1.304300   -6.289130
  H      3.716120   -2.628800   -3.829530
  H      0.395830   -3.627750   -4.185020
  H      0.039200   -2.454380   -5.371370
  C      2.191200   -1.619500   -1.715490
  H      2.872780   -3.666370   -1.828010
  H      1.246190   -3.447440   -2.407840
  H      1.563870   -0.960460   -2.278530
  H      3.180330   -1.214490   -1.665680
  H      1.799160   -1.726080   -0.725620

 Total Charge           Charge          ....    1
 Multiplicity           Mult            ....    1
 Number of Electrons    NEL             ....   48
 Basis Dimension        Dim             ....  134

ORBITAL ENERGIES
----------------

  NO   OCC          E(Eh)            E(eV)
   0   2.0000     -14.624485      -397.9525
   1   2.0000     -14.620209      -397.8361
   2   2.0000     -14.617593      -397.7649
   3   2.0000     -10.569423      -287.6086
   4   2.0000     -10.441599      -284.1304
   5   2.0000     -10.374034      -282.2918
   6   2.0000      -1.241075       -33.7714
   7   2.0000      -1.125002       -30.6129
   8   2.0000      -1.119641       -30.4670
   9   2.0000      -0.945982       -25.7415
  10   2.0000      -0.859392       -23.3853
  11   2.0000      -0.820874       -22.3371
  12   2.0000      -0.802572       -21.8391
  13   2.0000      -0.757272       -20.6064
  14   2.0000      -0.717530       -19.5250
  15   2.0000      -0.701073       -19.0772
  16   2.0000      -0.665731       -18.1155
  17   2.0000      -0.636564       -17.3218
  18   2.0000      -0.616234       -16.7686
  19   2.0000      -0.583210       -15.8700
  20   2.0000      -0.547704       -14.9038
  21   2.0000      -0.528264       -14.3748
  22   2.0000      -0.500417       -13.6170
  23   2.0000      -0.463130       -12.6024
  24   0.0000      -0.183098        -4.9824
  25   0.0000      -0.128968        -3.5094
  26   0.0000      -0.097292        -2.6475
  27   0.0000      -0.082730        -2.2512
  28   0.0000      -0.065491        -1.7821

MULLIKEN ATOMIC CHARGES
-----------------------
   0 C :   -0.024971
   1 N :   -0.187117
   2 C :    0.118148
   3 N :   -0.066623
   4 N :   -0.047531
   5 H :    0.173882
   6 H :    0.175462
   7 H :    0.171310
   8 H :    0.182028
   9 H :    0.186608
  10 C :   -0.058184
  11 H :    0.101344
  12 H :    0.067395
  13 H :    0.048480
  14 H :    0.067168
  15 H :    0.092601
Sum of atomic charges:    1.0000000

LOEWDIN ATOMIC CHARGES
----------------------
   0 C :    0.036105
   1 N :    0.011546
   2 C :    0.144339
   3 N :    0.062714
   4 N :    0.047750
   5 H :    0.108525
   6 H :    0.110949
   7 H :    0.102887
   8 H :    0.110507
   9 H :    0.115442
  10 C :   -0.057820
  11 H :    0.052606
  12 H :    0.033099
  13 H :    0.028737
  14 H :    0.037637
  15 H :    0.054977

  Mayer bond orders larger than 0.100000
B(  0-C ,  1-N ) :   0.9365 B(  0-C , 10-C ) :   1.0794 B(  0-C , 11-H ) :   0.9482
B(  0-C , 12-H ) :   0.9548 B(  1-N ,  2-C ) :   1.3392 B(  1-N ,  7-H ) :   0.9105
B(  2-C ,  3-N ) :   1.4056 B(  2-C ,  4-N ) :   1.3759 B(  3-N ,  8-H ) :   0.9233
B(  3-N ,  9-H ) :   0.9245 B(  4-N ,  5-H ) :   0.9270 B(  4-N ,  6-H ) :   0.9278
B( 10-C , 13-H ) :   0.9687 B( 10-C , 14-H ) :   0.9694 B( 10-C , 15-H ) :   0.9603

Dispersion correction           -0.010499200
FINAL SINGLE POINT ENERGY      -283.861164692338

DIPOLE MOMENT
-------------
                                X             Y             Z
Electronic contribution:      0.16211      -1.62906      -5.23884
Nuclear contribution   :     -0.59121       2.30298       4.63196
                        -----------------------------------------
Total Dipole Moment    :     -0.42909       0.67392      -0.60688
                        -----------------------------------------
Magnitude (a.u.)       :      1.00329
Magnitude (Debye)      :      2.55016

Rotational constants in cm-1:     0.205874     0.074757     0.066901
Rotational constants in MHz :  6171.937773  2241.151057  2005.629823

                             ****ORCA TERMINATED NORMALLY****
TOTAL RUN TIME: 0 days 0 hours 0 minutes 15 seconds 630 msec
