                         Program Version 5.0.0 -  RELEASE  -
|  1> !PBE0 D3BJ RIJCOSX def2-TZVP def2/J TightSCF xyzfile
|  2>
|  3> *xyzfile 0 1 B.xyz
|  4>
|  5> %MaxCore 64000
|  6>
|  7> %pal nprocs 18
|  8> end
|  9>
| 10> %scf
| 11>   MaxIter 150
| 12> end
| 13>
| 14>
| 15>                          ****END OF INPUT****

CARTESIAN COORDINATES (ANGSTROEM)
---------------------------------
  C      2.234473   -2.989754   -2.397622
  N      2.756799   -2.945553   -3.765029
  C     -1.104325    0.251374   -2.860056
  C     -0.711893    0.842517   -4.218344
  H      0.154626    1.499800   -4.130909
  H     -1.538134    1.459222   -4.582671
  C     -0.397624   -0.205875   -5.288018
  C      1.987208   -2.590451   -4.818975
  N      0.743221   -3.017493   -4.913524
  N      2.499636   -1.848598   -5.803241
  H      3.309780   -1.292818   -5.558947
  H      1.801025   -1.304298   -6.289129
  H      3.716116   -2.628797   -3.829533
  H      0.395828   -3.627747   -4.185024
  H      0.039201   -2.454383   -5.371367
  O      0.617165   -0.005348   -5.998273
  O     -1.133173   -1.221380   -5.341465
  C      2.191199   -1.619503   -1.715492
  H      2.872783   -3.666368   -1.828014
  H      1.246188   -3.447444   -2.407842
  C      1.298729   -0.554314   -2.359773
  H      1.872917   -1.787955   -0.681310
  H      3.216809   -1.238432   -1.654428
  C     -0.196255   -0.863365   -2.325763
  H      1.612531   -0.371346   -3.393065
  H      1.480944    0.388638   -1.834444
  H     -0.404105   -1.761825   -2.909448
  H     -0.490439   -1.087880   -1.294131
  H     -1.143842    1.066711   -2.129680
  H     -2.114401   -0.156834   -2.930323

 Total Charge           Charge          ....    0
 Multiplicity           Mult            ....    1
 Number of Electrons    NEL             ....  102
 Basis Dimension        Dim             ....  505

ORBITAL ENERGIES
----------------

  NO   OCC          E(Eh)            E(eV)
   0   2.0000     -19.119339      -520.2637
   1   2.0000     -19.118139      -520.2310
   2   2.0000     -14.452841      -393.2818
   3   2.0000     -14.420724      -392.4079
   4   2.0000     -14.420139      -392.3919
   5   2.0000     -10.384666      -282.5811
   6   2.0000     -10.296080      -280.1706
   7   2.0000     -10.274820      -279.5921
   8   2.0000     -10.245802      -278.8024
   9   2.0000     -10.225566      -278.2518
  10   2.0000     -10.211826      -277.8779
  11   2.0000     -10.202333      -277.6196
  12   2.0000     -10.188275      -277.2371
  13   2.0000      -1.076649       -29.2971
  14   2.0000      -1.033334       -28.1185
  15   2.0000      -0.969924       -26.3930
  16   2.0000      -0.950532       -25.8653
  17   2.0000      -0.934147       -25.4194
  18   2.0000      -0.842901       -22.9365
  19   2.0000      -0.799389       -21.7525
  20   2.0000      -0.747240       -20.3334
  21   2.0000      -0.701662       -19.0932
  22   2.0000      -0.674130       -18.3440
  23   2.0000      -0.639573       -17.4037
  24   2.0000      -0.629482       -17.1291
  25   2.0000      -0.596095       -16.2206
  26   2.0000      -0.573790       -15.6136
  27   2.0000      -0.548138       -14.9156
  28   2.0000      -0.525487       -14.2992
  29   2.0000      -0.515682       -14.0324
  30   2.0000      -0.497144       -13.5280
  31   2.0000      -0.485420       -13.2089
  32   2.0000      -0.479410       -13.0454
  33   2.0000      -0.461707       -12.5637
  34   2.0000      -0.449443       -12.2300
  35   2.0000      -0.440203       -11.9785
  36   2.0000      -0.425856       -11.5881
  37   2.0000      -0.420259       -11.4358
  38   2.0000      -0.403331       -10.9752
  39   2.0000      -0.392394       -10.6776
  40   2.0000      -0.379263       -10.3203
  41   2.0000      -0.369642       -10.0585
  42   2.0000      -0.355891        -9.6843
  43   2.0000      -0.338794        -9.2191
  44   2.0000      -0.326495        -8.8844
  45   2.0000      -0.320076        -8.7097
  46   2.0000      -0.315573        -8.5872
  47   2.0000      -0.306328        -8.3356
  48   2.0000      -0.241497        -6.5715
  49   2.0000      -0.230628        -6.2757
  50   2.0000      -0.223917        -6.0931
  51   0.0000      -0.014516        -0.3950
  52   0.0000       0.001967         0.0535
  53   0.0000       0.025353         0.6899
  54   0.0000       0.041979         1.1423
  55   0.0000       0.056700         1.5429

MULLIKEN ATOMIC CHARGES
-----------------------
   0 C :   -0.182846
   1 N :   -0.237655
   2 C :   -0.165481
   3 C :   -0.169539
   4 H :    0.093292
   5 H :    0.108543
   6 C :    0.260052
   7 C :    0.236560
   8 N :   -0.336025
   9 N :   -0.328926
  10 H :    0.234136
  11 H :    0.286971
  12 H :    0.222999
  13 H :    0.240469
  14 H :    0.285084
  15 O :   -0.537592
  16 O :   -0.508332
  17 C :   -0.204943
  18 H :    0.150132
  19 H :    0.129661
  20 C :   -0.189506
  21 H :    0.111847
  22 H :    0.113202
  23 C :   -0.206998
  24 H :    0.123611
  25 H :    0.107784
  26 H :    0.079491
  27 H :    0.092113
  28 H :    0.091624
  29 H :    0.100275
Sum of atomic charges:    0.0000000

LOEWDIN ATOMIC CHARGES
----------------------
   0 C :   -0.279815
   1 N :    0.130286
   2 C :   -0.267288
   3 C :   -0.249880
   4 H :    0.137300
   5 H :    0.147047
   6 C :   -0.659046
   7 C :   -0.438324
   8 N :    0.092103
   9 N :    0.048478
  10 H :    0.176832
  11 H :    0.174347
  12 H :    0.192929
  13 H :    0.178112
  14 H :    0.167134
  15 O :   -0.068270
  16 O :   -0.056601
  17 C :   -0.272857
  18 H :    0.140277
  19 H :    0.135571
  20 C :   -0.269499
  21 H :    0.146592
  22 H :    0.137969
  23 C :   -0.275671
  24 H :    0.145024
  25 H :    0.143978
  26 H :    0.132165
  27 H :    0.134376
  28 H :    0.133385
  29 H :    0.143345

  Mayer bond orders larger than 0.100000
B(  0-C ,  1-N ) :   0.9063 B(  0-C , 17-C ) :   0.9983 B(  0-C , 18-H ) :   0.9638
B(  0-C , 19-H ) :   0.9753 B(  1-N ,  7-C ) :   1.3186 B(  1-N , 12-H ) :   0.9084
B(  2-C ,  3-C ) :   0.9950 B(  2-C , 23-C ) :   1.0294 B(  2-C , 28-H ) :   0.9547
B(  2-C , 29-H ) :   0.9462 B(  3-C ,  4-H ) :   0.9550 B(  3-C ,  5-H ) :   0.9324
B(  3-C ,  6-C ) :   0.9849 B(  6-C , 15-O ) :   1.7164 B(  6-C , 16-O ) :   1.7265
B(  7-C ,  8-N ) :   1.4362 B(  7-C ,  9-N ) :   1.4044 B(  8-N , 13-H ) :   0.9092
B(  8-N , 14-H ) :   0.7688 B(  9-N , 10-H ) :   0.9106 B(  9-N , 11-H ) :   0.8036
B( 11-H , 15-O ) :   0.1405 B( 14-H , 16-O ) :   0.1830 B( 17-C , 20-C ) :   0.9897
B( 17-C , 21-H ) :   0.9530 B( 17-C , 22-H ) :   0.9627 B( 20-C , 23-C ) :   0.9936
B( 20-C , 24-H ) :   0.9368 B( 20-C , 25-H ) :   0.9538 B( 23-C , 26-H ) :   0.9544
B( 23-C , 27-H ) :   0.9545

Dispersion correction           -0.030799742
FINAL SINGLE POINT ENERGY      -629.371698811589

DIPOLE MOMENT
-------------
                                X             Y             Z
Electronic contribution:      0.60316      -2.84990     -10.27378
Nuclear contribution   :      1.76912       1.50070      12.36652
                        -----------------------------------------
Total Dipole Moment    :      2.37228      -1.34921       2.09275
                        -----------------------------------------
Magnitude (a.u.)       :      3.43913
Magnitude (Debye)      :      8.74158

Rotational constants in cm-1:     0.033272     0.023886     0.017112
Rotational constants in MHz :   997.469575   716.074432   513.001395

                             ****ORCA TERMINATED NORMALLY****
TOTAL RUN TIME: 0 days 0 hours 0 minutes 56 seconds 720 msec
