                         Program Version 5.0.0 -  RELEASE  -
|  1> !PBE0 D3BJ RIJCOSX def2-SVP def2/J TightSCF
|  2> *xyz 0 1
|  3> C         -1.10433        0.25137       -2.86006
|  4> C         -0.71189        0.84252       -4.21834
|  5> H          0.15463        1.49980       -4.13091
|  6> H         -1.53813        1.45922       -4.58267
|  7> C         -0.39762       -0.20587       -5.28802
|  8> F          0.61717       -0.00535       -5.99827
|  9> O         -1.13317       -1.22138       -5.34147
| 10> H         -1.95489       -0.38644       -2.98099
| 11> H         -1.34603        1.04362       -2.18269
| 12> H         -0.28606       -0.31581       -2.46809
| 13> *
| 14>
| 15> %MaxCore 64000
| 16>
| 17> %pal nprocs 4
| 18> end
| 19>
| 20> %scf
| 21>   MaxIter 150
| 22> end
| 23>
| 24>
| 25>                          ****END OF INPUT****

CARTESIAN COORDINATES (ANGSTROEM)
---------------------------------
  C     -1.104330    0.251370   -2.860060
  C     -0.711890    0.842520   -4.218340
  H      0.154630    1.499800   -4.130910
  H     -1.538130    1.459220   -4.582670
  C     -0.397620   -0.205870   -5.288020
  F      0.617170   -0.005350   -5.998270
  O     -1.133170   -1.221380   -5.341470
  H     -1.954890   -0.386440   -2.980990
  H     -1.346030    1.043620   -2.182690
  H     -0.286060   -0.315810   -2.468090

 Total Charge           Charge          ....    0
 Multiplicity           Mult            ....    1
 Number of Electrons    NEL             ....   40
 Basis Dimension        Dim             ....   95

ORBITAL ENERGIES
----------------

  NO   OCC          E(Eh)            E(eV)
   0   2.0000     -24.840020      -675.9313
   1   2.0000     -19.211936      -522.7834
   2   2.0000     -10.403104      -283.0828
   3   2.0000     -10.261040      -279.2171
   4   2.0000     -10.234076      -278.4834
   5   2.0000      -1.329994       -36.1910
   6   2.0000      -1.045349       -28.4454
   7   2.0000      -0.813225       -22.1290
   8   2.0000      -0.702648       -19.1200
   9   2.0000      -0.649108       -17.6631
  10   2.0000      -0.561363       -15.2755
  11   2.0000      -0.547560       -14.8999
  12   2.0000      -0.516838       -14.0639
  13   2.0000      -0.476542       -12.9674
  14   2.0000      -0.443315       -12.0632
  15   2.0000      -0.407514       -11.0890
  16   2.0000      -0.386274       -10.5111
  17   2.0000      -0.384480       -10.4622
  18   2.0000      -0.356004        -9.6873
  19   2.0000      -0.300660        -8.1814
  20   0.0000      -0.016027        -0.4361
  21   0.0000       0.070342         1.9141
  22   0.0000       0.114639         3.1195
  23   0.0000       0.121943         3.3182
  24   0.0000       0.138292         3.7631

MULLIKEN ATOMIC CHARGES
-----------------------
   0 C :   -0.047102
   1 C :   -0.164111
   2 H :    0.051964
   3 H :    0.083462
   4 C :    0.283446
   5 F :   -0.084829
   6 O :   -0.277645
   7 H :    0.065082
   8 H :    0.042872
   9 H :    0.046860
Sum of atomic charges:   -0.0000000

LOEWDIN ATOMIC CHARGES
----------------------
   0 C :   -0.047470
   1 C :   -0.084907
   2 H :    0.032508
   3 H :    0.054999
   4 C :    0.106903
   5 F :    0.042666
   6 O :   -0.200417
   7 H :    0.035248
   8 H :    0.030512
   9 H :    0.029958

  Mayer bond orders larger than 0.100000
B(  0-C ,  1-C ) :   1.0858 B(  0-C ,  7-H ) :   0.9675 B(  0-C ,  8-H ) :   0.9678
B(  0-C ,  9-H ) :   0.9792 B(  1-C ,  2-H ) :   0.9421 B(  1-C ,  3-H ) :   0.9265
B(  1-C ,  4-C ) :   0.9944 B(  4-C ,  5-F ) :   1.1862 B(  4-C ,  6-O ) :   2.0530

Dispersion correction           -0.005163933
FINAL SINGLE POINT ENERGY      -291.864025855066

DIPOLE MOMENT
-------------
                                X             Y             Z
Electronic contribution:      3.59630      -2.41324      -7.76820
Nuclear contribution   :     -3.36368       3.36392       8.24820
                        -----------------------------------------
Total Dipole Moment    :      0.23261       0.95067       0.48000
                        -----------------------------------------
Magnitude (a.u.)       :      1.09008
Magnitude (Debye)      :      2.77077

Rotational constants in cm-1:     0.315013     0.126712     0.098430
Rotational constants in MHz :  9443.861322  3798.734540  2950.846388

                             ****ORCA TERMINATED NORMALLY****
TOTAL RUN TIME: 0 days 0 hours 0 minutes 10 seconds 335 msec
