                         Program Version 5.0.0 -  RELEASE  -
|  1> !PBE0 D3BJ RIJCOSX def2-SVP def2/J TightSCF
|  2> *xyz 0 1
|  3> C          2.23447       -2.98975       -2.39762
|  4> C          2.75680       -2.94555       -3.76503
|  5> C          1.98721       -2.59045       -4.81898
|  6> N          0.74322       -3.01749       -4.91352
|  7> N          2.49964       -1.84860       -5.80324
|  8> H          3.30978       -1.29282       -5.55895
|  9> H          1.80103       -1.30430       -6.28913
| 10> H          3.71612       -2.62880       -3.82953
| 11> H          0.39583       -3.62775       -4.18502
| 12> H          0.03920       -2.45438       -5.37137
| 13> C          2.19120       -1.61950       -1.71549
| 14> H          2.87278       -3.66637       -1.82801
| 15> H          1.24619       -3.44744       -2.40784
| 16> H          1.56387       -0.96046       -2.27853
| 17> H          3.18033       -1.21449       -1.66568
| 18> H          1.79916       -1.72608       -0.72562
| 19> *
| 20>
| 21> %MaxCore 64000
| 22>
| 23> %pal nprocs 4
| 24> end
| 25>
| 26> %scf
| 27>   MaxIter 150
| 28> end
| 29>
| 30>
| 31>                          ****END OF INPUT****

CARTESIAN COORDINATES (ANGSTROEM)
---------------------------------
  C      2.234470   -2.989750   -2.397620
  C      2.756800   -2.945550   -3.765030
  C      1.987210   -2.590450   -4.818980
  N      0.743220   -3.017490   -4.913520
  N      2.499640   -1.848600   -5.803240
  H      3.309780   -1.292820   -5.558950
  H      1.801030   -1.304300   -6.289130
  H      3.716120   -2.628800   -3.829530
  H      0.395830   -3.627750   -4.185020
  H      0.039200   -2.454380   -5.371370
  C      2.191200   -1.619500   -1.715490
  H      2.872780   -3.666370   -1.828010
  H      1.246190   -3.447440   -2.407840
  H      1.563870   -0.960460   -2.278530
  H      3.180330   -1.214490   -1.665680
  H      1.799160   -1.726080   -0.725620

 Total Charge           Charge          ....    0
 Multiplicity           Mult            ....    1
 Number of Electrons    NEL             ....   48
 Basis Dimension        Dim             ....  134

ORBITAL ENERGIES
----------------

  NO   OCC          E(Eh)            E(eV)
   0   2.0000     -14.394546      -391.6955
   1   2.0000     -14.388921      -391.5425
   2   2.0000     -10.272861      -279.5388
   3   2.0000     -10.205113      -277.6952
   4   2.0000     -10.197886      -277.4986
   5   2.0000     -10.149340      -276.1776
   6   2.0000      -0.983488       -26.7621
   7   2.0000      -0.889689       -24.2097
   8   2.0000      -0.784930       -21.3590
   9   2.0000      -0.701969       -19.1015
  10   2.0000      -0.628657       -17.1066
  11   2.0000      -0.589335       -16.0366
  12   2.0000      -0.553736       -15.0679
  13   2.0000      -0.516554       -14.0561
  14   2.0000      -0.479320       -13.0430
  15   2.0000      -0.459235       -12.4964
  16   2.0000      -0.422083       -11.4855
  17   2.0000      -0.401446       -10.9239
  18   2.0000      -0.380117       -10.3435
  19   2.0000      -0.368228       -10.0200
  20   2.0000      -0.334577        -9.1043
  21   2.0000      -0.326895        -8.8953
  22   2.0000      -0.280078        -7.6213
  23   2.0000      -0.161442        -4.3931
  24   0.0000       0.045631         1.2417
  25   0.0000       0.076264         2.0752
  26   0.0000       0.094935         2.5833
  27   0.0000       0.099404         2.7049
  28   0.0000       0.115305         3.1376

MULLIKEN ATOMIC CHARGES
-----------------------
   0 C :   -0.059851
   1 C :   -0.139411
   2 C :   -0.062495
   3 N :   -0.105691
   4 N :   -0.095834
   5 H :    0.128004
   6 H :    0.106264
   7 H :   -0.071936
   8 H :    0.131650
   9 H :    0.112609
  10 C :   -0.001050
  11 H :    0.020318
  12 H :   -0.009790
  13 H :    0.010860
  14 H :    0.017729
  15 H :    0.018623
Sum of atomic charges:    0.0000000

LOEWDIN ATOMIC CHARGES
----------------------
   0 C :   -0.047613
   1 C :   -0.231755
   2 C :    0.014720
   3 N :   -0.010484
   4 N :   -0.023194
   5 H :    0.080060
   6 H :    0.064894
   7 H :   -0.011226
   8 H :    0.082032
   9 H :    0.065244
  10 C :   -0.064946
  11 H :    0.021970
  12 H :    0.008242
  13 H :    0.015105
  14 H :    0.020022
  15 H :    0.016928

  Mayer bond orders larger than 0.100000
B(  0-C ,  1-C ) :   1.1022 B(  0-C , 10-C ) :   1.0688 B(  0-C , 11-H ) :   0.9359
B(  0-C , 12-H ) :   0.9468 B(  1-C ,  2-C ) :   1.6502 B(  1-C ,  7-H ) :   0.9314
B(  2-C ,  3-N ) :   1.2622 B(  2-C ,  4-N ) :   1.2070 B(  3-N ,  8-H ) :   0.9446
B(  3-N ,  9-H ) :   0.9428 B(  4-N ,  5-H ) :   0.9440 B(  4-N ,  6-H ) :   0.9545
B( 10-C , 13-H ) :   0.9729 B( 10-C , 14-H ) :   0.9701 B( 10-C , 15-H ) :   0.9636

Dispersion correction           -0.010928471
FINAL SINGLE POINT ENERGY      -267.401488853054

DIPOLE MOMENT
-------------
                                X             Y             Z
Electronic contribution:     -0.40494      -1.33634      -5.12237
Nuclear contribution   :     -0.44240       2.20379       4.66256
                        -----------------------------------------
Total Dipole Moment    :     -0.84734       0.86745      -0.45981
                        -----------------------------------------
Magnitude (a.u.)       :      1.29687
Magnitude (Debye)      :      3.29639

Rotational constants in cm-1:     0.209447     0.075194     0.066975
Rotational constants in MHz :  6279.068019  2254.272519  2007.845458

                             ****ORCA TERMINATED NORMALLY****
TOTAL RUN TIME: 0 days 0 hours 0 minutes 16 seconds 727 msec
