                         Program Version 5.0.0 -  RELEASE  -
|  1> !PBE0 D3BJ RIJCOSX def2-SVP def2/J TightSCF
|  2> *xyz 0 1
|  3> C         -1.10433        0.25137       -2.86006
|  4> C         -0.71189        0.84252       -4.21834
|  5> H          0.15463        1.49980       -4.13091
|  6> H         -1.53813        1.45922       -4.58267
|  7> C         -0.39762       -0.20587       -5.28802
|  8> O          0.61717       -0.00535       -5.99827
|  9> F         -1.13317       -1.22138       -5.34147
| 10> H         -1.95489       -0.38644       -2.98099
| 11> H         -1.34603        1.04362       -2.18269
| 12> H         -0.28606       -0.31581       -2.46809
| 13> *
| 14>
| 15> %MaxCore 64000
| 16>
| 17> %pal nprocs 4
| 18> end
| 19>
| 20> %scf
| 21>   MaxIter 150
| 22> end
| 23>
| 24>
| 25>                          ****END OF INPUT****

CARTESIAN COORDINATES (ANGSTROEM)
---------------------------------
  C     -1.104330    0.251370   -2.860060
  C     -0.711890    0.842520   -4.218340
  H      0.154630    1.499800   -4.130910
  H     -1.538130    1.459220   -4.582670
  C     -0.397620   -0.205870   -5.288020
  O      0.617170   -0.005350   -5.998270
  F     -1.133170   -1.221380   -5.341470
  H     -1.954890   -0.386440   -2.980990
  H     -1.346030    1.043620   -2.182690
  H     -0.286060   -0.315810   -2.468090

 Total Charge           Charge          ....    0
 Multiplicity           Mult            ....    1
 Number of Electrons    NEL             ....   40
 Basis Dimension        Dim             ....   95

ORBITAL ENERGIES
----------------

  NO   OCC          E(Eh)            E(eV)
   0   2.0000     -24.841341      -675.9672
   1   2.0000     -19.210144      -522.7346
   2   2.0000     -10.402056      -283.0543
   3   2.0000     -10.259978      -279.1882
   4   2.0000     -10.239736      -278.6374
   5   2.0000      -1.330750       -36.2116
   6   2.0000      -1.043819       -28.4037
   7   2.0000      -0.817465       -22.2444
   8   2.0000      -0.697507       -18.9801
   9   2.0000      -0.656355       -17.8603
  10   2.0000      -0.563682       -15.3386
  11   2.0000      -0.554549       -15.0900
  12   2.0000      -0.506969       -13.7953
  13   2.0000      -0.477694       -12.9987
  14   2.0000      -0.444733       -12.1018
  15   2.0000      -0.412130       -11.2146
  16   2.0000      -0.394347       -10.7307
  17   2.0000      -0.388083       -10.5603
  18   2.0000      -0.356161        -9.6916
  19   2.0000      -0.295670        -8.0456
  20   0.0000      -0.013400        -0.3646
  21   0.0000       0.064959         1.7676
  22   0.0000       0.112958         3.0737
  23   0.0000       0.123055         3.3485
  24   0.0000       0.139189         3.7875

MULLIKEN ATOMIC CHARGES
-----------------------
   0 C :   -0.072026
   1 C :   -0.157509
   2 H :    0.077874
   3 H :    0.076119
   4 C :    0.283369
   5 O :   -0.274040
   6 F :   -0.087486
   7 H :    0.050392
   8 H :    0.049868
   9 H :    0.053440
Sum of atomic charges:   -0.0000000

LOEWDIN ATOMIC CHARGES
----------------------
   0 C :   -0.059334
   1 C :   -0.080574
   2 H :    0.049112
   3 H :    0.049276
   4 C :    0.105796
   5 O :   -0.197644
   6 F :    0.041592
   7 H :    0.027943
   8 H :    0.033425
   9 H :    0.030408

  Mayer bond orders larger than 0.100000
B(  0-C ,  1-C ) :   1.0620 B(  0-C ,  7-H ) :   0.9719 B(  0-C ,  8-H ) :   0.9677
B(  0-C ,  9-H ) :   0.9784 B(  1-C ,  2-H ) :   0.9512 B(  1-C ,  3-H ) :   0.9293
B(  1-C ,  4-C ) :   1.0020 B(  4-C ,  5-O ) :   2.0667 B(  4-C ,  6-F ) :   1.1761

Dispersion correction           -0.005125717
FINAL SINGLE POINT ENERGY      -291.862952067704

DIPOLE MOMENT
-------------
                                X             Y             Z
Electronic contribution:      0.71369      -4.40637      -6.66561
Nuclear contribution   :     -1.45527       4.68977       7.53208
                        -----------------------------------------
Total Dipole Moment    :     -0.74157       0.28340       0.86646
                        -----------------------------------------
Magnitude (a.u.)       :      1.17516
Magnitude (Debye)      :      2.98703

Rotational constants in cm-1:     0.298240     0.132464     0.099915
Rotational constants in MHz :  8940.998095  3971.171647  2995.369122

                             ****ORCA TERMINATED NORMALLY****
TOTAL RUN TIME: 0 days 0 hours 0 minutes 10 seconds 602 msec
