                         Program Version 5.0.0 -  RELEASE  -
|  1> !PBE0 D3BJ RIJCOSX def2-SVP def2/J TightSCF
|  2> *xyz 0 1
|  3> C          2.23447       -2.98975       -2.39762
|  4> N          2.75680       -2.94555       -3.76503
|  5> C          1.98721       -2.59045       -4.81898
|  6> C          0.74322       -3.01749       -4.91352
|  7> N          2.49964       -1.84860       -5.80324
|  8> H          3.30978       -1.29282       -5.55895
|  9> H          1.80103       -1.30430       -6.28913
| 10> H          3.71612       -2.62880       -3.82953
| 11> H          0.39583       -3.62775       -4.18502
| 12> H          0.03920       -2.45438       -5.37137
| 13> C          2.19120       -1.61950       -1.71549
| 14> H          2.87278       -3.66637       -1.82801
| 15> H          1.24619       -3.44744       -2.40784
| 16> H          1.56387       -0.96046       -2.27853
| 17> H          3.18033       -1.21449       -1.66568
| 18> H          1.79916       -1.72608       -0.72562
| 19> *
| 20>
| 21> %MaxCore 64000
| 22>
| 23> %pal nprocs 4
| 24> end
| 25>
| 26> %scf
| 27>   MaxIter 150
| 28> end
| 29>
| 30>
| 31>                          ****END OF INPUT****

CARTESIAN COORDINATES (ANGSTROEM)
---------------------------------
  C      2.234470   -2.989750   -2.397620
  N      2.756800   -2.945550   -3.765030
  C      1.987210   -2.590450   -4.818980
  C      0.743220   -3.017490   -4.913520
  N      2.499640   -1.848600   -5.803240
  H      3.309780   -1.292820   -5.558950
  H      1.801030   -1.304300   -6.289130
  H      3.716120   -2.628800   -3.829530
  H      0.395830   -3.627750   -4.185020
  H      0.039200   -2.454380   -5.371370
  C      2.191200   -1.619500   -1.715490
  H      2.872780   -3.666370   -1.828010
  H      1.246190   -3.447440   -2.407840
  H      1.563870   -0.960460   -2.278530
  H      3.180330   -1.214490   -1.665680
  H      1.799160   -1.726080   -0.725620

 Total Charge           Charge          ....    0
 Multiplicity           Mult            ....    1
 Number of Electrons    NEL             ....   48
 Basis Dimension        Dim             ....  134

ORBITAL ENERGIES
----------------

  NO   OCC          E(Eh)            E(eV)
   0   2.0000     -14.390726      -391.5916
   1   2.0000     -14.387636      -391.5075
   2   2.0000     -10.270127      -279.4644
   3   2.0000     -10.261830      -279.2386
   4   2.0000     -10.220316      -278.1089
   5   2.0000     -10.144032      -276.0331
   6   2.0000      -0.981253       -26.7013
   7   2.0000      -0.900233       -24.4966
   8   2.0000      -0.768891       -20.9226
   9   2.0000      -0.724493       -19.7145
  10   2.0000      -0.651826       -17.7371
  11   2.0000      -0.571893       -15.5620
  12   2.0000      -0.554865       -15.0987
  13   2.0000      -0.521781       -14.1984
  14   2.0000      -0.472619       -12.8606
  15   2.0000      -0.457184       -12.4406
  16   2.0000      -0.427128       -11.6227
  17   2.0000      -0.406745       -11.0681
  18   2.0000      -0.402204       -10.9445
  19   2.0000      -0.379443       -10.3252
  20   2.0000      -0.365596        -9.9484
  21   2.0000      -0.356372        -9.6974
  22   2.0000      -0.258034        -7.0215
  23   2.0000      -0.178391        -4.8543
  24   0.0000       0.051878         1.4117
  25   0.0000       0.075764         2.0616
  26   0.0000       0.091047         2.4775
  27   0.0000       0.103337         2.8119
  28   0.0000       0.121753         3.3131

MULLIKEN ATOMIC CHARGES
-----------------------
   0 C :    0.038412
   1 N :   -0.231190
   2 C :    0.006250
   3 C :   -0.128219
   4 N :   -0.104076
   5 H :    0.096755
   6 H :    0.127908
   7 H :    0.106633
   8 H :   -0.023754
   9 H :   -0.025562
  10 C :   -0.056242
  11 H :    0.034629
  12 H :    0.054904
  13 H :    0.043295
  14 H :    0.024310
  15 H :    0.035947
Sum of atomic charges:   -0.0000000

LOEWDIN ATOMIC CHARGES
----------------------
   0 C :    0.034461
   1 N :   -0.044496
   2 C :    0.024945
   3 C :   -0.235749
   4 N :   -0.027662
   5 H :    0.057424
   6 H :    0.082745
   7 H :    0.061134
   8 H :   -0.003489
   9 H :   -0.003588
  10 C :   -0.074619
  11 H :    0.022147
  12 H :    0.032041
  13 H :    0.027263
  14 H :    0.018979
  15 H :    0.028465

  Mayer bond orders larger than 0.100000
B(  0-C ,  1-N ) :   1.0015 B(  0-C , 10-C ) :   1.0860 B(  0-C , 11-H ) :   0.9582
B(  0-C , 12-H ) :   0.9515 B(  1-N ,  2-C ) :   1.1442 B(  1-N ,  7-H ) :   0.9374
B(  2-C ,  3-C ) :   1.7513 B(  2-C ,  4-N ) :   1.2086 B(  3-C ,  8-H ) :   0.9480
B(  3-C ,  9-H ) :   0.9523 B(  4-N ,  5-H ) :   0.9466 B(  4-N ,  6-H ) :   0.9453
B( 10-C , 13-H ) :   0.9693 B( 10-C , 14-H ) :   0.9712 B( 10-C , 15-H ) :   0.9642

Dispersion correction           -0.010876225
FINAL SINGLE POINT ENERGY      -267.395361774935

DIPOLE MOMENT
-------------
                                X             Y             Z
Electronic contribution:      1.56035      -1.19335      -3.88602
Nuclear contribution   :     -0.86957       2.18853       4.41892
                        -----------------------------------------
Total Dipole Moment    :      0.69079       0.99518       0.53290
                        -----------------------------------------
Magnitude (a.u.)       :      1.32346
Magnitude (Debye)      :      3.36397

Rotational constants in cm-1:     0.214718     0.075736     0.068547
Rotational constants in MHz :  6437.075121  2270.519635  2054.974198

                             ****ORCA TERMINATED NORMALLY****
TOTAL RUN TIME: 0 days 0 hours 0 minutes 16 seconds 924 msec
