                         Program Version 5.0.0 -  RELEASE  -
|  1> !PBE0 D3BJ RIJCOSX def2-SVP def2/J TightSCF
|  2> *xyz 0 1
|  3> C          2.23447       -2.98975       -2.39762
|  4> N          2.75680       -2.94555       -3.76503
|  5> C          1.98721       -2.59045       -4.81898
|  6> N          0.74322       -3.01749       -4.91352
|  7> C          2.49964       -1.84860       -5.80324
|  8> H          3.30978       -1.29282       -5.55895
|  9> H          1.80103       -1.30430       -6.28913
| 10> H          3.71612       -2.62880       -3.82953
| 11> H          0.39583       -3.62775       -4.18502
| 12> H          0.03920       -2.45438       -5.37137
| 13> C          2.19120       -1.61950       -1.71549
| 14> H          2.87278       -3.66637       -1.82801
| 15> H          1.24619       -3.44744       -2.40784
| 16> H          1.56387       -0.96046       -2.27853
| 17> H          3.18033       -1.21449       -1.66568
| 18> H          1.79916       -1.72608       -0.72562
| 19> *
| 20>
| 21> %MaxCore 64000
| 22>
| 23> %pal nprocs 4
| 24> end
| 25>
| 26> %scf
| 27>   MaxIter 150
| 28> end
| 29>
| 30>
| 31>                          ****END OF INPUT****

CARTESIAN COORDINATES (ANGSTROEM)
---------------------------------
  C      2.234470   -2.989750   -2.397620
  N      2.756800   -2.945550   -3.765030
  C      1.987210   -2.590450   -4.818980
  N      0.743220   -3.017490   -4.913520
  C      2.499640   -1.848600   -5.803240
  H      3.309780   -1.292820   -5.558950
  H      1.801030   -1.304300   -6.289130
  H      3.716120   -2.628800   -3.829530
  H      0.395830   -3.627750   -4.185020
  H      0.039200   -2.454380   -5.371370
  C      2.191200   -1.619500   -1.715490
  H      2.872780   -3.666370   -1.828010
  H      1.246190   -3.447440   -2.407840
  H      1.563870   -0.960460   -2.278530
  H      3.180330   -1.214490   -1.665680
  H      1.799160   -1.726080   -0.725620

 Total Charge           Charge          ....    0
 Multiplicity           Mult            ....    1
 Number of Electrons    NEL             ....   48
 Basis Dimension        Dim             ....  134

ORBITAL ENERGIES
----------------

  NO   OCC          E(Eh)            E(eV)
   0   2.0000     -14.391238      -391.6055
   1   2.0000     -14.389249      -391.5514
   2   2.0000     -10.273127      -279.5460
   3   2.0000     -10.270832      -279.4836
   4   2.0000     -10.224261      -278.2163
   5   2.0000     -10.138953      -275.8949
   6   2.0000      -0.982894       -26.7459
   7   2.0000      -0.899921       -24.4881
   8   2.0000      -0.781103       -21.2549
   9   2.0000      -0.718132       -19.5414
  10   2.0000      -0.641079       -17.4446
  11   2.0000      -0.611539       -16.6408
  12   2.0000      -0.549838       -14.9618
  13   2.0000      -0.501518       -13.6470
  14   2.0000      -0.500824       -13.6281
  15   2.0000      -0.449561       -12.2332
  16   2.0000      -0.438688       -11.9373
  17   2.0000      -0.411388       -11.1944
  18   2.0000      -0.386082       -10.5058
  19   2.0000      -0.374731       -10.1969
  20   2.0000      -0.372848       -10.1457
  21   2.0000      -0.362663        -9.8685
  22   2.0000      -0.260346        -7.0844
  23   2.0000      -0.173517        -4.7216
  24   0.0000       0.051186         1.3928
  25   0.0000       0.072507         1.9730
  26   0.0000       0.081330         2.2131
  27   0.0000       0.100889         2.7453
  28   0.0000       0.114038         3.1031

MULLIKEN ATOMIC CHARGES
-----------------------
   0 C :    0.008845
   1 N :   -0.215451
   2 C :   -0.024863
   3 N :   -0.125438
   4 C :   -0.078084
   5 H :   -0.042822
   6 H :   -0.038533
   7 H :    0.129588
   8 H :    0.113017
   9 H :    0.138906
  10 C :   -0.044728
  11 H :    0.040598
  12 H :    0.024851
  13 H :    0.044004
  14 H :    0.035873
  15 H :    0.034239
Sum of atomic charges:   -0.0000000

LOEWDIN ATOMIC CHARGES
----------------------
   0 C :    0.022735
   1 N :   -0.046039
   2 C :    0.030111
   3 N :   -0.010765
   4 C :   -0.259648
   5 H :   -0.009944
   6 H :   -0.005412
   7 H :    0.080877
   8 H :    0.064790
   9 H :    0.085019
  10 C :   -0.073429
  11 H :    0.024399
  12 H :    0.017114
  13 H :    0.028140
  14 H :    0.024930
  15 H :    0.027122

  Mayer bond orders larger than 0.100000
B(  0-C ,  1-N ) :   1.0196 B(  0-C , 10-C ) :   1.0691 B(  0-C , 11-H ) :   0.9575
B(  0-C , 12-H ) :   0.9548 B(  1-N ,  2-C ) :   1.1665 B(  1-N ,  7-H ) :   0.9301
B(  2-C ,  3-N ) :   1.2104 B(  2-C ,  4-C ) :   1.7478 B(  3-N ,  8-H ) :   0.9545
B(  3-N ,  9-H ) :   0.9459 B(  4-C ,  5-H ) :   0.9468 B(  4-C ,  6-H ) :   0.9512
B( 10-C , 13-H ) :   0.9706 B( 10-C , 14-H ) :   0.9714 B( 10-C , 15-H ) :   0.9636

Dispersion correction           -0.010843129
FINAL SINGLE POINT ENERGY      -267.390823157461

DIPOLE MOMENT
-------------
                                X             Y             Z
Electronic contribution:     -0.16696      -2.42027      -2.97205
Nuclear contribution   :     -0.49695       2.43650       4.23017
                        -----------------------------------------
Total Dipole Moment    :     -0.66391       0.01623       1.25812
                        -----------------------------------------
Magnitude (a.u.)       :      1.42264
Magnitude (Debye)      :      3.61606

Rotational constants in cm-1:     0.211102     0.077011     0.069221
Rotational constants in MHz :  6328.667765  2308.731604  2075.192956

                             ****ORCA TERMINATED NORMALLY****
TOTAL RUN TIME: 0 days 0 hours 0 minutes 14 seconds 25 msec
