                         Program Version 5.0.0 -  RELEASE  -
|  1> !PBE0 D3BJ RIJCOSX def2-TZVP def2/J TightSCF xyzfile
|  2>
|  3> *xyzfile 0 1 D3.xyz
|  4>
|  5> %MaxCore 64000
|  6>
|  7> %pal nprocs 18
|  8> end
|  9>
| 10> %scf
| 11>   MaxIter 150
| 12> end
| 13>
| 14>
| 15>                          ****END OF INPUT****

CARTESIAN COORDINATES (ANGSTROEM)
---------------------------------
  C      2.234473   -2.989754   -2.397622
  N      2.756799   -2.945553   -3.765029
  C     -1.104325    0.251374   -2.860056
  C     -0.711893    0.842517   -4.218344
  H      0.154626    1.499800   -4.130909
  H     -1.538134    1.459222   -4.582671
  C     -0.397624   -0.205875   -5.288018
  C      1.987208   -2.590451   -4.818975
  N      0.743221   -3.017493   -4.913524
  C      2.499636   -1.848598   -5.803241
  H      3.309780   -1.292818   -5.558947
  H      1.801025   -1.304298   -6.289129
  H      3.716116   -2.628797   -3.829533
  H      0.395828   -3.627747   -4.185024
  H      0.039201   -2.454383   -5.371367
  F      0.617165   -0.005348   -5.998273
  O     -1.133173   -1.221380   -5.341465
  C      2.191199   -1.619503   -1.715492
  H      2.872783   -3.666368   -1.828014
  H      1.246188   -3.447444   -2.407842
  C      1.298729   -0.554314   -2.359773
  H      1.872917   -1.787955   -0.681310
  H      3.216809   -1.238432   -1.654428
  C     -0.196255   -0.863365   -2.325763
  H      1.612531   -0.371346   -3.393065
  H      1.480944    0.388638   -1.834444
  H     -0.404105   -1.761825   -2.909448
  H     -0.490439   -1.087880   -1.294131
  H     -1.143842    1.066711   -2.129680
  H     -2.114401   -0.156834   -2.930323

 Total Charge           Charge          ....    0
 Multiplicity           Mult            ....    1
 Number of Electrons    NEL             ....  102
 Basis Dimension        Dim             ....  505

ORBITAL ENERGIES
----------------

  NO   OCC          E(Eh)            E(eV)
   0   2.0000     -24.852759      -676.2780
   1   2.0000     -19.231549      -523.3171
   2   2.0000     -14.376949      -391.2167
   3   2.0000     -14.358062      -390.7027
   4   2.0000     -10.416875      -283.4576
   5   2.0000     -10.261139      -279.2198
   6   2.0000     -10.255952      -279.0786
   7   2.0000     -10.255492      -279.0661
   8   2.0000     -10.241342      -278.6811
   9   2.0000     -10.225541      -278.2511
  10   2.0000     -10.225486      -278.2496
  11   2.0000     -10.224786      -278.2306
  12   2.0000     -10.117427      -275.3092
  13   2.0000      -1.367022       -37.1986
  14   2.0000      -1.088790       -29.6275
  15   2.0000      -0.984648       -26.7936
  16   2.0000      -0.901053       -24.5189
  17   2.0000      -0.853915       -23.2362
  18   2.0000      -0.814053       -22.1515
  19   2.0000      -0.767748       -20.8915
  20   2.0000      -0.731843       -19.9145
  21   2.0000      -0.709788       -19.3143
  22   2.0000      -0.674355       -18.3501
  23   2.0000      -0.636885       -17.3305
  24   2.0000      -0.612855       -16.6766
  25   2.0000      -0.597659       -16.2631
  26   2.0000      -0.577014       -15.7013
  27   2.0000      -0.560465       -15.2510
  28   2.0000      -0.548643       -14.9293
  29   2.0000      -0.540808       -14.7161
  30   2.0000      -0.507035       -13.7971
  31   2.0000      -0.496165       -13.5013
  32   2.0000      -0.488294       -13.2872
  33   2.0000      -0.477347       -12.9893
  34   2.0000      -0.462694       -12.5906
  35   2.0000      -0.449580       -12.2337
  36   2.0000      -0.428634       -11.6637
  37   2.0000      -0.423847       -11.5335
  38   2.0000      -0.404672       -11.0117
  39   2.0000      -0.394555       -10.7364
  40   2.0000      -0.390708       -10.6317
  41   2.0000      -0.381577       -10.3832
  42   2.0000      -0.374528       -10.1914
  43   2.0000      -0.370145       -10.0722
  44   2.0000      -0.358376        -9.7519
  45   2.0000      -0.346346        -9.4245
  46   2.0000      -0.343615        -9.3503
  47   2.0000      -0.336975        -9.1696
  48   2.0000      -0.322977        -8.7887
  49   2.0000      -0.252306        -6.8656
  50   2.0000      -0.170140        -4.6297
  51   0.0000      -0.043001        -1.1701
  52   0.0000       0.030368         0.8264
  53   0.0000       0.046468         1.2644
  54   0.0000       0.049012         1.3337
  55   0.0000       0.062822         1.7095

MULLIKEN ATOMIC CHARGES
-----------------------
   0 C :   -0.185756
   1 N :   -0.249971
   2 C :   -0.176210
   3 C :   -0.217066
   4 H :    0.133712
   5 H :    0.148083
   6 C :    0.370020
   7 C :    0.122284
   8 N :   -0.411652
   9 C :   -0.399345
  10 H :    0.067457
  11 H :    0.065675
  12 H :    0.212956
  13 H :    0.211141
  14 H :    0.253464
  15 F :   -0.079733
  16 O :   -0.361274
  17 C :   -0.187952
  18 H :    0.132450
  19 H :    0.109035
  20 C :   -0.176341
  21 H :    0.091648
  22 H :    0.106458
  23 C :   -0.240412
  24 H :    0.125340
  25 H :    0.100934
  26 H :    0.098991
  27 H :    0.102816
  28 H :    0.114667
  29 H :    0.118580
Sum of atomic charges:    0.0000000

LOEWDIN ATOMIC CHARGES
----------------------
   0 C :   -0.297455
   1 N :    0.109214
   2 C :   -0.257528
   3 C :   -0.235362
   4 H :    0.148869
   5 H :    0.161701
   6 C :   -0.487604
   7 C :   -0.491619
   8 N :    0.020993
   9 C :   -0.359523
  10 H :    0.093362
  11 H :    0.095051
  12 H :    0.189392
  13 H :    0.157732
  14 H :    0.156552
  15 F :    0.353106
  16 O :    0.072673
  17 C :   -0.273544
  18 H :    0.134219
  19 H :    0.128466
  20 C :   -0.270157
  21 H :    0.139310
  22 H :    0.138240
  23 C :   -0.273659
  24 H :    0.143834
  25 H :    0.139244
  26 H :    0.135441
  27 H :    0.139462
  28 H :    0.142818
  29 H :    0.146775

  Mayer bond orders larger than 0.100000
B(  0-C ,  1-N ) :   0.9694 B(  0-C , 17-C ) :   0.9950 B(  0-C , 18-H ) :   0.9689
B(  0-C , 19-H ) :   0.9802 B(  1-N ,  7-C ) :   1.2081 B(  1-N , 12-H ) :   0.9165
B(  2-C ,  3-C ) :   0.9965 B(  2-C , 23-C ) :   1.0141 B(  2-C , 28-H ) :   0.9536
B(  2-C , 29-H ) :   0.9518 B(  3-C ,  4-H ) :   0.9466 B(  3-C ,  5-H ) :   0.9230
B(  3-C ,  6-C ) :   1.0279 B(  6-C , 15-F ) :   1.1683 B(  6-C , 16-O ) :   1.9541
B(  7-C ,  8-N ) :   1.1829 B(  7-C ,  9-C ) :   1.7024 B(  8-N , 13-H ) :   0.9254
B(  8-N , 14-H ) :   0.8592 B(  9-C , 10-H ) :   0.9989 B(  9-C , 11-H ) :   1.0045
B( 17-C , 20-C ) :   0.9958 B( 17-C , 21-H ) :   0.9498 B( 17-C , 22-H ) :   0.9587
B( 20-C , 23-C ) :   0.9820 B( 20-C , 24-H ) :   0.9446 B( 20-C , 25-H ) :   0.9540
B( 23-C , 26-H ) :   0.9591 B( 23-C , 27-H ) :   0.9548

Dispersion correction           -0.030689422
FINAL SINGLE POINT ENERGY      -637.245931965131

DIPOLE MOMENT
-------------
                                X             Y             Z
Electronic contribution:     -2.86106       1.32573     -12.75920
Nuclear contribution   :      2.27881      -0.10762      14.43322
                        -----------------------------------------
Total Dipole Moment    :     -0.58226       1.21811       1.67401
                        -----------------------------------------
Magnitude (a.u.)       :      2.15061
Magnitude (Debye)      :      5.46643

Rotational constants in cm-1:     0.033336     0.023673     0.017062
Rotational constants in MHz :   999.388459   709.685364   511.514310

                             ****ORCA TERMINATED NORMALLY****
TOTAL RUN TIME: 0 days 0 hours 0 minutes 57 seconds 106 msec
