                         Program Version 5.0.0 -  RELEASE  -
|  1> !PBE0 D3BJ RIJCOSX def2-TZVP def2/J TightSCF xyzfile
|  2>
|  3> *xyzfile 0 1 D5.xyz
|  4>
|  5> %MaxCore 64000
|  6>
|  7> %pal nprocs 18
|  8> end
|  9>
| 10> %scf
| 11>   MaxIter 150
| 12> end
| 13>
| 14>
| 15>                          ****END OF INPUT****

CARTESIAN COORDINATES (ANGSTROEM)
---------------------------------
  C      2.234473   -2.989754   -2.397622
  N      2.756799   -2.945553   -3.765029
  C     -1.104325    0.251374   -2.860056
  C     -0.711893    0.842517   -4.218344
  H      0.154626    1.499800   -4.130909
  H     -1.538134    1.459222   -4.582671
  C     -0.397624   -0.205875   -5.288018
  C      1.987208   -2.590451   -4.818975
  C      0.743221   -3.017493   -4.913524
  N      2.499636   -1.848598   -5.803241
  H      3.309780   -1.292818   -5.558947
  H      1.801025   -1.304298   -6.289129
  H      3.716116   -2.628797   -3.829533
  H      0.395828   -3.627747   -4.185024
  H      0.039201   -2.454383   -5.371367
  O      0.617165   -0.005348   -5.998273
  F     -1.133173   -1.221380   -5.341465
  C      2.191199   -1.619503   -1.715492
  H      2.872783   -3.666368   -1.828014
  H      1.246188   -3.447444   -2.407842
  C      1.298729   -0.554314   -2.359773
  H      1.872917   -1.787955   -0.681310
  H      3.216809   -1.238432   -1.654428
  C     -0.196255   -0.863365   -2.325763
  H      1.612531   -0.371346   -3.393065
  H      1.480944    0.388638   -1.834444
  H     -0.404105   -1.761825   -2.909448
  H     -0.490439   -1.087880   -1.294131
  H     -1.143842    1.066711   -2.129680
  H     -2.114401   -0.156834   -2.930323

 Total Charge           Charge          ....    0
 Multiplicity           Mult            ....    1
 Number of Electrons    NEL             ....  102
 Basis Dimension        Dim             ....  505

ORBITAL ENERGIES
----------------

  NO   OCC          E(Eh)            E(eV)
   0   2.0000     -24.847952      -676.1472
   1   2.0000     -19.224400      -523.1225
   2   2.0000     -14.377488      -391.2313
   3   2.0000     -14.355599      -390.6357
   4   2.0000     -10.409647      -283.2609
   5   2.0000     -10.255613      -279.0694
   6   2.0000     -10.252549      -278.9861
   7   2.0000     -10.249037      -278.8905
   8   2.0000     -10.238520      -278.6043
   9   2.0000     -10.222149      -278.1588
  10   2.0000     -10.221213      -278.1333
  11   2.0000     -10.220912      -278.1252
  12   2.0000     -10.121165      -275.4109
  13   2.0000      -1.363247       -37.0958
  14   2.0000      -1.079524       -29.3753
  15   2.0000      -0.981693       -26.7132
  16   2.0000      -0.899874       -24.4868
  17   2.0000      -0.851241       -23.1635
  18   2.0000      -0.808527       -22.0011
  19   2.0000      -0.757257       -20.6060
  20   2.0000      -0.727657       -19.8006
  21   2.0000      -0.708571       -19.2812
  22   2.0000      -0.682442       -18.5702
  23   2.0000      -0.637881       -17.3576
  24   2.0000      -0.604005       -16.4358
  25   2.0000      -0.587770       -15.9940
  26   2.0000      -0.570830       -15.5331
  27   2.0000      -0.559092       -15.2137
  28   2.0000      -0.543695       -14.7947
  29   2.0000      -0.533654       -14.5215
  30   2.0000      -0.502622       -13.6770
  31   2.0000      -0.495510       -13.4835
  32   2.0000      -0.487553       -13.2670
  33   2.0000      -0.464589       -12.6421
  34   2.0000      -0.457516       -12.4496
  35   2.0000      -0.434819       -11.8320
  36   2.0000      -0.429356       -11.6834
  37   2.0000      -0.423185       -11.5154
  38   2.0000      -0.405835       -11.0433
  39   2.0000      -0.399996       -10.8845
  40   2.0000      -0.389325       -10.5941
  41   2.0000      -0.383350       -10.4315
  42   2.0000      -0.371140       -10.0992
  43   2.0000      -0.369421       -10.0525
  44   2.0000      -0.354403        -9.6438
  45   2.0000      -0.341389        -9.2897
  46   2.0000      -0.340595        -9.2681
  47   2.0000      -0.331805        -9.0289
  48   2.0000      -0.313629        -8.5343
  49   2.0000      -0.249880        -6.7996
  50   2.0000      -0.175552        -4.7770
  51   0.0000      -0.033341        -0.9073
  52   0.0000       0.029888         0.8133
  53   0.0000       0.042655         1.1607
  54   0.0000       0.058226         1.5844
  55   0.0000       0.064373         1.7517

MULLIKEN ATOMIC CHARGES
-----------------------
   0 C :   -0.143469
   1 N :   -0.266103
   2 C :   -0.205181
   3 C :   -0.203203
   4 H :    0.140370
   5 H :    0.142722
   6 C :    0.366897
   7 C :    0.158491
   8 C :   -0.491769
   9 N :   -0.385931
  10 H :    0.196033
  11 H :    0.254937
  12 H :    0.189171
  13 H :    0.085257
  14 H :    0.109659
  15 O :   -0.378863
  16 F :   -0.086580
  17 C :   -0.214195
  18 H :    0.125903
  19 H :    0.126700
  20 C :   -0.163084
  21 H :    0.093128
  22 H :    0.101726
  23 C :   -0.228243
  24 H :    0.121920
  25 H :    0.098381
  26 H :    0.123272
  27 H :    0.100330
  28 H :    0.114002
  29 H :    0.117724
Sum of atomic charges:    0.0000000

LOEWDIN ATOMIC CHARGES
----------------------
   0 C :   -0.283644
   1 N :    0.109054
   2 C :   -0.267285
   3 C :   -0.233065
   4 H :    0.157163
   5 H :    0.157180
   6 C :   -0.490607
   7 C :   -0.487282
   8 C :   -0.323978
   9 N :   -0.009627
  10 H :    0.151941
  11 H :    0.165444
  12 H :    0.174271
  13 H :    0.096621
  14 H :    0.093237
  15 O :    0.065988
  16 F :    0.348546
  17 C :   -0.274475
  18 H :    0.132904
  19 H :    0.138537
  20 C :   -0.270525
  21 H :    0.139501
  22 H :    0.135497
  23 C :   -0.273496
  24 H :    0.144042
  25 H :    0.138143
  26 H :    0.141815
  27 H :    0.139018
  28 H :    0.142468
  29 H :    0.142616

  Mayer bond orders larger than 0.100000
B(  0-C ,  1-N ) :   0.9467 B(  0-C , 17-C ) :   1.0091 B(  0-C , 18-H ) :   0.9673
B(  0-C , 19-H ) :   0.9712 B(  1-N ,  7-C ) :   1.1612 B(  1-N , 12-H ) :   0.9198
B(  2-C ,  3-C ) :   0.9771 B(  2-C , 23-C ) :   0.9941 B(  2-C , 28-H ) :   0.9507
B(  2-C , 29-H ) :   0.9631 B(  3-C ,  4-H ) :   0.9517 B(  3-C ,  5-H ) :   0.9278
B(  3-C ,  6-C ) :   1.0304 B(  6-C , 15-O ) :   1.9417 B(  6-C , 16-F ) :   1.1582
B(  7-C ,  8-C ) :   1.6233 B(  7-C ,  9-N ) :   1.2255 B(  8-C , 13-H ) :   1.0125
B(  8-C , 14-H ) :   0.9918 B(  9-N , 10-H ) :   0.9207 B(  9-N , 11-H ) :   0.8783
B( 17-C , 20-C ) :   0.9987 B( 17-C , 21-H ) :   0.9521 B( 17-C , 22-H ) :   0.9622
B( 20-C , 23-C ) :   0.9749 B( 20-C , 24-H ) :   0.9424 B( 20-C , 25-H ) :   0.9570
B( 23-C , 26-H ) :   0.9642 B( 23-C , 27-H ) :   0.9561

Dispersion correction           -0.030774304
FINAL SINGLE POINT ENERGY      -637.250610787222

DIPOLE MOMENT
-------------
                                X             Y             Z
Electronic contribution:     -4.31846       0.18848     -12.43951
Nuclear contribution   :      4.07548       1.14852      13.79455
                        -----------------------------------------
Total Dipole Moment    :     -0.24298       1.33700       1.35504
                        -----------------------------------------
Magnitude (a.u.)       :      1.91905
Magnitude (Debye)      :      4.87784

Rotational constants in cm-1:     0.033274     0.023559     0.016968
Rotational constants in MHz :   997.539108   706.293545   508.690532

                             ****ORCA TERMINATED NORMALLY****
TOTAL RUN TIME: 0 days 0 hours 0 minutes 54 seconds 207 msec
