                         Program Version 5.0.0 -  RELEASE  -
|  1> !CAM-B3LYP RIJCOSX def2-SVPD def2/J TightSCF
|  2> *xyz -1 1
|  3> C          0.96805        1.63064       -3.71575
|  4> C         -0.50835        1.72268       -4.12430
|  5> S         -1.32861        0.14674       -4.43578
|  6> H         -0.59151        2.29496       -5.04722
|  7> H         -1.11411        2.23561       -3.37436
|  8> O         -2.57135        0.47573       -5.06834
|  9> O         -1.51496       -0.40051       -3.06342
| 10> O         -0.37793       -0.62756       -5.20114
| 11> H          1.51840        1.12197       -4.47946
| 12> H          1.05062        1.08971       -2.79625
| 13> H          1.36450        2.61606       -3.58668
| 14> *
| 15> %MaxCore 64000
| 16>
| 17> %pal nprocs 4
| 18> end
| 19>
| 20> %scf
| 21>   MaxIter 150
| 22> end
| 23>
| 24>
| 25>                          ****END OF INPUT****

CARTESIAN COORDINATES (ANGSTROEM)
---------------------------------
  C      0.968050    1.630640   -3.715750
  C     -0.508350    1.722680   -4.124300
  S     -1.328610    0.146740   -4.435780
  H     -0.591510    2.294960   -5.047220
  H     -1.114110    2.235610   -3.374360
  O     -2.571350    0.475730   -5.068340
  O     -1.514960   -0.400510   -3.063420
  O     -0.377930   -0.627560   -5.201140
  H      1.518400    1.121970   -4.479460
  H      1.050620    1.089710   -2.796250
  H      1.364500    2.616060   -3.586680

 Total Charge           Charge          ....   -1
 Multiplicity           Mult            ....    1
 Number of Electrons    NEL             ....   58
 Basis Dimension        Dim             ....  176

ORBITAL ENERGIES
----------------

  NO   OCC          E(Eh)            E(eV)
   0   2.0000     -88.963052     -2420.8077
   1   2.0000     -19.000842      -517.0392
   2   2.0000     -18.997338      -516.9438
   3   2.0000     -18.981516      -516.5133
   4   2.0000     -10.121247      -275.4131
   5   2.0000     -10.116785      -275.2917
   6   2.0000      -8.016286      -218.1342
   7   2.0000      -5.986267      -162.8946
   8   2.0000      -5.986042      -162.8885
   9   2.0000      -5.985662      -162.8781
  10   2.0000      -1.020421       -27.7671
  11   2.0000      -0.880868       -23.9696
  12   2.0000      -0.849279       -23.1101
  13   2.0000      -0.709425       -19.3044
  14   2.0000      -0.583389       -15.8748
  15   2.0000      -0.456136       -12.4121
  16   2.0000      -0.392805       -10.6888
  17   2.0000      -0.389491       -10.5986
  18   2.0000      -0.350868        -9.5476
  19   2.0000      -0.338638        -9.2148
  20   2.0000      -0.329606        -8.9690
  21   2.0000      -0.298722        -8.1286
  22   2.0000      -0.282603        -7.6900
  23   2.0000      -0.224878        -6.1192
  24   2.0000      -0.224074        -6.0974
  25   2.0000      -0.189487        -5.1562
  26   2.0000      -0.176932        -4.8146
  27   2.0000      -0.164616        -4.4794
  28   2.0000      -0.134028        -3.6471
  29   0.0000       0.169928         4.6240
  30   0.0000       0.194228         5.2852
  31   0.0000       0.201232         5.4758
  32   0.0000       0.207081         5.6350
  33   0.0000       0.227697         6.1959

MULLIKEN ATOMIC CHARGES
-----------------------
   0 C :    0.953233
   1 C :   -0.190281
   2 S :    1.330242
   3 H :   -0.127094
   4 H :   -0.127297
   5 O :   -0.773684
   6 O :   -0.843211
   7 O :   -0.799438
   8 H :   -0.120022
   9 H :   -0.127727
  10 H :   -0.174721
Sum of atomic charges:   -1.0000000

LOEWDIN ATOMIC CHARGES
----------------------
   0 C :    0.106892
   1 C :   -0.132441
   2 S :    0.856230
   3 H :   -0.003046
   4 H :    0.003959
   5 O :   -0.572324
   6 O :   -0.605615
   7 O :   -0.575755
   8 H :   -0.025156
   9 H :   -0.017480
  10 H :   -0.035265

  Mayer bond orders larger than 0.100000
B(  0-C ,  1-C ) :   1.2552 B(  0-C ,  3-H ) :   0.1074 B(  0-C ,  8-H ) :   0.7874
B(  0-C ,  9-H ) :   0.7814 B(  0-C , 10-H ) :   0.6957 B(  1-C ,  2-S ) :   0.9183
B(  1-C ,  3-H ) :   0.9713 B(  1-C ,  4-H ) :   0.9610 B(  1-C ,  8-H ) :   0.2137
B(  1-C ,  9-H ) :   0.2055 B(  1-C , 10-H ) :   0.2390 B(  2-S ,  5-O ) :   1.3549
B(  2-S ,  6-O ) :   1.2640 B(  2-S ,  7-O ) :   1.3013

FINAL SINGLE POINT ENERGY      -702.670219706104

DIPOLE MOMENT
-------------
                                X             Y             Z
Electronic contribution:     -5.52946      -5.20404      -1.92427
Nuclear contribution   :      6.64523       6.80157       2.07300
                        -----------------------------------------
Total Dipole Moment    :      1.11577       1.59753       0.14873
                        -----------------------------------------
Magnitude (a.u.)       :      1.95427
Magnitude (Debye)      :      4.96735

Rotational constants in cm-1:     0.163070     0.082807     0.081541
Rotational constants in MHz :  4888.719902  2482.497026  2444.541148

                             ****ORCA TERMINATED NORMALLY****
TOTAL RUN TIME: 0 days 0 hours 0 minutes 30 seconds 444 msec
