                         Program Version 5.0.0 -  RELEASE  -
|  1> !CAM-B3LYP RIJCOSX def2-SVPD def2/J TightSCF
|  2> *xyz 1 1
|  3> C          1.36401        0.46874       -2.81376
|  4> N          0.42884        0.32140       -1.65531
|  5> C          0.96805        1.63064       -3.71575
|  6> H          0.74858       -0.40054       -1.00134
|  7> H         -0.46105        0.02333       -2.07773
|  8> H          0.31026        1.20137       -1.13495
|  9> H          1.29485       -0.46874       -3.36468
| 10> H          2.37622        0.59740       -2.43149
| 11> H          1.65923        1.70213       -4.52942
| 12> H          0.98421        2.54058       -3.15304
| 13> H         -0.01744        1.46536       -4.09838
| 14> *
| 15> %MaxCore 64000
| 16>
| 17> %pal nprocs 4
| 18> end
| 19>
| 20> %scf
| 21>   MaxIter 150
| 22> end
| 23>
| 24>
| 25>                          ****END OF INPUT****

CARTESIAN COORDINATES (ANGSTROEM)
---------------------------------
  C      1.364010    0.468740   -2.813760
  N      0.428840    0.321400   -1.655310
  C      0.968050    1.630640   -3.715750
  H      0.748580   -0.400540   -1.001340
  H     -0.461050    0.023330   -2.077730
  H      0.310260    1.201370   -1.134950
  H      1.294850   -0.468740   -3.364680
  H      2.376220    0.597400   -2.431490
  H      1.659230    1.702130   -4.529420
  H      0.984210    2.540580   -3.153040
  H     -0.017440    1.465360   -4.098380

 Total Charge           Charge          ....    1
 Multiplicity           Mult            ....    1
 Number of Electrons    NEL             ....   26
 Basis Dimension        Dim             ....  124

ORBITAL ENERGIES
----------------

  NO   OCC          E(Eh)            E(eV)
   0   2.0000     -14.741685      -401.1416
   1   2.0000     -10.514779      -286.1217
   2   2.0000     -10.436178      -283.9828
   3   2.0000      -1.290790       -35.1242
   4   2.0000      -1.042336       -28.3634
   5   2.0000      -0.917906       -24.9775
   6   2.0000      -0.878400       -23.9025
   7   2.0000      -0.861274       -23.4365
   8   2.0000      -0.764840       -20.8124
   9   2.0000      -0.715495       -19.4696
  10   2.0000      -0.652874       -17.7656
  11   2.0000      -0.635821       -17.3016
  12   2.0000      -0.620164       -16.8755
  13   0.0000      -0.159128        -4.3301
  14   0.0000      -0.098105        -2.6696
  15   0.0000      -0.095135        -2.5888
  16   0.0000      -0.088193        -2.3999
  17   0.0000      -0.057232        -1.5573

MULLIKEN ATOMIC CHARGES
-----------------------
   0 C :    0.337477
   1 N :   -0.703564
   2 C :    0.809510
   3 H :    0.311535
   4 H :    0.409860
   5 H :    0.368835
   6 H :   -0.132872
   7 H :   -0.186110
   8 H :   -0.074883
   9 H :   -0.077972
  10 H :   -0.061817
Sum of atomic charges:    1.0000000

LOEWDIN ATOMIC CHARGES
----------------------
   0 C :    0.050018
   1 N :    0.332374
   2 C :    0.173394
   3 H :    0.106819
   4 H :    0.106431
   5 H :    0.109666
   6 H :    0.052872
   7 H :    0.052116
   8 H :    0.016216
   9 H :    0.000017
  10 H :    0.000077

  Mayer bond orders larger than 0.100000
B(  0-C ,  1-N ) :   0.7977 B(  0-C ,  2-C ) :   1.2980 B(  0-C ,  6-H ) :   0.8834
B(  0-C ,  7-H ) :   0.9327 B(  0-C ,  8-H ) :   0.2087 B(  0-C ,  9-H ) :   0.1607
B(  0-C , 10-H ) :   0.1662 B(  1-N ,  3-H ) :   0.8229 B(  1-N ,  4-H ) :   0.7151
B(  1-N ,  5-H ) :   0.7659 B(  1-N ,  6-H ) :   0.1310 B(  2-C ,  8-H ) :   0.7752
B(  2-C ,  9-H ) :   0.8092 B(  2-C , 10-H ) :   0.8000

FINAL SINGLE POINT ENERGY      -135.361741244091

DIPOLE MOMENT
-------------
                                X             Y             Z
Electronic contribution:     -0.34648      -0.95110       1.57538
Nuclear contribution   :     -0.20470       0.31427      -0.31587
                        -----------------------------------------
Total Dipole Moment    :     -0.55118      -0.63683       1.25952
                        -----------------------------------------
Magnitude (a.u.)       :      1.51517
Magnitude (Debye)      :      3.85126

Rotational constants in cm-1:     1.011480     0.279280     0.248378
Rotational constants in MHz : 30323.408050  8372.602834  7446.185305

                             ****ORCA TERMINATED NORMALLY****
TOTAL RUN TIME: 0 days 0 hours 0 minutes 16 seconds 455 msec
