                         Program Version 5.0.0 -  RELEASE  -
|  1> !CAM-B3LYP RIJCOSX def2-SVPD def2/J TightSCF
|  2> *xyz 0 1
|  3> C          0.96805        1.63064       -3.71575
|  4> C         -0.50835        1.72268       -4.12430
|  5> S         -1.32861        0.14674       -4.43578
|  6> H         -0.59151        2.29496       -5.04722
|  7> H         -1.11411        2.23561       -3.37436
|  8> F         -2.57135        0.47573       -5.06834
|  9> O         -1.51496       -0.40051       -3.06342
| 10> O         -0.37793       -0.62756       -5.20114
| 11> H          1.51840        1.12197       -4.47946
| 12> H          1.05062        1.08971       -2.79625
| 13> H          1.36450        2.61606       -3.58668
| 14> *
| 15> %MaxCore 64000
| 16>
| 17> %pal nprocs 4
| 18> end
| 19>
| 20> %scf
| 21>   MaxIter 150
| 22> end
| 23>
| 24>
| 25>                          ****END OF INPUT****

CARTESIAN COORDINATES (ANGSTROEM)
---------------------------------
  C      0.968050    1.630640   -3.715750
  C     -0.508350    1.722680   -4.124300
  S     -1.328610    0.146740   -4.435780
  H     -0.591510    2.294960   -5.047220
  H     -1.114110    2.235610   -3.374360
  F     -2.571350    0.475730   -5.068340
  O     -1.514960   -0.400510   -3.063420
  O     -0.377930   -0.627560   -5.201140
  H      1.518400    1.121970   -4.479460
  H      1.050620    1.089710   -2.796250
  H      1.364500    2.616060   -3.586680

 Total Charge           Charge          ....    0
 Multiplicity           Mult            ....    1
 Number of Electrons    NEL             ....   58
 Basis Dimension        Dim             ....  176

ORBITAL ENERGIES
----------------

  NO   OCC          E(Eh)            E(eV)
   0   2.0000     -89.223549     -2427.8962
   1   2.0000     -24.902652      -677.6356
   2   2.0000     -19.232026      -523.3300
   3   2.0000     -19.215869      -522.8904
   4   2.0000     -10.324077      -280.9324
   5   2.0000     -10.280009      -279.7333
   6   2.0000      -8.277703      -225.2478
   7   2.0000      -6.251831      -170.1210
   8   2.0000      -6.245205      -169.9407
   9   2.0000      -6.243897      -169.9051
  10   2.0000      -1.474063       -40.1113
  11   2.0000      -1.193560       -32.4784
  12   2.0000      -1.084764       -29.5179
  13   2.0000      -0.901610       -24.5341
  14   2.0000      -0.822618       -22.3846
  15   2.0000      -0.758500       -20.6398
  16   2.0000      -0.676469       -18.4077
  17   2.0000      -0.672925       -18.3112
  18   2.0000      -0.633900       -17.2493
  19   2.0000      -0.567804       -15.4507
  20   2.0000      -0.560015       -15.2388
  21   2.0000      -0.517177       -14.0731
  22   2.0000      -0.503375       -13.6975
  23   2.0000      -0.478887       -13.0312
  24   2.0000      -0.458029       -12.4636
  25   2.0000      -0.456645       -12.4259
  26   2.0000      -0.405064       -11.0223
  27   2.0000      -0.387851       -10.5540
  28   2.0000      -0.375240       -10.2108
  29   0.0000       0.023542         0.6406
  30   0.0000       0.050337         1.3697
  31   0.0000       0.061402         1.6708
  32   0.0000       0.063705         1.7335
  33   0.0000       0.086554         2.3553

MULLIKEN ATOMIC CHARGES
-----------------------
   0 C :    0.948803
   1 C :   -0.231279
   2 S :    1.500869
   3 H :   -0.070613
   4 H :   -0.071184
   5 F :   -0.396564
   6 O :   -0.691661
   7 O :   -0.649400
   8 H :   -0.095829
   9 H :   -0.107467
  10 H :   -0.135676
Sum of atomic charges:    0.0000000

LOEWDIN ATOMIC CHARGES
----------------------
   0 C :    0.150961
   1 C :   -0.096176
   2 S :    1.122912
   3 H :    0.014741
   4 H :    0.022997
   5 F :   -0.249330
   6 O :   -0.489891
   7 O :   -0.464695
   8 H :   -0.007312
   9 H :    0.000097
  10 H :   -0.004303

  Mayer bond orders larger than 0.100000
B(  0-C ,  1-C ) :   1.3174 B(  0-C ,  3-H ) :   0.1086 B(  0-C ,  8-H ) :   0.7846
B(  0-C ,  9-H ) :   0.7830 B(  0-C , 10-H ) :   0.7096 B(  1-C ,  2-S ) :   0.9562
B(  1-C ,  3-H ) :   0.9505 B(  1-C ,  4-H ) :   0.9549 B(  1-C ,  8-H ) :   0.2069
B(  1-C ,  9-H ) :   0.1993 B(  1-C , 10-H ) :   0.2292 B(  2-S ,  5-F ) :   0.7103
B(  2-S ,  6-O ) :   1.4749 B(  2-S ,  7-O ) :   1.5184

FINAL SINGLE POINT ENERGY      -727.149640907511

DIPOLE MOMENT
-------------
                                X             Y             Z
Electronic contribution:     -8.29419      -5.06411      -3.23683
Nuclear contribution   :      8.31000       6.74109       2.87442
                        -----------------------------------------
Total Dipole Moment    :      0.01582       1.67698      -0.36241
                        -----------------------------------------
Magnitude (a.u.)       :      1.71577
Magnitude (Debye)      :      4.36114

Rotational constants in cm-1:     0.158705     0.080192     0.078179
Rotational constants in MHz :  4757.865601  2404.095079  2343.752507

                             ****ORCA TERMINATED NORMALLY****
TOTAL RUN TIME: 0 days 0 hours 0 minutes 33 seconds 824 msec
