                         Program Version 5.0.0 -  RELEASE  -
|  1> !CAM-B3LYP RIJCOSX def2-SVPD def2/J TightSCF
|  2> *xyz 0 1
|  3> C          1.36401        0.46874       -2.81376
|  4> C          0.42884        0.32140       -1.65531
|  5> C          0.96805        1.63064       -3.71575
|  6> H          0.74858       -0.40054       -1.00134
|  7> H         -0.46105        0.02333       -2.07773
|  8> H          0.31026        1.20137       -1.13495
|  9> H          1.29485       -0.46874       -3.36468
| 10> H          2.37622        0.59740       -2.43149
| 11> H          1.65923        1.70213       -4.52942
| 12> H          0.98421        2.54058       -3.15304
| 13> H         -0.01744        1.46536       -4.09838
| 14> *
| 15> %MaxCore 64000
| 16>
| 17> %pal nprocs 4
| 18> end
| 19>
| 20> %scf
| 21>   MaxIter 150
| 22> end
| 23>
| 24>
| 25>                          ****END OF INPUT****

CARTESIAN COORDINATES (ANGSTROEM)
---------------------------------
  C      1.364010    0.468740   -2.813760
  C      0.428840    0.321400   -1.655310
  C      0.968050    1.630640   -3.715750
  H      0.748580   -0.400540   -1.001340
  H     -0.461050    0.023330   -2.077730
  H      0.310260    1.201370   -1.134950
  H      1.294850   -0.468740   -3.364680
  H      2.376220    0.597400   -2.431490
  H      1.659230    1.702130   -4.529420
  H      0.984210    2.540580   -3.153040
  H     -0.017440    1.465360   -4.098380

 Total Charge           Charge          ....    0
 Multiplicity           Mult            ....    1
 Number of Electrons    NEL             ....   26
 Basis Dimension        Dim             ....  124

ORBITAL ENERGIES
----------------

  NO   OCC          E(Eh)            E(eV)
   0   2.0000     -10.245477      -278.7936
   1   2.0000     -10.237637      -278.5803
   2   2.0000     -10.221304      -278.1358
   3   2.0000      -0.868955       -23.6455
   4   2.0000      -0.764413       -20.8007
   5   2.0000      -0.656009       -17.8509
   6   2.0000      -0.543203       -14.7813
   7   2.0000      -0.515761       -14.0346
   8   2.0000      -0.471029       -12.8174
   9   2.0000      -0.458613       -12.4795
  10   2.0000      -0.402994       -10.9660
  11   2.0000      -0.398140       -10.8339
  12   2.0000      -0.393953       -10.7200
  13   0.0000       0.056323         1.5326
  14   0.0000       0.083382         2.2689
  15   0.0000       0.090957         2.4751
  16   0.0000       0.117072         3.1857
  17   0.0000       0.135757         3.6941

MULLIKEN ATOMIC CHARGES
-----------------------
   0 C :   -0.449527
   1 C :    1.140553
   2 C :    0.823280
   3 H :   -0.299934
   4 H :   -0.199743
   5 H :   -0.267559
   6 H :   -0.138069
   7 H :   -0.221546
   8 H :   -0.170351
   9 H :   -0.103604
  10 H :   -0.113500
Sum of atomic charges:   -0.0000000

LOEWDIN ATOMIC CHARGES
----------------------
   0 C :   -0.120171
   1 C :    0.116773
   2 C :    0.116493
   3 H :   -0.034783
   4 H :   -0.030702
   5 H :   -0.030049
   6 H :    0.020596
   7 H :    0.018251
   8 H :   -0.021952
   9 H :   -0.017601
  10 H :   -0.016855

  Mayer bond orders larger than 0.100000
B(  0-C ,  1-C ) :   1.2585 B(  0-C ,  2-C ) :   1.2556 B(  0-C ,  3-H ) :   0.2220
B(  0-C ,  4-H ) :   0.2930 B(  0-C ,  5-H ) :   0.2086 B(  0-C ,  6-H ) :   0.8958
B(  0-C ,  7-H ) :   0.9477 B(  0-C ,  8-H ) :   0.1998 B(  0-C ,  9-H ) :   0.1784
B(  0-C , 10-H ) :   0.2043 B(  1-C ,  3-H ) :   0.6684 B(  1-C ,  4-H ) :   0.6590
B(  1-C ,  5-H ) :   0.6920 B(  1-C ,  6-H ) :   0.1251 B(  2-C ,  8-H ) :   0.7924
B(  2-C ,  9-H ) :   0.8019 B(  2-C , 10-H ) :   0.7934

FINAL SINGLE POINT ENERGY      -118.964727035333

DIPOLE MOMENT
-------------
                                X             Y             Z
Electronic contribution:      0.36769      -0.18458      -0.01778
Nuclear contribution   :     -0.35842       0.15752       0.02695
                        -----------------------------------------
Total Dipole Moment    :      0.00927      -0.02706       0.00917
                        -----------------------------------------
Magnitude (a.u.)       :      0.03004
Magnitude (Debye)      :      0.07635

Rotational constants in cm-1:     1.019891     0.293671     0.260247
Rotational constants in MHz : 30575.551403  8804.039097  7802.009261

                             ****ORCA TERMINATED NORMALLY****
TOTAL RUN TIME: 0 days 0 hours 0 minutes 16 seconds 239 msec
