                         Program Version 5.0.0 -  RELEASE  -
|  1> !CAM-B3LYP RIJCOSX def2-SVPD def2/J TightSCF
|  2> *xyz 0 1
|  3> C          0.96805        1.63064       -3.71575
|  4> C         -0.50835        1.72268       -4.12430
|  5> S         -1.32861        0.14674       -4.43578
|  6> H         -0.59151        2.29496       -5.04722
|  7> H         -1.11411        2.23561       -3.37436
|  8> O         -2.57135        0.47573       -5.06834
|  9> F         -1.51496       -0.40051       -3.06342
| 10> O         -0.37793       -0.62756       -5.20114
| 11> H          1.51840        1.12197       -4.47946
| 12> H          1.05062        1.08971       -2.79625
| 13> H          1.36450        2.61606       -3.58668
| 14> *
| 15> %MaxCore 64000
| 16>
| 17> %pal nprocs 4
| 18> end
| 19>
| 20> %scf
| 21>   MaxIter 150
| 22> end
| 23>
| 24>
| 25>                          ****END OF INPUT****

CARTESIAN COORDINATES (ANGSTROEM)
---------------------------------
  C      0.968050    1.630640   -3.715750
  C     -0.508350    1.722680   -4.124300
  S     -1.328610    0.146740   -4.435780
  H     -0.591510    2.294960   -5.047220
  H     -1.114110    2.235610   -3.374360
  O     -2.571350    0.475730   -5.068340
  F     -1.514960   -0.400510   -3.063420
  O     -0.377930   -0.627560   -5.201140
  H      1.518400    1.121970   -4.479460
  H      1.050620    1.089710   -2.796250
  H      1.364500    2.616060   -3.586680

 Total Charge           Charge          ....    0
 Multiplicity           Mult            ....    1
 Number of Electrons    NEL             ....   58
 Basis Dimension        Dim             ....  176

ORBITAL ENERGIES
----------------

  NO   OCC          E(Eh)            E(eV)
   0   2.0000     -89.221007     -2427.8270
   1   2.0000     -24.873999      -676.8559
   2   2.0000     -19.235172      -523.4156
   3   2.0000     -19.231598      -523.3184
   4   2.0000     -10.322956      -280.9019
   5   2.0000     -10.281729      -279.7801
   6   2.0000      -8.274979      -225.1736
   7   2.0000      -6.248897      -170.0411
   8   2.0000      -6.242815      -169.8756
   9   2.0000      -6.241384      -169.8367
  10   2.0000      -1.426177       -38.8083
  11   2.0000      -1.208472       -32.8842
  12   2.0000      -1.111691       -30.2507
  13   2.0000      -0.903106       -24.5748
  14   2.0000      -0.802203       -21.8291
  15   2.0000      -0.750817       -20.4308
  16   2.0000      -0.658328       -17.9140
  17   2.0000      -0.642497       -17.4832
  18   2.0000      -0.625612       -17.0238
  19   2.0000      -0.569961       -15.5094
  20   2.0000      -0.553902       -15.0724
  21   2.0000      -0.533822       -14.5260
  22   2.0000      -0.508439       -13.8353
  23   2.0000      -0.478919       -13.0320
  24   2.0000      -0.474528       -12.9126
  25   2.0000      -0.453853       -12.3500
  26   2.0000      -0.415388       -11.3033
  27   2.0000      -0.401552       -10.9268
  28   2.0000      -0.394859       -10.7447
  29   0.0000       0.024096         0.6557
  30   0.0000       0.055353         1.5062
  31   0.0000       0.061342         1.6692
  32   0.0000       0.063950         1.7402
  33   0.0000       0.086003         2.3403

MULLIKEN ATOMIC CHARGES
-----------------------
   0 C :    0.978435
   1 C :   -0.220896
   2 S :    1.478970
   3 H :   -0.071498
   4 H :   -0.084706
   5 O :   -0.635789
   6 F :   -0.423031
   7 O :   -0.664799
   8 H :   -0.091971
   9 H :   -0.127898
  10 H :   -0.136816
Sum of atomic charges:    0.0000000

LOEWDIN ATOMIC CHARGES
----------------------
   0 C :    0.137575
   1 C :   -0.086125
   2 S :    1.117050
   3 H :    0.029589
   4 H :    0.022011
   5 O :   -0.458696
   6 F :   -0.275711
   7 O :   -0.462929
   8 H :   -0.008698
   9 H :   -0.007589
  10 H :   -0.006476

  Mayer bond orders larger than 0.100000
B(  0-C ,  1-C ) :   1.2840 B(  0-C ,  8-H ) :   0.7913 B(  0-C ,  9-H ) :   0.7720
B(  0-C , 10-H ) :   0.7022 B(  1-C ,  2-S ) :   0.9788 B(  1-C ,  3-H ) :   0.9698
B(  1-C ,  4-H ) :   0.9582 B(  1-C ,  8-H ) :   0.2094 B(  1-C ,  9-H ) :   0.1996
B(  1-C , 10-H ) :   0.2285 B(  2-S ,  5-O ) :   1.5671 B(  2-S ,  6-F ) :   0.6319
B(  2-S ,  7-O ) :   1.5249

FINAL SINGLE POINT ENERGY      -727.174578498262

DIPOLE MOMENT
-------------
                                X             Y             Z
Electronic contribution:     -6.50262      -6.56255       0.19961
Nuclear contribution   :      7.20921       7.65416       0.78523
                        -----------------------------------------
Total Dipole Moment    :      0.70659       1.09161       0.98484
                        -----------------------------------------
Magnitude (a.u.)       :      1.63119
Magnitude (Debye)      :      4.14616

Rotational constants in cm-1:     0.153780     0.081282     0.079816
Rotational constants in MHz :  4610.199589  2436.778679  2392.820729

                             ****ORCA TERMINATED NORMALLY****
TOTAL RUN TIME: 0 days 0 hours 0 minutes 33 seconds 908 msec
