                         Program Version 5.0.0 -  RELEASE  -
|  1> !CAM-B3LYP RIJCOSX def2-SVPD def2/J TightSCF
|  2> *xyz 0 1
|  3> C          0.96805        1.63064       -3.71575
|  4> C         -0.50835        1.72268       -4.12430
|  5> S         -1.32861        0.14674       -4.43578
|  6> H         -0.59151        2.29496       -5.04722
|  7> H         -1.11411        2.23561       -3.37436
|  8> O         -2.57135        0.47573       -5.06834
|  9> O         -1.51496       -0.40051       -3.06342
| 10> F         -0.37793       -0.62756       -5.20114
| 11> H          1.51840        1.12197       -4.47946
| 12> H          1.05062        1.08971       -2.79625
| 13> H          1.36450        2.61606       -3.58668
| 14> *
| 15> %MaxCore 64000
| 16>
| 17> %pal nprocs 4
| 18> end
| 19>
| 20> %scf
| 21>   MaxIter 150
| 22> end
| 23>
| 24>
| 25>                          ****END OF INPUT****

CARTESIAN COORDINATES (ANGSTROEM)
---------------------------------
  C      0.968050    1.630640   -3.715750
  C     -0.508350    1.722680   -4.124300
  S     -1.328610    0.146740   -4.435780
  H     -0.591510    2.294960   -5.047220
  H     -1.114110    2.235610   -3.374360
  O     -2.571350    0.475730   -5.068340
  O     -1.514960   -0.400510   -3.063420
  F     -0.377930   -0.627560   -5.201140
  H      1.518400    1.121970   -4.479460
  H      1.050620    1.089710   -2.796250
  H      1.364500    2.616060   -3.586680

 Total Charge           Charge          ....    0
 Multiplicity           Mult            ....    1
 Number of Electrons    NEL             ....   58
 Basis Dimension        Dim             ....  176

ORBITAL ENERGIES
----------------

  NO   OCC          E(Eh)            E(eV)
   0   2.0000     -89.222850     -2427.8772
   1   2.0000     -24.896661      -677.4726
   2   2.0000     -19.235719      -523.4305
   3   2.0000     -19.215860      -522.8901
   4   2.0000     -10.323859      -280.9265
   5   2.0000     -10.285477      -279.8821
   6   2.0000      -8.276979      -225.2281
   7   2.0000      -6.251170      -170.1030
   8   2.0000      -6.244522      -169.9221
   9   2.0000      -6.243153      -169.8848
  10   2.0000      -1.463318       -39.8189
  11   2.0000      -1.199473       -32.6393
  12   2.0000      -1.087736       -29.5988
  13   2.0000      -0.905506       -24.6401
  14   2.0000      -0.815379       -22.1876
  15   2.0000      -0.760631       -20.6978
  16   2.0000      -0.680001       -18.5038
  17   2.0000      -0.668316       -18.1858
  18   2.0000      -0.624493       -16.9933
  19   2.0000      -0.569532       -15.4978
  20   2.0000      -0.554103       -15.0779
  21   2.0000      -0.527369       -14.3504
  22   2.0000      -0.512085       -13.9346
  23   2.0000      -0.483341       -13.1524
  24   2.0000      -0.468017       -12.7354
  25   2.0000      -0.454734       -12.3740
  26   2.0000      -0.407448       -11.0872
  27   2.0000      -0.388623       -10.5750
  28   2.0000      -0.378148       -10.2899
  29   0.0000       0.020992         0.5712
  30   0.0000       0.054240         1.4760
  31   0.0000       0.059997         1.6326
  32   0.0000       0.064251         1.7483
  33   0.0000       0.085965         2.3392

MULLIKEN ATOMIC CHARGES
-----------------------
   0 C :    0.961913
   1 C :   -0.200509
   2 S :    1.468200
   3 H :   -0.079969
   4 H :   -0.076773
   5 O :   -0.622844
   6 O :   -0.693304
   7 F :   -0.402480
   8 H :   -0.113748
   9 H :   -0.103720
  10 H :   -0.136766
Sum of atomic charges:   -0.0000000

LOEWDIN ATOMIC CHARGES
----------------------
   0 C :    0.136077
   1 C :   -0.084345
   2 S :    1.118853
   3 H :    0.018290
   4 H :    0.035881
   5 O :   -0.457798
   6 O :   -0.488868
   7 F :   -0.255041
   8 H :   -0.013582
   9 H :   -0.003702
  10 H :   -0.005764

  Mayer bond orders larger than 0.100000
B(  0-C ,  1-C ) :   1.2726 B(  0-C ,  3-H ) :   0.1004 B(  0-C ,  8-H ) :   0.7811
B(  0-C ,  9-H ) :   0.7926 B(  0-C , 10-H ) :   0.7044 B(  1-C ,  2-S ) :   0.9812
B(  1-C ,  3-H ) :   0.9760 B(  1-C ,  4-H ) :   0.9615 B(  1-C ,  8-H ) :   0.1977
B(  1-C ,  9-H ) :   0.1983 B(  1-C , 10-H ) :   0.2316 B(  2-S ,  5-O ) :   1.5705
B(  2-S ,  6-O ) :   1.4882 B(  2-S ,  7-F ) :   0.6831

FINAL SINGLE POINT ENERGY      -727.154664901815

DIPOLE MOMENT
-------------
                                X             Y             Z
Electronic contribution:     -4.56382      -6.92077      -3.44817
Nuclear contribution   :      6.02439       7.89075       3.01280
                        -----------------------------------------
Total Dipole Moment    :      1.46057       0.96998      -0.43536
                        -----------------------------------------
Magnitude (a.u.)       :      1.80657
Magnitude (Debye)      :      4.59192

Rotational constants in cm-1:     0.153652     0.082400     0.079295
Rotational constants in MHz :  4606.361242  2470.285703  2377.214112

                             ****ORCA TERMINATED NORMALLY****
TOTAL RUN TIME: 0 days 0 hours 0 minutes 32 seconds 707 msec
