                         Program Version 5.0.0 -  RELEASE  -
|  1> !CAM-B3LYP RIJCOSX def2-SVPD def2/J TightSCF xyzfile
|  2>
|  3> *xyzfile 0 1 D3.xyz
|  4>
|  5> %MaxCore 64000
|  6>
|  7> %pal nprocs 4
|  8> end
|  9>
| 10> %scf
| 11>   MaxIter 150
| 12> end
| 13>
| 14>
| 15>                          ****END OF INPUT****

CARTESIAN COORDINATES (ANGSTROEM)
---------------------------------
  C      1.364014    0.468742   -2.813764
  C      0.428844    0.321402   -1.655312
  C      0.968045    1.630639   -3.715749
  C     -0.508347    1.722679   -4.124300
  S     -1.328608    0.146737   -4.435781
  H     -0.591511    2.294958   -5.047219
  H     -1.114114    2.235610   -3.374362
  H      0.748578   -0.400542   -1.001345
  H     -0.461053    0.023332   -2.077731
  H      0.310258    1.201375   -1.134948
  O     -2.571347    0.475733   -5.068341
  O     -1.514963   -0.400512   -3.063420
  H      1.294847   -0.468742   -3.364684
  H      2.376216    0.597400   -2.431495
  H      1.578688    1.520652   -4.612733
  H      1.266653    2.575988   -3.250448
  F     -0.377928   -0.627558   -5.201141

 Total Charge           Charge          ....    0
 Multiplicity           Mult            ....    1
 Number of Electrons    NEL             ....   74
 Basis Dimension        Dim             ....  248

ORBITAL ENERGIES
----------------

  NO   OCC          E(Eh)            E(eV)
   0   2.0000     -89.230185     -2428.0768
   1   2.0000     -24.901278      -677.5982
   2   2.0000     -19.240075      -523.5491
   3   2.0000     -19.221545      -523.0448
   4   2.0000     -10.323548      -280.9180
   5   2.0000     -10.286495      -279.9098
   6   2.0000     -10.257338      -279.1164
   7   2.0000     -10.192121      -277.3417
   8   2.0000      -8.283705      -225.4111
   9   2.0000      -6.257908      -170.2863
  10   2.0000      -6.251529      -170.1128
  11   2.0000      -6.249732      -170.0639
  12   2.0000      -1.467972       -39.9456
  13   2.0000      -1.206666       -32.8350
  14   2.0000      -1.101585       -29.9756
  15   2.0000      -0.919619       -25.0241
  16   2.0000      -0.855180       -23.2706
  17   2.0000      -0.805103       -21.9080
  18   2.0000      -0.759522       -20.6677
  19   2.0000      -0.695279       -18.9195
  20   2.0000      -0.675247       -18.3744
  21   2.0000      -0.663224       -18.0473
  22   2.0000      -0.620380       -16.8814
  23   2.0000      -0.578741       -15.7483
  24   2.0000      -0.572216       -15.5708
  25   2.0000      -0.546358       -14.8672
  26   2.0000      -0.534231       -14.5372
  27   2.0000      -0.500526       -13.6200
  28   2.0000      -0.483626       -13.1601
  29   2.0000      -0.469525       -12.7764
  30   2.0000      -0.463514       -12.6128
  31   2.0000      -0.437795       -11.9130
  32   2.0000      -0.414573       -11.2811
  33   2.0000      -0.402006       -10.9391
  34   2.0000      -0.399978       -10.8840
  35   2.0000      -0.389971       -10.6116
  36   2.0000      -0.339162        -9.2291
  37   0.0000       0.022240         0.6052
  38   0.0000       0.049499         1.3469
  39   0.0000       0.055649         1.5143
  40   0.0000       0.064007         1.7417
  41   0.0000       0.078934         2.1479

MULLIKEN ATOMIC CHARGES
-----------------------
   0 C :   -0.169054
   1 C :    2.361092
   2 C :    0.435050
   3 C :    0.230283
   4 S :    1.517666
   5 H :   -0.304578
   6 H :    0.155648
   7 H :   -0.194752
   8 H :   -1.371795
   9 H :   -0.214742
  10 O :   -0.666992
  11 O :   -0.804811
  12 H :   -0.012141
  13 H :   -0.405429
  14 H :   -0.065513
  15 H :   -0.082423
  16 F :   -0.407508
Sum of atomic charges:   -0.0000000

LOEWDIN ATOMIC CHARGES
----------------------
   0 C :   -0.052938
   1 C :    0.139295
   2 C :   -0.031789
   3 C :   -0.020721
   4 S :    1.167716
   5 H :    0.019091
   6 H :    0.042157
   7 H :   -0.021879
   8 H :   -0.180114
   9 H :   -0.019760
  10 O :   -0.446353
  11 O :   -0.445781
  12 H :    0.014223
  13 H :    0.024478
  14 H :    0.021786
  15 H :    0.035820
  16 F :   -0.245231

  Mayer bond orders larger than 0.100000
B(  0-C ,  1-C ) :   0.9332 B(  0-C ,  2-C ) :   1.1818 B(  0-C ,  7-H ) :   0.2674
B(  0-C ,  8-H ) :   0.5938 B(  0-C ,  9-H ) :   0.3113 B(  0-C , 12-H ) :   0.7979
B(  0-C , 13-H ) :   0.9082 B(  0-C , 14-H ) :   0.1556 B(  0-C , 15-H ) :   0.1805
B(  1-C ,  7-H ) :   0.3443 B(  1-C ,  8-H ) :  -1.1312 B(  1-C , 11-O ) :  -0.1823
B(  1-C , 12-H ) :   0.1558 B(  2-C ,  3-C ) :   1.2328 B(  2-C ,  5-H ) :   0.2001
B(  2-C ,  6-H ) :   0.1150 B(  2-C , 12-H ) :   0.1544 B(  2-C , 14-H ) :   0.8079
B(  2-C , 15-H ) :   0.7330 B(  3-C ,  4-S ) :   0.9643 B(  3-C ,  5-H ) :   0.8599
B(  3-C ,  6-H ) :   0.8527 B(  3-C ,  8-H ) :   0.1348 B(  3-C , 11-O ) :   0.1300
B(  3-C , 14-H ) :   0.1429 B(  3-C , 15-H ) :   0.1051 B(  4-S ,  8-H ) :  -0.1478
B(  4-S , 10-O ) :   1.6078 B(  4-S , 11-O ) :   1.3901 B(  4-S , 16-F ) :   0.6622
B(  7-H ,  8-H ) :   0.3427 B(  7-H ,  9-H ) :  -0.2277 B(  8-H ,  9-H ) :   0.6211
B(  8-H , 11-O ) :   0.3320 B( 12-H , 13-H ) :  -0.1289

FINAL SINGLE POINT ENERGY      -805.633289559176

DIPOLE MOMENT
-------------
                                X             Y             Z
Electronic contribution:     -8.60588      -5.90606      -9.90101
Nuclear contribution   :      9.83476       6.70164       9.41257
                        -----------------------------------------
Total Dipole Moment    :      1.22889       0.79558      -0.48844
                        -----------------------------------------
Magnitude (a.u.)       :      1.54327
Magnitude (Debye)      :      3.92268

Rotational constants in cm-1:     0.099832     0.045916     0.042219
Rotational constants in MHz :  2992.874960  1376.530174  1265.693813

                             ****ORCA TERMINATED NORMALLY****
TOTAL RUN TIME: 0 days 0 hours 1 minutes 4 seconds 70 msec
