                         Program Version 5.0.0 -  RELEASE  -
|  1> !CAM-B3LYP RIJCOSX def2-SVPD def2/J TightSCF
|  2> *xyz -1 1
|  3> C         -0.71189        0.84252       -4.21834
|  4> C         -0.39762       -0.20587       -5.28802
|  5> O          0.61717       -0.00535       -5.99827
|  6> O         -1.13317       -1.22138       -5.34147
|  7> H         -0.00939        1.64646       -4.28960
|  8> H         -0.64409        0.39449       -3.24902
|  9> H         -1.70192        1.21961       -4.36851
| 10> *
| 11>
| 12> %MaxCore 64000
| 13>
| 14> %pal nprocs 4
| 15> end
| 16>
| 17> %scf
| 18>   MaxIter 150
| 19> end
| 20>
| 21>
| 22>                          ****END OF INPUT****

CARTESIAN COORDINATES (ANGSTROEM)
---------------------------------
  C     -0.711890    0.842520   -4.218340
  C     -0.397620   -0.205870   -5.288020
  O      0.617170   -0.005350   -5.998270
  O     -1.133170   -1.221380   -5.341470
  H     -0.009390    1.646460   -4.289600
  H     -0.644090    0.394490   -3.249020
  H     -1.701920    1.219610   -4.368510

 Total Charge           Charge          ....   -1
 Multiplicity           Mult            ....    1
 Number of Electrons    NEL             ....   32
 Basis Dimension        Dim             ....  110

ORBITAL ENERGIES
----------------

  NO   OCC          E(Eh)            E(eV)
   0   2.0000     -18.949421      -515.6400
   1   2.0000     -18.948822      -515.6237
   2   2.0000     -10.147752      -276.1344
   3   2.0000     -10.072441      -274.0851
   4   2.0000      -0.892528       -24.2869
   5   2.0000      -0.797075       -21.6895
   6   2.0000      -0.620123       -16.8744
   7   2.0000      -0.374516       -10.1911
   8   2.0000      -0.331648        -9.0246
   9   2.0000      -0.316151        -8.6029
  10   2.0000      -0.297372        -8.0919
  11   2.0000      -0.255276        -6.9464
  12   2.0000      -0.235866        -6.4182
  13   2.0000      -0.112446        -3.0598
  14   2.0000      -0.108638        -2.9562
  15   2.0000      -0.094352        -2.5675
  16   0.0000       0.199456         5.4275
  17   0.0000       0.238508         6.4901
  18   0.0000       0.257435         7.0052
  19   0.0000       0.269869         7.3435
  20   0.0000       0.294376         8.0104

MULLIKEN ATOMIC CHARGES
-----------------------
   0 C :    0.670233
   1 C :   -0.001941
   2 O :   -0.626781
   3 O :   -0.647148
   4 H :   -0.145541
   5 H :   -0.125321
   6 H :   -0.123500
Sum of atomic charges:   -1.0000000

LOEWDIN ATOMIC CHARGES
----------------------
   0 C :    0.144373
   1 C :   -0.343737
   2 O :   -0.340366
   3 O :   -0.342445
   4 H :   -0.043822
   5 H :   -0.035978
   6 H :   -0.038024

  Mayer bond orders larger than 0.100000
B(  0-C ,  1-C ) :   1.1803 B(  0-C ,  4-H ) :   0.8327 B(  0-C ,  5-H ) :   0.7900
B(  0-C ,  6-H ) :   0.7803 B(  1-C ,  2-O ) :   1.5225 B(  1-C ,  3-O ) :   1.5305
B(  1-C ,  4-H ) :   0.2728 B(  1-C ,  5-H ) :   0.1784 B(  1-C ,  6-H ) :   0.1866

FINAL SINGLE POINT ENERGY      -228.282676641884

DIPOLE MOMENT
-------------
                                X             Y             Z
Electronic contribution:      0.74604      -2.43402      -2.47616
Nuclear contribution   :     -1.06347       3.45957       3.47855
                        -----------------------------------------
Total Dipole Moment    :     -0.31742       1.02555       1.00240
                        -----------------------------------------
Magnitude (a.u.)       :      1.46878
Magnitude (Debye)      :      3.73334

Rotational constants in cm-1:     0.393276     0.333956     0.186777
Rotational constants in MHz : 11790.103634 10011.747201  5599.422324

                             ****ORCA TERMINATED NORMALLY****
TOTAL RUN TIME: 0 days 0 hours 0 minutes 9 seconds 395 msec
