                         Program Version 5.0.0 -  RELEASE  -
|  1> !CAM-B3LYP RIJCOSX def2-SVPD def2/J TightSCF
|  2> *xyz 1 1
|  3> C          2.23447       -2.98975       -2.39762
|  4> N          2.75680       -2.94555       -3.76503
|  5> C          1.98721       -2.59045       -4.81898
|  6> N          0.74322       -3.01749       -4.91352
|  7> N          2.49964       -1.84860       -5.80324
|  8> H          3.30978       -1.29282       -5.55895
|  9> H          1.80103       -1.30430       -6.28913
| 10> H          3.71612       -2.62880       -3.82953
| 11> H          0.39583       -3.62775       -4.18502
| 12> H          0.03920       -2.45438       -5.37137
| 13> H          1.22098       -3.33251       -2.41386
| 14> H          2.27280       -2.00995       -1.96933
| 15> H          2.82798       -3.65908       -1.81056
| 16> *
| 17>
| 18> %MaxCore 64000
| 19>
| 20> %pal nprocs 4
| 21> end
| 22>
| 23> %scf
| 24>   MaxIter 150
| 25> end
| 26>
| 27>
| 28>                          ****END OF INPUT****

CARTESIAN COORDINATES (ANGSTROEM)
---------------------------------
  C      2.234470   -2.989750   -2.397620
  N      2.756800   -2.945550   -3.765030
  C      1.987210   -2.590450   -4.818980
  N      0.743220   -3.017490   -4.913520
  N      2.499640   -1.848600   -5.803240
  H      3.309780   -1.292820   -5.558950
  H      1.801030   -1.304300   -6.289130
  H      3.716120   -2.628800   -3.829530
  H      0.395830   -3.627750   -4.185020
  H      0.039200   -2.454380   -5.371370
  H      1.220980   -3.332510   -2.413860
  H      2.272800   -2.009950   -1.969330
  H      2.827980   -3.659080   -1.810560

 Total Charge           Charge          ....    1
 Multiplicity           Mult            ....    1
 Number of Electrons    NEL             ....   40
 Basis Dimension        Dim             ....  164

ORBITAL ENERGIES
----------------

  NO   OCC          E(Eh)            E(eV)
   0   2.0000     -14.641664      -398.4199
   1   2.0000     -14.637388      -398.3036
   2   2.0000     -14.636551      -398.2808
   3   2.0000     -10.610206      -288.7184
   4   2.0000     -10.468463      -284.8614
   5   2.0000      -1.304502       -35.4973
   6   2.0000      -1.187236       -32.3063
   7   2.0000      -1.182708       -32.1831
   8   2.0000      -0.981839       -26.7172
   9   2.0000      -0.908914       -24.7328
  10   2.0000      -0.866146       -23.5690
  11   2.0000      -0.829173       -22.5629
  12   2.0000      -0.778810       -21.1925
  13   2.0000      -0.761974       -20.7344
  14   2.0000      -0.720614       -19.6089
  15   2.0000      -0.714736       -19.4490
  16   2.0000      -0.667923       -18.1751
  17   2.0000      -0.652620       -17.7587
  18   2.0000      -0.560982       -15.2651
  19   2.0000      -0.526559       -14.3284
  20   0.0000      -0.155115        -4.2209
  21   0.0000      -0.127469        -3.4686
  22   0.0000      -0.089891        -2.4461
  23   0.0000      -0.079716        -2.1692
  24   0.0000      -0.054619        -1.4863

MULLIKEN ATOMIC CHARGES
-----------------------
   0 C :    1.355932
   1 N :   -0.486008
   2 C :    0.758479
   3 N :    0.195874
   4 N :    0.086554
   5 H :   -0.018153
   6 H :    0.027577
   7 H :   -0.185604
   8 H :   -0.048416
   9 H :   -0.047067
  10 H :   -0.270346
  11 H :   -0.134485
  12 H :   -0.234339
Sum of atomic charges:    1.0000000

LOEWDIN ATOMIC CHARGES
----------------------
   0 C :    0.258492
   1 N :    0.028911
   2 C :   -0.048225
   3 N :    0.284926
   4 N :    0.274310
   5 H :    0.036060
   6 H :    0.035578
   7 H :    0.049651
   8 H :    0.026015
   9 H :    0.048789
  10 H :   -0.015770
  11 H :    0.009329
  12 H :    0.011934

  Mayer bond orders larger than 0.100000
B(  0-C ,  1-N ) :   0.9008 B(  0-C , 10-H ) :   0.7759 B(  0-C , 11-H ) :   0.7776
B(  0-C , 12-H ) :   0.7503 B(  1-N ,  2-C ) :   1.1079 B(  1-N ,  4-N ) :   0.1223
B(  1-N ,  7-H ) :   1.2026 B(  1-N , 10-H ) :   0.1545 B(  1-N , 11-H ) :   0.1341
B(  1-N , 12-H ) :   0.2076 B(  2-C ,  3-N ) :   1.1066 B(  2-C ,  4-N ) :   1.0734
B(  2-C ,  7-H ) :  -0.1583 B(  3-N ,  4-N ) :   0.1371 B(  3-N ,  8-H ) :   1.0117
B(  3-N ,  9-H ) :   1.1998 B(  4-N ,  5-H ) :   1.0157 B(  4-N ,  6-H ) :   1.0077
B(  8-H ,  9-H ) :  -0.1547

FINAL SINGLE POINT ENERGY      -244.785016558412

DIPOLE MOMENT
-------------
                                X             Y             Z
Electronic contribution:      0.26438      -0.05303      -3.01153
Nuclear contribution   :     -0.61773       0.88991       3.03801
                        -----------------------------------------
Total Dipole Moment    :     -0.35334       0.83688       0.02648
                        -----------------------------------------
Magnitude (a.u.)       :      0.90880
Magnitude (Debye)      :      2.31000

Rotational constants in cm-1:     0.302561     0.133407     0.098295
Rotational constants in MHz :  9070.558660  3999.431512  2946.819102

                             ****ORCA TERMINATED NORMALLY****
TOTAL RUN TIME: 0 days 0 hours 0 minutes 22 seconds 998 msec
