                         Program Version 5.0.0 -  RELEASE  -
|  1> !CAM-B3LYP RIJCOSX def2-SVPD def2/J TightSCF
|  2> *xyz 0 1
|  3> C         -0.71189        0.84252       -4.21834
|  4> C         -0.39762       -0.20587       -5.28802
|  5> F          0.61717       -0.00535       -5.99827
|  6> O         -1.13317       -1.22138       -5.34147
|  7> H         -0.00939        1.64646       -4.28960
|  8> H         -0.64409        0.39449       -3.24902
|  9> H         -1.70192        1.21961       -4.36851
| 10> *
| 11>
| 12> %MaxCore 64000
| 13>
| 14> %pal nprocs 4
| 15> end
| 16>
| 17> %scf
| 18>   MaxIter 150
| 19> end
| 20>
| 21>
| 22>                          ****END OF INPUT****

CARTESIAN COORDINATES (ANGSTROEM)
---------------------------------
  C     -0.711890    0.842520   -4.218340
  C     -0.397620   -0.205870   -5.288020
  F      0.617170   -0.005350   -5.998270
  O     -1.133170   -1.221380   -5.341470
  H     -0.009390    1.646460   -4.289600
  H     -0.644090    0.394490   -3.249020
  H     -1.701920    1.219610   -4.368510

 Total Charge           Charge          ....    0
 Multiplicity           Mult            ....    1
 Number of Electrons    NEL             ....   32
 Basis Dimension        Dim             ....  110

ORBITAL ENERGIES
----------------

  NO   OCC          E(Eh)            E(eV)
   0   2.0000     -24.850844      -676.2258
   1   2.0000     -19.228954      -523.2464
   2   2.0000     -10.453619      -284.4574
   3   2.0000     -10.289650      -279.9956
   4   2.0000      -1.395582       -37.9757
   5   2.0000      -1.112656       -30.2769
   6   2.0000      -0.852584       -23.2000
   7   2.0000      -0.740208       -20.1421
   8   2.0000      -0.632325       -17.2064
   9   2.0000      -0.627366       -17.0715
  10   2.0000      -0.579920       -15.7804
  11   2.0000      -0.519011       -14.1230
  12   2.0000      -0.506098       -13.7716
  13   2.0000      -0.478750       -13.0275
  14   2.0000      -0.426517       -11.6061
  15   2.0000      -0.370111       -10.0712
  16   0.0000       0.013436         0.3656
  17   0.0000       0.039707         1.0805
  18   0.0000       0.083262         2.2657
  19   0.0000       0.115566         3.1447
  20   0.0000       0.117154         3.1879

MULLIKEN ATOMIC CHARGES
-----------------------
   0 C :    0.597092
   1 C :    0.347440
   2 F :   -0.324531
   3 O :   -0.434671
   4 H :   -0.100432
   5 H :   -0.040557
   6 H :   -0.044341
Sum of atomic charges:    0.0000000

LOEWDIN ATOMIC CHARGES
----------------------
   0 C :    0.217264
   1 C :   -0.040402
   2 F :   -0.035326
   3 O :   -0.136970
   4 H :   -0.013294
   5 H :    0.004929
   6 H :    0.003798

  Mayer bond orders larger than 0.100000
B(  0-C ,  1-C ) :   1.2319 B(  0-C ,  4-H ) :   0.8533 B(  0-C ,  5-H ) :   0.7871
B(  0-C ,  6-H ) :   0.7768 B(  1-C ,  2-F ) :   0.8392 B(  1-C ,  3-O ) :   1.8583
B(  1-C ,  4-H ) :   0.1736 B(  1-C ,  5-H ) :   0.1537 B(  1-C ,  6-H ) :   0.1649

FINAL SINGLE POINT ENERGY      -252.816211197384

DIPOLE MOMENT
-------------
                                X             Y             Z
Electronic contribution:      2.41372      -2.24159      -3.79447
Nuclear contribution   :     -2.12043       3.31297       4.29327
                        -----------------------------------------
Total Dipole Moment    :      0.29329       1.07138       0.49880
                        -----------------------------------------
Magnitude (a.u.)       :      1.21765
Magnitude (Debye)      :      3.09503

Rotational constants in cm-1:     0.368089     0.321934     0.177312
Rotational constants in MHz : 11035.034199  9651.332398  5315.666874

                             ****ORCA TERMINATED NORMALLY****
TOTAL RUN TIME: 0 days 0 hours 0 minutes 10 seconds 648 msec
