                         Program Version 5.0.0 -  RELEASE  -
|  1> !CAM-B3LYP RIJCOSX def2-SVPD def2/J TightSCF
|  2> *xyz 0 1
|  3> C          2.23447       -2.98975       -2.39762
|  4> C          2.75680       -2.94555       -3.76503
|  5> C          1.98721       -2.59045       -4.81898
|  6> N          0.74322       -3.01749       -4.91352
|  7> N          2.49964       -1.84860       -5.80324
|  8> H          3.30978       -1.29282       -5.55895
|  9> H          1.80103       -1.30430       -6.28913
| 10> H          3.71612       -2.62880       -3.82953
| 11> H          0.39583       -3.62775       -4.18502
| 12> H          0.03920       -2.45438       -5.37137
| 13> H          1.22098       -3.33251       -2.41386
| 14> H          2.27280       -2.00995       -1.96933
| 15> H          2.82798       -3.65908       -1.81056
| 16> *
| 17>
| 18> %MaxCore 64000
| 19>
| 20> %pal nprocs 4
| 21> end
| 22>
| 23> %scf
| 24>   MaxIter 150
| 25> end
| 26>
| 27>
| 28>                          ****END OF INPUT****

CARTESIAN COORDINATES (ANGSTROEM)
---------------------------------
  C      2.234470   -2.989750   -2.397620
  C      2.756800   -2.945550   -3.765030
  C      1.987210   -2.590450   -4.818980
  N      0.743220   -3.017490   -4.913520
  N      2.499640   -1.848600   -5.803240
  H      3.309780   -1.292820   -5.558950
  H      1.801030   -1.304300   -6.289130
  H      3.716120   -2.628800   -3.829530
  H      0.395830   -3.627750   -4.185020
  H      0.039200   -2.454380   -5.371370
  H      1.220980   -3.332510   -2.413860
  H      2.272800   -2.009950   -1.969330
  H      2.827980   -3.659080   -1.810560

 Total Charge           Charge          ....    0
 Multiplicity           Mult            ....    1
 Number of Electrons    NEL             ....   40
 Basis Dimension        Dim             ....  164

ORBITAL ENERGIES
----------------

  NO   OCC          E(Eh)            E(eV)
   0   2.0000     -14.411503      -392.1569
   1   2.0000     -14.407324      -392.0432
   2   2.0000     -10.308608      -280.5115
   3   2.0000     -10.226306      -278.2719
   4   2.0000     -10.185466      -277.1606
   5   2.0000      -1.047437       -28.5022
   6   2.0000      -0.953146       -25.9364
   7   2.0000      -0.828926       -22.5562
   8   2.0000      -0.729145       -19.8411
   9   2.0000      -0.662073       -18.0159
  10   2.0000      -0.615977       -16.7616
  11   2.0000      -0.578386       -15.7387
  12   2.0000      -0.540218       -14.7001
  13   2.0000      -0.508755       -13.8439
  14   2.0000      -0.472544       -12.8586
  15   2.0000      -0.446025       -12.1370
  16   2.0000      -0.427522       -11.6335
  17   2.0000      -0.405203       -11.0261
  18   2.0000      -0.342438        -9.3182
  19   2.0000      -0.217913        -5.9297
  20   0.0000       0.042557         1.1580
  21   0.0000       0.070585         1.9207
  22   0.0000       0.081969         2.2305
  23   0.0000       0.100530         2.7356
  24   0.0000       0.112196         3.0530

MULLIKEN ATOMIC CHARGES
-----------------------
   0 C :    1.066978
   1 C :   -0.327317
   2 C :    0.216958
   3 N :    0.129195
   4 N :    0.064126
   5 H :    0.011756
   6 H :   -0.046264
   7 H :   -0.355377
   8 H :   -0.057133
   9 H :   -0.148505
  10 H :   -0.327466
  11 H :   -0.165909
  12 H :   -0.061043
Sum of atomic charges:    0.0000000

LOEWDIN ATOMIC CHARGES
----------------------
   0 C :    0.089544
   1 C :   -0.053060
   2 C :   -0.245057
   3 N :    0.195533
   4 N :    0.188892
   5 H :    0.001008
   6 H :   -0.013537
   7 H :   -0.062997
   8 H :   -0.005419
   9 H :   -0.003750
  10 H :   -0.045860
  11 H :   -0.020721
  12 H :   -0.024576

  Mayer bond orders larger than 0.100000
B(  0-C ,  1-C ) :   1.0929 B(  0-C ,  7-H ) :   0.2075 B(  0-C , 10-H ) :   0.6570
B(  0-C , 11-H ) :   0.7688 B(  0-C , 12-H ) :   0.6657 B(  1-C ,  2-C ) :   1.7921
B(  1-C ,  3-N ) :   0.1865 B(  1-C ,  4-N ) :   0.2107 B(  1-C ,  7-H ) :   0.7959
B(  1-C , 10-H ) :   0.3446 B(  1-C , 11-H ) :   0.1056 B(  1-C , 12-H ) :   0.2482
B(  2-C ,  3-N ) :   1.0979 B(  2-C ,  4-N ) :   1.0478 B(  2-C ,  7-H ) :   0.2815
B(  3-N ,  4-N ) :   0.1146 B(  3-N ,  8-H ) :   1.0107 B(  3-N ,  9-H ) :   1.2105
B(  4-N ,  5-H ) :   0.9609 B(  4-N ,  6-H ) :   0.9477 B(  8-H ,  9-H ) :  -0.1382
B( 10-H , 12-H ) :   0.1354

FINAL SINGLE POINT ENERGY      -228.320835866108

DIPOLE MOMENT
-------------
                                X             Y             Z
Electronic contribution:     -0.29125       0.05450      -3.42287
Nuclear contribution   :     -0.47056       0.83150       3.15332
                        -----------------------------------------
Total Dipole Moment    :     -0.76181       0.88600      -0.26955
                        -----------------------------------------
Magnitude (a.u.)       :      1.19917
Magnitude (Debye)      :      3.04804

Rotational constants in cm-1:     0.307275     0.134774     0.099280
Rotational constants in MHz :  9211.860934  4040.421317  2976.324646

                             ****ORCA TERMINATED NORMALLY****
TOTAL RUN TIME: 0 days 0 hours 0 minutes 23 seconds 217 msec
