                         Program Version 5.0.0 -  RELEASE  -
|  1> !CAM-B3LYP RIJCOSX def2-SVPD def2/J TightSCF
|  2> *xyz 0 1
|  3> C         -0.71189        0.84252       -4.21834
|  4> C         -0.39762       -0.20587       -5.28802
|  5> O          0.61717       -0.00535       -5.99827
|  6> F         -1.13317       -1.22138       -5.34147
|  7> H         -0.00939        1.64646       -4.28960
|  8> H         -0.64409        0.39449       -3.24902
|  9> H         -1.70192        1.21961       -4.36851
| 10> *
| 11>
| 12> %MaxCore 64000
| 13>
| 14> %pal nprocs 4
| 15> end
| 16>
| 17> %scf
| 18>   MaxIter 150
| 19> end
| 20>
| 21>
| 22>                          ****END OF INPUT****

CARTESIAN COORDINATES (ANGSTROEM)
---------------------------------
  C     -0.711890    0.842520   -4.218340
  C     -0.397620   -0.205870   -5.288020
  O      0.617170   -0.005350   -5.998270
  F     -1.133170   -1.221380   -5.341470
  H     -0.009390    1.646460   -4.289600
  H     -0.644090    0.394490   -3.249020
  H     -1.701920    1.219610   -4.368510

 Total Charge           Charge          ....    0
 Multiplicity           Mult            ....    1
 Number of Electrons    NEL             ....   32
 Basis Dimension        Dim             ....  110

ORBITAL ENERGIES
----------------

  NO   OCC          E(Eh)            E(eV)
   0   2.0000     -24.851322      -676.2388
   1   2.0000     -19.228774      -523.2415
   2   2.0000     -10.453248      -284.4473
   3   2.0000     -10.289368      -279.9879
   4   2.0000      -1.395494       -37.9733
   5   2.0000      -1.112992       -30.2861
   6   2.0000      -0.852119       -23.1873
   7   2.0000      -0.740195       -20.1417
   8   2.0000      -0.632934       -17.2230
   9   2.0000      -0.626919       -17.0593
  10   2.0000      -0.579445       -15.7675
  11   2.0000      -0.518100       -14.0982
  12   2.0000      -0.506702       -13.7881
  13   2.0000      -0.478612       -13.0237
  14   2.0000      -0.429160       -11.6781
  15   2.0000      -0.368105       -10.0167
  16   0.0000       0.016886         0.4595
  17   0.0000       0.039860         1.0847
  18   0.0000       0.083069         2.2604
  19   0.0000       0.112400         3.0586
  20   0.0000       0.120729         3.2852

MULLIKEN ATOMIC CHARGES
-----------------------
   0 C :    0.614486
   1 C :    0.364332
   2 O :   -0.417060
   3 F :   -0.349273
   4 H :   -0.117840
   5 H :   -0.045829
   6 H :   -0.048817
Sum of atomic charges:   -0.0000000

LOEWDIN ATOMIC CHARGES
----------------------
   0 C :    0.216423
   1 C :   -0.041668
   2 O :   -0.136997
   3 F :   -0.033235
   4 H :   -0.000654
   5 H :   -0.000771
   6 H :   -0.003098

  Mayer bond orders larger than 0.100000
B(  0-C ,  1-C ) :   1.2110 B(  0-C ,  4-H ) :   0.8555 B(  0-C ,  5-H ) :   0.7863
B(  0-C ,  6-H ) :   0.7800 B(  1-C ,  2-O ) :   1.8790 B(  1-C ,  3-F ) :   0.7980
B(  1-C ,  4-H ) :   0.2327 B(  1-C ,  5-H ) :   0.1393 B(  1-C ,  6-H ) :   0.1445

FINAL SINGLE POINT ENERGY      -252.816342815780

DIPOLE MOMENT
-------------
                                X             Y             Z
Electronic contribution:     -0.44669      -4.22941      -2.72068
Nuclear contribution   :     -0.31181       4.56949       3.61460
                        -----------------------------------------
Total Dipole Moment    :     -0.75849       0.34009       0.89392
                        -----------------------------------------
Magnitude (a.u.)       :      1.22068
Magnitude (Debye)      :      3.10273

Rotational constants in cm-1:     0.370228     0.320104     0.177247
Rotational constants in MHz : 11099.151631  9596.483000  5313.726171

                             ****ORCA TERMINATED NORMALLY****
TOTAL RUN TIME: 0 days 0 hours 0 minutes 10 seconds 442 msec
