                         Program Version 5.0.0 -  RELEASE  -
|  1> !CAM-B3LYP RIJCOSX def2-SVPD def2/J TightSCF
|  2> *xyz 0 1
|  3> C          2.23447       -2.98975       -2.39762
|  4> N          2.75680       -2.94555       -3.76503
|  5> C          1.98721       -2.59045       -4.81898
|  6> C          0.74322       -3.01749       -4.91352
|  7> N          2.49964       -1.84860       -5.80324
|  8> H          3.30978       -1.29282       -5.55895
|  9> H          1.80103       -1.30430       -6.28913
| 10> H          3.71612       -2.62880       -3.82953
| 11> H          0.39583       -3.62775       -4.18502
| 12> H          0.03920       -2.45438       -5.37137
| 13> H          1.22098       -3.33251       -2.41386
| 14> H          2.27280       -2.00995       -1.96933
| 15> H          2.82798       -3.65908       -1.81056
| 16> *
| 17>
| 18> %MaxCore 64000
| 19>
| 20> %pal nprocs 4
| 21> end
| 22>
| 23> %scf
| 24>   MaxIter 150
| 25> end
| 26>
| 27>
| 28>                          ****END OF INPUT****

CARTESIAN COORDINATES (ANGSTROEM)
---------------------------------
  C      2.234470   -2.989750   -2.397620
  N      2.756800   -2.945550   -3.765030
  C      1.987210   -2.590450   -4.818980
  C      0.743220   -3.017490   -4.913520
  N      2.499640   -1.848600   -5.803240
  H      3.309780   -1.292820   -5.558950
  H      1.801030   -1.304300   -6.289130
  H      3.716120   -2.628800   -3.829530
  H      0.395830   -3.627750   -4.185020
  H      0.039200   -2.454380   -5.371370
  H      1.220980   -3.332510   -2.413860
  H      2.272800   -2.009950   -1.969330
  H      2.827980   -3.659080   -1.810560

 Total Charge           Charge          ....    0
 Multiplicity           Mult            ....    1
 Number of Electrons    NEL             ....   40
 Basis Dimension        Dim             ....  164

ORBITAL ENERGIES
----------------

  NO   OCC          E(Eh)            E(eV)
   0   2.0000     -14.408487      -392.0749
   1   2.0000     -14.406826      -392.0297
   2   2.0000     -10.308120      -280.4982
   3   2.0000     -10.284037      -279.8429
   4   2.0000     -10.177801      -276.9520
   5   2.0000      -1.044988       -28.4356
   6   2.0000      -0.961648       -26.1678
   7   2.0000      -0.800681       -21.7876
   8   2.0000      -0.770902       -20.9773
   9   2.0000      -0.638898       -17.3853
  10   2.0000      -0.618159       -16.8210
  11   2.0000      -0.585560       -15.9339
  12   2.0000      -0.522348       -14.2138
  13   2.0000      -0.510583       -13.8937
  14   2.0000      -0.490247       -13.3403
  15   2.0000      -0.460631       -12.5344
  16   2.0000      -0.445057       -12.1106
  17   2.0000      -0.426939       -11.6176
  18   2.0000      -0.319888        -8.7046
  19   2.0000      -0.236614        -6.4386
  20   0.0000       0.044197         1.2027
  21   0.0000       0.069951         1.9035
  22   0.0000       0.083554         2.2736
  23   0.0000       0.098256         2.6737
  24   0.0000       0.112900         3.0722

MULLIKEN ATOMIC CHARGES
-----------------------
   0 C :    1.374783
   1 N :   -0.398802
   2 C :    0.313418
   3 C :    0.495670
   4 N :    0.109603
   5 H :   -0.108974
   6 H :    0.013402
   7 H :   -0.315349
   8 H :   -0.269660
   9 H :   -0.465482
  10 H :   -0.285020
  11 H :   -0.187652
  12 H :   -0.275937
Sum of atomic charges:    0.0000000

LOEWDIN ATOMIC CHARGES
----------------------
   0 C :    0.211326
   1 N :   -0.035626
   2 C :   -0.250406
   3 C :    0.157332
   4 N :    0.187011
   5 H :   -0.015261
   6 H :   -0.000159
   7 H :    0.008566
   8 H :   -0.105642
   9 H :   -0.094053
  10 H :   -0.029674
  11 H :   -0.016893
  12 H :   -0.016521

  Mayer bond orders larger than 0.100000
B(  0-C ,  1-N ) :   0.8918 B(  0-C , 10-H ) :   0.7887 B(  0-C , 11-H ) :   0.7498
B(  0-C , 12-H ) :   0.7124 B(  1-N ,  2-C ) :   1.0658 B(  1-N ,  3-C ) :   0.2178
B(  1-N ,  7-H ) :   1.1443 B(  1-N , 10-H ) :   0.1434 B(  1-N , 11-H ) :   0.1658
B(  1-N , 12-H ) :   0.2079 B(  2-C ,  3-C ) :   1.7496 B(  2-C ,  4-N ) :   0.9927
B(  2-C ,  8-H ) :   0.2711 B(  2-C ,  9-H ) :   0.1179 B(  3-C ,  4-N ) :   0.2278
B(  3-C ,  8-H ) :   0.5204 B(  3-C ,  9-H ) :   0.8275 B(  4-N ,  5-H ) :   0.9641
B(  4-N ,  6-H ) :   0.9881 B(  8-H ,  9-H ) :   0.1710

FINAL SINGLE POINT ENERGY      -228.313413166462

DIPOLE MOMENT
-------------
                                X             Y             Z
Electronic contribution:      1.53383       0.11928      -2.35426
Nuclear contribution   :     -0.87840       0.81693       2.92070
                        -----------------------------------------
Total Dipole Moment    :      0.65543       0.93621       0.56644
                        -----------------------------------------
Magnitude (a.u.)       :      1.27551
Magnitude (Debye)      :      3.24209

Rotational constants in cm-1:     0.323282     0.134248     0.100848
Rotational constants in MHz :  9691.753357  4024.663509  3023.338831

                             ****ORCA TERMINATED NORMALLY****
TOTAL RUN TIME: 0 days 0 hours 0 minutes 24 seconds 481 msec
