                         Program Version 5.0.0 -  RELEASE  -
|  1> !CAM-B3LYP RIJCOSX def2-SVPD def2/J TightSCF
|  2> *xyz 0 1
|  3> C          2.23447       -2.98975       -2.39762
|  4> N          2.75680       -2.94555       -3.76503
|  5> C          1.98721       -2.59045       -4.81898
|  6> N          0.74322       -3.01749       -4.91352
|  7> C          2.49964       -1.84860       -5.80324
|  8> H          3.30978       -1.29282       -5.55895
|  9> H          1.80103       -1.30430       -6.28913
| 10> H          3.71612       -2.62880       -3.82953
| 11> H          0.39583       -3.62775       -4.18502
| 12> H          0.03920       -2.45438       -5.37137
| 13> H          1.22098       -3.33251       -2.41386
| 14> H          2.27280       -2.00995       -1.96933
| 15> H          2.82798       -3.65908       -1.81056
| 16> *
| 17>
| 18> %MaxCore 64000
| 19>
| 20> %pal nprocs 4
| 21> end
| 22>
| 23> %scf
| 24>   MaxIter 150
| 25> end
| 26>
| 27>
| 28>                          ****END OF INPUT****

CARTESIAN COORDINATES (ANGSTROEM)
---------------------------------
  C      2.234470   -2.989750   -2.397620
  N      2.756800   -2.945550   -3.765030
  C      1.987210   -2.590450   -4.818980
  N      0.743220   -3.017490   -4.913520
  C      2.499640   -1.848600   -5.803240
  H      3.309780   -1.292820   -5.558950
  H      1.801030   -1.304300   -6.289130
  H      3.716120   -2.628800   -3.829530
  H      0.395830   -3.627750   -4.185020
  H      0.039200   -2.454380   -5.371370
  H      1.220980   -3.332510   -2.413860
  H      2.272800   -2.009950   -1.969330
  H      2.827980   -3.659080   -1.810560

 Total Charge           Charge          ....    0
 Multiplicity           Mult            ....    1
 Number of Electrons    NEL             ....   40
 Basis Dimension        Dim             ....  164

ORBITAL ENERGIES
----------------

  NO   OCC          E(Eh)            E(eV)
   0   2.0000     -14.410080      -392.1182
   1   2.0000     -14.407871      -392.0581
   2   2.0000     -10.312117      -280.6070
   3   2.0000     -10.293239      -280.0933
   4   2.0000     -10.172617      -276.8110
   5   2.0000      -1.047376       -28.5006
   6   2.0000      -0.961897       -26.1745
   7   2.0000      -0.819119       -22.2894
   8   2.0000      -0.748245       -20.3608
   9   2.0000      -0.675844       -18.3906
  10   2.0000      -0.613104       -16.6834
  11   2.0000      -0.563000       -15.3200
  12   2.0000      -0.553755       -15.0684
  13   2.0000      -0.521884       -14.2012
  14   2.0000      -0.475813       -12.9475
  15   2.0000      -0.460430       -12.5289
  16   2.0000      -0.440586       -11.9890
  17   2.0000      -0.429728       -11.6935
  18   2.0000      -0.322469        -8.7748
  19   2.0000      -0.232062        -6.3147
  20   0.0000       0.041281         1.1233
  21   0.0000       0.074396         2.0244
  22   0.0000       0.079627         2.1668
  23   0.0000       0.096798         2.6340
  24   0.0000       0.112542         3.0624

MULLIKEN ATOMIC CHARGES
-----------------------
   0 C :    1.370999
   1 N :   -0.518888
   2 C :    0.194442
   3 N :    0.297226
   4 C :    0.604212
   5 H :   -0.237782
   6 H :   -0.486957
   7 H :   -0.186849
   8 H :   -0.162033
   9 H :   -0.119948
  10 H :   -0.293261
  11 H :   -0.165672
  12 H :   -0.295490
Sum of atomic charges:    0.0000000

LOEWDIN ATOMIC CHARGES
----------------------
   0 C :    0.205749
   1 N :   -0.032502
   2 C :   -0.244346
   3 N :    0.196914
   4 C :    0.140344
   5 H :   -0.107344
   6 H :   -0.107539
   7 H :    0.022641
   8 H :   -0.019455
   9 H :    0.012779
  10 H :   -0.034399
  11 H :   -0.016190
  12 H :   -0.016651

  Mayer bond orders larger than 0.100000
B(  0-C ,  1-N ) :   0.8895 B(  0-C , 10-H ) :   0.7640 B(  0-C , 11-H ) :   0.7574
B(  0-C , 12-H ) :   0.7228 B(  1-N ,  2-C ) :   1.0726 B(  1-N ,  4-C ) :   0.1678
B(  1-N ,  7-H ) :   1.1723 B(  1-N , 10-H ) :   0.1481 B(  1-N , 11-H ) :   0.1204
B(  1-N , 12-H ) :   0.2154 B(  2-C ,  3-N ) :   1.1065 B(  2-C ,  4-C ) :   1.9013
B(  2-C ,  5-H ) :   0.2350 B(  2-C ,  6-H ) :   0.2638 B(  2-C ,  7-H ) :  -0.1125
B(  3-N ,  4-C ) :   0.2023 B(  3-N ,  8-H ) :   1.0112 B(  3-N ,  9-H ) :   1.1604
B(  4-C ,  5-H ) :   0.6993 B(  4-C ,  6-H ) :   0.6366 B(  5-H ,  6-H ) :   0.2949
B(  8-H ,  9-H ) :  -0.1531

FINAL SINGLE POINT ENERGY      -228.308600126572

DIPOLE MOMENT
-------------
                                X             Y             Z
Electronic contribution:     -0.08744      -1.03682      -1.48127
Nuclear contribution   :     -0.52265       1.05368       2.74049
                        -----------------------------------------
Total Dipole Moment    :     -0.61008       0.01686       1.25923
                        -----------------------------------------
Magnitude (a.u.)       :      1.39934
Magnitude (Debye)      :      3.55683

Rotational constants in cm-1:     0.310125     0.138772     0.101978
Rotational constants in MHz :  9297.312912  4160.277024  3057.230514

                             ****ORCA TERMINATED NORMALLY****
TOTAL RUN TIME: 0 days 0 hours 0 minutes 22 seconds 607 msec
