                         Program Version 5.0.0 -  RELEASE  -
|  1> !CAM-B3LYP RIJCOSX def2-SVPD def2/J TightSCF xyzfile
|  2>
|  3> *xyzfile 0 1 D1.xyz
|  4>
|  5> %MaxCore 64000
|  6>
|  7> %pal nprocs 4
|  8> end
|  9>
| 10> %scf
| 11>   MaxIter 150
| 12> end
| 13>
| 14>
| 15>                          ****END OF INPUT****

CARTESIAN COORDINATES (ANGSTROEM)
---------------------------------
  C      2.234473   -2.989754   -2.397622
  C      2.756799   -2.945553   -3.765029
  C     -1.104325    0.251374   -2.860056
  C     -0.711893    0.842517   -4.218344
  H      0.154626    1.499800   -4.130909
  H     -1.538134    1.459222   -4.582671
  C     -0.397624   -0.205875   -5.288018
  C      1.987208   -2.590451   -4.818975
  N      0.743221   -3.017493   -4.913524
  N      2.499636   -1.848598   -5.803241
  H      3.309780   -1.292818   -5.558947
  H      1.801025   -1.304298   -6.289129
  H      3.716116   -2.628797   -3.829533
  H      0.395828   -3.627747   -4.185024
  H      0.039201   -2.454383   -5.371367
  F      0.617165   -0.005348   -5.998273
  O     -1.133173   -1.221380   -5.341465
  C      2.191199   -1.619503   -1.715492
  H      2.872783   -3.666368   -1.828014
  H      1.246188   -3.447444   -2.407842
  C      1.298729   -0.554314   -2.359773
  H      1.872917   -1.787955   -0.681310
  H      3.216809   -1.238432   -1.654428
  C     -0.196255   -0.863365   -2.325763
  H      1.612531   -0.371346   -3.393065
  H      1.480944    0.388638   -1.834444
  H     -0.404105   -1.761825   -2.909448
  H     -0.490439   -1.087880   -1.294131
  H     -1.143842    1.066711   -2.129680
  H     -2.114401   -0.156834   -2.930323

 Total Charge           Charge          ....    0
 Multiplicity           Mult            ....    1
 Number of Electrons    NEL             ....  102
 Basis Dimension        Dim             ....  402

ORBITAL ENERGIES
----------------

  NO   OCC          E(Eh)            E(eV)
   0   2.0000     -24.883964      -677.1271
   1   2.0000     -19.258471      -524.0496
   2   2.0000     -14.394104      -391.6835
   3   2.0000     -14.384539      -391.4232
   4   2.0000     -10.477020      -285.0942
   5   2.0000     -10.306217      -280.4464
   6   2.0000     -10.299059      -280.2517
   7   2.0000     -10.279190      -279.7110
   8   2.0000     -10.258260      -279.1414
   9   2.0000     -10.254613      -279.0422
  10   2.0000     -10.241497      -278.6853
  11   2.0000     -10.230963      -278.3987
  12   2.0000     -10.172692      -276.8130
  13   2.0000      -1.429668       -38.9032
  14   2.0000      -1.148085       -31.2410
  15   2.0000      -1.034744       -28.1568
  16   2.0000      -0.939250       -25.5583
  17   2.0000      -0.911164       -24.7940
  18   2.0000      -0.869214       -23.6525
  19   2.0000      -0.832193       -22.6451
  20   2.0000      -0.788395       -21.4533
  21   2.0000      -0.767145       -20.8751
  22   2.0000      -0.729999       -19.8643
  23   2.0000      -0.690309       -18.7843
  24   2.0000      -0.670803       -18.2535
  25   2.0000      -0.658255       -17.9120
  26   2.0000      -0.647754       -17.6263
  27   2.0000      -0.626327       -17.0432
  28   2.0000      -0.617484       -16.8026
  29   2.0000      -0.591331       -16.0909
  30   2.0000      -0.566755       -15.4222
  31   2.0000      -0.556162       -15.1339
  32   2.0000      -0.549372       -14.9492
  33   2.0000      -0.528696       -14.3865
  34   2.0000      -0.517391       -14.0789
  35   2.0000      -0.510470       -13.8906
  36   2.0000      -0.494872       -13.4662
  37   2.0000      -0.481508       -13.1025
  38   2.0000      -0.465454       -12.6656
  39   2.0000      -0.457523       -12.4498
  40   2.0000      -0.447361       -12.1733
  41   2.0000      -0.437503       -11.9050
  42   2.0000      -0.426224       -11.5981
  43   2.0000      -0.415026       -11.2934
  44   2.0000      -0.405127       -11.0241
  45   2.0000      -0.395900       -10.7730
  46   2.0000      -0.384059       -10.4508
  47   2.0000      -0.377472       -10.2715
  48   2.0000      -0.370427       -10.0798
  49   2.0000      -0.324340        -8.8258
  50   2.0000      -0.208723        -5.6796
  51   0.0000      -0.015565        -0.4236
  52   0.0000       0.033557         0.9131
  53   0.0000       0.056469         1.5366
  54   0.0000       0.060962         1.6589
  55   0.0000       0.065383         1.7792

MULLIKEN ATOMIC CHARGES
-----------------------
   0 C :    0.484902
   1 C :   -0.050455
   2 C :    0.697197
   3 C :    0.313093
   4 H :    0.125890
   5 H :   -0.316516
   6 C :    0.622399
   7 C :    0.227929
   8 N :    0.379003
   9 N :    0.206059
  10 H :    0.104208
  11 H :   -0.213859
  12 H :   -0.273633
  13 H :    0.042356
  14 H :   -0.536224
  15 F :   -0.379935
  16 O :   -0.560951
  17 C :    0.587222
  18 H :   -0.232363
  19 H :   -0.237249
  20 C :    0.151304
  21 H :   -0.088837
  22 H :   -0.165411
  23 C :    0.148500
  24 H :   -0.248057
  25 H :   -0.187112
  26 H :   -0.246162
  27 H :   -0.201039
  28 H :   -0.159715
  29 H :    0.007457
Sum of atomic charges:    0.0000000

LOEWDIN ATOMIC CHARGES
----------------------
   0 C :   -0.061933
   1 C :   -0.018653
   2 C :   -0.010136
   3 C :    0.058280
   4 H :    0.028033
   5 H :    0.043193
   6 C :    0.029922
   7 C :   -0.227273
   8 N :    0.234480
   9 N :    0.211549
  10 H :    0.007028
  11 H :   -0.066780
  12 H :   -0.060904
  13 H :    0.003821
  14 H :   -0.101367
  15 F :   -0.027983
  16 O :   -0.114342
  17 C :   -0.023151
  18 H :    0.010795
  19 H :   -0.008506
  20 C :   -0.027474
  21 H :    0.017500
  22 H :    0.022088
  23 C :   -0.022628
  24 H :   -0.000531
  25 H :    0.023950
  26 H :   -0.006835
  27 H :    0.030517
  28 H :    0.028650
  29 H :    0.028690

  Mayer bond orders larger than 0.100000
B(  0-C ,  1-C ) :   1.1578 B(  0-C ,  7-C ) :   0.1585 B(  0-C , 12-H ) :   0.4032
B(  0-C , 17-C ) :   1.1196 B(  0-C , 18-H ) :   0.6539 B(  0-C , 19-H ) :   0.7105
B(  0-C , 21-H ) :   0.2245 B(  0-C , 22-H ) :   0.2028 B(  1-C ,  7-C ) :   1.6142
B(  1-C ,  8-N ) :   0.1452 B(  1-C ,  9-N ) :   0.3129 B(  1-C , 12-H ) :   0.4658
B(  1-C , 18-H ) :   0.2373 B(  1-C , 19-H ) :   0.2383 B(  2-C ,  3-C ) :   1.1537
B(  2-C ,  4-H ) :   0.1214 B(  2-C ,  5-H ) :   0.1830 B(  2-C , 23-C ) :   1.2228
B(  2-C , 28-H ) :   0.7246 B(  2-C , 29-H ) :   0.5903 B(  3-C ,  4-H ) :   0.7955
B(  3-C ,  5-H ) :   0.7189 B(  3-C ,  6-C ) :   1.1809 B(  3-C , 23-C ) :   0.1342
B(  3-C , 28-H ) :   0.1715 B(  3-C , 29-H ) :   0.1090 B(  4-H ,  6-C ) :   0.1813
B(  5-H ,  6-C ) :   0.2031 B(  6-C , 15-F ) :   0.6765 B(  6-C , 16-O ) :   1.7055
B(  7-C ,  8-N ) :   1.0423 B(  7-C ,  9-N ) :   0.8935 B(  7-C , 11-H ) :   0.1330
B(  7-C , 12-H ) :   0.4179 B(  8-N ,  9-N ) :   0.1075 B(  8-N , 13-H ) :   0.8928
B(  8-N , 14-H ) :   1.1619 B(  9-N , 10-H ) :   0.8551 B(  9-N , 11-H ) :   0.8127
B( 13-H , 14-H ) :  -0.2476 B( 14-H , 16-O ) :   0.1728 B( 17-C , 18-H ) :   0.1172
B( 17-C , 19-H ) :   0.1365 B( 17-C , 20-C ) :   1.2168 B( 17-C , 21-H ) :   0.7186
B( 17-C , 22-H ) :   0.6248 B( 17-C , 24-H ) :   0.1238 B( 20-C , 21-H ) :   0.1735
B( 20-C , 22-H ) :   0.3106 B( 20-C , 23-C ) :   1.2394 B( 20-C , 24-H ) :   0.8524
B( 20-C , 25-H ) :   0.7216 B( 20-C , 26-H ) :   0.1606 B( 20-C , 27-H ) :   0.2283
B( 21-H , 22-H ) :  -0.1547 B( 23-C , 24-H ) :   0.1723 B( 23-C , 25-H ) :   0.2249
B( 23-C , 26-H ) :   0.8790 B( 23-C , 27-H ) :   0.7128 B( 23-C , 28-H ) :   0.1808
B( 23-C , 29-H ) :   0.2955 B( 28-H , 29-H ) :  -0.1350

FINAL SINGLE POINT ENERGY      -636.985967335993

DIPOLE MOMENT
-------------
                                X             Y             Z
Electronic contribution:     -3.11148       2.27810     -14.49213
Nuclear contribution   :      2.31842      -0.27661      14.74721
                        -----------------------------------------
Total Dipole Moment    :     -0.79306       2.00150       0.25508
                        -----------------------------------------
Magnitude (a.u.)       :      2.16795
Magnitude (Debye)      :      5.51048

Rotational constants in cm-1:     0.032691     0.023990     0.017099
Rotational constants in MHz :   980.050971   719.190545   512.606858

                             ****ORCA TERMINATED NORMALLY****
TOTAL RUN TIME: 0 days 0 hours 4 minutes 10 seconds 357 msec
