                         Program Version 5.0.0 -  RELEASE  -
|  1> !CAM-B3LYP RIJCOSX def2-SVPD def2/J TightSCF xyzfile
|  2>
|  3> *xyzfile 0 1 D2.xyz
|  4>
|  5> %MaxCore 64000
|  6>
|  7> %pal nprocs 4
|  8> end
|  9>
| 10> %scf
| 11>   MaxIter 150
| 12> end
| 13>
| 14>
| 15>                          ****END OF INPUT****

CARTESIAN COORDINATES (ANGSTROEM)
---------------------------------
  C      2.234473   -2.989754   -2.397622
  N      2.756799   -2.945553   -3.765029
  C     -1.104325    0.251374   -2.860056
  C     -0.711893    0.842517   -4.218344
  H      0.154626    1.499800   -4.130909
  H     -1.538134    1.459222   -4.582671
  C     -0.397624   -0.205875   -5.288018
  C      1.987208   -2.590451   -4.818975
  C      0.743221   -3.017493   -4.913524
  N      2.499636   -1.848598   -5.803241
  H      3.309780   -1.292818   -5.558947
  H      1.801025   -1.304298   -6.289129
  H      3.716116   -2.628797   -3.829533
  H      0.395828   -3.627747   -4.185024
  H      0.039201   -2.454383   -5.371367
  F      0.617165   -0.005348   -5.998273
  O     -1.133173   -1.221380   -5.341465
  C      2.191199   -1.619503   -1.715492
  H      2.872783   -3.666368   -1.828014
  H      1.246188   -3.447444   -2.407842
  C      1.298729   -0.554314   -2.359773
  H      1.872917   -1.787955   -0.681310
  H      3.216809   -1.238432   -1.654428
  C     -0.196255   -0.863365   -2.325763
  H      1.612531   -0.371346   -3.393065
  H      1.480944    0.388638   -1.834444
  H     -0.404105   -1.761825   -2.909448
  H     -0.490439   -1.087880   -1.294131
  H     -1.143842    1.066711   -2.129680
  H     -2.114401   -0.156834   -2.930323

 Total Charge           Charge          ....    0
 Multiplicity           Mult            ....    1
 Number of Electrons    NEL             ....  102
 Basis Dimension        Dim             ....  402

ORBITAL ENERGIES
----------------

  NO   OCC          E(Eh)            E(eV)
   0   2.0000     -24.866843      -676.6612
   1   2.0000     -19.233629      -523.3736
   2   2.0000     -14.398193      -391.7948
   3   2.0000     -14.391585      -391.6149
   4   2.0000     -10.455603      -284.5114
   5   2.0000     -10.295697      -280.1602
   6   2.0000     -10.293290      -280.0947
   7   2.0000     -10.286702      -279.9154
   8   2.0000     -10.272814      -279.5375
   9   2.0000     -10.261264      -279.2232
  10   2.0000     -10.260158      -279.1931
  11   2.0000     -10.254442      -279.0375
  12   2.0000     -10.155569      -276.3471
  13   2.0000      -1.412335       -38.4316
  14   2.0000      -1.123499       -30.5720
  15   2.0000      -1.035482       -28.1769
  16   2.0000      -0.955881       -26.0109
  17   2.0000      -0.903428       -24.5835
  18   2.0000      -0.863750       -23.5038
  19   2.0000      -0.812049       -22.0970
  20   2.0000      -0.785770       -21.3819
  21   2.0000      -0.768571       -20.9139
  22   2.0000      -0.740522       -20.1506
  23   2.0000      -0.694823       -18.9071
  24   2.0000      -0.665848       -18.1186
  25   2.0000      -0.647758       -17.6264
  26   2.0000      -0.623229       -16.9589
  27   2.0000      -0.621474       -16.9112
  28   2.0000      -0.606104       -16.4929
  29   2.0000      -0.597433       -16.2570
  30   2.0000      -0.567728       -15.4487
  31   2.0000      -0.555699       -15.1213
  32   2.0000      -0.543260       -14.7828
  33   2.0000      -0.521674       -14.1955
  34   2.0000      -0.515790       -14.0354
  35   2.0000      -0.496993       -13.5239
  36   2.0000      -0.487744       -13.2722
  37   2.0000      -0.479554       -13.0493
  38   2.0000      -0.468844       -12.7579
  39   2.0000      -0.454338       -12.3632
  40   2.0000      -0.444441       -12.0939
  41   2.0000      -0.434599       -11.8260
  42   2.0000      -0.429147       -11.6777
  43   2.0000      -0.423199       -11.5158
  44   2.0000      -0.414190       -11.2707
  45   2.0000      -0.397470       -10.8157
  46   2.0000      -0.388563       -10.5733
  47   2.0000      -0.385091       -10.4788
  48   2.0000      -0.355914        -9.6849
  49   2.0000      -0.309176        -8.4131
  50   2.0000      -0.222233        -6.0473
  51   0.0000       0.003713         0.1010
  52   0.0000       0.036846         1.0026
  53   0.0000       0.052872         1.4387
  54   0.0000       0.057938         1.5766
  55   0.0000       0.069329         1.8865

MULLIKEN ATOMIC CHARGES
-----------------------
   0 C :    0.945582
   1 N :   -0.282671
   2 C :    0.718113
   3 C :    0.312696
   4 H :    0.099969
   5 H :   -0.325817
   6 C :    0.531116
   7 C :    0.309582
   8 C :    0.995188
   9 N :    0.245432
  10 H :    0.025346
  11 H :   -0.196956
  12 H :   -0.229061
  13 H :   -0.140348
  14 H :   -0.918002
  15 F :   -0.404686
  16 O :   -0.592602
  17 C :    0.506300
  18 H :   -0.450043
  19 H :   -0.074073
  20 C :    0.149494
  21 H :   -0.049604
  22 H :   -0.158634
  23 C :    0.073337
  24 H :   -0.296915
  25 H :   -0.215544
  26 H :   -0.228756
  27 H :   -0.201177
  28 H :   -0.161089
  29 H :    0.013822
Sum of atomic charges:   -0.0000000

LOEWDIN ATOMIC CHARGES
----------------------
   0 C :    0.056307
   1 N :    0.002543
   2 C :   -0.009561
   3 C :    0.055700
   4 H :    0.024386
   5 H :    0.040989
   6 C :    0.025269
   7 C :   -0.237610
   8 C :    0.183253
   9 N :    0.204442
  10 H :   -0.011004
  11 H :   -0.056938
  12 H :    0.010792
  13 H :   -0.085054
  14 H :   -0.162328
  15 F :   -0.031268
  16 O :   -0.117644
  17 C :   -0.017015
  18 H :    0.018154
  19 H :    0.006213
  20 C :   -0.026836
  21 H :    0.022158
  22 H :    0.017802
  23 C :   -0.019382
  24 H :   -0.000209
  25 H :    0.024642
  26 H :   -0.002501
  27 H :    0.028927
  28 H :    0.026223
  29 H :    0.029549

  Mayer bond orders larger than 0.100000
B(  0-C ,  1-N ) :   0.9389 B(  0-C ,  8-C ) :   0.1070 B(  0-C , 17-C ) :   1.0682
B(  0-C , 18-H ) :   0.7186 B(  0-C , 19-H ) :   0.7317 B(  0-C , 21-H ) :   0.1729
B(  0-C , 22-H ) :   0.1309 B(  1-N ,  7-C ) :   1.0286 B(  1-N ,  8-C ) :   0.3147
B(  1-N ,  9-N ) :   0.1407 B(  1-N , 12-H ) :   1.0498 B(  1-N , 18-H ) :   0.2157
B(  1-N , 19-H ) :   0.1370 B(  2-C ,  3-C ) :   1.1483 B(  2-C ,  4-H ) :   0.1138
B(  2-C ,  5-H ) :   0.1767 B(  2-C , 23-C ) :   1.2350 B(  2-C , 28-H ) :   0.7132
B(  2-C , 29-H ) :   0.5899 B(  3-C ,  4-H ) :   0.8104 B(  3-C ,  5-H ) :   0.7021
B(  3-C ,  6-C ) :   1.1945 B(  3-C , 23-C ) :   0.1331 B(  3-C , 28-H ) :   0.1796
B(  3-C , 29-H ) :   0.1080 B(  4-H ,  6-C ) :   0.1810 B(  5-H ,  6-C ) :   0.2238
B(  6-C , 14-H ) :   0.1237 B(  6-C , 15-F ) :   0.6424 B(  6-C , 16-O ) :   1.8135
B(  7-C ,  8-C ) :   1.8167 B(  7-C ,  9-N ) :   0.8376 B(  7-C , 13-H ) :   0.3961
B(  7-C , 14-H ) :   0.1617 B(  8-C ,  9-N ) :   0.2298 B(  8-C , 13-H ) :   0.2680
B(  9-N , 10-H ) :   0.8394 B(  9-N , 11-H ) :   0.9299 B( 14-H , 16-O ) :   0.2749
B( 15-F , 16-O ) :   0.1089 B( 17-C , 18-H ) :   0.1174 B( 17-C , 19-H ) :   0.1457
B( 17-C , 20-C ) :   1.2048 B( 17-C , 21-H ) :   0.7527 B( 17-C , 22-H ) :   0.6701
B( 17-C , 24-H ) :   0.1271 B( 18-H , 19-H ) :  -0.1644 B( 20-C , 21-H ) :   0.1914
B( 20-C , 22-H ) :   0.2782 B( 20-C , 23-C ) :   1.2389 B( 20-C , 24-H ) :   0.8681
B( 20-C , 25-H ) :   0.7604 B( 20-C , 26-H ) :   0.1657 B( 20-C , 27-H ) :   0.2561
B( 21-H , 22-H ) :  -0.1266 B( 23-C , 24-H ) :   0.1846 B( 23-C , 25-H ) :   0.2314
B( 23-C , 26-H ) :   0.9096 B( 23-C , 27-H ) :   0.6849 B( 23-C , 28-H ) :   0.1849
B( 23-C , 29-H ) :   0.2939 B( 28-H , 29-H ) :  -0.1413

FINAL SINGLE POINT ENERGY      -636.965544414735

DIPOLE MOMENT
-------------
                                X             Y             Z
Electronic contribution:     -1.50228       2.20372     -13.50664
Nuclear contribution   :      2.00823      -0.28769      14.57028
                        -----------------------------------------
Total Dipole Moment    :      0.50595       1.91604       1.06364
                        -----------------------------------------
Magnitude (a.u.)       :      2.24911
Magnitude (Debye)      :      5.71679

Rotational constants in cm-1:     0.033070     0.023715     0.016943
Rotational constants in MHz :   991.423248   710.957140   507.940500

                             ****ORCA TERMINATED NORMALLY****
TOTAL RUN TIME: 0 days 0 hours 4 minutes 12 seconds 794 msec
