                         Program Version 5.0.0 -  RELEASE  -
|  1> !CAM-B3LYP RIJCOSX def2-SVPD def2/J TightSCF xyzfile
|  2>
|  3> *xyzfile 0 1 D3.xyz
|  4>
|  5> %MaxCore 64000
|  6>
|  7> %pal nprocs 4
|  8> end
|  9>
| 10> %scf
| 11>   MaxIter 150
| 12> end
| 13>
| 14>
| 15>                          ****END OF INPUT****

CARTESIAN COORDINATES (ANGSTROEM)
---------------------------------
  C      2.234473   -2.989754   -2.397622
  N      2.756799   -2.945553   -3.765029
  C     -1.104325    0.251374   -2.860056
  C     -0.711893    0.842517   -4.218344
  H      0.154626    1.499800   -4.130909
  H     -1.538134    1.459222   -4.582671
  C     -0.397624   -0.205875   -5.288018
  C      1.987208   -2.590451   -4.818975
  N      0.743221   -3.017493   -4.913524
  C      2.499636   -1.848598   -5.803241
  H      3.309780   -1.292818   -5.558947
  H      1.801025   -1.304298   -6.289129
  H      3.716116   -2.628797   -3.829533
  H      0.395828   -3.627747   -4.185024
  H      0.039201   -2.454383   -5.371367
  F      0.617165   -0.005348   -5.998273
  O     -1.133173   -1.221380   -5.341465
  C      2.191199   -1.619503   -1.715492
  H      2.872783   -3.666368   -1.828014
  H      1.246188   -3.447444   -2.407842
  C      1.298729   -0.554314   -2.359773
  H      1.872917   -1.787955   -0.681310
  H      3.216809   -1.238432   -1.654428
  C     -0.196255   -0.863365   -2.325763
  H      1.612531   -0.371346   -3.393065
  H      1.480944    0.388638   -1.834444
  H     -0.404105   -1.761825   -2.909448
  H     -0.490439   -1.087880   -1.294131
  H     -1.143842    1.066711   -2.129680
  H     -2.114401   -0.156834   -2.930323

 Total Charge           Charge          ....    0
 Multiplicity           Mult            ....    1
 Number of Electrons    NEL             ....  102
 Basis Dimension        Dim             ....  402

ORBITAL ENERGIES
----------------

  NO   OCC          E(Eh)            E(eV)
   0   2.0000     -24.860106      -676.4779
   1   2.0000     -19.247029      -523.7383
   2   2.0000     -14.398010      -391.7898
   3   2.0000     -14.381659      -391.3448
   4   2.0000     -10.466215      -284.8002
   5   2.0000     -10.300788      -280.2987
   6   2.0000     -10.299160      -280.2544
   7   2.0000     -10.294390      -280.1246
   8   2.0000     -10.279475      -279.7187
   9   2.0000     -10.263792      -279.2920
  10   2.0000     -10.263639      -279.2878
  11   2.0000     -10.263373      -279.2806
  12   2.0000     -10.158297      -276.4213
  13   2.0000      -1.407043       -38.2876
  14   2.0000      -1.137149       -30.9434
  15   2.0000      -1.035261       -28.1709
  16   2.0000      -0.950855       -25.8741
  17   2.0000      -0.909896       -24.7595
  18   2.0000      -0.869405       -23.6577
  19   2.0000      -0.822827       -22.3903
  20   2.0000      -0.786712       -21.4075
  21   2.0000      -0.766299       -20.8521
  22   2.0000      -0.730808       -19.8863
  23   2.0000      -0.693938       -18.8830
  24   2.0000      -0.672297       -18.2941
  25   2.0000      -0.655618       -17.8403
  26   2.0000      -0.640539       -17.4300
  27   2.0000      -0.620414       -16.8823
  28   2.0000      -0.606140       -16.4939
  29   2.0000      -0.598919       -16.2974
  30   2.0000      -0.567678       -15.4473
  31   2.0000      -0.554770       -15.0961
  32   2.0000      -0.546168       -14.8620
  33   2.0000      -0.535132       -14.5617
  34   2.0000      -0.521955       -14.2031
  35   2.0000      -0.506980       -13.7956
  36   2.0000      -0.487967       -13.2783
  37   2.0000      -0.481196       -13.0940
  38   2.0000      -0.461689       -12.5632
  39   2.0000      -0.452495       -12.3130
  40   2.0000      -0.447363       -12.1734
  41   2.0000      -0.437778       -11.9125
  42   2.0000      -0.431330       -11.7371
  43   2.0000      -0.427455       -11.6316
  44   2.0000      -0.413899       -11.2628
  45   2.0000      -0.401917       -10.9367
  46   2.0000      -0.399640       -10.8748
  47   2.0000      -0.391943       -10.6653
  48   2.0000      -0.380605       -10.3568
  49   2.0000      -0.306592        -8.3428
  50   2.0000      -0.219684        -5.9779
  51   0.0000      -0.004909        -0.1336
  52   0.0000       0.039011         1.0615
  53   0.0000       0.051730         1.4076
  54   0.0000       0.056039         1.5249
  55   0.0000       0.064870         1.7652

MULLIKEN ATOMIC CHARGES
-----------------------
   0 C :    0.997583
   1 N :   -0.407210
   2 C :    0.713973
   3 C :    0.292412
   4 H :    0.118554
   5 H :   -0.306548
   6 C :    0.634464
   7 C :    0.164210
   8 N :    0.494409
   9 C :    0.960312
  10 H :   -0.162820
  11 H :   -0.793094
  12 H :   -0.155426
  13 H :   -0.062878
  14 H :   -0.405394
  15 F :   -0.413164
  16 O :   -0.554260
  17 C :    0.480604
  18 H :   -0.452952
  19 H :   -0.084549
  20 C :    0.127028
  21 H :   -0.047655
  22 H :   -0.185931
  23 C :    0.120359
  24 H :   -0.173779
  25 H :   -0.292451
  26 H :   -0.232034
  27 H :   -0.219309
  28 H :   -0.161566
  29 H :    0.007111
Sum of atomic charges:   -0.0000000

LOEWDIN ATOMIC CHARGES
----------------------
   0 C :    0.050341
   1 N :    0.007965
   2 C :   -0.009690
   3 C :    0.059016
   4 H :    0.028560
   5 H :    0.042944
   6 C :    0.035689
   7 C :   -0.232022
   8 N :    0.232715
   9 C :    0.149342
  10 H :   -0.098634
  11 H :   -0.147463
  12 H :    0.024240
  13 H :   -0.009489
  14 H :   -0.090725
  15 F :   -0.028171
  16 O :   -0.119142
  17 C :   -0.016508
  18 H :    0.017146
  19 H :    0.000962
  20 C :   -0.023203
  21 H :    0.021011
  22 H :    0.021526
  23 C :   -0.024376
  24 H :    0.004300
  25 H :    0.025785
  26 H :   -0.007953
  27 H :    0.028746
  28 H :    0.028015
  29 H :    0.029071

  Mayer bond orders larger than 0.100000
B(  0-C ,  1-N ) :   0.9303 B(  0-C , 12-H ) :  -0.1075 B(  0-C , 17-C ) :   1.0804
B(  0-C , 18-H ) :   0.7102 B(  0-C , 19-H ) :   0.7390 B(  0-C , 21-H ) :   0.1515
B(  0-C , 22-H ) :   0.1584 B(  1-N ,  7-C ) :   1.0622 B(  1-N ,  9-C ) :   0.2076
B(  1-N , 12-H ) :   1.1211 B(  1-N , 18-H ) :   0.2416 B(  1-N , 19-H ) :   0.1436
B(  2-C ,  3-C ) :   1.1590 B(  2-C ,  4-H ) :   0.1131 B(  2-C ,  5-H ) :   0.1765
B(  2-C , 23-C ) :   1.2260 B(  2-C , 28-H ) :   0.7300 B(  2-C , 29-H ) :   0.5871
B(  3-C ,  4-H ) :   0.8085 B(  3-C ,  5-H ) :   0.7120 B(  3-C ,  6-C ) :   1.1820
B(  3-C , 23-C ) :   0.1284 B(  3-C , 28-H ) :   0.1718 B(  3-C , 29-H ) :   0.1018
B(  4-H ,  6-C ) :   0.1911 B(  5-H ,  6-C ) :   0.2076 B(  6-C , 15-F ) :   0.7013
B(  6-C , 16-O ) :   1.6869 B(  7-C ,  8-N ) :   1.0084 B(  7-C ,  9-C ) :   1.9569
B(  7-C , 10-H ) :   0.3615 B(  7-C , 11-H ) :   0.3913 B(  7-C , 12-H ) :  -0.1241
B(  8-N ,  9-C ) :   0.2107 B(  8-N , 13-H ) :   0.9169 B(  8-N , 14-H ) :   1.0236
B(  9-C , 10-H ) :   0.3827 B( 10-H , 11-H ) :   0.3424 B( 11-H , 15-F ) :   0.1894
B( 13-H , 14-H ) :  -0.2364 B( 14-H , 16-O ) :   0.1502 B( 15-F , 16-O ) :   0.1062
B( 17-C , 18-H ) :   0.1247 B( 17-C , 19-H ) :   0.1521 B( 17-C , 20-C ) :   1.2160
B( 17-C , 21-H ) :   0.7897 B( 17-C , 22-H ) :   0.6421 B( 17-C , 24-H ) :   0.1229
B( 18-H , 19-H ) :  -0.1671 B( 20-C , 21-H ) :   0.1703 B( 20-C , 22-H ) :   0.2852
B( 20-C , 23-C ) :   1.2508 B( 20-C , 24-H ) :   0.8762 B( 20-C , 25-H ) :   0.7703
B( 20-C , 26-H ) :   0.1712 B( 20-C , 27-H ) :   0.2295 B( 21-H , 22-H ) :  -0.1269
B( 23-C , 24-H ) :   0.1599 B( 23-C , 25-H ) :   0.1957 B( 23-C , 26-H ) :   0.8928
B( 23-C , 27-H ) :   0.6954 B( 23-C , 28-H ) :   0.1855 B( 23-C , 29-H ) :   0.2934
B( 26-H , 27-H ) :   0.1011 B( 28-H , 29-H ) :  -0.1390

FINAL SINGLE POINT ENERGY      -636.971456629755

DIPOLE MOMENT
-------------
                                X             Y             Z
Electronic contribution:     -2.87342       1.37714     -12.69912
Nuclear contribution   :      2.27881      -0.10762      14.43322
                        -----------------------------------------
Total Dipole Moment    :     -0.59461       1.26952       1.73409
                        -----------------------------------------
Magnitude (a.u.)       :      2.22987
Magnitude (Debye)      :      5.66788

Rotational constants in cm-1:     0.033336     0.023673     0.017062
Rotational constants in MHz :   999.388459   709.685364   511.514310

                             ****ORCA TERMINATED NORMALLY****
TOTAL RUN TIME: 0 days 0 hours 4 minutes 10 seconds 756 msec
