                         Program Version 5.0.0 -  RELEASE  -
|  1> !CAM-B3LYP RIJCOSX def2-SVPD def2/J TightSCF xyzfile
|  2>
|  3> *xyzfile 0 1 D6.xyz
|  4>
|  5> %MaxCore 64000
|  6>
|  7> %pal nprocs 4
|  8> end
|  9>
| 10> %scf
| 11>   MaxIter 150
| 12> end
| 13>
| 14>
| 15>                          ****END OF INPUT****

CARTESIAN COORDINATES (ANGSTROEM)
---------------------------------
  C      2.234473   -2.989754   -2.397622
  N      2.756799   -2.945553   -3.765029
  C     -1.104325    0.251374   -2.860056
  C     -0.711893    0.842517   -4.218344
  H      0.154626    1.499800   -4.130909
  H     -1.538134    1.459222   -4.582671
  C     -0.397624   -0.205875   -5.288018
  C      1.987208   -2.590451   -4.818975
  N      0.743221   -3.017493   -4.913524
  C      2.499636   -1.848598   -5.803241
  H      3.309780   -1.292818   -5.558947
  H      1.801025   -1.304298   -6.289129
  H      3.716116   -2.628797   -3.829533
  H      0.395828   -3.627747   -4.185024
  H      0.039201   -2.454383   -5.371367
  O      0.617165   -0.005348   -5.998273
  F     -1.133173   -1.221380   -5.341465
  C      2.191199   -1.619503   -1.715492
  H      2.872783   -3.666368   -1.828014
  H      1.246188   -3.447444   -2.407842
  C      1.298729   -0.554314   -2.359773
  H      1.872917   -1.787955   -0.681310
  H      3.216809   -1.238432   -1.654428
  C     -0.196255   -0.863365   -2.325763
  H      1.612531   -0.371346   -3.393065
  H      1.480944    0.388638   -1.834444
  H     -0.404105   -1.761825   -2.909448
  H     -0.490439   -1.087880   -1.294131
  H     -1.143842    1.066711   -2.129680
  H     -2.114401   -0.156834   -2.930323

 Total Charge           Charge          ....    0
 Multiplicity           Mult            ....    1
 Number of Electrons    NEL             ....  102
 Basis Dimension        Dim             ....  402

ORBITAL ENERGIES
----------------

  NO   OCC          E(Eh)            E(eV)
   0   2.0000     -24.870442      -676.7591
   1   2.0000     -19.237467      -523.4781
   2   2.0000     -14.395941      -391.7335
   3   2.0000     -14.393712      -391.6728
   4   2.0000     -10.456436      -284.5341
   5   2.0000     -10.297128      -280.1991
   6   2.0000     -10.294824      -280.1364
   7   2.0000     -10.294024      -280.1146
   8   2.0000     -10.281480      -279.7733
   9   2.0000     -10.268469      -279.4192
  10   2.0000     -10.262635      -279.2605
  11   2.0000     -10.261437      -279.2279
  12   2.0000     -10.149230      -276.1746
  13   2.0000      -1.417281       -38.5662
  14   2.0000      -1.124584       -30.6015
  15   2.0000      -1.036671       -28.2093
  16   2.0000      -0.954958       -25.9857
  17   2.0000      -0.912304       -24.8250
  18   2.0000      -0.868851       -23.6426
  19   2.0000      -0.820025       -22.3140
  20   2.0000      -0.787127       -21.4188
  21   2.0000      -0.761574       -20.7235
  22   2.0000      -0.739537       -20.1238
  23   2.0000      -0.693510       -18.8714
  24   2.0000      -0.682891       -18.5824
  25   2.0000      -0.657900       -17.9024
  26   2.0000      -0.644272       -17.5315
  27   2.0000      -0.636738       -17.3265
  28   2.0000      -0.603482       -16.4216
  29   2.0000      -0.583655       -15.8821
  30   2.0000      -0.566722       -15.4213
  31   2.0000      -0.554888       -15.0993
  32   2.0000      -0.542266       -14.7558
  33   2.0000      -0.533604       -14.5201
  34   2.0000      -0.519101       -14.1254
  35   2.0000      -0.508847       -13.8464
  36   2.0000      -0.488105       -13.2820
  37   2.0000      -0.481125       -13.0921
  38   2.0000      -0.460322       -12.5260
  39   2.0000      -0.453714       -12.3462
  40   2.0000      -0.450464       -12.2578
  41   2.0000      -0.440136       -11.9767
  42   2.0000      -0.435421       -11.8484
  43   2.0000      -0.428535       -11.6610
  44   2.0000      -0.406771       -11.0688
  45   2.0000      -0.400448       -10.8968
  46   2.0000      -0.399028       -10.8581
  47   2.0000      -0.391649       -10.6573
  48   2.0000      -0.357099        -9.7172
  49   2.0000      -0.310381        -8.4459
  50   2.0000      -0.214534        -5.8378
  51   0.0000       0.003806         0.1036
  52   0.0000       0.035139         0.9562
  53   0.0000       0.051196         1.3931
  54   0.0000       0.053843         1.4651
  55   0.0000       0.065752         1.7892

MULLIKEN ATOMIC CHARGES
-----------------------
   0 C :    1.001109
   1 N :   -0.411836
   2 C :    0.704480
   3 C :    0.343122
   4 H :    0.116394
   5 H :   -0.318591
   6 C :    0.519252
   7 C :    0.131555
   8 N :    0.498774
   9 C :    0.939718
  10 H :   -0.165976
  11 H :   -0.727020
  12 H :   -0.149798
  13 H :   -0.064972
  14 H :   -0.393491
  15 O :   -0.426698
  16 F :   -0.448917
  17 C :    0.496516
  18 H :   -0.456020
  19 H :   -0.091654
  20 C :    0.149398
  21 H :   -0.054154
  22 H :   -0.185003
  23 C :    0.151051
  24 H :   -0.176559
  25 H :   -0.304249
  26 H :   -0.273051
  27 H :   -0.202823
  28 H :   -0.169761
  29 H :   -0.030794
Sum of atomic charges:    0.0000000

LOEWDIN ATOMIC CHARGES
----------------------
   0 C :    0.048483
   1 N :    0.006282
   2 C :   -0.020139
   3 C :    0.063633
   4 H :    0.037731
   5 H :    0.039659
   6 C :    0.022590
   7 C :   -0.233189
   8 N :    0.230233
   9 C :    0.157807
  10 H :   -0.092594
  11 H :   -0.164853
  12 H :    0.024871
  13 H :   -0.011448
  14 H :   -0.060230
  15 O :   -0.113482
  16 F :   -0.032563
  17 C :   -0.016761
  18 H :    0.016785
  19 H :   -0.000939
  20 C :   -0.019653
  21 H :    0.020036
  22 H :    0.022303
  23 C :   -0.028644
  24 H :    0.008893
  25 H :    0.026890
  26 H :   -0.011025
  27 H :    0.028239
  28 H :    0.027500
  29 H :    0.023584

  Mayer bond orders larger than 0.100000
B(  0-C ,  1-N ) :   0.9344 B(  0-C , 12-H ) :  -0.1048 B(  0-C , 17-C ) :   1.0765
B(  0-C , 18-H ) :   0.7101 B(  0-C , 19-H ) :   0.7378 B(  0-C , 21-H ) :   0.1532
B(  0-C , 22-H ) :   0.1592 B(  1-N ,  7-C ) :   1.0572 B(  1-N ,  9-C ) :   0.2132
B(  1-N , 12-H ) :   1.1152 B(  1-N , 18-H ) :   0.2422 B(  1-N , 19-H ) :   0.1442
B(  2-C ,  3-C ) :   1.1404 B(  2-C ,  5-H ) :   0.1768 B(  2-C , 23-C ) :   1.2143
B(  2-C , 28-H ) :   0.7463 B(  2-C , 29-H ) :   0.5885 B(  3-C ,  4-H ) :   0.8183
B(  3-C ,  5-H ) :   0.7140 B(  3-C ,  6-C ) :   1.1537 B(  3-C , 23-C ) :   0.1031
B(  3-C , 28-H ) :   0.1595 B(  3-C , 29-H ) :   0.1001 B(  4-H ,  5-H ) :  -0.1027
B(  4-H ,  6-C ) :   0.2355 B(  5-H ,  6-C ) :   0.2061 B(  6-C , 15-O ) :   1.7991
B(  6-C , 16-F ) :   0.6028 B(  7-C ,  8-N ) :   0.9983 B(  7-C ,  9-C ) :   1.9755
B(  7-C , 10-H ) :   0.3699 B(  7-C , 11-H ) :   0.4025 B(  7-C , 12-H ) :  -0.1279
B(  8-N ,  9-C ) :   0.2173 B(  8-N , 13-H ) :   0.9312 B(  8-N , 14-H ) :   1.0193
B(  9-C , 10-H ) :   0.3622 B( 10-H , 11-H ) :   0.3732 B( 11-H , 15-O ) :   0.2028
B( 13-H , 14-H ) :  -0.2245 B( 17-C , 18-H ) :   0.1238 B( 17-C , 19-H ) :   0.1539
B( 17-C , 20-C ) :   1.2099 B( 17-C , 21-H ) :   0.7854 B( 17-C , 22-H ) :   0.6393
B( 17-C , 24-H ) :   0.1234 B( 18-H , 19-H ) :  -0.1679 B( 20-C , 21-H ) :   0.1687
B( 20-C , 22-H ) :   0.2902 B( 20-C , 23-C ) :   1.2578 B( 20-C , 24-H ) :   0.8682
B( 20-C , 25-H ) :   0.7728 B( 20-C , 26-H ) :   0.1832 B( 20-C , 27-H ) :   0.2326
B( 21-H , 22-H ) :  -0.1299 B( 23-C , 24-H ) :   0.1604 B( 23-C , 25-H ) :   0.1943
B( 23-C , 26-H ) :   0.8489 B( 23-C , 27-H ) :   0.7080 B( 23-C , 28-H ) :   0.1882
B( 23-C , 29-H ) :   0.2892 B( 28-H , 29-H ) :  -0.1479

FINAL SINGLE POINT ENERGY      -636.961180095104

DIPOLE MOMENT
-------------
                                X             Y             Z
Electronic contribution:     -5.72719      -0.67503     -11.66123
Nuclear contribution   :      4.34606       1.32859      13.65749
                        -----------------------------------------
Total Dipole Moment    :     -1.38112       0.65356       1.99625
                        -----------------------------------------
Magnitude (a.u.)       :      2.51390
Magnitude (Debye)      :      6.38982

Rotational constants in cm-1:     0.033551     0.023540     0.017085
Rotational constants in MHz :  1005.818710   705.725032   512.192443

                             ****ORCA TERMINATED NORMALLY****
TOTAL RUN TIME: 0 days 0 hours 4 minutes 11 seconds 810 msec
