                         Program Version 5.0.0 -  RELEASE  -
|  1> !DLPNO-CCSD(T) aug-cc-pVTZ aug-cc-pVTZ/C TightSCF TightPNO RIJCOSX def2/J
|  2> *xyz -1 1
|  3> C          0.70466        1.44313       -4.50363
|  4> C          1.72854        1.42432       -5.63944
|  5> H          2.64672        1.95379       -5.38105
|  6> H          1.29992        1.93061       -6.50361
|  7> S          2.25263       -0.18811       -6.27184
|  8> O          3.56261       -0.44446       -5.63155
|  9> O          2.34494       -0.03374       -7.69650
| 10> C          1.05255        0.69566       -3.21491
| 11> H         -0.23248        1.03293       -4.88445
| 12> H          0.51170        2.49579       -4.26797
| 13> O          1.26606       -1.15918       -5.80536
| 14> H          1.24200       -0.33323       -3.43942
| 15> H          0.23391        0.76629       -2.52954
| 16> H          1.92506        1.13113       -2.77446
| 17> *
| 18>
| 19> %MaxCore 64000
| 20>
| 21> %pal nprocs 2
| 22> end
| 23>
| 24> %scf
| 25>   MaxIter 150
| 26> end
| 27>
| 28>
| 29>                          ****END OF INPUT****

CARTESIAN COORDINATES (ANGSTROEM)
---------------------------------
  C      0.704660    1.443130   -4.503630
  C      1.728540    1.424320   -5.639440
  H      2.646720    1.953790   -5.381050
  H      1.299920    1.930610   -6.503610
  S      2.252630   -0.188110   -6.271840
  O      3.562610   -0.444460   -5.631550
  O      2.344940   -0.033740   -7.696500
  C      1.052550    0.695660   -3.214910
  H     -0.232480    1.032930   -4.884450
  H      0.511700    2.495790   -4.267970
  O      1.266060   -1.159180   -5.805360
  H      1.242000   -0.333230   -3.439420
  H      0.233910    0.766290   -2.529540
  H      1.925060    1.131130   -2.774460

 Total Charge           Charge          ....   -1
 Multiplicity           Mult            ....    1
 Number of Electrons    NEL             ....   66
 Basis Dimension        Dim             ....  487

ORBITAL ENERGIES
----------------

  NO   OCC          E(Eh)            E(eV)
   0   2.0000     -91.984391     -2503.0225
   1   2.0000     -20.336456      -553.3831
   2   2.0000     -20.329366      -553.1902
   3   2.0000     -20.320348      -552.9448
   4   2.0000     -11.099475      -302.0321
   5   2.0000     -11.094272      -301.8905
   6   2.0000     -11.077226      -301.4266
   7   2.0000      -8.947702      -243.4794
   8   2.0000      -6.633822      -180.5155
   9   2.0000      -6.632599      -180.4822
  10   2.0000      -6.632434      -180.4777
  11   2.0000      -1.273672       -34.6584
  12   2.0000      -1.131349       -30.7856
  13   2.0000      -1.105506       -30.0824
  14   2.0000      -0.933792       -25.4098
  15   2.0000      -0.823072       -22.3969
  16   2.0000      -0.698315       -19.0021
  17   2.0000      -0.594305       -16.1719
  18   2.0000      -0.512814       -13.9544
  19   2.0000      -0.488751       -13.2996
  20   2.0000      -0.467775       -12.7288
  21   2.0000      -0.457321       -12.4443
  22   2.0000      -0.447616       -12.1803
  23   2.0000      -0.422856       -11.5065
  24   2.0000      -0.375705       -10.2234
  25   2.0000      -0.363970        -9.9041
  26   2.0000      -0.351135        -9.5549
  27   2.0000      -0.321835        -8.7576
  28   2.0000      -0.318247        -8.6599
  29   2.0000      -0.279438        -7.6039
  30   2.0000      -0.265865        -7.2345
  31   2.0000      -0.248679        -6.7669
  32   2.0000      -0.229704        -6.2506
  33   0.0000       0.108664         2.9569
  34   0.0000       0.119307         3.2465
  35   0.0000       0.127746         3.4762
  36   0.0000       0.141554         3.8519
  37   0.0000       0.145142         3.9495

MULLIKEN ATOMIC CHARGES
-----------------------
   0 C :   -0.441617
   1 C :   -0.554134
   2 H :    0.220973
   3 H :    0.204525
   4 S :    2.261556
   5 O :   -1.066057
   6 O :   -1.038671
   7 C :   -1.019222
   8 H :    0.259633
   9 H :    0.309358
  10 O :   -1.058517
  11 H :    0.392347
  12 H :    0.258275
  13 H :    0.271549
Sum of atomic charges:   -1.0000000

LOEWDIN ATOMIC CHARGES
----------------------
   0 C :    0.205903
   1 C :    0.145341
   2 H :   -0.210505
   3 H :   -0.224659
   4 S :   -0.378632
   5 O :   -0.079160
   6 O :   -0.047387
   7 C :    0.572752
   8 H :   -0.170144
   9 H :   -0.166563
  10 O :   -0.038801
  11 H :   -0.219689
  12 H :   -0.197038
  13 H :   -0.191417

  Mayer bond orders larger than 0.100000
B(  0-C ,  1-C ) :   0.8785 B(  0-C ,  7-C ) :   0.8139 B(  0-C ,  8-H ) :   0.9516
B(  0-C ,  9-H ) :   0.9344 B(  1-C ,  2-H ) :   0.9803 B(  1-C ,  3-H ) :   1.0090
B(  1-C ,  4-S ) :   0.7643 B(  4-S ,  5-O ) :   1.2651 B(  4-S ,  6-O ) :   1.2512
B(  4-S , 10-O ) :   1.3262 B(  7-C , 11-H ) :   0.8497 B(  7-C , 12-H ) :   1.0101
B(  7-C , 13-H ) :   0.9721

E(0)                                       ...   -739.967563800
E(0)                                       ...   -739.967563800
E(CORR)(strong-pairs)                      ...     -1.490263502
E(CORR)(weak-pairs)                        ...     -0.001598748
E(CORR)(corrected)                         ...     -1.491862249
E(TOT)                                     ...   -741.459426049
E(CCSD(T))                                 ...   -741.522876280
FINAL SINGLE POINT ENERGY      -741.522876279785

DIPOLE MOMENT
-------------
                                X             Y             Z
Electronic contribution:      4.33192      -5.51052      -7.95784
Nuclear contribution   :     -5.44810       7.35485       9.25157
                        -----------------------------------------
Total Dipole Moment    :     -1.11619       1.84433       1.29372
                        -----------------------------------------
Magnitude (a.u.)       :      2.51419
Magnitude (Debye)      :      6.39056

Rotational constants in cm-1:     0.135801     0.054229     0.051056
Rotational constants in MHz :  4071.225075  1625.746654  1530.611411

                             ****ORCA TERMINATED NORMALLY****
TOTAL RUN TIME: 0 days 1 hours 34 minutes 59 seconds 743 msec
