                         Program Version 5.0.0 -  RELEASE  -
|  1> !DLPNO-CCSD(T) aug-cc-pVTZ aug-cc-pVTZ/C TightSCF TightPNO RIJCOSX def2/J
|  2> *xyz 1 1
|  3> C          2.91632       -1.24259       -1.54313
|  4> C          3.46659       -1.59097       -2.88908
|  5> N          4.65227       -1.14316       -3.25969
|  6> N          2.75226       -2.29204       -3.72803
|  7> H          1.77836       -2.48960       -3.51274
|  8> H          2.94861       -2.20854       -4.71681
|  9> H          5.14672       -0.51251       -2.63385
| 10> H          4.78303       -1.00720       -4.25350
| 11> C          2.80408        0.29070       -1.35924
| 12> C          2.38838        1.09367       -2.59711
| 13> H          3.76342        0.67472       -0.99989
| 14> H          2.09479        0.46122       -0.54576
| 15> H          1.94047       -1.71653       -1.44116
| 16> H          3.55857       -1.66343       -0.76637
| 17> H          3.08894        0.91965       -3.38694
| 18> H          2.37301        2.13633       -2.35728
| 19> H          1.41303        0.78551       -2.91115
| 20> *
| 21>
| 22> %MaxCore 64000
| 23>
| 24> %pal nprocs 8
| 25> end
| 26>
| 27> %scf
| 28>   MaxIter 150
| 29> end
| 30>
| 31>
| 32>                          ****END OF INPUT****

CARTESIAN COORDINATES (ANGSTROEM)
---------------------------------
  C      2.916320   -1.242590   -1.543130
  C      3.466590   -1.590970   -2.889080
  N      4.652270   -1.143160   -3.259690
  N      2.752260   -2.292040   -3.728030
  H      1.778360   -2.489600   -3.512740
  H      2.948610   -2.208540   -4.716810
  H      5.146720   -0.512510   -2.633850
  H      4.783030   -1.007200   -4.253500
  C      2.804080    0.290700   -1.359240
  C      2.388380    1.093670   -2.597110
  H      3.763420    0.674720   -0.999890
  H      2.094790    0.461220   -0.545760
  H      1.940470   -1.716530   -1.441160
  H      3.558570   -1.663430   -0.766370
  H      3.088940    0.919650   -3.386940
  H      2.373010    2.136330   -2.357280
  H      1.413030    0.785510   -2.911150

 Total Charge           Charge          ....    1
 Multiplicity           Mult            ....    1
 Number of Electrons    NEL             ....   48
 Basis Dimension        Dim             ....  529

ORBITAL ENERGIES
----------------

  NO   OCC          E(Eh)            E(eV)
   0   2.0000     -15.807046      -430.1316
   1   2.0000     -15.799397      -429.9235
   2   2.0000     -11.568142      -314.7851
   3   2.0000     -11.423870      -310.8593
   4   2.0000     -11.392098      -309.9947
   5   2.0000     -11.358725      -309.0866
   6   2.0000      -1.527638       -41.5691
   7   2.0000      -1.404530       -38.2192
   8   2.0000      -1.249759       -34.0077
   9   2.0000      -1.144835       -31.1525
  10   2.0000      -1.052019       -28.6269
  11   2.0000      -0.992653       -27.0114
  12   2.0000      -0.949191       -25.8288
  13   2.0000      -0.927803       -25.2468
  14   2.0000      -0.863814       -23.5056
  15   2.0000      -0.829464       -22.5709
  16   2.0000      -0.797696       -21.7064
  17   2.0000      -0.748223       -20.3602
  18   2.0000      -0.732974       -19.9452
  19   2.0000      -0.721959       -19.6455
  20   2.0000      -0.653772       -17.7900
  21   2.0000      -0.651213       -17.7204
  22   2.0000      -0.641025       -17.4432
  23   2.0000      -0.630081       -17.1454
  24   0.0000      -0.095694        -2.6040
  25   0.0000      -0.076359        -2.0778
  26   0.0000      -0.073875        -2.0103
  27   0.0000      -0.062894        -1.7114
  28   0.0000      -0.051923        -1.4129

MULLIKEN ATOMIC CHARGES
-----------------------
   0 C :   -0.199190
   1 C :    1.136802
   2 N :   -0.549579
   3 N :   -0.614238
   4 H :    0.129845
   5 H :    0.142944
   6 H :    0.144806
   7 H :    0.170161
   8 C :   -0.436975
   9 C :   -0.938640
  10 H :    0.189251
  11 H :    0.372412
  12 H :    0.242955
  13 H :    0.344693
  14 H :    0.259749
  15 H :    0.347660
  16 H :    0.257343
Sum of atomic charges:    1.0000000

LOEWDIN ATOMIC CHARGES
----------------------
   0 C :    0.371657
   1 C :   -0.243589
   2 N :    0.946529
   3 N :    0.954758
   4 H :   -0.223963
   5 H :   -0.227645
   6 H :   -0.226902
   7 H :   -0.233181
   8 C :    0.313482
   9 C :    0.624109
  10 H :   -0.141571
  11 H :   -0.127731
  12 H :   -0.139080
  13 H :   -0.116824
  14 H :   -0.203718
  15 H :   -0.158020
  16 H :   -0.168313

  Mayer bond orders larger than 0.100000
B(  0-C ,  1-C ) :   0.5488 B(  0-C ,  3-N ) :  -0.1083 B(  0-C ,  8-C ) :   0.9110
B(  0-C , 12-H ) :   0.9812 B(  0-C , 13-H ) :   0.9153 B(  1-C ,  2-N ) :   0.7715
B(  1-C ,  3-N ) :   0.7081 B(  1-C ,  8-C ) :   0.1267 B(  2-N ,  6-H ) :   1.0669
B(  2-N ,  7-H ) :   1.0461 B(  3-N ,  4-H ) :   1.0986 B(  3-N ,  5-H ) :   1.0774
B(  8-C ,  9-C ) :   0.7948 B(  8-C , 10-H ) :   1.0059 B(  8-C , 11-H ) :   0.8646
B(  9-C , 14-H ) :   0.9779 B(  9-C , 15-H ) :   0.9130 B(  9-C , 16-H ) :   0.9806

E(0)                                       ...   -266.682101703
E(0)                                       ...   -266.682101703
E(CORR)(strong-pairs)                      ...     -1.158092192
E(CORR)(weak-pairs)                        ...     -0.001230717
E(CORR)(corrected)                         ...     -1.159322909
E(TOT)                                     ...   -267.841424612
E(CCSD(T))                                 ...   -267.887799770
FINAL SINGLE POINT ENERGY      -267.887799769726

DIPOLE MOMENT
-------------
                                X             Y             Z
Electronic contribution:      1.99244      -4.52088      -1.83639
Nuclear contribution   :     -1.81078       3.96608       0.97433
                        -----------------------------------------
Total Dipole Moment    :      0.18167      -0.55480      -0.86206
                        -----------------------------------------
Magnitude (a.u.)       :      1.04113
Magnitude (Debye)      :      2.64635

Rotational constants in cm-1:     0.170042     0.080945     0.078209
Rotational constants in MHz :  5097.737821  2426.678005  2344.636232

                             ****ORCA TERMINATED NORMALLY****
TOTAL RUN TIME: 0 days 0 hours 22 minutes 43 seconds 350 msec
