                         Program Version 5.0.0 -  RELEASE  -
|  1> !DLPNO-CCSD(T) aug-cc-pVTZ aug-cc-pVTZ/C TightSCF TightPNO RIJCOSX def2/J
|  2> *xyz 0 1
|  3> C          0.70466        1.44313       -4.50363
|  4> C          1.72854        1.42432       -5.63944
|  5> H          2.64672        1.95379       -5.38105
|  6> H          1.29992        1.93061       -6.50361
|  7> S          2.25263       -0.18811       -6.27184
|  8> F          3.56261       -0.44446       -5.63155
|  9> O          2.34494       -0.03374       -7.69650
| 10> C          1.05255        0.69566       -3.21491
| 11> H         -0.23248        1.03293       -4.88445
| 12> H          0.51170        2.49579       -4.26797
| 13> O          1.26606       -1.15918       -5.80536
| 14> H          1.24200       -0.33323       -3.43942
| 15> H          0.23391        0.76629       -2.52954
| 16> H          1.92506        1.13113       -2.77446
| 17> *
| 18>
| 19> %MaxCore 64000
| 20>
| 21> %pal nprocs 2
| 22> end
| 23>
| 24> %scf
| 25>   MaxIter 150
| 26> end
| 27>
| 28>
| 29>                          ****END OF INPUT****

CARTESIAN COORDINATES (ANGSTROEM)
---------------------------------
  C      0.704660    1.443130   -4.503630
  C      1.728540    1.424320   -5.639440
  H      2.646720    1.953790   -5.381050
  H      1.299920    1.930610   -6.503610
  S      2.252630   -0.188110   -6.271840
  F      3.562610   -0.444460   -5.631550
  O      2.344940   -0.033740   -7.696500
  C      1.052550    0.695660   -3.214910
  H     -0.232480    1.032930   -4.884450
  H      0.511700    2.495790   -4.267970
  O      1.266060   -1.159180   -5.805360
  H      1.242000   -0.333230   -3.439420
  H      0.233910    0.766290   -2.529540
  H      1.925060    1.131130   -2.774460

 Total Charge           Charge          ....    0
 Multiplicity           Mult            ....    1
 Number of Electrons    NEL             ....   66
 Basis Dimension        Dim             ....  487

ORBITAL ENERGIES
----------------

  NO   OCC          E(Eh)            E(eV)
   0   2.0000     -92.249610     -2510.2395
   1   2.0000     -26.412429      -718.7187
   2   2.0000     -20.571051      -559.7667
   3   2.0000     -20.562517      -559.5345
   4   2.0000     -11.294366      -307.3353
   5   2.0000     -11.255729      -306.2840
   6   2.0000     -11.221858      -305.3623
   7   2.0000      -9.212756      -250.6918
   8   2.0000      -6.900376      -187.7688
   9   2.0000      -6.896488      -187.6630
  10   2.0000      -6.895424      -187.6340
  11   2.0000      -1.766758       -48.0759
  12   2.0000      -1.461387       -39.7664
  13   2.0000      -1.357169       -36.9305
  14   2.0000      -1.108899       -30.1747
  15   2.0000      -1.011058       -27.5123
  16   2.0000      -0.943768       -25.6812
  17   2.0000      -0.859329       -23.3835
  18   2.0000      -0.805195       -21.9105
  19   2.0000      -0.796905       -21.6849
  20   2.0000      -0.759963       -20.6796
  21   2.0000      -0.681731       -18.5509
  22   2.0000      -0.656628       -17.8677
  23   2.0000      -0.635596       -17.2954
  24   2.0000      -0.621465       -16.9109
  25   2.0000      -0.599754       -16.3201
  26   2.0000      -0.563827       -15.3425
  27   2.0000      -0.536445       -14.5974
  28   2.0000      -0.524396       -14.2695
  29   2.0000      -0.507483       -13.8093
  30   2.0000      -0.497970       -13.5504
  31   2.0000      -0.484935       -13.1958
  32   2.0000      -0.473717       -12.8905
  33   0.0000       0.023437         0.6378
  34   0.0000       0.035004         0.9525
  35   0.0000       0.036000         0.9796
  36   0.0000       0.046391         1.2624
  37   0.0000       0.056718         1.5434

MULLIKEN ATOMIC CHARGES
-----------------------
   0 C :   -0.432750
   1 C :   -0.492251
   2 H :    0.253701
   3 H :    0.257814
   4 S :    2.207189
   5 F :   -0.518479
   6 O :   -0.901528
   7 C :   -0.998466
   8 H :    0.278854
   9 H :    0.336868
  10 O :   -0.904530
  11 H :    0.356837
  12 H :    0.281236
  13 H :    0.275505
Sum of atomic charges:    0.0000000

LOEWDIN ATOMIC CHARGES
----------------------
   0 C :    0.235686
   1 C :    0.199665
   2 H :   -0.193481
   3 H :   -0.196073
   4 S :   -0.088046
   5 F :    0.257082
   6 O :    0.034931
   7 C :    0.593421
   8 H :   -0.157962
   9 H :   -0.145035
  10 O :    0.040120
  11 H :   -0.218219
  12 H :   -0.176587
  13 H :   -0.185502

  Mayer bond orders larger than 0.100000
B(  0-C ,  1-C ) :   0.9047 B(  0-C ,  4-S ) :   0.1088 B(  0-C ,  7-C ) :   0.8232
B(  0-C ,  8-H ) :   0.9413 B(  0-C ,  9-H ) :   0.9046 B(  1-C ,  2-H ) :   0.9461
B(  1-C ,  3-H ) :   0.9606 B(  1-C ,  4-S ) :   0.8208 B(  4-S ,  5-F ) :   0.5413
B(  4-S ,  6-O ) :   1.4538 B(  4-S , 10-O ) :   1.5308 B(  7-C , 11-H ) :   0.8749
B(  7-C , 12-H ) :   0.9970 B(  7-C , 13-H ) :   0.9643

E(0)                                       ...   -764.481582648
E(0)                                       ...   -764.481582648
E(CORR)(strong-pairs)                      ...     -1.494232293
E(CORR)(weak-pairs)                        ...     -0.001549372
E(CORR)(corrected)                         ...     -1.495781665
E(TOT)                                     ...   -765.977364314
E(CCSD(T))                                 ...   -766.038125613
FINAL SINGLE POINT ENERGY      -766.038125612933

DIPOLE MOMENT
-------------
                                X             Y             Z
Electronic contribution:      7.41124      -6.58787      -8.11248
Nuclear contribution   :     -7.21372       8.00417       9.21533
                        -----------------------------------------
Total Dipole Moment    :      0.19752       1.41629       1.10286
                        -----------------------------------------
Magnitude (a.u.)       :      1.80588
Magnitude (Debye)      :      4.59017

Rotational constants in cm-1:     0.129205     0.053290     0.050128
Rotational constants in MHz :  3873.458819  1597.595736  1502.810344

                             ****ORCA TERMINATED NORMALLY****
TOTAL RUN TIME: 0 days 1 hours 37 minutes 38 seconds 741 msec
