                         Program Version 5.0.0 -  RELEASE  -
|  1> !DLPNO-CCSD(T) aug-cc-pVTZ aug-cc-pVTZ/C TightSCF TightPNO RIJCOSX def2/J
|  2> *xyz 0 1
|  3> C          2.91632       -1.24259       -1.54313
|  4> C          3.46659       -1.59097       -2.88908
|  5> C          4.65227       -1.14316       -3.25969
|  6> N          2.75226       -2.29204       -3.72803
|  7> H          1.77836       -2.48960       -3.51274
|  8> H          2.94861       -2.20854       -4.71681
|  9> H          5.14672       -0.51251       -2.63385
| 10> H          4.78303       -1.00720       -4.25350
| 11> C          2.80408        0.29070       -1.35924
| 12> C          2.38838        1.09367       -2.59711
| 13> H          3.76342        0.67472       -0.99989
| 14> H          2.09479        0.46122       -0.54576
| 15> H          1.94047       -1.71653       -1.44116
| 16> H          3.55857       -1.66343       -0.76637
| 17> H          3.08894        0.91965       -3.38694
| 18> H          2.37301        2.13633       -2.35728
| 19> H          1.41303        0.78551       -2.91115
| 20> *
| 21>
| 22> %MaxCore 64000
| 23>
| 24> %pal nprocs 8
| 25> end
| 26>
| 27> %scf
| 28>   MaxIter 150
| 29> end
| 30>
| 31>
| 32>                          ****END OF INPUT****

CARTESIAN COORDINATES (ANGSTROEM)
---------------------------------
  C      2.916320   -1.242590   -1.543130
  C      3.466590   -1.590970   -2.889080
  C      4.652270   -1.143160   -3.259690
  N      2.752260   -2.292040   -3.728030
  H      1.778360   -2.489600   -3.512740
  H      2.948610   -2.208540   -4.716810
  H      5.146720   -0.512510   -2.633850
  H      4.783030   -1.007200   -4.253500
  C      2.804080    0.290700   -1.359240
  C      2.388380    1.093670   -2.597110
  H      3.763420    0.674720   -0.999890
  H      2.094790    0.461220   -0.545760
  H      1.940470   -1.716530   -1.441160
  H      3.558570   -1.663430   -0.766370
  H      3.088940    0.919650   -3.386940
  H      2.373010    2.136330   -2.357280
  H      1.413030    0.785510   -2.911150

 Total Charge           Charge          ....    0
 Multiplicity           Mult            ....    1
 Number of Electrons    NEL             ....   48
 Basis Dimension        Dim             ....  529

ORBITAL ENERGIES
----------------

  NO   OCC          E(Eh)            E(eV)
   0   2.0000     -15.564097      -423.5206
   1   2.0000     -11.255271      -306.2715
   2   2.0000     -11.227486      -305.5154
   3   2.0000     -11.222954      -305.3921
   4   2.0000     -11.200798      -304.7892
   5   2.0000     -11.144393      -303.2544
   6   2.0000      -1.248951       -33.9857
   7   2.0000      -1.071513       -29.1574
   8   2.0000      -0.992408       -27.0048
   9   2.0000      -0.938047       -25.5255
  10   2.0000      -0.828158       -22.5353
  11   2.0000      -0.759195       -20.6587
  12   2.0000      -0.697566       -18.9817
  13   2.0000      -0.659049       -17.9336
  14   2.0000      -0.619898       -16.8683
  15   2.0000      -0.601714       -16.3735
  16   2.0000      -0.557692       -15.1756
  17   2.0000      -0.549373       -14.9492
  18   2.0000      -0.520144       -14.1538
  19   2.0000      -0.510315       -13.8864
  20   2.0000      -0.478333       -13.0161
  21   2.0000      -0.469336       -12.7713
  22   2.0000      -0.465388       -12.6639
  23   2.0000      -0.290151        -7.8954
  24   0.0000       0.026655         0.7253
  25   0.0000       0.035194         0.9577
  26   0.0000       0.037840         1.0297
  27   0.0000       0.042545         1.1577
  28   0.0000       0.054247         1.4761

MULLIKEN ATOMIC CHARGES
-----------------------
   0 C :   -0.232581
   1 C :    1.148449
   2 C :   -1.352839
   3 N :   -0.865432
   4 H :    0.065595
   5 H :    0.027213
   6 H :    0.344279
   7 H :    0.382197
   8 C :   -0.402557
   9 C :   -0.999029
  10 H :    0.173559
  11 H :    0.356186
  12 H :    0.217872
  13 H :    0.302409
  14 H :    0.282664
  15 H :    0.315958
  16 H :    0.236059
Sum of atomic charges:    0.0000000

LOEWDIN ATOMIC CHARGES
----------------------
   0 C :    0.312549
   1 C :   -0.332140
   2 C :    0.550565
   3 N :    0.845651
   4 H :   -0.270952
   5 H :   -0.266156
   6 H :   -0.284921
   7 H :   -0.289658
   8 C :    0.288737
   9 C :    0.603909
  10 H :   -0.149919
  11 H :   -0.150981
  12 H :   -0.159501
  13 H :   -0.134074
  14 H :   -0.207271
  15 H :   -0.178706
  16 H :   -0.177132

  Mayer bond orders larger than 0.100000
B(  0-C ,  1-C ) :   0.6768 B(  0-C ,  3-N ) :  -0.1531 B(  0-C ,  8-C ) :   0.8592
B(  0-C , 12-H ) :   1.0346 B(  0-C , 13-H ) :   0.9674 B(  1-C ,  2-C ) :   1.0669
B(  1-C ,  3-N ) :   0.4281 B(  1-C ,  5-H ) :  -0.1001 B(  1-C ,  6-H ) :  -0.1442
B(  1-C ,  8-C ) :   0.1499 B(  2-C ,  3-N ) :  -0.1307 B(  2-C ,  6-H ) :   0.9981
B(  2-C ,  7-H ) :   0.9477 B(  3-N ,  4-H ) :   1.1375 B(  3-N ,  5-H ) :   1.2198
B(  8-C ,  9-C ) :   0.7630 B(  8-C , 10-H ) :   1.0281 B(  8-C , 11-H ) :   0.8632
B(  9-C , 14-H ) :   0.9418 B(  9-C , 15-H ) :   0.9465 B(  9-C , 16-H ) :   1.0063

E(0)                                       ...   -250.236514871
E(0)                                       ...   -250.236514871
E(CORR)(strong-pairs)                      ...     -1.140798299
E(CORR)(weak-pairs)                        ...     -0.001226461
E(CORR)(corrected)                         ...     -1.142024760
E(TOT)                                     ...   -251.378539631
E(CCSD(T))                                 ...   -251.425409605
FINAL SINGLE POINT ENERGY      -251.425409605333

DIPOLE MOMENT
-------------
                                X             Y             Z
Electronic contribution:      0.52093      -3.75868      -0.90824
Nuclear contribution   :     -1.45921       3.88617       0.81775
                        -----------------------------------------
Total Dipole Moment    :     -0.93828       0.12749      -0.09049
                        -----------------------------------------
Magnitude (a.u.)       :      0.95122
Magnitude (Debye)      :      2.41781

Rotational constants in cm-1:     0.176264     0.082132     0.079980
Rotational constants in MHz :  5284.261828  2462.256672  2397.741351

                             ****ORCA TERMINATED NORMALLY****
TOTAL RUN TIME: 0 days 0 hours 27 minutes 7 seconds 869 msec
