                         Program Version 5.0.0 -  RELEASE  -
|  1> !DLPNO-CCSD(T) aug-cc-pVTZ aug-cc-pVTZ/C TightSCF TightPNO RIJCOSX def2/J
|  2> *xyz 0 1
|  3> C          0.70466        1.44313       -4.50363
|  4> C          1.72854        1.42432       -5.63944
|  5> H          2.64672        1.95379       -5.38105
|  6> H          1.29992        1.93061       -6.50361
|  7> S          2.25263       -0.18811       -6.27184
|  8> O          3.56261       -0.44446       -5.63155
|  9> F          2.34494       -0.03374       -7.69650
| 10> C          1.05255        0.69566       -3.21491
| 11> H         -0.23248        1.03293       -4.88445
| 12> H          0.51170        2.49579       -4.26797
| 13> O          1.26606       -1.15918       -5.80536
| 14> H          1.24200       -0.33323       -3.43942
| 15> H          0.23391        0.76629       -2.52954
| 16> H          1.92506        1.13113       -2.77446
| 17> *
| 18>
| 19> %MaxCore 64000
| 20>
| 21> %pal nprocs 2
| 22> end
| 23>
| 24> %scf
| 25>   MaxIter 150
| 26> end
| 27>
| 28>
| 29>                          ****END OF INPUT****

CARTESIAN COORDINATES (ANGSTROEM)
---------------------------------
  C      0.704660    1.443130   -4.503630
  C      1.728540    1.424320   -5.639440
  H      2.646720    1.953790   -5.381050
  H      1.299920    1.930610   -6.503610
  S      2.252630   -0.188110   -6.271840
  O      3.562610   -0.444460   -5.631550
  F      2.344940   -0.033740   -7.696500
  C      1.052550    0.695660   -3.214910
  H     -0.232480    1.032930   -4.884450
  H      0.511700    2.495790   -4.267970
  O      1.266060   -1.159180   -5.805360
  H      1.242000   -0.333230   -3.439420
  H      0.233910    0.766290   -2.529540
  H      1.925060    1.131130   -2.774460

 Total Charge           Charge          ....    0
 Multiplicity           Mult            ....    1
 Number of Electrons    NEL             ....   66
 Basis Dimension        Dim             ....  487

ORBITAL ENERGIES
----------------

  NO   OCC          E(Eh)            E(eV)
   0   2.0000     -92.250852     -2510.2733
   1   2.0000     -26.437091      -719.3898
   2   2.0000     -20.563513      -559.5616
   3   2.0000     -20.554992      -559.3298
   4   2.0000     -11.295313      -307.3611
   5   2.0000     -11.255893      -306.2884
   6   2.0000     -11.214215      -305.1543
   7   2.0000      -9.214350      -250.7352
   8   2.0000      -6.901759      -187.8064
   9   2.0000      -6.897929      -187.7022
  10   2.0000      -6.897083      -187.6792
  11   2.0000      -1.808228       -49.2044
  12   2.0000      -1.444570       -39.3087
  13   2.0000      -1.334872       -36.3237
  14   2.0000      -1.107945       -30.1487
  15   2.0000      -1.018526       -27.7155
  16   2.0000      -0.957698       -26.0603
  17   2.0000      -0.866433       -23.5769
  18   2.0000      -0.834443       -22.7064
  19   2.0000      -0.815799       -22.1990
  20   2.0000      -0.758982       -20.6529
  21   2.0000      -0.673194       -18.3186
  22   2.0000      -0.657575       -17.8935
  23   2.0000      -0.630219       -17.1491
  24   2.0000      -0.618888       -16.8408
  25   2.0000      -0.585748       -15.9390
  26   2.0000      -0.554383       -15.0855
  27   2.0000      -0.523155       -14.2358
  28   2.0000      -0.522347       -14.2138
  29   2.0000      -0.504888       -13.7387
  30   2.0000      -0.490012       -13.3339
  31   2.0000      -0.471073       -12.8186
  32   2.0000      -0.466560       -12.6958
  33   0.0000       0.022238         0.6051
  34   0.0000       0.034648         0.9428
  35   0.0000       0.038671         1.0523
  36   0.0000       0.046112         1.2548
  37   0.0000       0.058092         1.5808

MULLIKEN ATOMIC CHARGES
-----------------------
   0 C :   -0.414135
   1 C :   -0.519719
   2 H :    0.263333
   3 H :    0.257429
   4 S :    2.150097
   5 O :   -0.910683
   6 F :   -0.472443
   7 C :   -0.998200
   8 H :    0.269722
   9 H :    0.335046
  10 O :   -0.904247
  11 H :    0.379006
  12 H :    0.282925
  13 H :    0.281868
Sum of atomic charges:    0.0000000

LOEWDIN ATOMIC CHARGES
----------------------
   0 C :    0.239396
   1 C :    0.196144
   2 H :   -0.191657
   3 H :   -0.207185
   4 S :   -0.093044
   5 O :    0.006498
   6 F :    0.292248
   7 C :    0.597011
   8 H :   -0.160249
   9 H :   -0.144139
  10 O :    0.038017
  11 H :   -0.213297
  12 H :   -0.178134
  13 H :   -0.181608

  Mayer bond orders larger than 0.100000
B(  0-C ,  1-C ) :   0.8860 B(  0-C ,  7-C ) :   0.8269 B(  0-C ,  8-H ) :   0.9447
B(  0-C ,  9-H ) :   0.9011 B(  1-C ,  2-H ) :   0.9549 B(  1-C ,  3-H ) :   0.9470
B(  1-C ,  4-S ) :   0.8343 B(  4-S ,  5-O ) :   1.4686 B(  4-S ,  6-F ) :   0.5142
B(  4-S , 10-O ) :   1.5458 B(  7-C , 11-H ) :   0.8689 B(  7-C , 12-H ) :   0.9899
B(  7-C , 13-H ) :   0.9600

E(0)                                       ...   -764.461579713
E(0)                                       ...   -764.461579713
E(CORR)(strong-pairs)                      ...     -1.495368891
E(CORR)(weak-pairs)                        ...     -0.001600020
E(CORR)(corrected)                         ...     -1.496968911
E(TOT)                                     ...   -765.958548624
E(CCSD(T))                                 ...   -766.019637790
FINAL SINGLE POINT ENERGY      -766.019637789870

DIPOLE MOMENT
-------------
                                X             Y             Z
Electronic contribution:      5.21120      -5.86035     -11.85143
Nuclear contribution   :     -5.90419       7.56246      11.43606
                        -----------------------------------------
Total Dipole Moment    :     -0.69299       1.70211      -0.41537
                        -----------------------------------------
Magnitude (a.u.)       :      1.88413
Magnitude (Debye)      :      4.78907

Rotational constants in cm-1:     0.133686     0.052402     0.049175
Rotational constants in MHz :  4007.807944  1570.986792  1474.216272

                             ****ORCA TERMINATED NORMALLY****
TOTAL RUN TIME: 0 days 1 hours 28 minutes 8 seconds 167 msec
