                         Program Version 5.0.0 -  RELEASE  -
|  1> !DLPNO-CCSD(T) aug-cc-pVTZ aug-cc-pVTZ/C TightSCF TightPNO RIJCOSX def2/J
|  2> *xyz 0 1
|  3> C          2.91632       -1.24259       -1.54313
|  4> C          3.46659       -1.59097       -2.88908
|  5> N          4.65227       -1.14316       -3.25969
|  6> C          2.75226       -2.29204       -3.72803
|  7> H          1.77836       -2.48960       -3.51274
|  8> H          2.94861       -2.20854       -4.71681
|  9> H          5.14672       -0.51251       -2.63385
| 10> H          4.78303       -1.00720       -4.25350
| 11> C          2.80408        0.29070       -1.35924
| 12> C          2.38838        1.09367       -2.59711
| 13> H          3.76342        0.67472       -0.99989
| 14> H          2.09479        0.46122       -0.54576
| 15> H          1.94047       -1.71653       -1.44116
| 16> H          3.55857       -1.66343       -0.76637
| 17> H          3.08894        0.91965       -3.38694
| 18> H          2.37301        2.13633       -2.35728
| 19> H          1.41303        0.78551       -2.91115
| 20> *
| 21>
| 22> %MaxCore 64000
| 23>
| 24> %pal nprocs 2
| 25> end
| 26>
| 27> %scf
| 28>   MaxIter 150
| 29> end
| 30>
| 31>
| 32>                          ****END OF INPUT****

CARTESIAN COORDINATES (ANGSTROEM)
---------------------------------
  C      2.916320   -1.242590   -1.543130
  C      3.466590   -1.590970   -2.889080
  N      4.652270   -1.143160   -3.259690
  C      2.752260   -2.292040   -3.728030
  H      1.778360   -2.489600   -3.512740
  H      2.948610   -2.208540   -4.716810
  H      5.146720   -0.512510   -2.633850
  H      4.783030   -1.007200   -4.253500
  C      2.804080    0.290700   -1.359240
  C      2.388380    1.093670   -2.597110
  H      3.763420    0.674720   -0.999890
  H      2.094790    0.461220   -0.545760
  H      1.940470   -1.716530   -1.441160
  H      3.558570   -1.663430   -0.766370
  H      3.088940    0.919650   -3.386940
  H      2.373010    2.136330   -2.357280
  H      1.413030    0.785510   -2.911150

 Total Charge           Charge          ....    0
 Multiplicity           Mult            ....    1
 Number of Electrons    NEL             ....   48
 Basis Dimension        Dim             ....  529

ORBITAL ENERGIES
----------------

  NO   OCC          E(Eh)            E(eV)
   0   2.0000     -15.558791      -423.3762
   1   2.0000     -11.252331      -306.1915
   2   2.0000     -11.226699      -305.4940
   3   2.0000     -11.225294      -305.4558
   4   2.0000     -11.205488      -304.9168
   5   2.0000     -11.150825      -303.4294
   6   2.0000      -1.242787       -33.8180
   7   2.0000      -1.068587       -29.0777
   8   2.0000      -1.004709       -27.3395
   9   2.0000      -0.935932       -25.4680
  10   2.0000      -0.822744       -22.3880
  11   2.0000      -0.760600       -20.6970
  12   2.0000      -0.704228       -19.1630
  13   2.0000      -0.643078       -17.4990
  14   2.0000      -0.625453       -17.0194
  15   2.0000      -0.616384       -16.7727
  16   2.0000      -0.555534       -15.1169
  17   2.0000      -0.546847       -14.8805
  18   2.0000      -0.530087       -14.4244
  19   2.0000      -0.509940       -13.8762
  20   2.0000      -0.477774       -13.0009
  21   2.0000      -0.472695       -12.8627
  22   2.0000      -0.459000       -12.4900
  23   2.0000      -0.299983        -8.1630
  24   0.0000       0.027453         0.7470
  25   0.0000       0.035113         0.9555
  26   0.0000       0.037935         1.0323
  27   0.0000       0.040627         1.1055
  28   0.0000       0.053451         1.4545

MULLIKEN ATOMIC CHARGES
-----------------------
   0 C :   -0.204741
   1 C :    1.582738
   2 N :   -0.862042
   3 C :   -1.730585
   4 H :    0.234522
   5 H :    0.398587
   6 H :    0.113250
   7 H :    0.029643
   8 C :   -0.482750
   9 C :   -0.972226
  10 H :    0.166645
  11 H :    0.360075
  12 H :    0.205006
  13 H :    0.299250
  14 H :    0.284368
  15 H :    0.314744
  16 H :    0.263516
Sum of atomic charges:    0.0000000

LOEWDIN ATOMIC CHARGES
----------------------
   0 C :    0.306649
   1 C :   -0.333236
   2 N :    0.842606
   3 C :    0.563035
   4 H :   -0.287088
   5 H :   -0.285632
   6 H :   -0.269696
   7 H :   -0.269849
   8 C :    0.286731
   9 C :    0.602611
  10 H :   -0.155484
  11 H :   -0.148499
  12 H :   -0.155569
  13 H :   -0.138611
  14 H :   -0.204605
  15 H :   -0.179712
  16 H :   -0.173649

  Mayer bond orders larger than 0.100000
B(  0-C ,  1-C ) :   0.5394 B(  0-C ,  3-C ) :  -0.1219 B(  0-C ,  8-C ) :   0.9284
B(  0-C , 12-H ) :   1.0172 B(  0-C , 13-H ) :   0.9585 B(  1-C ,  2-N ) :   0.2232
B(  1-C ,  3-C ) :   0.5613 B(  1-C ,  4-H ) :  -0.1449 B(  1-C ,  7-H ) :  -0.1108
B(  2-N ,  6-H ) :   1.0473 B(  2-N ,  7-H ) :   1.2098 B(  3-C ,  4-H ) :   1.2481
B(  3-C ,  5-H ) :   0.8178 B(  8-C ,  9-C ) :   0.7816 B(  8-C , 10-H ) :   1.0221
B(  8-C , 11-H ) :   0.8865 B(  9-C , 14-H ) :   0.9574 B(  9-C , 15-H ) :   0.9331
B(  9-C , 16-H ) :   0.9797

E(0)                                       ...   -250.242618547
E(0)                                       ...   -250.242618547
E(CORR)(strong-pairs)                      ...     -1.139522226
E(CORR)(weak-pairs)                        ...     -0.001222332
E(CORR)(corrected)                         ...     -1.140744558
E(TOT)                                     ...   -251.383363105
E(CCSD(T))                                 ...   -251.429933831
FINAL SINGLE POINT ENERGY      -251.429933831432

DIPOLE MOMENT
-------------
                                X             Y             Z
Electronic contribution:      2.16422      -2.76712      -0.51115
Nuclear contribution   :     -1.90863       3.61442       0.70697
                        -----------------------------------------
Total Dipole Moment    :      0.25560       0.84729       0.19582
                        -----------------------------------------
Magnitude (a.u.)       :      0.90641
Magnitude (Debye)      :      2.30392

Rotational constants in cm-1:     0.173428     0.083686     0.080523
Rotational constants in MHz :  5199.232598  2508.829970  2414.016775

                             ****ORCA TERMINATED NORMALLY****
TOTAL RUN TIME: 0 days 1 hours 19 minutes 14 seconds 473 msec
