                         Program Version 5.0.0 -  RELEASE  -
|  1> !DLPNO-CCSD(T) aug-cc-pVTZ aug-cc-pVTZ/C TightSCF TightPNO RIJCOSX def2/J
|  2> *xyz 0 1
|  3> C          0.70466        1.44313       -4.50363
|  4> C          1.72854        1.42432       -5.63944
|  5> H          2.64672        1.95379       -5.38105
|  6> H          1.29992        1.93061       -6.50361
|  7> S          2.25263       -0.18811       -6.27184
|  8> O          3.56261       -0.44446       -5.63155
|  9> O          2.34494       -0.03374       -7.69650
| 10> C          1.05255        0.69566       -3.21491
| 11> H         -0.23248        1.03293       -4.88445
| 12> H          0.51170        2.49579       -4.26797
| 13> F          1.26606       -1.15918       -5.80536
| 14> H          1.24200       -0.33323       -3.43942
| 15> H          0.23391        0.76629       -2.52954
| 16> H          1.92506        1.13113       -2.77446
| 17> *
| 18>
| 19> %MaxCore 64000
| 20>
| 21> %pal nprocs 2
| 22> end
| 23>
| 24> %scf
| 25>   MaxIter 150
| 26> end
| 27>
| 28>
| 29>                          ****END OF INPUT****

CARTESIAN COORDINATES (ANGSTROEM)
---------------------------------
  C      0.704660    1.443130   -4.503630
  C      1.728540    1.424320   -5.639440
  H      2.646720    1.953790   -5.381050
  H      1.299920    1.930610   -6.503610
  S      2.252630   -0.188110   -6.271840
  O      3.562610   -0.444460   -5.631550
  O      2.344940   -0.033740   -7.696500
  C      1.052550    0.695660   -3.214910
  H     -0.232480    1.032930   -4.884450
  H      0.511700    2.495790   -4.267970
  F      1.266060   -1.159180   -5.805360
  H      1.242000   -0.333230   -3.439420
  H      0.233910    0.766290   -2.529540
  H      1.925060    1.131130   -2.774460

 Total Charge           Charge          ....    0
 Multiplicity           Mult            ....    1
 Number of Electrons    NEL             ....   66
 Basis Dimension        Dim             ....  487

ORBITAL ENERGIES
----------------

  NO   OCC          E(Eh)            E(eV)
   0   2.0000     -92.249030     -2510.2237
   1   2.0000     -26.423240      -719.0129
   2   2.0000     -20.570741      -559.7583
   3   2.0000     -20.553432      -559.2873
   4   2.0000     -11.293945      -307.3239
   5   2.0000     -11.263592      -306.4979
   6   2.0000     -11.230903      -305.6084
   7   2.0000      -9.212436      -250.6831
   8   2.0000      -6.900118      -187.7618
   9   2.0000      -6.895857      -187.6458
  10   2.0000      -6.895183      -187.6275
  11   2.0000      -1.784982       -48.5718
  12   2.0000      -1.455511       -39.6065
  13   2.0000      -1.342876       -36.5415
  14   2.0000      -1.114757       -30.3341
  15   2.0000      -1.014580       -27.6081
  16   2.0000      -0.953805       -25.9543
  17   2.0000      -0.866930       -23.5904
  18   2.0000      -0.818740       -22.2790
  19   2.0000      -0.818168       -22.2635
  20   2.0000      -0.750349       -20.4180
  21   2.0000      -0.673797       -18.3349
  22   2.0000      -0.657968       -17.9042
  23   2.0000      -0.640625       -17.4323
  24   2.0000      -0.626055       -17.0358
  25   2.0000      -0.599505       -16.3134
  26   2.0000      -0.561839       -15.2884
  27   2.0000      -0.543756       -14.7964
  28   2.0000      -0.527599       -14.3567
  29   2.0000      -0.516143       -14.0450
  30   2.0000      -0.492133       -13.3916
  31   2.0000      -0.476778       -12.9738
  32   2.0000      -0.468792       -12.7565
  33   0.0000       0.022104         0.6015
  34   0.0000       0.033370         0.9080
  35   0.0000       0.035933         0.9778
  36   0.0000       0.044235         1.2037
  37   0.0000       0.056497         1.5374

MULLIKEN ATOMIC CHARGES
-----------------------
   0 C :   -0.441938
   1 C :   -0.486595
   2 H :    0.275431
   3 H :    0.256492
   4 S :    2.206752
   5 O :   -0.919016
   6 O :   -0.889570
   7 C :   -0.990125
   8 H :    0.266240
   9 H :    0.316631
  10 F :   -0.517823
  11 H :    0.345337
  12 H :    0.287046
  13 H :    0.291140
Sum of atomic charges:    0.0000000

LOEWDIN ATOMIC CHARGES
----------------------
   0 C :    0.233529
   1 C :    0.197731
   2 H :   -0.180424
   3 H :   -0.202892
   4 S :   -0.098928
   5 O :    0.005061
   6 O :    0.034585
   7 C :    0.595868
   8 H :   -0.161320
   9 H :   -0.142933
  10 F :    0.282801
  11 H :   -0.207365
  12 H :   -0.177460
  13 H :   -0.178252

  Mayer bond orders larger than 0.100000
B(  0-C ,  1-C ) :   0.8859 B(  0-C ,  4-S ) :   0.1019 B(  0-C ,  7-C ) :   0.8209
B(  0-C ,  8-H ) :   0.9521 B(  0-C ,  9-H ) :   0.9236 B(  1-C ,  2-H ) :   0.9466
B(  1-C ,  3-H ) :   0.9688 B(  1-C ,  4-S ) :   0.8203 B(  4-S ,  5-O ) :   1.4653
B(  4-S ,  6-O ) :   1.4493 B(  4-S , 10-F ) :   0.5963 B(  7-C , 11-H ) :   0.8923
B(  7-C , 12-H ) :   0.9856 B(  7-C , 13-H ) :   0.9579

E(0)                                       ...   -764.471577913
E(0)                                       ...   -764.471577913
E(CORR)(strong-pairs)                      ...     -1.494264176
E(CORR)(weak-pairs)                        ...     -0.001559290
E(CORR)(corrected)                         ...     -1.495823466
E(TOT)                                     ...   -765.967401379
E(CCSD(T))                                 ...   -766.028171066
FINAL SINGLE POINT ENERGY      -766.028171065877

DIPOLE MOMENT
-------------
                                X             Y             Z
Electronic contribution:      3.26067      -7.80640      -8.38914
Nuclear contribution   :     -4.74391       8.77281       9.40225
                        -----------------------------------------
Total Dipole Moment    :     -1.48324       0.96641       1.01311
                        -----------------------------------------
Magnitude (a.u.)       :      2.03969
Magnitude (Debye)      :      5.18449

Rotational constants in cm-1:     0.129476     0.053470     0.050698
Rotational constants in MHz :  3881.594668  1602.990831  1519.898630

                             ****ORCA TERMINATED NORMALLY****
TOTAL RUN TIME: 0 days 1 hours 20 minutes 47 seconds 75 msec
