                         Program Version 5.0.0 -  RELEASE  -
|  1> !DLPNO-CCSD(T) aug-cc-pVTZ aug-cc-pVTZ/C TightSCF TightPNO RIJCOSX def2/J
|  2>
|  3> *xyzfile 0 1 D2.xyz
|  4>
|  5> %MaxCore 64000
|  6>
|  7> %pal nprocs 18
|  8> end
|  9>
| 10> %scf
| 11>   MaxIter 150
| 12> end
| 13>
| 14>
| 15>                          ****END OF INPUT****

CARTESIAN COORDINATES (ANGSTROEM)
---------------------------------
  C      2.916324   -1.242589   -1.543125
  C      0.704661    1.443129   -4.503630
  C      1.728539    1.424320   -5.639443
  H      2.646718    1.953794   -5.381054
  H      1.299916    1.930613   -6.503614
  S      2.252625   -0.188115   -6.271840
  C      3.466585   -1.590971   -2.889082
  N      4.652275   -1.143164   -3.259692
  C      2.752264   -2.292043   -3.728029
  H      1.778364   -2.489604   -3.512738
  H      2.948612   -2.208544   -4.716813
  H      5.146723   -0.512508   -2.633852
  H      4.783030   -1.007203   -4.253498
  F      3.562607   -0.444464   -5.631552
  O      2.344944   -0.033742   -7.696501
  C      2.804084    0.290698   -1.359243
  C      1.052550    0.695659   -3.214915
  H     -0.232483    1.032925   -4.884449
  H      0.511700    2.495794   -4.267966
  C      2.388380    1.093669   -2.597108
  H      3.763425    0.674718   -0.999889
  H      2.094788    0.461222   -0.545756
  O      1.266058   -1.159177   -5.805365
  H      3.167316    1.013242   -3.359430
  H      2.357690    2.149375   -2.310997
  H      1.039284   -0.368429   -3.449329
  H      0.250787    0.865605   -2.488283
  H      1.940472   -1.716529   -1.441161
  H      3.558569   -1.663433   -0.766371

 Total Charge           Charge          ....    0
 Multiplicity           Mult            ....    1
 Number of Electrons    NEL             ....  112
 Basis Dimension        Dim             ....  970

ORBITAL ENERGIES
----------------

  NO   OCC          E(Eh)            E(eV)
   0   2.0000     -92.251899     -2510.3018
   1   2.0000     -26.418935      -718.8958
   2   2.0000     -20.573526      -559.8341
   3   2.0000     -20.561048      -559.4946
   4   2.0000     -15.555113      -423.2761
   5   2.0000     -11.295065      -307.3544
   6   2.0000     -11.253724      -306.2294
   7   2.0000     -11.246423      -306.0307
   8   2.0000     -11.234043      -305.6939
   9   2.0000     -11.232027      -305.6390
  10   2.0000     -11.227358      -305.5119
  11   2.0000     -11.226477      -305.4880
  12   2.0000     -11.145660      -303.2888
  13   2.0000      -9.215158      -250.7572
  14   2.0000      -6.902952      -187.8389
  15   2.0000      -6.898692      -187.7229
  16   2.0000      -6.897707      -187.6962
  17   2.0000      -1.778034       -48.3828
  18   2.0000      -1.464027       -39.8382
  19   2.0000      -1.358985       -36.9799
  20   2.0000      -1.242118       -33.7997
  21   2.0000      -1.121000       -30.5040
  22   2.0000      -1.078380       -29.3442
  23   2.0000      -1.028324       -27.9821
  24   2.0000      -0.996542       -27.1173
  25   2.0000      -0.959701       -26.1148
  26   2.0000      -0.923062       -25.1178
  27   2.0000      -0.858368       -23.3574
  28   2.0000      -0.822075       -22.3698
  29   2.0000      -0.811402       -22.0794
  30   2.0000      -0.796890       -21.6845
  31   2.0000      -0.764494       -20.8029
  32   2.0000      -0.752023       -20.4636
  33   2.0000      -0.702789       -19.1239
  34   2.0000      -0.678124       -18.4527
  35   2.0000      -0.666283       -18.1305
  36   2.0000      -0.656351       -17.8602
  37   2.0000      -0.647733       -17.6257
  38   2.0000      -0.628919       -17.1138
  39   2.0000      -0.612286       -16.6611
  40   2.0000      -0.603123       -16.4118
  41   2.0000      -0.579707       -15.7746
  42   2.0000      -0.564622       -15.3642
  43   2.0000      -0.555684       -15.1209
  44   2.0000      -0.545217       -14.8361
  45   2.0000      -0.534978       -14.5575
  46   2.0000      -0.517506       -14.0821
  47   2.0000      -0.515363       -14.0237
  48   2.0000      -0.499647       -13.5961
  49   2.0000      -0.488976       -13.3057
  50   2.0000      -0.484462       -13.1829
  51   2.0000      -0.478918       -13.0320
  52   2.0000      -0.467809       -12.7297
  53   2.0000      -0.459130       -12.4936
  54   2.0000      -0.455753       -12.4017
  55   2.0000      -0.295494        -8.0408
  56   0.0000       0.019316         0.5256
  57   0.0000       0.027639         0.7521
  58   0.0000       0.029392         0.7998
  59   0.0000       0.037590         1.0229
  60   0.0000       0.043121         1.1734

MULLIKEN ATOMIC CHARGES
-----------------------
   0 C :   -0.337119
   1 C :   -0.589812
   2 C :   -0.559688
   3 H :    0.169334
   4 H :    0.255907
   5 S :    2.709371
   6 C :    1.390958
   7 N :   -0.981675
   8 C :   -1.253540
   9 H :    0.212515
  10 H :    0.418866
  11 H :    0.039937
  12 H :    0.061037
  13 F :   -0.632516
  14 O :   -1.056211
  15 C :   -0.698749
  16 C :   -0.426658
  17 H :    0.231266
  18 H :    0.237237
  19 C :   -0.467890
  20 H :    0.097447
  21 H :    0.323362
  22 O :   -0.990648
  23 H :    0.161764
  24 H :    0.431261
  25 H :    0.347811
  26 H :    0.328300
  27 H :    0.149042
  28 H :    0.429090
Sum of atomic charges:   -0.0000000

LOEWDIN ATOMIC CHARGES
----------------------
   0 C :    0.315201
   1 C :    0.272099
   2 C :    0.217336
   3 H :   -0.195961
   4 H :   -0.189315
   5 S :   -0.003626
   6 C :   -0.325854
   7 N :    0.839896
   8 C :    0.516182
   9 H :   -0.277909
  10 H :   -0.406990
  11 H :   -0.266375
  12 H :   -0.392327
  13 F :    0.378459
  14 O :    0.049977
  15 C :    0.314055
  16 C :    0.287333
  17 H :   -0.148794
  18 H :   -0.137930
  19 C :    0.280901
  20 H :   -0.148091
  21 H :   -0.141435
  22 O :    0.108255
  23 H :   -0.187783
  24 H :   -0.132655
  25 H :   -0.214197
  26 H :   -0.124756
  27 H :   -0.151114
  28 H :   -0.134582

  Mayer bond orders larger than 0.100000
B(  0-C ,  6-C ) :   0.5491 B(  0-C ,  8-C ) :  -0.1404 B(  0-C , 15-C ) :   1.0077
B(  0-C , 27-H ) :   1.1316 B(  0-C , 28-H ) :   0.8526 B(  1-C ,  2-C ) :   0.9201
B(  1-C , 16-C ) :   0.9280 B(  1-C , 17-H ) :   1.0361 B(  1-C , 18-H ) :   0.9774
B(  2-C ,  3-H ) :   1.0632 B(  2-C ,  4-H ) :   0.8793 B(  2-C ,  5-S ) :   0.8809
B(  2-C , 14-O ) :   0.1172 B(  2-C , 22-O ) :   0.1244 B(  4-H , 14-O ) :   0.1499
B(  5-S , 13-F ) :   0.5819 B(  5-S , 14-O ) :   0.8586 B(  5-S , 22-O ) :   1.4142
B(  6-C ,  8-C ) :   1.2640 B(  6-C ,  9-H ) :  -0.1501 B(  6-C , 10-H ) :  -0.1233
B(  6-C , 11-H ) :  -0.1287 B(  6-C , 12-H ) :  -0.1427 B(  6-C , 13-F ) :  -0.1549
B(  6-C , 28-H ) :  -0.1931 B(  7-N ,  8-C ) :  -0.1085 B(  7-N , 11-H ) :   1.1470
B(  7-N , 12-H ) :   1.2367 B(  8-C ,  9-H ) :   1.2381 B(  8-C , 10-H ) :   0.8265
B(  9-H , 10-H ) :   0.1186 B( 15-C , 19-C ) :   0.8461 B( 15-C , 20-H ) :   1.1208
B( 15-C , 21-H ) :   0.9233 B( 16-C , 19-C ) :   0.8001 B( 16-C , 25-H ) :   0.9310
B( 16-C , 26-H ) :   0.9255 B( 17-H , 18-H ) :   0.1048 B( 19-C , 23-H ) :   1.0965
B( 19-C , 24-H ) :   0.8035

E(0)                                       ...  -1013.531301107
E(0)                                       ...  -1013.531301107
E(CORR)(strong-pairs)                      ...     -2.617409483
E(CORR)(weak-pairs)                        ...     -0.004183656
E(CORR)(corrected)                         ...     -2.621593140
E(TOT)                                     ...  -1016.152894247
E(CCSD(T))                                 ...  -1016.264105099
FINAL SINGLE POINT ENERGY     -1016.264105098863

DIPOLE MOMENT
-------------
                                X             Y             Z
Electronic contribution:      3.45187      -4.06331     -18.11650
Nuclear contribution   :     -3.13969       6.14743      19.30799
                        -----------------------------------------
Total Dipole Moment    :      0.31219       2.08413       1.19149
                        -----------------------------------------
Magnitude (a.u.)       :      2.42089
Magnitude (Debye)      :      6.15341

Rotational constants in cm-1:     0.036460     0.018762     0.015014
Rotational constants in MHz :  1093.039020   562.475626   450.105862

                             ****ORCA TERMINATED NORMALLY****
TOTAL RUN TIME: 0 days 3 hours 41 minutes 30 seconds 116 msec
