                         Program Version 5.0.0 -  RELEASE  -
|  1> !BLYP D3BJ RIJCOSX def2-SVPD def2/J TightSCF
|  2> *xyz -1 1
|  3> C         -2.12050        0.88520        1.78951
|  4> C         -0.77894        0.17197        1.80496
|  5> H          0.01569        0.91077        1.93915
|  6> H         -0.74355       -0.50683        2.66542
|  7> C         -0.60249       -0.63071        0.49224
|  8> H          0.31389       -1.24035        0.60350
|  9> H         -0.36383        0.11332       -0.30117
| 10> O         -1.71206       -1.37684        0.20253
| 11> H         -2.16160        1.54956        0.95175
| 12> H         -2.23761        1.44436        2.69423
| 13> H         -2.90702        0.16393        1.71165
| 14> *
| 15> %MaxCore 64000
| 16>
| 17> %pal nprocs 4
| 18> end
| 19> %scf
| 20>   MaxIter 150
| 21> end
| 22>
| 23>                          ****END OF INPUT****

CARTESIAN COORDINATES (ANGSTROEM)
---------------------------------
  C     -2.120500    0.885200    1.789510
  C     -0.778940    0.171970    1.804960
  H      0.015690    0.910770    1.939150
  H     -0.743550   -0.506830    2.665420
  C     -0.602490   -0.630710    0.492240
  H      0.313890   -1.240350    0.603500
  H     -0.363830    0.113320   -0.301170
  O     -1.712060   -1.376840    0.202530
  H     -2.161600    1.549560    0.951750
  H     -2.237610    1.444360    2.694230
  H     -2.907020    0.163930    1.711650

 Total Charge           Charge          ....   -1
 Multiplicity           Mult            ....    1
 Number of Electrons    NEL             ....   34
 Basis Dimension        Dim             ....  139

ORBITAL ENERGIES
----------------

  NO   OCC          E(Eh)            E(eV)
   0   2.0000     -18.474281      -502.7107
   1   2.0000      -9.741395      -265.0768
   2   2.0000      -9.733063      -264.8501
   3   2.0000      -9.729603      -264.7559
   4   2.0000      -0.594887       -16.1877
   5   2.0000      -0.496616       -13.5136
   6   2.0000      -0.388296       -10.5661
   7   2.0000      -0.298953        -8.1349
   8   2.0000      -0.221847        -6.0368
   9   2.0000      -0.212415        -5.7801
  10   2.0000      -0.165049        -4.4912
  11   2.0000      -0.139505        -3.7961
  12   2.0000      -0.112913        -3.0725
  13   2.0000      -0.108718        -2.9584
  14   2.0000      -0.071469        -1.9448
  15   2.0000       0.062634         1.7044
  16   2.0000       0.066366         1.8059
  17   0.0000       0.151070         4.1108
  18   0.0000       0.174456         4.7472
  19   0.0000       0.189187         5.1480
  20   0.0000       0.211508         5.7554
  21   0.0000       0.231671         6.3041

MULLIKEN ATOMIC CHARGES
-----------------------
   0 C :    0.938651
   1 C :   -0.230484
   2 H :   -0.221203
   3 H :   -0.189223
   4 C :    0.638099
   5 H :   -0.337602
   6 H :   -0.208058
   7 O :   -0.806155
   8 H :   -0.185582
   9 H :   -0.271175
  10 H :   -0.127269
Sum of atomic charges:   -1.0000000

LOEWDIN ATOMIC CHARGES
----------------------
   0 C :    0.084379
   1 C :   -0.104799
   2 H :   -0.025731
   3 H :   -0.008140
   4 C :   -0.209125
   5 H :   -0.047041
   6 H :   -0.039586
   7 O :   -0.509700
   8 H :   -0.037365
   9 H :   -0.058608
  10 H :   -0.044284

  Mayer bond orders larger than 0.100000
B(  0-C ,  1-C ) :   1.2856 B(  0-C ,  2-H ) :   0.1350 B(  0-C ,  3-H ) :   0.1247
B(  0-C ,  8-H ) :   0.7287 B(  0-C ,  9-H ) :   0.7051 B(  0-C , 10-H ) :   0.7471
B(  1-C ,  2-H ) :   0.9468 B(  1-C ,  3-H ) :   0.8915 B(  1-C ,  4-C ) :   1.0095
B(  1-C ,  5-H ) :   0.1954 B(  1-C ,  6-H ) :   0.1997 B(  1-C ,  7-O ) :   0.1913
B(  1-C ,  8-H ) :   0.2504 B(  1-C ,  9-H ) :   0.2639 B(  1-C , 10-H ) :   0.2494
B(  2-H ,  4-C ) :   0.1074 B(  3-H ,  4-C ) :   0.1262 B(  4-C ,  5-H ) :   0.9098
B(  4-C ,  6-H ) :   0.8692 B(  4-C ,  7-O ) :   1.1768 B(  5-H ,  6-H ) :   0.1040

Dispersion correction           -0.013719557
FINAL SINGLE POINT ENERGY      -193.534709098444

DIPOLE MOMENT
-------------
                                X             Y             Z
Electronic contribution:     -0.68544      -2.49464      -1.57527
Nuclear contribution   :      1.03476       3.87369       2.65163
                        -----------------------------------------
Total Dipole Moment    :      0.34932       1.37905       1.07636
                        -----------------------------------------
Magnitude (a.u.)       :      1.78391
Magnitude (Debye)      :      4.53435

Rotational constants in cm-1:     0.475803     0.193433     0.155403
Rotational constants in MHz : 14264.216647  5798.988361  4658.874800

                             ****ORCA TERMINATED NORMALLY****
TOTAL RUN TIME: 0 days 0 hours 0 minutes 9 seconds 425 msec
