                         Program Version 5.0.0 -  RELEASE  -
|  1> !BLYP D3BJ RIJCOSX def2-SVPD def2/J TightSCF
|  2> *xyz 1 1
|  3> C         -2.12050        0.88520        1.78951
|  4> C         -0.77894        0.17197        1.80496
|  5> H         -2.32419        1.47265        2.68608
|  6> H         -2.18770        1.54127        0.91948
|  7> N         -3.17690       -0.15948        1.61070
|  8> H          0.01569        0.91077        1.93915
|  9> H         -0.74355       -0.50683        2.66542
| 10> C         -0.60249       -0.63071        0.49224
| 11> H         -4.06474        0.23127        1.28675
| 12> H         -3.34407       -0.67151        2.48493
| 13> H         -2.71686       -0.78189        0.93588
| 14> H         -0.63812        0.03805       -0.34226
| 15> H         -1.38918       -1.35085        0.40604
| 16> H          0.34172       -1.13388        0.50602
| 17> *
| 18> %MaxCore 64000
| 19>
| 20> %pal nprocs 4
| 21> end
| 22>
| 23> %scf
| 24>   MaxIter 150
| 25> end
| 26>
| 27>
| 28>                          ****END OF INPUT****

CARTESIAN COORDINATES (ANGSTROEM)
---------------------------------
  C     -2.120500    0.885200    1.789510
  C     -0.778940    0.171970    1.804960
  H     -2.324190    1.472650    2.686080
  H     -2.187700    1.541270    0.919480
  N     -3.176900   -0.159480    1.610700
  H      0.015690    0.910770    1.939150
  H     -0.743550   -0.506830    2.665420
  C     -0.602490   -0.630710    0.492240
  H     -4.064740    0.231270    1.286750
  H     -3.344070   -0.671510    2.484930
  H     -2.716860   -0.781890    0.935880
  H     -0.638120    0.038050   -0.342260
  H     -1.389180   -1.350850    0.406040
  H      0.341720   -1.133880    0.506020

 Total Charge           Charge          ....    1
 Multiplicity           Mult            ....    1
 Number of Electrons    NEL             ....   34
 Basis Dimension        Dim             ....  160

ORBITAL ENERGIES
----------------

  NO   OCC          E(Eh)            E(eV)
   0   2.0000     -14.341400      -390.2493
   1   2.0000     -10.168266      -276.6926
   2   2.0000     -10.109038      -275.0809
   3   2.0000     -10.089027      -274.5364
   4   2.0000      -1.112248       -30.2658
   5   2.0000      -0.894621       -24.3439
   6   2.0000      -0.813164       -22.1273
   7   2.0000      -0.742674       -20.2092
   8   2.0000      -0.740470       -20.1492
   9   2.0000      -0.707296       -19.2465
  10   2.0000      -0.633308       -17.2332
  11   2.0000      -0.589662       -16.0455
  12   2.0000      -0.563735       -15.3400
  13   2.0000      -0.541226       -14.7275
  14   2.0000      -0.498066       -13.5531
  15   2.0000      -0.488945       -13.3049
  16   2.0000      -0.482245       -13.1226
  17   0.0000      -0.207255        -5.6397
  18   0.0000      -0.156946        -4.2707
  19   0.0000      -0.147708        -4.0193
  20   0.0000      -0.139082        -3.7846
  21   0.0000      -0.112851        -3.0708

MULLIKEN ATOMIC CHARGES
-----------------------
   0 C :    0.875337
   1 C :    0.119874
   2 H :   -0.335380
   3 H :   -0.104137
   4 N :   -0.389228
   5 H :   -0.249997
   6 H :   -0.097343
   7 C :    1.080813
   8 H :    0.262646
   9 H :    0.354351
  10 H :    0.066088
  11 H :   -0.090319
  12 H :   -0.295877
  13 H :   -0.196826
Sum of atomic charges:    1.0000000

LOEWDIN ATOMIC CHARGES
----------------------
   0 C :    0.093218
   1 C :   -0.011629
   2 H :    0.047601
   3 H :    0.051018
   4 N :    0.353090
   5 H :    0.044673
   6 H :    0.034692
   7 C :    0.180662
   8 H :    0.104788
   9 H :    0.108301
  10 H :    0.015823
  11 H :    0.005133
  12 H :   -0.037483
  13 H :    0.010112

  Mayer bond orders larger than 0.100000
B(  0-C ,  1-C ) :   1.1593 B(  0-C ,  2-H ) :   0.8245 B(  0-C ,  3-H ) :   0.8002
B(  0-C ,  4-N ) :   0.8434 B(  0-C ,  5-H ) :   0.1271 B(  1-C ,  5-H ) :   0.8753
B(  1-C ,  6-H ) :   0.8482 B(  1-C ,  7-C ) :   1.2596 B(  1-C , 11-H ) :   0.2113
B(  1-C , 12-H ) :   0.1775 B(  1-C , 13-H ) :   0.2197 B(  2-H ,  3-H ) :  -0.1150
B(  2-H ,  4-N ) :   0.1815 B(  4-N ,  8-H ) :   0.8002 B(  4-N ,  9-H ) :   0.7996
B(  4-N , 10-H ) :   0.9499 B(  7-C , 11-H ) :   0.6932 B(  7-C , 12-H ) :   0.7334
B(  7-C , 13-H ) :   0.7175 B( 10-H , 12-H ) :   0.3308 B( 11-H , 13-H ) :  -0.1115
B( 12-H , 13-H ) :   0.1152

Dispersion correction           -0.019548710
FINAL SINGLE POINT ENERGY      -174.634281880565

DIPOLE MOMENT
-------------
                                X             Y             Z
Electronic contribution:     -1.81793       0.50456       0.92673
Nuclear contribution   :      0.18509      -0.64781      -0.64735
                        -----------------------------------------
Total Dipole Moment    :     -1.63283      -0.14325       0.27938
                        -----------------------------------------
Magnitude (a.u.)       :      1.66274
Magnitude (Debye)      :      4.22636

Rotational constants in cm-1:     0.411855     0.178330     0.145265
Rotational constants in MHz : 12347.103052  5346.196801  4354.936890

                             ****ORCA TERMINATED NORMALLY****
TOTAL RUN TIME: 0 days 0 hours 0 minutes 8 seconds 717 msec
