                         Program Version 5.0.0 -  RELEASE  -
|  1> !BLYP D3BJ RIJCOSX def2-SVPD def2/J TightSCF
|  2> *xyz 0 1
|  3> C         -2.12050        0.88520        1.78951
|  4> C         -0.77894        0.17197        1.80496
|  5> H          0.01569        0.91077        1.93915
|  6> H         -0.74355       -0.50683        2.66542
|  7> C         -0.60249       -0.63071        0.49224
|  8> H          0.31389       -1.24035        0.60350
|  9> H         -0.36383        0.11332       -0.30117
| 10> F         -1.71206       -1.37684        0.20253
| 11> H         -2.16160        1.54956        0.95175
| 12> H         -2.23761        1.44436        2.69423
| 13> H         -2.90702        0.16393        1.71165
| 14> *
| 15> %MaxCore 64000
| 16>
| 17> %pal nprocs 4
| 18> end
| 19> %scf
| 20>   MaxIter 150
| 21> end
| 22>
| 23>                          ****END OF INPUT****

CARTESIAN COORDINATES (ANGSTROEM)
---------------------------------
  C     -2.120500    0.885200    1.789510
  C     -0.778940    0.171970    1.804960
  H      0.015690    0.910770    1.939150
  H     -0.743550   -0.506830    2.665420
  C     -0.602490   -0.630710    0.492240
  H      0.313890   -1.240350    0.603500
  H     -0.363830    0.113320   -0.301170
  F     -1.712060   -1.376840    0.202530
  H     -2.161600    1.549560    0.951750
  H     -2.237610    1.444360    2.694230
  H     -2.907020    0.163930    1.711650

 Total Charge           Charge          ....    0
 Multiplicity           Mult            ....    1
 Number of Electrons    NEL             ....   34
 Basis Dimension        Dim             ....  139

ORBITAL ENERGIES
----------------

  NO   OCC          E(Eh)            E(eV)
   0   2.0000     -24.297036      -661.1560
   1   2.0000      -9.999697      -272.1056
   2   2.0000      -9.927506      -270.1412
   3   2.0000      -9.907521      -269.5973
   4   2.0000      -1.081334       -29.4246
   5   2.0000      -0.704073       -19.1588
   6   2.0000      -0.610854       -16.6222
   7   2.0000      -0.526495       -14.3267
   8   2.0000      -0.454128       -12.3574
   9   2.0000      -0.436722       -11.8838
  10   2.0000      -0.419348       -11.4110
  11   2.0000      -0.383325       -10.4308
  12   2.0000      -0.342294        -9.3143
  13   2.0000      -0.325961        -8.8699
  14   2.0000      -0.308452        -8.3934
  15   2.0000      -0.281061        -7.6481
  16   2.0000      -0.278329        -7.5737
  17   0.0000       0.002499         0.0680
  18   0.0000       0.026795         0.7291
  19   0.0000       0.037334         1.0159
  20   0.0000       0.046567         1.2672
  21   0.0000       0.066448         1.8081

MULLIKEN ATOMIC CHARGES
-----------------------
   0 C :    0.967436
   1 C :   -0.119351
   2 H :   -0.225413
   3 H :   -0.207278
   4 C :    0.935919
   5 H :   -0.265196
   6 H :   -0.139907
   7 F :   -0.380824
   8 H :   -0.177930
   9 H :   -0.252429
  10 H :   -0.135027
Sum of atomic charges:    0.0000000

LOEWDIN ATOMIC CHARGES
----------------------
   0 C :    0.125951
   1 C :   -0.053777
   2 H :    0.019122
   3 H :    0.017584
   4 C :    0.093568
   5 H :    0.021109
   6 H :    0.028912
   7 F :   -0.185328
   8 H :   -0.019004
   9 H :   -0.024107
  10 H :   -0.024031

  Mayer bond orders larger than 0.100000
B(  0-C ,  1-C ) :   1.3401 B(  0-C ,  2-H ) :   0.1115 B(  0-C ,  8-H ) :   0.7188
B(  0-C ,  9-H ) :   0.7232 B(  0-C , 10-H ) :   0.7478 B(  1-C ,  2-H ) :   0.8706
B(  1-C ,  3-H ) :   0.8521 B(  1-C ,  4-C ) :   1.1665 B(  1-C ,  5-H ) :   0.1461
B(  1-C ,  6-H ) :   0.1495 B(  1-C ,  8-H ) :   0.2222 B(  1-C ,  9-H ) :   0.2458
B(  1-C , 10-H ) :   0.2166 B(  4-C ,  5-H ) :   0.8501 B(  4-C ,  6-H ) :   0.8192
B(  4-C ,  7-F ) :   0.8059

Dispersion correction           -0.012916184
FINAL SINGLE POINT ENERGY      -218.143186419709

DIPOLE MOMENT
-------------
                                X             Y             Z
Electronic contribution:     -1.03322      -4.84755      -3.46564
Nuclear contribution   :      1.51874       5.24801       3.69322
                        -----------------------------------------
Total Dipole Moment    :      0.48552       0.40046       0.22759
                        -----------------------------------------
Magnitude (a.u.)       :      0.66925
Magnitude (Debye)      :      1.70110

Rotational constants in cm-1:     0.461913     0.182549     0.147043
Rotational constants in MHz : 13847.794369  5472.673442  4408.246847

                             ****ORCA TERMINATED NORMALLY****
TOTAL RUN TIME: 0 days 0 hours 0 minutes 7 seconds 900 msec
