                         Program Version 5.0.0 -  RELEASE  -
|  1> !BLYP D3BJ RIJCOSX def2-SVPD def2/J TightSCF
|  2> *xyz 0 1
|  3> C         -2.12050        0.88520        1.78951
|  4> C         -0.77894        0.17197        1.80496
|  5> H         -2.32419        1.47265        2.68608
|  6> H         -2.18770        1.54127        0.91948
|  7> C         -3.17690       -0.15948        1.61070
|  8> H          0.01569        0.91077        1.93915
|  9> H         -0.74355       -0.50683        2.66542
| 10> C         -0.60249       -0.63071        0.49224
| 11> H         -4.06474        0.23127        1.28675
| 12> H         -3.34407       -0.67151        2.48493
| 13> H         -2.71686       -0.78189        0.93588
| 14> H         -0.63812        0.03805       -0.34226
| 15> H         -1.38918       -1.35085        0.40604
| 16> H          0.34172       -1.13388        0.50602
| 17> *
| 18> %MaxCore 64000
| 19>
| 20> %pal nprocs 4
| 21> end
| 22>
| 23> %scf
| 24>   MaxIter 150
| 25> end
| 26>
| 27>
| 28>                          ****END OF INPUT****

CARTESIAN COORDINATES (ANGSTROEM)
---------------------------------
  C     -2.120500    0.885200    1.789510
  C     -0.778940    0.171970    1.804960
  H     -2.324190    1.472650    2.686080
  H     -2.187700    1.541270    0.919480
  C     -3.176900   -0.159480    1.610700
  H      0.015690    0.910770    1.939150
  H     -0.743550   -0.506830    2.665420
  C     -0.602490   -0.630710    0.492240
  H     -4.064740    0.231270    1.286750
  H     -3.344070   -0.671510    2.484930
  H     -2.716860   -0.781890    0.935880
  H     -0.638120    0.038050   -0.342260
  H     -1.389180   -1.350850    0.406040
  H      0.341720   -1.133880    0.506020

 Total Charge           Charge          ....    0
 Multiplicity           Mult            ....    1
 Number of Electrons    NEL             ....   34
 Basis Dimension        Dim             ....  160

ORBITAL ENERGIES
----------------

  NO   OCC          E(Eh)            E(eV)
   0   2.0000      -9.914320      -269.7824
   1   2.0000      -9.906898      -269.5804
   2   2.0000      -9.905380      -269.5391
   3   2.0000      -9.879952      -268.8472
   4   2.0000      -0.722522       -19.6608
   5   2.0000      -0.639303       -17.3963
   6   2.0000      -0.572797       -15.5866
   7   2.0000      -0.498203       -13.5568
   8   2.0000      -0.426454       -11.6044
   9   2.0000      -0.407833       -11.0977
  10   2.0000      -0.372108       -10.1256
  11   2.0000      -0.343715        -9.3530
  12   2.0000      -0.328684        -8.9439
  13   2.0000      -0.314312        -8.5529
  14   2.0000      -0.284674        -7.7464
  15   2.0000      -0.281197        -7.6517
  16   2.0000      -0.270102        -7.3499
  17   0.0000       0.009932         0.2703
  18   0.0000       0.031513         0.8575
  19   0.0000       0.036780         1.0008
  20   0.0000       0.041654         1.1335
  21   0.0000       0.074365         2.0236

MULLIKEN ATOMIC CHARGES
-----------------------
   0 C :    0.027560
   1 C :    0.097023
   2 H :   -0.417387
   3 H :   -0.092350
   4 C :    2.094074
   5 H :   -0.323213
   6 H :   -0.128423
   7 C :    1.049770
   8 H :   -0.295289
   9 H :   -0.184653
  10 H :   -1.258480
  11 H :   -0.098847
  12 H :   -0.247333
  13 H :   -0.222450
Sum of atomic charges:    0.0000000

LOEWDIN ATOMIC CHARGES
----------------------
   0 C :   -0.065955
   1 C :   -0.052501
   2 H :    0.013700
   3 H :    0.019360
   4 C :    0.149131
   5 H :    0.009744
   6 H :    0.020382
   7 C :    0.145037
   8 H :   -0.032837
   9 H :   -0.025695
  10 H :   -0.096472
  11 H :   -0.013314
  12 H :   -0.047332
  13 H :   -0.023249

  Mayer bond orders larger than 0.100000
B(  0-C ,  1-C ) :   1.1597 B(  0-C ,  2-H ) :   0.9165 B(  0-C ,  3-H ) :   0.7914
B(  0-C ,  4-C ) :   1.0450 B(  0-C ,  5-H ) :   0.1146 B(  0-C ,  6-H ) :   0.1393
B(  0-C ,  8-H ) :   0.1982 B(  0-C ,  9-H ) :   0.3057 B(  0-C , 10-H ) :   0.4838
B(  1-C ,  5-H ) :   0.8885 B(  1-C ,  6-H ) :   0.8187 B(  1-C ,  7-C ) :   1.2414
B(  1-C , 11-H ) :   0.2465 B(  1-C , 12-H ) :   0.1799 B(  1-C , 13-H ) :   0.2220
B(  2-H ,  3-H ) :  -0.1189 B(  3-H ,  4-C ) :   0.1408 B(  4-C ,  8-H ) :   0.2895
B(  4-C ,  9-H ) :   0.2896 B(  4-C , 10-H ) :  -0.3814 B(  5-H ,  8-H ) :   0.1027
B(  7-C , 11-H ) :   0.6869 B(  7-C , 12-H ) :   0.7060 B(  7-C , 13-H ) :   0.6739
B(  8-H ,  9-H ) :  -0.1661 B(  8-H , 10-H ) :   0.3358 B(  9-H , 10-H ) :   0.3306
B( 10-H , 12-H ) :   0.5331 B( 12-H , 13-H ) :   0.1046

Dispersion correction           -0.019667978
FINAL SINGLE POINT ENERGY      -158.215261991917

DIPOLE MOMENT
-------------
                                X             Y             Z
Electronic contribution:      0.30832       0.71159       0.58678
Nuclear contribution   :     -0.27446      -0.71220      -0.58629
                        -----------------------------------------
Total Dipole Moment    :      0.03386      -0.00061       0.00049
                        -----------------------------------------
Magnitude (a.u.)       :      0.03387
Magnitude (Debye)      :      0.08610

Rotational constants in cm-1:     0.419751     0.185753     0.151088
Rotational constants in MHz : 12583.819928  5568.732483  4529.512437

                             ****ORCA TERMINATED NORMALLY****
TOTAL RUN TIME: 0 days 0 hours 0 minutes 9 seconds 2 msec
