                         Program Version 5.0.0 -  RELEASE  -
|  1> !BLYP D3BJ RIJCOSX def2-SVPD def2/J TightSCF xyzfile
|  2>
|  3> *xyzfile 0 1 D.xyz
|  4>
|  5> %MaxCore 64000
|  6>
|  7> %pal nprocs 4
|  8> end
|  9>
| 10> %scf
| 11>   MaxIter 150
| 12> end
| 13>
| 14>
| 15>                          ****END OF INPUT****

CARTESIAN COORDINATES (ANGSTROEM)
---------------------------------
  C     -2.120502    0.885196    1.789506
  C     -0.778939    0.171966    1.804965
  H     -2.324193    1.472649    2.686078
  H     -2.187698    1.541272    0.919482
  C     -3.176900   -0.159484    1.610700
  H      0.015695    0.910767    1.939153
  H     -0.743553   -0.506827    2.665420
  C     -0.602493   -0.630712    0.492240
  H      0.313894   -1.240346    0.603498
  H     -0.363829    0.113322   -0.301169
  F     -1.712061   -1.376836    0.202535
  H     -4.064736    0.231272    1.286754
  H     -3.344073   -0.671511    2.484928
  H     -2.716861   -0.781886    0.935880

 Total Charge           Charge          ....    0
 Multiplicity           Mult            ....    1
 Number of Electrons    NEL             ....   42
 Basis Dimension        Dim             ....  175

ORBITAL ENERGIES
----------------

  NO   OCC          E(Eh)            E(eV)
   0   2.0000     -24.312467      -661.5759
   1   2.0000     -10.009325      -272.3676
   2   2.0000      -9.927273      -270.1348
   3   2.0000      -9.907669      -269.6014
   4   2.0000      -9.849502      -268.0186
   5   2.0000      -1.111270       -30.2392
   6   2.0000      -0.719959       -19.5911
   7   2.0000      -0.654086       -17.7986
   8   2.0000      -0.563608       -15.3365
   9   2.0000      -0.524356       -14.2685
  10   2.0000      -0.471614       -12.8333
  11   2.0000      -0.467499       -12.7213
  12   2.0000      -0.429871       -11.6974
  13   2.0000      -0.388258       -10.5650
  14   2.0000      -0.360252        -9.8029
  15   2.0000      -0.352873        -9.6022
  16   2.0000      -0.332644        -9.0517
  17   2.0000      -0.298715        -8.1285
  18   2.0000      -0.285401        -7.7662
  19   2.0000      -0.280800        -7.6410
  20   2.0000      -0.231361        -6.2956
  21   0.0000       0.001755         0.0478
  22   0.0000       0.027565         0.7501
  23   0.0000       0.032028         0.8715
  24   0.0000       0.035146         0.9564
  25   0.0000       0.056825         1.5463

MULLIKEN ATOMIC CHARGES
-----------------------
   0 C :    0.045870
   1 C :    0.317457
   2 H :   -0.449722
   3 H :   -0.121934
   4 C :    2.401121
   5 H :   -0.327995
   6 H :   -0.100930
   7 C :    1.025917
   8 H :   -0.233399
   9 H :   -0.124108
  10 F :   -0.577430
  11 H :   -0.314703
  12 H :   -0.215201
  13 H :   -1.324943
Sum of atomic charges:    0.0000000

LOEWDIN ATOMIC CHARGES
----------------------
   0 C :   -0.051102
   1 C :   -0.008861
   2 H :    0.011842
   3 H :    0.020745
   4 C :    0.159086
   5 H :    0.019604
   6 H :    0.025762
   7 C :    0.150381
   8 H :    0.026991
   9 H :    0.036466
  10 F :   -0.161857
  11 H :   -0.035437
  12 H :   -0.028050
  13 H :   -0.165570

  Mayer bond orders larger than 0.100000
B(  0-C ,  1-C ) :   1.1509 B(  0-C ,  2-H ) :   0.9006 B(  0-C ,  3-H ) :   0.7659
B(  0-C ,  4-C ) :   0.9549 B(  0-C ,  5-H ) :   0.1227 B(  0-C ,  6-H ) :   0.1153
B(  0-C , 11-H ) :   0.2344 B(  0-C , 12-H ) :   0.3161 B(  0-C , 13-H ) :   0.5276
B(  1-C ,  4-C ) :   0.1294 B(  1-C ,  5-H ) :   0.8371 B(  1-C ,  6-H ) :   0.7820
B(  1-C ,  7-C ) :   1.2060 B(  1-C ,  8-H ) :   0.1568 B(  1-C ,  9-H ) :   0.1524
B(  1-C , 10-F ) :   0.1076 B(  2-H ,  3-H ) :  -0.1388 B(  2-H , 13-H ) :   0.1134
B(  3-H ,  4-C ) :   0.1399 B(  4-C , 10-F ) :  -0.1946 B(  4-C , 11-H ) :   0.2534
B(  4-C , 13-H ) :  -1.1451 B(  5-H ,  7-C ) :   0.1329 B(  7-C ,  8-H ) :   0.7730
B(  7-C ,  9-H ) :   0.7987 B(  7-C , 10-F ) :   0.7082 B(  9-H , 10-F ) :   0.1115
B( 10-F , 13-H ) :   0.4136 B( 11-H , 12-H ) :  -0.1721 B( 11-H , 13-H ) :   0.3278
B( 12-H , 13-H ) :   0.5758

Dispersion correction           -0.020269891
FINAL SINGLE POINT ENERGY      -257.345813728512

DIPOLE MOMENT
-------------
                                X             Y             Z
Electronic contribution:      0.87374      -4.21032      -3.74047
Nuclear contribution   :     -0.20666       4.43855       3.76066
                        -----------------------------------------
Total Dipole Moment    :      0.66708       0.22823       0.02018
                        -----------------------------------------
Magnitude (a.u.)       :      0.70533
Magnitude (Debye)      :      1.79280

Rotational constants in cm-1:     0.236353     0.155239     0.105045
Rotational constants in MHz :  7085.692869  4653.957069  3149.180346

                             ****ORCA TERMINATED NORMALLY****
TOTAL RUN TIME: 0 days 0 hours 0 minutes 9 seconds 852 msec
