                         Program Version 5.0.0 -  RELEASE  -
|  1> !PBE0 D3BJ RIJCOSX def2-SVPD def2/J TightSCF
|  2> *xyz -1 1
|  3> C          4.90646       -3.10282       -5.95484
|  4> C          3.51177       -2.80621       -6.49228
|  5> H          2.73604       -3.37345       -5.97374
|  6> H          3.44490       -3.04083       -7.55528
|  7> S          3.00462       -1.09621       -6.38926
|  8> O          4.12886       -0.32965       -6.95372
|  9> O          1.78128       -1.00078       -7.13640
| 10> C          5.02498       -3.02568       -4.43762
| 11> H          5.20153       -4.10021       -6.29691
| 12> H          5.60592       -2.39782       -6.41337
| 13> O          2.85155       -0.78368       -4.95679
| 14> H          4.73604       -2.05011       -4.10644
| 15> H          6.03776       -3.21492       -4.14890
| 16> H          4.38436       -3.75784       -3.99214
| 17> *
| 18>
| 19> %MaxCore 64000
| 20>
| 21> %pal nprocs 8
| 22> end
| 23>
| 24> %scf
| 25>   MaxIter 150
| 26> end
| 27>
| 28>
| 29>                          ****END OF INPUT****

CARTESIAN COORDINATES (ANGSTROEM)
---------------------------------
  C      4.906460   -3.102820   -5.954840
  C      3.511770   -2.806210   -6.492280
  H      2.736040   -3.373450   -5.973740
  H      3.444900   -3.040830   -7.555280
  S      3.004620   -1.096210   -6.389260
  O      4.128860   -0.329650   -6.953720
  O      1.781280   -1.000780   -7.136400
  C      5.024980   -3.025680   -4.437620
  H      5.201530   -4.100210   -6.296910
  H      5.605920   -2.397820   -6.413370
  O      2.851550   -0.783680   -4.956790
  H      4.736040   -2.050110   -4.106440
  H      6.037760   -3.214920   -4.148900
  H      4.384360   -3.757840   -3.992140

 Total Charge           Charge          ....   -1
 Multiplicity           Mult            ....    1
 Number of Electrons    NEL             ....   66
 Basis Dimension        Dim             ....  212

ORBITAL ENERGIES
----------------

  NO   OCC          E(Eh)            E(eV)
   0   2.0000     -89.038809     -2422.8692
   1   2.0000     -19.002486      -517.0839
   2   2.0000     -18.991562      -516.7867
   3   2.0000     -18.991116      -516.7745
   4   2.0000     -10.103469      -274.9294
   5   2.0000     -10.099269      -274.8151
   6   2.0000     -10.085534      -274.4413
   7   2.0000      -7.998286      -217.6444
   8   2.0000      -5.940550      -161.6506
   9   2.0000      -5.940444      -161.6477
  10   2.0000      -5.939896      -161.6328
  11   2.0000      -0.958817       -26.0907
  12   2.0000      -0.816911       -22.2293
  13   2.0000      -0.796354       -21.6699
  14   2.0000      -0.677897       -18.4465
  15   2.0000      -0.586607       -15.9624
  16   2.0000      -0.487942       -13.2776
  17   2.0000      -0.400590       -10.9006
  18   2.0000      -0.348313        -9.4781
  19   2.0000      -0.337591        -9.1863
  20   2.0000      -0.310215        -8.4414
  21   2.0000      -0.296882        -8.0786
  22   2.0000      -0.281174        -7.6511
  23   2.0000      -0.270578        -7.3628
  24   2.0000      -0.236933        -6.4473
  25   2.0000      -0.228968        -6.2305
  26   2.0000      -0.217499        -5.9185
  27   2.0000      -0.167224        -4.5504
  28   2.0000      -0.166983        -4.5438
  29   2.0000      -0.130839        -3.5603
  30   2.0000      -0.121035        -3.2935
  31   2.0000      -0.116692        -3.1754
  32   2.0000      -0.079717        -2.1692
  33   0.0000       0.142804         3.8859
  34   0.0000       0.167501         4.5579
  35   0.0000       0.171982         4.6799
  36   0.0000       0.184052         5.0083
  37   0.0000       0.200272         5.4497

MULLIKEN ATOMIC CHARGES
-----------------------
   0 C :   -0.365737
   1 C :   -0.143633
   2 H :    0.060136
   3 H :    0.048688
   4 S :    1.451619
   5 O :   -0.858234
   6 O :   -0.844590
   7 C :    0.635387
   8 H :   -0.081514
   9 H :    0.051513
  10 O :   -0.865537
  11 H :   -0.097635
  12 H :   -0.016162
  13 H :    0.025699
Sum of atomic charges:   -1.0000000

LOEWDIN ATOMIC CHARGES
----------------------
   0 C :   -0.096994
   1 C :   -0.103035
   2 H :    0.011133
   3 H :    0.006233
   4 S :    0.871069
   5 O :   -0.587547
   6 O :   -0.572499
   7 C :    0.114651
   8 H :    0.008618
   9 H :    0.016875
  10 O :   -0.586041
  11 H :   -0.032673
  12 H :   -0.029649
  13 H :   -0.020141

  Mayer bond orders larger than 0.100000
B(  0-C ,  1-C ) :   1.2072 B(  0-C ,  2-H ) :   0.1043 B(  0-C ,  3-H ) :   0.1081
B(  0-C ,  7-C ) :   1.2568 B(  0-C ,  8-H ) :   0.9403 B(  0-C ,  9-H ) :   0.9182
B(  0-C , 11-H ) :   0.2264 B(  0-C , 12-H ) :   0.1842 B(  0-C , 13-H ) :   0.1859
B(  1-C ,  2-H ) :   0.9400 B(  1-C ,  3-H ) :   0.9533 B(  1-C ,  4-S ) :   0.9541
B(  1-C ,  8-H ) :   0.1032 B(  1-C ,  9-H ) :   0.1388 B(  4-S ,  5-O ) :   1.2353
B(  4-S ,  6-O ) :   1.3011 B(  4-S , 10-O ) :   1.2255 B(  7-C , 11-H ) :   0.8565
B(  7-C , 12-H ) :   0.7792 B(  7-C , 13-H ) :   0.7784 B( 11-H , 13-H ) :   0.1013

Dispersion correction           -0.011465757
FINAL SINGLE POINT ENERGY      -741.563480034791

DIPOLE MOMENT
-------------
                                X             Y             Z
Electronic contribution:     -6.18312       7.89067      -3.68415
Nuclear contribution   :      7.19636      -9.97366       3.94889
                        -----------------------------------------
Total Dipole Moment    :      1.01324      -2.08299       0.26474
                        -----------------------------------------
Magnitude (a.u.)       :      2.33144
Magnitude (Debye)      :      5.92605

Rotational constants in cm-1:     0.137066     0.054570     0.051980
Rotational constants in MHz :  4109.139955  1635.961703  1558.315282

                             ****ORCA TERMINATED NORMALLY****
TOTAL RUN TIME: 0 days 0 hours 0 minutes 12 seconds 387 msec
