                         Program Version 5.0.0 -  RELEASE  -
|  1> !PBE0 D3BJ RIJCOSX def2-SVPD def2/J TightSCF
|  2> *xyz 1 1
|  3> C          4.49059        1.15590       -2.46929
|  4> N          4.30539        1.22276       -3.90832
|  5> C          4.63192        2.24637       -4.67096
|  6> N          4.54169        2.14399       -5.98714
|  7> N          5.08409        3.39358       -4.11855
|  8> H          4.92067        3.57050       -3.13587
|  9> H          5.25465        4.19739       -4.70696
| 10> H          3.82453        0.44911       -4.35093
| 11> H          4.34337        1.24932       -6.41665
| 12> H          4.67671        2.95662       -6.57411
| 13> C          5.94213        0.93950       -2.03689
| 14> H          3.86431        0.32853       -2.13661
| 15> H          4.07623        2.04999       -1.98901
| 16> C          6.55996       -0.35629       -2.55909
| 17> H          5.96798        0.95257       -0.94244
| 18> H          6.54718        1.78833       -2.36885
| 19> H          6.53022       -0.35990       -3.62867
| 20> H          6.00654       -1.19175       -2.18407
| 21> H          7.57588       -0.42487       -2.23029
| 22> *
| 23>
| 24> %MaxCore 64000
| 25>
| 26> %pal nprocs 8
| 27> end
| 28>
| 29> %scf
| 30>   MaxIter 150
| 31> end
| 32>
| 33>
| 34>                          ****END OF INPUT****

CARTESIAN COORDINATES (ANGSTROEM)
---------------------------------
  C      4.490590    1.155900   -2.469290
  N      4.305390    1.222760   -3.908320
  C      4.631920    2.246370   -4.670960
  N      4.541690    2.143990   -5.987140
  N      5.084090    3.393580   -4.118550
  H      4.920670    3.570500   -3.135870
  H      5.254650    4.197390   -4.706960
  H      3.824530    0.449110   -4.350930
  H      4.343370    1.249320   -6.416650
  H      4.676710    2.956620   -6.574110
  C      5.942130    0.939500   -2.036890
  H      3.864310    0.328530   -2.136610
  H      4.076230    2.049990   -1.989010
  C      6.559960   -0.356290   -2.559090
  H      5.967980    0.952570   -0.942440
  H      6.547180    1.788330   -2.368850
  H      6.530220   -0.359900   -3.628670
  H      6.006540   -1.191750   -2.184070
  H      7.575880   -0.424870   -2.230290

 Total Charge           Charge          ....    1
 Multiplicity           Mult            ....    1
 Number of Electrons    NEL             ....   56
 Basis Dimension        Dim             ....  236

ORBITAL ENERGIES
----------------

  NO   OCC          E(Eh)            E(eV)
   0   2.0000     -14.619951      -397.8291
   1   2.0000     -14.618980      -397.8027
   2   2.0000     -14.615800      -397.7161
   3   2.0000     -10.565603      -287.5047
   4   2.0000     -10.435778      -283.9720
   5   2.0000     -10.374183      -282.2959
   6   2.0000     -10.343175      -281.4521
   7   2.0000      -1.234412       -33.5901
   8   2.0000      -1.122823       -30.5536
   9   2.0000      -1.106373       -30.1059
  10   2.0000      -0.955935       -26.0123
  11   2.0000      -0.880811       -23.9681
  12   2.0000      -0.838371       -22.8132
  13   2.0000      -0.804922       -21.9030
  14   2.0000      -0.781420       -21.2635
  15   2.0000      -0.738643       -20.0995
  16   2.0000      -0.706181       -19.2162
  17   2.0000      -0.703169       -19.1342
  18   2.0000      -0.674785       -18.3618
  19   2.0000      -0.641531       -17.4569
  20   2.0000      -0.611423       -16.6377
  21   2.0000      -0.590472       -16.0676
  22   2.0000      -0.560509       -15.2522
  23   2.0000      -0.515929       -14.0391
  24   2.0000      -0.498181       -13.5562
  25   2.0000      -0.496053       -13.4983
  26   2.0000      -0.482098       -13.1186
  27   2.0000      -0.457936       -12.4611
  28   0.0000      -0.162684        -4.4269
  29   0.0000      -0.144837        -3.9412
  30   0.0000      -0.112920        -3.0727
  31   0.0000      -0.104359        -2.8398
  32   0.0000      -0.082744        -2.2516

MULLIKEN ATOMIC CHARGES
-----------------------
   0 C :    0.693810
   1 N :   -0.689912
   2 C :    1.762393
   3 N :   -0.224476
   4 N :   -0.134550
   5 H :    0.008124
   6 H :   -0.143569
   7 H :   -0.161655
   8 H :   -0.028950
   9 H :   -0.027684
  10 C :   -0.496956
  11 H :   -0.213936
  12 H :    0.031228
  13 C :    0.554655
  14 H :   -0.045759
  15 H :    0.072668
  16 H :   -0.042526
  17 H :    0.090965
  18 H :   -0.003869
Sum of atomic charges:    1.0000000

LOEWDIN ATOMIC CHARGES
----------------------
   0 C :    0.068637
   1 N :    0.038761
   2 C :   -0.024394
   3 N :    0.257416
   4 N :    0.279087
   5 H :    0.018238
   6 H :    0.036676
   7 H :    0.064071
   8 H :    0.043120
   9 H :    0.042314
  10 C :   -0.059589
  11 H :    0.045456
  12 H :    0.030660
  13 C :    0.133278
  14 H :    0.039529
  15 H :    0.016113
  16 H :   -0.022318
  17 H :   -0.005707
  18 H :   -0.001348

  Mayer bond orders larger than 0.100000
B(  0-C ,  1-N ) :   0.8040 B(  0-C ,  7-H ) :  -0.1644 B(  0-C , 10-C ) :   1.1392
B(  0-C , 11-H ) :   0.8136 B(  0-C , 12-H ) :   0.8946 B(  1-N ,  2-C ) :   0.8277
B(  1-N ,  3-N ) :   0.3393 B(  1-N ,  4-N ) :   0.2597 B(  1-N ,  7-H ) :   1.3420
B(  1-N , 11-H ) :   0.2043 B(  2-C ,  3-N ) :   0.6607 B(  2-C ,  4-N ) :   0.8081
B(  2-C ,  5-H ) :  -0.1119 B(  2-C ,  6-H ) :  -0.1628 B(  2-C ,  7-H ) :  -0.2459
B(  2-C ,  8-H ) :  -0.1927 B(  2-C ,  9-H ) :  -0.1422 B(  3-N ,  4-N ) :   0.1701
B(  3-N ,  8-H ) :   1.2009 B(  3-N ,  9-H ) :   1.2341 B(  4-N ,  5-H ) :   1.0682
B(  4-N ,  6-H ) :   1.2916 B(  5-H ,  6-H ) :  -0.1959 B(  8-H ,  9-H ) :  -0.1709
B( 10-C , 11-H ) :   0.1246 B( 10-C , 13-C ) :   1.3417 B( 10-C , 14-H ) :   1.0367
B( 10-C , 15-H ) :   0.9083 B( 10-C , 16-H ) :   0.1835 B( 10-C , 17-H ) :   0.1703
B( 10-C , 18-H ) :   0.1898 B( 13-C , 16-H ) :   0.8579 B( 13-C , 17-H ) :   0.8088
B( 13-C , 18-H ) :   0.8282

Dispersion correction           -0.013469999
FINAL SINGLE POINT ENERGY      -323.137938396890

DIPOLE MOMENT
-------------
                                X             Y             Z
Electronic contribution:     -3.25656       3.78946      -4.83392
Nuclear contribution   :      2.46011      -2.82418       3.51638
                        -----------------------------------------
Total Dipole Moment    :     -0.79645       0.96528      -1.31754
                        -----------------------------------------
Magnitude (a.u.)       :      1.81714
Magnitude (Debye)      :      4.61881

Rotational constants in cm-1:     0.152406     0.050160     0.046480
Rotational constants in MHz :  4569.006375  1503.763011  1393.441650

                             ****ORCA TERMINATED NORMALLY****
TOTAL RUN TIME: 0 days 0 hours 0 minutes 15 seconds 628 msec
