                         Program Version 5.0.0 -  RELEASE  -
|  1> !PBE0 D3BJ RIJCOSX def2-SVPD def2/J TightSCF xyzfile
|  2>
|  3> *xyzfile 0 1 B.xyz
|  4>
|  5> %MaxCore 64000
|  6>
|  7> %pal nprocs 4
|  8> end
|  9>
| 10> %scf
| 11>   MaxIter 150
| 12> end
| 13>
| 14>
| 15>                          ****END OF INPUT****

CARTESIAN COORDINATES (ANGSTROEM)
---------------------------------
  C      4.490588    1.155899   -2.469290
  N      4.305394    1.222762   -3.908317
  C      4.906458   -3.102816   -5.954844
  C      3.511771   -2.806215   -6.492283
  H      2.736044   -3.373445   -5.973736
  H      3.444904   -3.040831   -7.555281
  S      3.004618   -1.096206   -6.389259
  C      4.631918    2.246365   -4.670958
  N      4.541686    2.143990   -5.987139
  N      5.084086    3.393584   -4.118545
  H      4.920675    3.570501   -3.135870
  H      5.254652    4.197390   -4.706956
  H      3.824530    0.449113   -4.350926
  H      4.343373    1.249318   -6.416646
  H      4.676712    2.956624   -6.574113
  O      4.128856   -0.329647   -6.953717
  O      1.781285   -1.000779   -7.136399
  C      5.942129    0.939500   -2.036893
  H      3.864305    0.328532   -2.136611
  H      4.076233    2.049994   -1.989010
  C      6.462677   -3.117775   -3.944671
  C      5.024977   -3.025679   -4.437625
  H      4.423321   -3.818693   -3.977648
  H      4.579350   -2.087131   -4.108727
  H      5.201533   -4.100207   -6.296905
  H      5.605922   -2.397822   -6.413368
  C      6.559957   -0.356290   -2.559086
  H      5.967976    0.952567   -0.942444
  H      6.547184    1.788331   -2.368849
  C      6.006283   -1.615917   -1.899301
  H      7.642360   -0.318000   -2.402059
  H      6.414855   -0.403433   -3.642587
  C      6.608718   -2.917014   -2.435655
  H      6.190324   -1.561115   -0.820948
  H      4.919250   -1.651245   -2.016586
  H      7.066975   -2.374258   -4.475514
  H      6.887808   -4.089747   -4.215332
  H      6.135197   -3.755573   -1.915159
  H      7.671142   -2.955503   -2.172291
  O      2.851546   -0.783683   -4.956789

 Total Charge           Charge          ....    0
 Multiplicity           Mult            ....    1
 Number of Electrons    NEL             ....  144
 Basis Dimension        Dim             ....  540

ORBITAL ENERGIES
----------------

  NO   OCC          E(Eh)            E(eV)
   0   2.0000     -89.194273     -2427.0996
   1   2.0000     -19.158759      -521.3363
   2   2.0000     -19.158599      -521.3320
   3   2.0000     -19.144333      -520.9438
   4   2.0000     -14.472757      -393.8237
   5   2.0000     -14.442195      -392.9921
   6   2.0000     -14.438409      -392.8891
   7   2.0000     -10.403174      -283.0848
   8   2.0000     -10.299326      -280.2589
   9   2.0000     -10.254070      -279.0274
  10   2.0000     -10.237791      -278.5845
  11   2.0000     -10.231079      -278.4018
  12   2.0000     -10.226962      -278.2898
  13   2.0000     -10.225832      -278.2590
  14   2.0000     -10.219138      -278.0769
  15   2.0000     -10.218100      -278.0486
  16   2.0000     -10.210020      -277.8288
  17   2.0000      -8.153127      -221.8579
  18   2.0000      -6.096155      -165.8848
  19   2.0000      -6.095333      -165.8624
  20   2.0000      -6.093981      -165.8256
  21   2.0000      -1.117143       -30.3990
  22   2.0000      -1.072688       -29.1893
  23   2.0000      -0.971428       -26.4339
  24   2.0000      -0.969715       -26.3873
  25   2.0000      -0.959358       -26.1055
  26   2.0000      -0.946196       -25.7473
  27   2.0000      -0.842485       -22.9252
  28   2.0000      -0.817108       -22.2346
  29   2.0000      -0.790451       -21.5093
  30   2.0000      -0.753040       -20.4913
  31   2.0000      -0.717150       -19.5146
  32   2.0000      -0.693030       -18.8583
  33   2.0000      -0.664261       -18.0755
  34   2.0000      -0.645112       -17.5544
  35   2.0000      -0.632803       -17.2195
  36   2.0000      -0.610561       -16.6142
  37   2.0000      -0.591676       -16.1003
  38   2.0000      -0.565245       -15.3811
  39   2.0000      -0.561266       -15.2728
  40   2.0000      -0.555583       -15.1182
  41   2.0000      -0.530735       -14.4420
  42   2.0000      -0.520265       -14.1571
  43   2.0000      -0.501310       -13.6413
  44   2.0000      -0.495323       -13.4784
  45   2.0000      -0.480595       -13.0777
  46   2.0000      -0.477138       -12.9836
  47   2.0000      -0.467158       -12.7120
  48   2.0000      -0.451912       -12.2971
  49   2.0000      -0.447816       -12.1857
  50   2.0000      -0.442884       -12.0515
  51   2.0000      -0.430934       -11.7263
  52   2.0000      -0.423700       -11.5295
  53   2.0000      -0.413834       -11.2610
  54   2.0000      -0.403461       -10.9787
  55   2.0000      -0.395071       -10.7504
  56   2.0000      -0.378856       -10.3092
  57   2.0000      -0.370919       -10.0932
  58   2.0000      -0.361555        -9.8384
  59   2.0000      -0.347679        -9.4608
  60   2.0000      -0.338917        -9.2224
  61   2.0000      -0.335497        -9.1293
  62   2.0000      -0.331306        -9.0153
  63   2.0000      -0.326743        -8.8911
  64   2.0000      -0.323120        -8.7925
  65   2.0000      -0.320372        -8.7178
  66   2.0000      -0.315276        -8.5791
  67   2.0000      -0.299687        -8.1549
  68   2.0000      -0.285372        -7.7654
  69   2.0000      -0.277281        -7.5452
  70   2.0000      -0.267919        -7.2905
  71   2.0000      -0.242767        -6.6060
  72   0.0000      -0.014426        -0.3926
  73   0.0000      -0.006835        -0.1860
  74   0.0000       0.015373         0.4183
  75   0.0000       0.031868         0.8672
  76   0.0000       0.036139         0.9834

MULLIKEN ATOMIC CHARGES
-----------------------
   0 C :    0.914757
   1 N :   -0.088845
   2 C :    0.053430
   3 C :    0.139145
   4 H :    0.079075
   5 H :    0.073360
   6 S :    1.490747
   7 C :    1.583002
   8 N :    0.155740
   9 N :   -0.041154
  10 H :   -0.021240
  11 H :   -0.187697
  12 H :   -0.751964
  13 H :   -0.216059
  14 H :   -0.144390
  15 O :   -0.880135
  16 O :   -0.858831
  17 C :    0.178801
  18 H :   -0.161183
  19 H :   -0.124603
  20 C :   -0.103251
  21 C :    0.039874
  22 H :    0.070543
  23 H :   -0.316017
  24 H :   -0.049623
  25 H :    0.121122
  26 C :   -0.045970
  27 H :   -0.042289
  28 H :    0.017313
  29 C :   -0.301056
  30 H :   -0.095665
  31 H :   -0.016041
  32 C :    0.530719
  33 H :   -0.284628
  34 H :    0.248806
  35 H :    0.161978
  36 H :   -0.272471
  37 H :    0.027707
  38 H :    0.059661
  39 O :   -0.942664
Sum of atomic charges:    0.0000000

LOEWDIN ATOMIC CHARGES
----------------------
   0 C :    0.080459
   1 N :    0.074829
   2 C :   -0.041895
   3 C :   -0.066181
   4 H :    0.027061
   5 H :    0.022039
   6 S :    0.965212
   7 C :   -0.018692
   8 N :    0.283126
   9 N :    0.247888
  10 H :   -0.000171
  11 H :    0.016995
  12 H :   -0.079066
  13 H :   -0.099523
  14 H :    0.029149
  15 O :   -0.532094
  16 O :   -0.514256
  17 C :   -0.022002
  18 H :    0.034569
  19 H :    0.019518
  20 C :   -0.042390
  21 C :   -0.034228
  22 H :    0.041278
  23 H :   -0.016746
  24 H :    0.029477
  25 H :    0.023791
  26 C :   -0.032095
  27 H :    0.029038
  28 H :    0.010928
  29 C :   -0.040270
  30 H :    0.030930
  31 H :    0.014595
  32 C :   -0.033994
  33 H :    0.024900
  34 H :    0.011185
  35 H :    0.018014
  36 H :    0.025228
  37 H :    0.025111
  38 H :    0.022717
  39 O :   -0.534437

  Mayer bond orders larger than 0.100000
B(  0-C ,  1-N ) :   0.8348 B(  0-C , 12-H ) :  -0.3891 B(  0-C , 17-C ) :   1.1355
B(  0-C , 18-H ) :   0.7283 B(  0-C , 19-H ) :   0.8774 B(  1-N ,  7-C ) :   1.1240
B(  1-N ,  8-N ) :   0.1570 B(  1-N ,  9-N ) :   0.2350 B(  1-N , 12-H ) :   1.2309
B(  1-N , 13-H ) :   0.1491 B(  1-N , 18-H ) :   0.2363 B(  2-C ,  3-C ) :   1.2656
B(  2-C ,  5-H ) :   0.2251 B(  2-C , 21-C ) :   1.1628 B(  2-C , 24-H ) :   0.8595
B(  2-C , 25-H ) :   0.8615 B(  3-C ,  4-H ) :   0.9178 B(  3-C ,  5-H ) :   0.7586
B(  3-C ,  6-S ) :   1.0077 B(  3-C , 16-O ) :   0.1233 B(  3-C , 25-H ) :   0.1086
B(  6-S , 15-O ) :   1.0755 B(  6-S , 16-O ) :   1.2168 B(  6-S , 39-O ) :   1.1047
B(  7-C ,  8-N ) :   0.8118 B(  7-C ,  9-N ) :   0.7785 B(  7-C , 10-H ) :  -0.1183
B(  7-C , 11-H ) :  -0.1028 B(  7-C , 12-H ) :  -0.5945 B(  7-C , 13-H ) :  -0.2658
B(  7-C , 14-H ) :  -0.1562 B(  8-N ,  9-N ) :   0.1306 B(  8-N , 13-H ) :   1.1311
B(  8-N , 14-H ) :   1.3136 B(  9-N , 10-H ) :   1.0896 B(  9-N , 11-H ) :   1.2629
B( 10-H , 11-H ) :  -0.1941 B( 12-H , 39-O ) :   0.1573 B( 13-H , 14-H ) :  -0.2615
B( 13-H , 15-O ) :   0.1860 B( 16-O , 39-O ) :   0.1142 B( 17-C , 18-H ) :   0.1034
B( 17-C , 26-C ) :   1.2435 B( 17-C , 27-H ) :   0.9396 B( 17-C , 28-H ) :   0.7498
B( 18-H , 19-H ) :  -0.1387 B( 20-C , 21-C ) :   1.2249 B( 20-C , 22-H ) :   0.1093
B( 20-C , 32-C ) :   1.1587 B( 20-C , 35-H ) :   0.8647 B( 20-C , 36-H ) :   1.0037
B( 20-C , 37-H ) :   0.1132 B( 20-C , 38-H ) :   0.1863 B( 21-C , 22-H ) :   0.7498
B( 21-C , 23-H ) :   0.9444 B( 21-C , 24-H ) :   0.1744 B( 21-C , 36-H ) :   0.1919
B( 22-H , 23-H ) :   0.2082 B( 26-C , 27-H ) :   0.1033 B( 26-C , 28-H ) :   0.1757
B( 26-C , 29-C ) :   1.2361 B( 26-C , 30-H ) :   0.9162 B( 26-C , 31-H ) :   0.9211
B( 26-C , 33-H ) :   0.1307 B( 29-C , 30-H ) :   0.1424 B( 29-C , 32-C ) :   1.1739
B( 29-C , 33-H ) :   1.0904 B( 29-C , 34-H ) :   0.8084 B( 29-C , 37-H ) :   0.2445
B( 29-C , 38-H ) :   0.1313 B( 32-C , 37-H ) :   0.7102 B( 32-C , 38-H ) :   0.7311

Dispersion correction           -0.042828127
FINAL SINGLE POINT ENERGY     -1181.418930735224

DIPOLE MOMENT
-------------
                                X             Y             Z
Electronic contribution:    -14.48985       8.30130     -15.30713
Nuclear contribution   :     16.79156      -5.47215      17.54258
                        -----------------------------------------
Total Dipole Moment    :      2.30172       2.82915       2.23545
                        -----------------------------------------
Magnitude (a.u.)       :      4.27776
Magnitude (Debye)      :     10.87321

Rotational constants in cm-1:     0.014207     0.012373     0.007472
Rotational constants in MHz :   425.900436   370.942493   224.006604

                             ****ORCA TERMINATED NORMALLY****
TOTAL RUN TIME: 0 days 0 hours 4 minutes 25 seconds 412 msec
