                         Program Version 5.0.0 -  RELEASE  -
|  1> !PBE0 D3BJ RIJCOSX def2-SVPD def2/J TightSCF
|  2> *xyz 0 1
|  3> C          4.90646       -3.10282       -5.95484
|  4> C          3.51177       -2.80621       -6.49228
|  5> H          2.73604       -3.37345       -5.97374
|  6> H          3.44490       -3.04083       -7.55528
|  7> S          3.00462       -1.09621       -6.38926
|  8> F          4.12886       -0.32965       -6.95372
|  9> O          1.78128       -1.00078       -7.13640
| 10> C          5.02498       -3.02568       -4.43762
| 11> H          5.20153       -4.10021       -6.29691
| 12> H          5.60592       -2.39782       -6.41337
| 13> O          2.85155       -0.78368       -4.95679
| 14> H          4.73604       -2.05011       -4.10644
| 15> H          6.03776       -3.21492       -4.14890
| 16> H          4.38436       -3.75784       -3.99214
| 17> *
| 18>
| 19> %MaxCore 64000
| 20>
| 21> %pal nprocs 8
| 22> end
| 23>
| 24> %scf
| 25>   MaxIter 150
| 26> end
| 27>
| 28>
| 29>                          ****END OF INPUT****

CARTESIAN COORDINATES (ANGSTROEM)
---------------------------------
  C      4.906460   -3.102820   -5.954840
  C      3.511770   -2.806210   -6.492280
  H      2.736040   -3.373450   -5.973740
  H      3.444900   -3.040830   -7.555280
  S      3.004620   -1.096210   -6.389260
  F      4.128860   -0.329650   -6.953720
  O      1.781280   -1.000780   -7.136400
  C      5.024980   -3.025680   -4.437620
  H      5.201530   -4.100210   -6.296910
  H      5.605920   -2.397820   -6.413370
  O      2.851550   -0.783680   -4.956790
  H      4.736040   -2.050110   -4.106440
  H      6.037760   -3.214920   -4.148900
  H      4.384360   -3.757840   -3.992140

 Total Charge           Charge          ....    0
 Multiplicity           Mult            ....    1
 Number of Electrons    NEL             ....   66
 Basis Dimension        Dim             ....  212

ORBITAL ENERGIES
----------------

  NO   OCC          E(Eh)            E(eV)
   0   2.0000     -89.295244     -2429.8471
   1   2.0000     -24.889860      -677.2875
   2   2.0000     -19.234532      -523.3982
   3   2.0000     -19.222717      -523.0767
   4   2.0000     -10.298227      -280.2290
   5   2.0000     -10.267777      -279.4004
   6   2.0000     -10.229849      -278.3683
   7   2.0000      -8.255523      -224.6442
   8   2.0000      -6.201712      -168.7572
   9   2.0000      -6.195592      -168.5906
  10   2.0000      -6.194186      -168.5524
  11   2.0000      -1.384694       -37.6794
  12   2.0000      -1.141664       -31.0663
  13   2.0000      -1.038624       -28.2624
  14   2.0000      -0.859120       -23.3778
  15   2.0000      -0.774036       -21.0626
  16   2.0000      -0.723137       -19.6776
  17   2.0000      -0.653190       -17.7742
  18   2.0000      -0.605095       -16.4655
  19   2.0000      -0.591596       -16.0981
  20   2.0000      -0.564365       -15.3571
  21   2.0000      -0.508682       -13.8419
  22   2.0000      -0.505535       -13.7563
  23   2.0000      -0.477824       -13.0022
  24   2.0000      -0.464736       -12.6461
  25   2.0000      -0.452476       -12.3125
  26   2.0000      -0.407417       -11.0864
  27   2.0000      -0.398071       -10.8321
  28   2.0000      -0.392825       -10.6893
  29   2.0000      -0.379362       -10.3230
  30   2.0000      -0.352666        -9.5965
  31   2.0000      -0.338044        -9.1987
  32   2.0000      -0.325835        -8.8664
  33   0.0000      -0.000380        -0.0103
  34   0.0000       0.031137         0.8473
  35   0.0000       0.038340         1.0433
  36   0.0000       0.039857         1.0846
  37   0.0000       0.048886         1.3303

MULLIKEN ATOMIC CHARGES
-----------------------
   0 C :   -0.334685
   1 C :   -0.148738
   2 H :    0.101821
   3 H :    0.091587
   4 S :    1.595467
   5 F :   -0.434683
   6 O :   -0.708555
   7 C :    0.659281
   8 H :   -0.061223
   9 H :    0.036603
  10 O :   -0.737435
  11 H :   -0.111721
  12 H :    0.007999
  13 H :    0.044281
Sum of atomic charges:    0.0000000

LOEWDIN ATOMIC CHARGES
----------------------
   0 C :   -0.082339
   1 C :   -0.056583
   2 H :    0.042402
   3 H :    0.025147
   4 S :    1.130516
   5 F :   -0.269360
   6 O :   -0.460339
   7 C :    0.134551
   8 H :    0.032706
   9 H :    0.024684
  10 O :   -0.476182
  11 H :   -0.030881
  12 H :   -0.009521
  13 H :   -0.004804

  Mayer bond orders larger than 0.100000
B(  0-C ,  1-C ) :   1.1959 B(  0-C ,  3-H ) :   0.1042 B(  0-C ,  7-C ) :   1.2857
B(  0-C ,  8-H ) :   0.9455 B(  0-C ,  9-H ) :   0.9104 B(  0-C , 11-H ) :   0.2178
B(  0-C , 12-H ) :   0.1741 B(  0-C , 13-H ) :   0.1852 B(  1-C ,  2-H ) :   0.9292
B(  1-C ,  3-H ) :   0.9447 B(  1-C ,  4-S ) :   1.0277 B(  1-C ,  9-H ) :   0.1211
B(  4-S ,  5-F ) :   0.5937 B(  4-S ,  6-O ) :   1.5240 B(  4-S , 10-O ) :   1.4515
B(  7-C , 11-H ) :   0.8613 B(  7-C , 12-H ) :   0.7816 B(  7-C , 13-H ) :   0.7761
B( 11-H , 13-H ) :   0.1006

Dispersion correction           -0.011018515
FINAL SINGLE POINT ENERGY      -766.046846592908

DIPOLE MOMENT
-------------
                                X             Y             Z
Electronic contribution:     -5.28581      10.17117      -5.30851
Nuclear contribution   :      6.51452     -11.35172       4.86721
                        -----------------------------------------
Total Dipole Moment    :      1.22871      -1.18055      -0.44130
                        -----------------------------------------
Magnitude (a.u.)       :      1.76016
Magnitude (Debye)      :      4.47398

Rotational constants in cm-1:     0.130386     0.053203     0.051661
Rotational constants in MHz :  3908.886819  1594.983443  1548.763987

                             ****ORCA TERMINATED NORMALLY****
TOTAL RUN TIME: 0 days 0 hours 0 minutes 13 seconds 691 msec
