                         Program Version 5.0.0 -  RELEASE  -
|  1> !PBE0 D3BJ RIJCOSX def2-SVPD def2/J TightSCF
|  2> *xyz 0 1
|  3> C          4.49059        1.15590       -2.46929
|  4> C          4.30539        1.22276       -3.90832
|  5> C          4.63192        2.24637       -4.67096
|  6> N          4.54169        2.14399       -5.98714
|  7> N          5.08409        3.39358       -4.11855
|  8> H          4.92067        3.57050       -3.13587
|  9> H          5.25465        4.19739       -4.70696
| 10> H          3.82453        0.44911       -4.35093
| 11> H          4.34337        1.24932       -6.41665
| 12> H          4.67671        2.95662       -6.57411
| 13> C          5.94213        0.93950       -2.03689
| 14> H          3.86431        0.32853       -2.13661
| 15> H          4.07623        2.04999       -1.98901
| 16> C          6.55996       -0.35629       -2.55909
| 17> H          5.96798        0.95257       -0.94244
| 18> H          6.54718        1.78833       -2.36885
| 19> H          6.53022       -0.35990       -3.62867
| 20> H          6.00654       -1.19175       -2.18407
| 21> H          7.57588       -0.42487       -2.23029
| 22> *
| 23>
| 24> %MaxCore 64000
| 25>
| 26> %pal nprocs 8
| 27> end
| 28>
| 29> %scf
| 30>   MaxIter 150
| 31> end
| 32>
| 33>
| 34>                          ****END OF INPUT****

CARTESIAN COORDINATES (ANGSTROEM)
---------------------------------
  C      4.490590    1.155900   -2.469290
  C      4.305390    1.222760   -3.908320
  C      4.631920    2.246370   -4.670960
  N      4.541690    2.143990   -5.987140
  N      5.084090    3.393580   -4.118550
  H      4.920670    3.570500   -3.135870
  H      5.254650    4.197390   -4.706960
  H      3.824530    0.449110   -4.350930
  H      4.343370    1.249320   -6.416650
  H      4.676710    2.956620   -6.574110
  C      5.942130    0.939500   -2.036890
  H      3.864310    0.328530   -2.136610
  H      4.076230    2.049990   -1.989010
  C      6.559960   -0.356290   -2.559090
  H      5.967980    0.952570   -0.942440
  H      6.547180    1.788330   -2.368850
  H      6.530220   -0.359900   -3.628670
  H      6.006540   -1.191750   -2.184070
  H      7.575880   -0.424870   -2.230290

 Total Charge           Charge          ....    0
 Multiplicity           Mult            ....    1
 Number of Electrons    NEL             ....   56
 Basis Dimension        Dim             ....  236

ORBITAL ENERGIES
----------------

  NO   OCC          E(Eh)            E(eV)
   0   2.0000     -14.397925      -391.7874
   1   2.0000     -14.396057      -391.7366
   2   2.0000     -10.275053      -279.5984
   3   2.0000     -10.207332      -277.7556
   4   2.0000     -10.205623      -277.7091
   5   2.0000     -10.195791      -277.4416
   6   2.0000     -10.154323      -276.3132
   7   2.0000      -0.979134       -26.6436
   8   2.0000      -0.886942       -24.1349
   9   2.0000      -0.800414       -21.7804
  10   2.0000      -0.736426       -20.0392
  11   2.0000      -0.672734       -18.3060
  12   2.0000      -0.610939       -16.6245
  13   2.0000      -0.583479       -15.8773
  14   2.0000      -0.558651       -15.2017
  15   2.0000      -0.518321       -14.1042
  16   2.0000      -0.490866       -13.3571
  17   2.0000      -0.455024       -12.3818
  18   2.0000      -0.446446       -12.1484
  19   2.0000      -0.427287       -11.6271
  20   2.0000      -0.400912       -10.9094
  21   2.0000      -0.380723       -10.3600
  22   2.0000      -0.370852       -10.0914
  23   2.0000      -0.340707        -9.2711
  24   2.0000      -0.321887        -8.7590
  25   2.0000      -0.319947        -8.7062
  26   2.0000      -0.277529        -7.5519
  27   2.0000      -0.171161        -4.6575
  28   0.0000       0.020701         0.5633
  29   0.0000       0.045419         1.2359
  30   0.0000       0.051899         1.4122
  31   0.0000       0.065092         1.7713
  32   0.0000       0.073829         2.0090

MULLIKEN ATOMIC CHARGES
-----------------------
   0 C :    0.127380
   1 C :   -0.339788
   2 C :    1.211817
   3 N :   -0.180677
   4 N :   -0.172659
   5 H :   -0.007425
   6 H :   -0.234696
   7 H :   -0.322192
   8 H :   -0.024182
   9 H :   -0.149735
  10 C :   -0.475248
  11 H :    0.039860
  12 H :   -0.037660
  13 C :    0.569157
  14 H :   -0.029398
  15 H :   -0.005806
  16 H :   -0.028015
  17 H :    0.063251
  18 H :   -0.003984
Sum of atomic charges:   -0.0000000

LOEWDIN ATOMIC CHARGES
----------------------
   0 C :   -0.072104
   1 C :   -0.041262
   2 C :   -0.211070
   3 N :    0.171204
   4 N :    0.200995
   5 H :   -0.010709
   6 H :   -0.010826
   7 H :   -0.045621
   8 H :    0.011069
   9 H :   -0.006943
  10 C :   -0.085513
  11 H :    0.019424
  12 H :    0.006705
  13 C :    0.113699
  14 H :    0.014303
  15 H :    0.009643
  16 H :   -0.023518
  17 H :   -0.017858
  18 H :   -0.021618

  Mayer bond orders larger than 0.100000
B(  0-C ,  1-C ) :   1.1660 B(  0-C ,  7-H ) :   0.2864 B(  0-C , 10-C ) :   1.1576
B(  0-C , 11-H ) :   0.7428 B(  0-C , 12-H ) :   0.9183 B(  0-C , 14-H ) :   0.1148
B(  0-C , 15-H ) :   0.1416 B(  1-C ,  2-C ) :   1.6063 B(  1-C ,  3-N ) :   0.3972
B(  1-C ,  4-N ) :   0.2251 B(  1-C ,  7-H ) :   0.9206 B(  1-C , 11-H ) :   0.2705
B(  1-C , 12-H ) :   0.1417 B(  2-C ,  3-N ) :   0.6903 B(  2-C ,  4-N ) :   0.7781
B(  2-C ,  6-H ) :  -0.1837 B(  2-C ,  8-H ) :  -0.1052 B(  2-C ,  9-H ) :  -0.1040
B(  3-N ,  4-N ) :   0.1318 B(  3-N ,  8-H ) :   1.1752 B(  3-N ,  9-H ) :   1.2680
B(  4-N ,  5-H ) :   1.0491 B(  4-N ,  6-H ) :   1.3545 B(  5-H ,  6-H ) :  -0.1816
B(  8-H ,  9-H ) :  -0.1620 B( 10-C , 11-H ) :   0.1168 B( 10-C , 13-C ) :   1.3480
B( 10-C , 14-H ) :   0.9700 B( 10-C , 15-H ) :   0.9397 B( 10-C , 16-H ) :   0.2142
B( 10-C , 17-H ) :   0.2021 B( 10-C , 18-H ) :   0.2085 B( 13-C , 16-H ) :   0.8514
B( 13-C , 17-H ) :   0.8002 B( 13-C , 18-H ) :   0.7798

Dispersion correction           -0.013954772
FINAL SINGLE POINT ENERGY      -306.676941360551

DIPOLE MOMENT
-------------
                                X             Y             Z
Electronic contribution:     -2.32805       3.67141      -4.18468
Nuclear contribution   :      2.29046      -2.89565       3.47129
                        -----------------------------------------
Total Dipole Moment    :     -0.03759       0.77575      -0.71340
                        -----------------------------------------
Magnitude (a.u.)       :      1.05458
Magnitude (Debye)      :      2.68053

Rotational constants in cm-1:     0.154384     0.050352     0.046525
Rotational constants in MHz :  4628.320816  1509.522910  1394.780903

                             ****ORCA TERMINATED NORMALLY****
TOTAL RUN TIME: 0 days 0 hours 0 minutes 17 seconds 621 msec
