                         Program Version 5.0.0 -  RELEASE  -
|  1> !PBE0 D3BJ RIJCOSX def2-SVPD def2/J TightSCF
|  2> *xyz 0 1
|  3> C          4.90646       -3.10282       -5.95484
|  4> C          3.51177       -2.80621       -6.49228
|  5> H          2.73604       -3.37345       -5.97374
|  6> H          3.44490       -3.04083       -7.55528
|  7> S          3.00462       -1.09621       -6.38926
|  8> O          4.12886       -0.32965       -6.95372
|  9> F          1.78128       -1.00078       -7.13640
| 10> C          5.02498       -3.02568       -4.43762
| 11> H          5.20153       -4.10021       -6.29691
| 12> H          5.60592       -2.39782       -6.41337
| 13> O          2.85155       -0.78368       -4.95679
| 14> H          4.73604       -2.05011       -4.10644
| 15> H          6.03776       -3.21492       -4.14890
| 16> H          4.38436       -3.75784       -3.99214
| 17> *
| 18>
| 19> %MaxCore 64000
| 20>
| 21> %pal nprocs 8
| 22> end
| 23>
| 24> %scf
| 25>   MaxIter 150
| 26> end
| 27>
| 28>
| 29>                          ****END OF INPUT****

CARTESIAN COORDINATES (ANGSTROEM)
---------------------------------
  C      4.906460   -3.102820   -5.954840
  C      3.511770   -2.806210   -6.492280
  H      2.736040   -3.373450   -5.973740
  H      3.444900   -3.040830   -7.555280
  S      3.004620   -1.096210   -6.389260
  O      4.128860   -0.329650   -6.953720
  F      1.781280   -1.000780   -7.136400
  C      5.024980   -3.025680   -4.437620
  H      5.201530   -4.100210   -6.296910
  H      5.605920   -2.397820   -6.413370
  O      2.851550   -0.783680   -4.956790
  H      4.736040   -2.050110   -4.106440
  H      6.037760   -3.214920   -4.148900
  H      4.384360   -3.757840   -3.992140

 Total Charge           Charge          ....    0
 Multiplicity           Mult            ....    1
 Number of Electrons    NEL             ....   66
 Basis Dimension        Dim             ....  212

ORBITAL ENERGIES
----------------

  NO   OCC          E(Eh)            E(eV)
   0   2.0000     -89.297134     -2429.8986
   1   2.0000     -24.907953      -677.7798
   2   2.0000     -19.223210      -523.0901
   3   2.0000     -19.223091      -523.0869
   4   2.0000     -10.299142      -280.2539
   5   2.0000     -10.263017      -279.2709
   6   2.0000     -10.224724      -278.2289
   7   2.0000      -8.257474      -224.6973
   8   2.0000      -6.203754      -168.8127
   9   2.0000      -6.197350      -168.6385
  10   2.0000      -6.196047      -168.6030
  11   2.0000      -1.415888       -38.5283
  12   2.0000      -1.128446       -30.7066
  13   2.0000      -1.024715       -27.8839
  14   2.0000      -0.855198       -23.2711
  15   2.0000      -0.781455       -21.2645
  16   2.0000      -0.731033       -19.8924
  17   2.0000      -0.655081       -17.8257
  18   2.0000      -0.614062       -16.7095
  19   2.0000      -0.602348       -16.3907
  20   2.0000      -0.576361       -15.6836
  21   2.0000      -0.509728       -13.8704
  22   2.0000      -0.504666       -13.7327
  23   2.0000      -0.472537       -12.8584
  24   2.0000      -0.458918       -12.4878
  25   2.0000      -0.445281       -12.1167
  26   2.0000      -0.400901       -10.9091
  27   2.0000      -0.388588       -10.5740
  28   2.0000      -0.387459       -10.5433
  29   2.0000      -0.373527       -10.1642
  30   2.0000      -0.342908        -9.3310
  31   2.0000      -0.334444        -9.1007
  32   2.0000      -0.317001        -8.6260
  33   0.0000       0.004084         0.1111
  34   0.0000       0.021434         0.5833
  35   0.0000       0.040105         1.0913
  36   0.0000       0.042782         1.1642
  37   0.0000       0.054986         1.4962

MULLIKEN ATOMIC CHARGES
-----------------------
   0 C :   -0.372915
   1 C :   -0.173797
   2 H :    0.112568
   3 H :    0.107889
   4 S :    1.631105
   5 O :   -0.720182
   6 F :   -0.447875
   7 C :    0.649169
   8 H :   -0.051859
   9 H :    0.065847
  10 O :   -0.736974
  11 H :   -0.110684
  12 H :    0.007863
  13 H :    0.039846
Sum of atomic charges:    0.0000000

LOEWDIN ATOMIC CHARGES
----------------------
   0 C :   -0.066801
   1 C :   -0.068778
   2 H :    0.028530
   3 H :    0.022778
   4 S :    1.136193
   5 O :   -0.478238
   6 F :   -0.254815
   7 C :    0.137213
   8 H :    0.035454
   9 H :    0.030451
  10 O :   -0.479231
  11 H :   -0.026738
  12 H :   -0.008698
  13 H :   -0.007320

  Mayer bond orders larger than 0.100000
B(  0-C ,  1-C ) :   1.2592 B(  0-C ,  2-H ) :   0.1025 B(  0-C ,  3-H ) :   0.1189
B(  0-C ,  7-C ) :   1.2775 B(  0-C ,  8-H ) :   0.9396 B(  0-C ,  9-H ) :   0.9121
B(  0-C , 11-H ) :   0.2112 B(  0-C , 12-H ) :   0.1762 B(  0-C , 13-H ) :   0.1807
B(  1-C ,  2-H ) :   0.9211 B(  1-C ,  3-H ) :   0.8979 B(  1-C ,  4-S ) :   0.9921
B(  1-C ,  9-H ) :   0.1306 B(  4-S ,  5-O ) :   1.4491 B(  4-S ,  6-F ) :   0.6351
B(  4-S , 10-O ) :   1.4238 B(  7-C , 11-H ) :   0.8654 B(  7-C , 12-H ) :   0.7788
B(  7-C , 13-H ) :   0.7739 B( 11-H , 13-H ) :   0.1010

Dispersion correction           -0.011087980
FINAL SINGLE POINT ENERGY      -766.031719396911

DIPOLE MOMENT
-------------
                                X             Y             Z
Electronic contribution:     -9.31763       9.04572      -5.63423
Nuclear contribution   :      9.03920     -10.62996       5.06367
                        -----------------------------------------
Total Dipole Moment    :     -0.27843      -1.58424      -0.57056
                        -----------------------------------------
Magnitude (a.u.)       :      1.70671
Magnitude (Debye)      :      4.33812

Rotational constants in cm-1:     0.135071     0.052485     0.050188
Rotational constants in MHz :  4049.321380  1573.451279  1504.609887

                             ****ORCA TERMINATED NORMALLY****
TOTAL RUN TIME: 0 days 0 hours 0 minutes 13 seconds 648 msec
