                         Program Version 5.0.0 -  RELEASE  -
|  1> !PBE0 D3BJ RIJCOSX def2-SVPD def2/J TightSCF
|  2> *xyz 0 1
|  3> C          4.49059        1.15590       -2.46929
|  4> N          4.30539        1.22276       -3.90832
|  5> C          4.63192        2.24637       -4.67096
|  6> C          4.54169        2.14399       -5.98714
|  7> N          5.08409        3.39358       -4.11855
|  8> H          4.92067        3.57050       -3.13587
|  9> H          5.25465        4.19739       -4.70696
| 10> H          3.82453        0.44911       -4.35093
| 11> H          4.34337        1.24932       -6.41665
| 12> H          4.67671        2.95662       -6.57411
| 13> C          5.94213        0.93950       -2.03689
| 14> H          3.86431        0.32853       -2.13661
| 15> H          4.07623        2.04999       -1.98901
| 16> C          6.55996       -0.35629       -2.55909
| 17> H          5.96798        0.95257       -0.94244
| 18> H          6.54718        1.78833       -2.36885
| 19> H          6.53022       -0.35990       -3.62867
| 20> H          6.00654       -1.19175       -2.18407
| 21> H          7.57588       -0.42487       -2.23029
| 22> *
| 23>
| 24> %MaxCore 64000
| 25>
| 26> %pal nprocs 8
| 27> end
| 28>
| 29> %scf
| 30>   MaxIter 150
| 31> end
| 32>
| 33>
| 34>                          ****END OF INPUT****

CARTESIAN COORDINATES (ANGSTROEM)
---------------------------------
  C      4.490590    1.155900   -2.469290
  N      4.305390    1.222760   -3.908320
  C      4.631920    2.246370   -4.670960
  C      4.541690    2.143990   -5.987140
  N      5.084090    3.393580   -4.118550
  H      4.920670    3.570500   -3.135870
  H      5.254650    4.197390   -4.706960
  H      3.824530    0.449110   -4.350930
  H      4.343370    1.249320   -6.416650
  H      4.676710    2.956620   -6.574110
  C      5.942130    0.939500   -2.036890
  H      3.864310    0.328530   -2.136610
  H      4.076230    2.049990   -1.989010
  C      6.559960   -0.356290   -2.559090
  H      5.967980    0.952570   -0.942440
  H      6.547180    1.788330   -2.368850
  H      6.530220   -0.359900   -3.628670
  H      6.006540   -1.191750   -2.184070
  H      7.575880   -0.424870   -2.230290

 Total Charge           Charge          ....    0
 Multiplicity           Mult            ....    1
 Number of Electrons    NEL             ....   56
 Basis Dimension        Dim             ....  236

ORBITAL ENERGIES
----------------

  NO   OCC          E(Eh)            E(eV)
   0   2.0000     -14.397611      -391.7789
   1   2.0000     -14.394882      -391.7046
   2   2.0000     -10.276158      -279.6285
   3   2.0000     -10.271459      -279.5006
   4   2.0000     -10.231287      -278.4075
   5   2.0000     -10.215662      -277.9823
   6   2.0000     -10.142820      -276.0002
   7   2.0000      -0.987283       -26.8653
   8   2.0000      -0.898616       -24.4526
   9   2.0000      -0.804355       -21.8876
  10   2.0000      -0.740653       -20.1542
  11   2.0000      -0.684037       -18.6136
  12   2.0000      -0.628588       -17.1047
  13   2.0000      -0.599554       -16.3147
  14   2.0000      -0.548337       -14.9210
  15   2.0000      -0.514176       -13.9914
  16   2.0000      -0.495491       -13.4830
  17   2.0000      -0.474468       -12.9109
  18   2.0000      -0.453157       -12.3310
  19   2.0000      -0.418152       -11.3785
  20   2.0000      -0.408079       -11.1044
  21   2.0000      -0.404636       -11.0107
  22   2.0000      -0.382100       -10.3975
  23   2.0000      -0.361814        -9.8455
  24   2.0000      -0.358262        -9.7488
  25   2.0000      -0.349735        -9.5168
  26   2.0000      -0.266321        -7.2470
  27   2.0000      -0.172592        -4.6965
  28   0.0000       0.019236         0.5234
  29   0.0000       0.040017         1.0889
  30   0.0000       0.049004         1.3335
  31   0.0000       0.054953         1.4953
  32   0.0000       0.080585         2.1928

MULLIKEN ATOMIC CHARGES
-----------------------
   0 C :    0.693678
   1 N :   -0.608021
   2 C :    0.917396
   3 C :    0.240402
   4 N :   -0.011083
   5 H :   -0.084731
   6 H :   -0.179758
   7 H :   -0.205169
   8 H :   -0.206879
   9 H :   -0.312175
  10 C :   -0.516092
  11 H :   -0.265732
  12 H :   -0.011390
  13 C :    0.555445
  14 H :   -0.088824
  15 H :    0.066054
  16 H :   -0.036774
  17 H :    0.079417
  18 H :   -0.025765
Sum of atomic charges:   -0.0000000

LOEWDIN ATOMIC CHARGES
----------------------
   0 C :    0.039329
   1 N :   -0.022676
   2 C :   -0.231839
   3 C :    0.136079
   4 N :    0.196984
   5 H :   -0.024397
   6 H :    0.005934
   7 H :    0.040005
   8 H :   -0.096630
   9 H :   -0.098750
  10 C :   -0.075630
  11 H :    0.025104
  12 H :    0.011215
  13 C :    0.117869
  14 H :    0.019700
  15 H :    0.011830
  16 H :   -0.018984
  17 H :   -0.017783
  18 H :   -0.017360

  Mayer bond orders larger than 0.100000
B(  0-C ,  1-N ) :   0.8421 B(  0-C ,  7-H ) :  -0.1771 B(  0-C , 10-C ) :   1.1291
B(  0-C , 11-H ) :   0.8147 B(  0-C , 12-H ) :   0.9021 B(  0-C , 15-H ) :   0.1081
B(  1-N ,  2-C ) :   0.8892 B(  1-N ,  3-C ) :   0.2398 B(  1-N ,  4-N ) :   0.2213
B(  1-N ,  7-H ) :   1.3154 B(  1-N , 11-H ) :   0.2196 B(  2-C ,  3-C ) :   1.4282
B(  2-C ,  4-N ) :   0.8377 B(  2-C ,  6-H ) :  -0.1074 B(  2-C ,  7-H ) :  -0.1992
B(  2-C ,  9-H ) :   0.1371 B(  3-C ,  4-N ) :   0.1992 B(  3-C ,  8-H ) :   0.9049
B(  3-C ,  9-H ) :   0.8173 B(  4-N ,  5-H ) :   1.0620 B(  4-N ,  6-H ) :   1.2441
B(  5-H ,  6-H ) :  -0.1831 B( 10-C , 11-H ) :   0.1320 B( 10-C , 13-C ) :   1.3134
B( 10-C , 14-H ) :   1.0553 B( 10-C , 15-H ) :   0.9144 B( 10-C , 16-H ) :   0.1982
B( 10-C , 17-H ) :   0.1729 B( 10-C , 18-H ) :   0.1952 B( 13-C , 16-H ) :   0.8592
B( 13-C , 17-H ) :   0.8113 B( 13-C , 18-H ) :   0.8213

Dispersion correction           -0.013820207
FINAL SINGLE POINT ENERGY      -306.667954700673

DIPOLE MOMENT
-------------
                                X             Y             Z
Electronic contribution:     -2.44755       2.74109      -1.99360
Nuclear contribution   :      2.34222      -2.69386       3.01591
                        -----------------------------------------
Total Dipole Moment    :     -0.10533       0.04724       1.02231
                        -----------------------------------------
Magnitude (a.u.)       :      1.02880
Magnitude (Debye)      :      2.61501

Rotational constants in cm-1:     0.155143     0.051710     0.048050
Rotational constants in MHz :  4651.080391  1550.217078  1440.507386

                             ****ORCA TERMINATED NORMALLY****
TOTAL RUN TIME: 0 days 0 hours 0 minutes 17 seconds 351 msec
