                         Program Version 5.0.0 -  RELEASE  -
|  1> !PBE0 D3BJ RIJCOSX def2-SVPD def2/J TightSCF
|  2> *xyz 0 1
|  3> C          4.90646       -3.10282       -5.95484
|  4> C          3.51177       -2.80621       -6.49228
|  5> H          2.73604       -3.37345       -5.97374
|  6> H          3.44490       -3.04083       -7.55528
|  7> S          3.00462       -1.09621       -6.38926
|  8> O          4.12886       -0.32965       -6.95372
|  9> O          1.78128       -1.00078       -7.13640
| 10> C          5.02498       -3.02568       -4.43762
| 11> H          5.20153       -4.10021       -6.29691
| 12> H          5.60592       -2.39782       -6.41337
| 13> F          2.85155       -0.78368       -4.95679
| 14> H          4.73604       -2.05011       -4.10644
| 15> H          6.03776       -3.21492       -4.14890
| 16> H          4.38436       -3.75784       -3.99214
| 17> *
| 18>
| 19> %MaxCore 64000
| 20>
| 21> %pal nprocs 8
| 22> end
| 23>
| 24> %scf
| 25>   MaxIter 150
| 26> end
| 27>
| 28>
| 29>                          ****END OF INPUT****

CARTESIAN COORDINATES (ANGSTROEM)
---------------------------------
  C      4.906460   -3.102820   -5.954840
  C      3.511770   -2.806210   -6.492280
  H      2.736040   -3.373450   -5.973740
  H      3.444900   -3.040830   -7.555280
  S      3.004620   -1.096210   -6.389260
  O      4.128860   -0.329650   -6.953720
  O      1.781280   -1.000780   -7.136400
  C      5.024980   -3.025680   -4.437620
  H      5.201530   -4.100210   -6.296910
  H      5.605920   -2.397820   -6.413370
  F      2.851550   -0.783680   -4.956790
  H      4.736040   -2.050110   -4.106440
  H      6.037760   -3.214920   -4.148900
  H      4.384360   -3.757840   -3.992140

 Total Charge           Charge          ....    0
 Multiplicity           Mult            ....    1
 Number of Electrons    NEL             ....   66
 Basis Dimension        Dim             ....  212

ORBITAL ENERGIES
----------------

  NO   OCC          E(Eh)            E(eV)
   0   2.0000     -89.294769     -2429.8342
   1   2.0000     -24.888829      -677.2595
   2   2.0000     -19.234444      -523.3958
   3   2.0000     -19.222928      -523.0825
   4   2.0000     -10.298081      -280.2250
   5   2.0000     -10.264530      -279.3121
   6   2.0000     -10.239701      -278.6364
   7   2.0000      -8.255061      -224.6316
   8   2.0000      -6.201224      -168.7439
   9   2.0000      -6.195092      -168.5770
  10   2.0000      -6.193787      -168.5415
  11   2.0000      -1.383514       -37.6473
  12   2.0000      -1.141294       -31.0562
  13   2.0000      -1.039528       -28.2870
  14   2.0000      -0.858324       -23.3562
  15   2.0000      -0.775723       -21.1085
  16   2.0000      -0.724743       -19.7213
  17   2.0000      -0.657561       -17.8931
  18   2.0000      -0.597778       -16.2664
  19   2.0000      -0.589768       -16.0484
  20   2.0000      -0.569368       -15.4933
  21   2.0000      -0.511258       -13.9120
  22   2.0000      -0.501538       -13.6475
  23   2.0000      -0.482080       -13.1181
  24   2.0000      -0.469962       -12.7883
  25   2.0000      -0.451920       -12.2974
  26   2.0000      -0.412547       -11.2260
  27   2.0000      -0.401233       -10.9181
  28   2.0000      -0.385619       -10.4932
  29   2.0000      -0.379208       -10.3188
  30   2.0000      -0.351764        -9.5720
  31   2.0000      -0.342530        -9.3207
  32   2.0000      -0.328851        -8.9485
  33   0.0000       0.003035         0.0826
  34   0.0000       0.029439         0.8011
  35   0.0000       0.036328         0.9885
  36   0.0000       0.039624         1.0782
  37   0.0000       0.052949         1.4408

MULLIKEN ATOMIC CHARGES
-----------------------
   0 C :   -0.321903
   1 C :   -0.166035
   2 H :    0.115347
   3 H :    0.097530
   4 S :    1.584083
   5 O :   -0.730011
   6 O :   -0.704617
   7 C :    0.639890
   8 H :   -0.048453
   9 H :    0.063553
  10 F :   -0.439297
  11 H :   -0.137620
  12 H :    0.003329
  13 H :    0.044203
Sum of atomic charges:    0.0000000

LOEWDIN ATOMIC CHARGES
----------------------
   0 C :   -0.079220
   1 C :   -0.057790
   2 H :    0.028772
   3 H :    0.037592
   4 S :    1.126638
   5 O :   -0.476200
   6 O :   -0.460766
   7 C :    0.132218
   8 H :    0.034271
   9 H :    0.028626
  10 F :   -0.272498
  11 H :   -0.027354
  12 H :   -0.006761
  13 H :   -0.007528

  Mayer bond orders larger than 0.100000
B(  0-C ,  1-C ) :   1.2310 B(  0-C ,  2-H ) :   0.1059 B(  0-C ,  3-H ) :   0.1026
B(  0-C ,  7-C ) :   1.2743 B(  0-C ,  8-H ) :   0.9275 B(  0-C ,  9-H ) :   0.9213
B(  0-C , 11-H ) :   0.2056 B(  0-C , 12-H ) :   0.1766 B(  0-C , 13-H ) :   0.1795
B(  1-C ,  2-H ) :   0.9241 B(  1-C ,  3-H ) :   0.9259 B(  1-C ,  4-S ) :   1.0344
B(  1-C ,  9-H ) :   0.1332 B(  4-S ,  5-O ) :   1.4688 B(  4-S ,  6-O ) :   1.5170
B(  4-S , 10-F ) :   0.5857 B(  7-C , 11-H ) :   0.8623 B(  7-C , 12-H ) :   0.7885
B(  7-C , 13-H ) :   0.7835

Dispersion correction           -0.010996158
FINAL SINGLE POINT ENERGY      -766.047588926972

DIPOLE MOMENT
-------------
                                X             Y             Z
Electronic contribution:     -7.44538       9.36575      -1.88291
Nuclear contribution   :      7.88819     -10.86344       2.71963
                        -----------------------------------------
Total Dipole Moment    :      0.44281      -1.49768       0.83672
                        -----------------------------------------
Magnitude (a.u.)       :      1.77179
Magnitude (Debye)      :      4.50353

Rotational constants in cm-1:     0.130261     0.054435     0.050898
Rotational constants in MHz :  3905.114465  1631.935083  1525.880669

                             ****ORCA TERMINATED NORMALLY****
TOTAL RUN TIME: 0 days 0 hours 0 minutes 15 seconds 45 msec
