                         Program Version 5.0.0 -  RELEASE  -
|  1> !PBE0 D3BJ RIJCOSX def2-SVPD def2/J TightSCF
|  2> *xyz 0 1
|  3> C          4.49059        1.15590       -2.46929
|  4> N          4.30539        1.22276       -3.90832
|  5> C          4.63192        2.24637       -4.67096
|  6> N          4.54169        2.14399       -5.98714
|  7> C          5.08409        3.39358       -4.11855
|  8> H          4.92067        3.57050       -3.13587
|  9> H          5.25465        4.19739       -4.70696
| 10> H          3.82453        0.44911       -4.35093
| 11> H          4.34337        1.24932       -6.41665
| 12> H          4.67671        2.95662       -6.57411
| 13> C          5.94213        0.93950       -2.03689
| 14> H          3.86431        0.32853       -2.13661
| 15> H          4.07623        2.04999       -1.98901
| 16> C          6.55996       -0.35629       -2.55909
| 17> H          5.96798        0.95257       -0.94244
| 18> H          6.54718        1.78833       -2.36885
| 19> H          6.53022       -0.35990       -3.62867
| 20> H          6.00654       -1.19175       -2.18407
| 21> H          7.57588       -0.42487       -2.23029
| 22> *
| 23>
| 24> %MaxCore 64000
| 25>
| 26> %pal nprocs 8
| 27> end
| 28>
| 29> %scf
| 30>   MaxIter 150
| 31> end
| 32>
| 33>
| 34>                          ****END OF INPUT****

CARTESIAN COORDINATES (ANGSTROEM)
---------------------------------
  C      4.490590    1.155900   -2.469290
  N      4.305390    1.222760   -3.908320
  C      4.631920    2.246370   -4.670960
  N      4.541690    2.143990   -5.987140
  C      5.084090    3.393580   -4.118550
  H      4.920670    3.570500   -3.135870
  H      5.254650    4.197390   -4.706960
  H      3.824530    0.449110   -4.350930
  H      4.343370    1.249320   -6.416650
  H      4.676710    2.956620   -6.574110
  C      5.942130    0.939500   -2.036890
  H      3.864310    0.328530   -2.136610
  H      4.076230    2.049990   -1.989010
  C      6.559960   -0.356290   -2.559090
  H      5.967980    0.952570   -0.942440
  H      6.547180    1.788330   -2.368850
  H      6.530220   -0.359900   -3.628670
  H      6.006540   -1.191750   -2.184070
  H      7.575880   -0.424870   -2.230290

 Total Charge           Charge          ....    0
 Multiplicity           Mult            ....    1
 Number of Electrons    NEL             ....   56
 Basis Dimension        Dim             ....  236

ORBITAL ENERGIES
----------------

  NO   OCC          E(Eh)            E(eV)
   0   2.0000     -14.401942      -391.8968
   1   2.0000     -14.398030      -391.7903
   2   2.0000     -10.279272      -279.7132
   3   2.0000     -10.263706      -279.2896
   4   2.0000     -10.221674      -278.1459
   5   2.0000     -10.210918      -277.8532
   6   2.0000     -10.144411      -276.0435
   7   2.0000      -0.991588       -26.9825
   8   2.0000      -0.906338       -24.6627
   9   2.0000      -0.791723       -21.5439
  10   2.0000      -0.726858       -19.7788
  11   2.0000      -0.703019       -19.1301
  12   2.0000      -0.621379       -16.9086
  13   2.0000      -0.571932       -15.5631
  14   2.0000      -0.566170       -15.4063
  15   2.0000      -0.536510       -14.5992
  16   2.0000      -0.489171       -13.3110
  17   2.0000      -0.464480       -12.6392
  18   2.0000      -0.443576       -12.0703
  19   2.0000      -0.415496       -11.3062
  20   2.0000      -0.405445       -11.0327
  21   2.0000      -0.398971       -10.8566
  22   2.0000      -0.380386       -10.3508
  23   2.0000      -0.359104        -9.7717
  24   2.0000      -0.351264        -9.5584
  25   2.0000      -0.341256        -9.2860
  26   2.0000      -0.262673        -7.1477
  27   2.0000      -0.174002        -4.7348
  28   0.0000       0.018442         0.5018
  29   0.0000       0.042676         1.1613
  30   0.0000       0.050315         1.3691
  31   0.0000       0.058014         1.5786
  32   0.0000       0.074025         2.0143

MULLIKEN ATOMIC CHARGES
-----------------------
   0 C :    0.667951
   1 N :   -0.684248
   2 C :    0.908777
   3 N :   -0.103383
   4 C :    0.293817
   5 H :    0.019280
   6 H :   -0.498410
   7 H :   -0.279858
   8 H :   -0.131531
   9 H :   -0.063475
  10 C :   -0.501283
  11 H :   -0.276517
  12 H :    0.108420
  13 C :    0.542926
  14 H :   -0.069616
  15 H :    0.069526
  16 H :   -0.041227
  17 H :    0.065848
  18 H :   -0.026997
Sum of atomic charges:   -0.0000000

LOEWDIN ATOMIC CHARGES
----------------------
   0 C :    0.046792
   1 N :   -0.027350
   2 C :   -0.230986
   3 N :    0.176483
   4 C :    0.157359
   5 H :   -0.112096
   6 H :   -0.103934
   7 H :    0.025683
   8 H :   -0.005164
   9 H :    0.011637
  10 C :   -0.067635
  11 H :    0.023933
  12 H :    0.019240
  13 C :    0.113964
  14 H :    0.021914
  15 H :    0.012646
  16 H :   -0.024177
  17 H :   -0.020165
  18 H :   -0.018144

  Mayer bond orders larger than 0.100000
B(  0-C ,  1-N ) :   0.8207 B(  0-C ,  5-H ) :   0.1084 B(  0-C ,  7-H ) :  -0.1809
B(  0-C , 10-C ) :   1.1138 B(  0-C , 11-H ) :   0.8847 B(  0-C , 12-H ) :   0.8608
B(  0-C , 15-H ) :   0.1160 B(  1-N ,  2-C ) :   0.7317 B(  1-N ,  3-N ) :   0.2547
B(  1-N ,  4-C ) :   0.3512 B(  1-N ,  7-H ) :   1.4907 B(  1-N , 11-H ) :   0.1683
B(  2-C ,  3-N ) :   0.7754 B(  2-C ,  4-C ) :   1.7001 B(  2-C ,  5-H ) :   0.2502
B(  2-C ,  6-H ) :   0.1887 B(  2-C ,  7-H ) :  -0.3337 B(  2-C ,  8-H ) :  -0.1110
B(  3-N ,  4-C ) :   0.2331 B(  3-N ,  8-H ) :   1.2086 B(  3-N ,  9-H ) :   1.2159
B(  4-C ,  5-H ) :   0.6749 B(  4-C ,  6-H ) :   0.8991 B(  8-H ,  9-H ) :  -0.1613
B( 10-C , 11-H ) :   0.1341 B( 10-C , 13-C ) :   1.3086 B( 10-C , 14-H ) :   1.0382
B( 10-C , 15-H ) :   0.9301 B( 10-C , 16-H ) :   0.1897 B( 10-C , 17-H ) :   0.1715
B( 10-C , 18-H ) :   0.1934 B( 11-H , 12-H ) :  -0.1139 B( 13-C , 16-H ) :   0.8688
B( 13-C , 17-H ) :   0.8149 B( 13-C , 18-H ) :   0.8245

Dispersion correction           -0.013890325
FINAL SINGLE POINT ENERGY      -306.667460940532

DIPOLE MOMENT
-------------
                                X             Y             Z
Electronic contribution:     -2.93331       1.56086      -3.87754
Nuclear contribution   :      2.46104      -2.42013       3.42523
                        -----------------------------------------
Total Dipole Moment    :     -0.47227      -0.85927      -0.45231
                        -----------------------------------------
Magnitude (a.u.)       :      1.07980
Magnitude (Debye)      :      2.74463

Rotational constants in cm-1:     0.157414     0.050835     0.047338
Rotational constants in MHz :  4719.163414  1524.007825  1419.164399

                             ****ORCA TERMINATED NORMALLY****
TOTAL RUN TIME: 0 days 0 hours 0 minutes 19 seconds 330 msec
