                         Program Version 5.0.0 -  RELEASE  -
|  1> !PBE0 D3BJ RIJCOSX def2-SVPD def2/J TightSCF xyzfile
|  2>
|  3> *xyzfile 0 1 D1.xyz
|  4>
|  5> %MaxCore 64000
|  6>
|  7> %pal nprocs 4
|  8> end
|  9>
| 10> %scf
| 11>   MaxIter 150
| 12> end
| 13>
| 14>
| 15>                          ****END OF INPUT****

CARTESIAN COORDINATES (ANGSTROEM)
---------------------------------
  C      4.490588    1.155899   -2.469290
  C      4.305394    1.222762   -3.908317
  C      4.906458   -3.102816   -5.954844
  C      3.511771   -2.806215   -6.492283
  H      2.736044   -3.373445   -5.973736
  H      3.444904   -3.040831   -7.555281
  S      3.004618   -1.096206   -6.389259
  C      4.631918    2.246365   -4.670958
  N      4.541686    2.143990   -5.987139
  N      5.084086    3.393584   -4.118545
  H      4.920675    3.570501   -3.135870
  H      5.254652    4.197390   -4.706956
  H      3.824530    0.449113   -4.350926
  H      4.343373    1.249318   -6.416646
  H      4.676712    2.956624   -6.574113
  F      4.128856   -0.329647   -6.953717
  O      1.781285   -1.000779   -7.136399
  C      5.942129    0.939500   -2.036893
  H      3.864305    0.328532   -2.136611
  H      4.076233    2.049994   -1.989010
  C      6.462677   -3.117775   -3.944671
  C      5.024977   -3.025679   -4.437625
  H      4.423321   -3.818693   -3.977648
  H      4.579350   -2.087131   -4.108727
  H      5.201533   -4.100207   -6.296905
  H      5.605922   -2.397822   -6.413368
  C      6.559957   -0.356290   -2.559086
  H      5.967976    0.952567   -0.942444
  H      6.547184    1.788331   -2.368849
  C      6.006283   -1.615917   -1.899301
  H      7.642360   -0.318000   -2.402059
  H      6.414855   -0.403433   -3.642587
  C      6.608718   -2.917014   -2.435655
  H      6.190324   -1.561115   -0.820948
  H      4.919250   -1.651245   -2.016586
  H      7.066975   -2.374258   -4.475514
  H      6.887808   -4.089747   -4.215332
  H      6.135197   -3.755573   -1.915159
  H      7.671142   -2.955503   -2.172291
  O      2.851546   -0.783683   -4.956789

 Total Charge           Charge          ....    0
 Multiplicity           Mult            ....    1
 Number of Electrons    NEL             ....  144
 Basis Dimension        Dim             ....  540

ORBITAL ENERGIES
----------------

  NO   OCC          E(Eh)            E(eV)
   0   2.0000     -89.305740     -2430.1327
   1   2.0000     -24.909770      -677.8293
   2   2.0000     -19.243130      -523.6322
   3   2.0000     -19.230574      -523.2905
   4   2.0000     -14.385803      -391.4576
   5   2.0000     -14.381360      -391.3367
   6   2.0000     -10.302198      -280.3371
   7   2.0000     -10.265326      -279.3337
   8   2.0000     -10.258953      -279.1603
   9   2.0000     -10.233999      -278.4813
  10   2.0000     -10.229263      -278.3524
  11   2.0000     -10.222506      -278.1685
  12   2.0000     -10.213476      -277.9228
  13   2.0000     -10.206400      -277.7303
  14   2.0000     -10.201264      -277.5905
  15   2.0000     -10.194589      -277.4089
  16   2.0000     -10.128159      -275.6012
  17   2.0000      -8.265065      -224.9039
  18   2.0000      -6.211477      -169.0229
  19   2.0000      -6.205157      -168.8509
  20   2.0000      -6.203580      -168.8080
  21   2.0000      -1.405748       -38.2524
  22   2.0000      -1.151361       -31.3301
  23   2.0000      -1.049253       -28.5516
  24   2.0000      -0.966442       -26.2982
  25   2.0000      -0.876334       -23.8463
  26   2.0000      -0.865146       -23.5418
  27   2.0000      -0.825186       -22.4544
  28   2.0000      -0.796807       -21.6822
  29   2.0000      -0.773011       -21.0347
  30   2.0000      -0.748082       -20.3564
  31   2.0000      -0.721019       -19.6199
  32   2.0000      -0.689123       -18.7520
  33   2.0000      -0.658420       -17.9165
  34   2.0000      -0.632656       -17.2155
  35   2.0000      -0.628706       -17.1080
  36   2.0000      -0.614910       -16.7325
  37   2.0000      -0.598747       -16.2927
  38   2.0000      -0.581568       -15.8253
  39   2.0000      -0.576683       -15.6923
  40   2.0000      -0.556665       -15.1476
  41   2.0000      -0.545042       -14.8314
  42   2.0000      -0.518502       -14.1092
  43   2.0000      -0.510029       -13.8786
  44   2.0000      -0.502563       -13.6754
  45   2.0000      -0.491274       -13.3682
  46   2.0000      -0.479822       -13.0566
  47   2.0000      -0.471431       -12.8283
  48   2.0000      -0.466776       -12.7016
  49   2.0000      -0.464465       -12.6387
  50   2.0000      -0.442489       -12.0407
  51   2.0000      -0.434464       -11.8224
  52   2.0000      -0.431579       -11.7439
  53   2.0000      -0.421868       -11.4796
  54   2.0000      -0.407735       -11.0950
  55   2.0000      -0.396180       -10.7806
  56   2.0000      -0.395156       -10.7527
  57   2.0000      -0.384454       -10.4615
  58   2.0000      -0.380314       -10.3489
  59   2.0000      -0.368070       -10.0157
  60   2.0000      -0.364559        -9.9202
  61   2.0000      -0.356514        -9.7012
  62   2.0000      -0.351519        -9.5653
  63   2.0000      -0.336755        -9.1636
  64   2.0000      -0.334883        -9.1126
  65   2.0000      -0.328458        -8.9378
  66   2.0000      -0.320649        -8.7253
  67   2.0000      -0.311997        -8.4899
  68   2.0000      -0.304679        -8.2907
  69   2.0000      -0.289990        -7.8910
  70   2.0000      -0.266175        -7.2430
  71   2.0000      -0.156180        -4.2499
  72   0.0000      -0.005018        -0.1365
  73   0.0000       0.024640         0.6705
  74   0.0000       0.028489         0.7752
  75   0.0000       0.032270         0.8781
  76   0.0000       0.035720         0.9720

MULLIKEN ATOMIC CHARGES
-----------------------
   0 C :   -0.034205
   1 C :   -0.025689
   2 C :    0.105583
   3 C :    0.131427
   4 H :    0.118350
   5 H :    0.062975
   6 S :    1.582411
   7 C :    1.234507
   8 N :    0.064438
   9 N :   -0.154014
  10 H :   -0.025956
  11 H :   -0.250201
  12 H :   -0.393351
  13 H :   -0.204748
  14 H :   -0.196315
  15 F :   -0.455987
  16 O :   -0.758447
  17 C :    0.283350
  18 H :    0.193151
  19 H :   -0.140802
  20 C :   -0.116777
  21 C :    0.114108
  22 H :    0.078456
  23 H :   -0.364236
  24 H :   -0.052841
  25 H :    0.085008
  26 C :   -0.100128
  27 H :   -0.008581
  28 H :   -0.059924
  29 C :   -0.229544
  30 H :   -0.066330
  31 H :    0.045321
  32 C :    0.525758
  33 H :   -0.273910
  34 H :    0.188607
  35 H :    0.185023
  36 H :   -0.272559
  37 H :    0.022415
  38 H :    0.058915
  39 O :   -0.895256
Sum of atomic charges:    0.0000000

LOEWDIN ATOMIC CHARGES
----------------------
   0 C :   -0.044513
   1 C :   -0.017879
   2 C :   -0.038694
   3 C :   -0.040550
   4 H :    0.046213
   5 H :    0.026660
   6 S :    1.167980
   7 C :   -0.188667
   8 N :    0.194968
   9 N :    0.197777
  10 H :   -0.012815
  11 H :   -0.014263
  12 H :   -0.141305
  13 H :   -0.076629
  14 H :   -0.003175
  15 F :   -0.262218
  16 O :   -0.442743
  17 C :   -0.033680
  18 H :    0.014069
  19 H :    0.008329
  20 C :   -0.040464
  21 C :   -0.029735
  22 H :    0.044335
  23 H :   -0.009547
  24 H :    0.038565
  25 H :    0.028749
  26 C :   -0.036098
  27 H :    0.017061
  28 H :    0.011888
  29 C :   -0.039238
  30 H :    0.025216
  31 H :    0.008207
  32 C :   -0.034842
  33 H :    0.025370
  34 H :    0.010380
  35 H :    0.019352
  36 H :    0.024006
  37 H :    0.022689
  38 H :    0.023869
  39 O :   -0.448626

  Mayer bond orders larger than 0.100000
B(  0-C ,  1-C ) :   1.2246 B(  0-C , 12-H ) :   0.7152 B(  0-C , 17-C ) :   1.1692
B(  0-C , 18-H ) :   0.7050 B(  0-C , 19-H ) :   0.9498 B(  0-C , 27-H ) :   0.1632
B(  0-C , 28-H ) :   0.1555 B(  1-C ,  7-C ) :   1.6735 B(  1-C ,  8-N ) :   0.3643
B(  1-C ,  9-N ) :   0.2880 B(  1-C , 18-H ) :   0.3031 B(  1-C , 19-H ) :   0.1699
B(  2-C ,  3-C ) :   1.2299 B(  2-C ,  5-H ) :   0.2122 B(  2-C , 21-C ) :   1.1299
B(  2-C , 24-H ) :   0.8797 B(  2-C , 25-H ) :   0.8574 B(  3-C ,  4-H ) :   0.9020
B(  3-C ,  5-H ) :   0.7826 B(  3-C ,  6-S ) :   1.0427 B(  6-S , 15-F ) :   0.5507
B(  6-S , 16-O ) :   1.3763 B(  6-S , 39-O ) :   1.4884 B(  7-C ,  8-N ) :   0.6819
B(  7-C ,  9-N ) :   0.6734 B(  7-C , 11-H ) :  -0.1926 B(  7-C , 12-H ) :  -0.1954
B(  7-C , 13-H ) :  -0.2226 B(  7-C , 14-H ) :  -0.1888 B(  8-N ,  9-N ) :   0.1056
B(  8-N , 13-H ) :   1.1832 B(  8-N , 14-H ) :   1.3736 B(  9-N , 10-H ) :   1.0623
B(  9-N , 11-H ) :   1.3616 B( 10-H , 11-H ) :  -0.1869 B( 11-H , 12-H ) :  -0.1024
B( 12-H , 18-H ) :  -0.1631 B( 13-H , 14-H ) :  -0.2277 B( 13-H , 15-F ) :   0.1281
B( 16-O , 39-O ) :   0.1637 B( 17-C , 18-H ) :   0.1090 B( 17-C , 26-C ) :   1.3104
B( 17-C , 27-H ) :   0.8223 B( 17-C , 28-H ) :   0.7559 B( 17-C , 31-H ) :   0.1338
B( 20-C , 21-C ) :   1.2297 B( 20-C , 22-H ) :   0.1108 B( 20-C , 32-C ) :   1.1642
B( 20-C , 35-H ) :   0.8493 B( 20-C , 36-H ) :   1.0147 B( 20-C , 37-H ) :   0.1093
B( 20-C , 38-H ) :   0.1873 B( 21-C , 22-H ) :   0.7452 B( 21-C , 23-H ) :   0.9060
B( 21-C , 24-H ) :   0.1706 B( 21-C , 36-H ) :   0.1868 B( 22-H , 23-H ) :   0.2164
B( 23-H , 34-H ) :   0.1037 B( 26-C , 27-H ) :   0.1285 B( 26-C , 28-H ) :   0.1925
B( 26-C , 29-C ) :   1.2180 B( 26-C , 30-H ) :   0.8656 B( 26-C , 31-H ) :   0.9105
B( 26-C , 33-H ) :   0.1286 B( 29-C , 30-H ) :   0.1265 B( 29-C , 32-C ) :   1.1548
B( 29-C , 33-H ) :   1.0733 B( 29-C , 34-H ) :   0.8401 B( 29-C , 37-H ) :   0.2446
B( 29-C , 38-H ) :   0.1333 B( 32-C , 37-H ) :   0.7187 B( 32-C , 38-H ) :   0.7277

Dispersion correction           -0.042847723
FINAL SINGLE POINT ENERGY     -1189.245769425532

DIPOLE MOMENT
-------------
                                X             Y             Z
Electronic contribution:    -16.30841       4.82000     -21.41378
Nuclear contribution   :     17.24138      -5.45913      20.34076
                        -----------------------------------------
Total Dipole Moment    :      0.93297      -0.63913      -1.07302
                        -----------------------------------------
Magnitude (a.u.)       :      1.55894
Magnitude (Debye)      :      3.96251

Rotational constants in cm-1:     0.014201     0.012275     0.007453
Rotational constants in MHz :   425.728191   368.008875   223.435232

                             ****ORCA TERMINATED NORMALLY****
TOTAL RUN TIME: 0 days 0 hours 5 minutes 4 seconds 654 msec
