                         Program Version 5.0.0 -  RELEASE  -
|  1> !PBE0 D3BJ RIJCOSX def2-SVPD def2/J TightSCF xyzfile
|  2>
|  3> *xyzfile 0 1 D2.xyz
|  4>
|  5> %MaxCore 64000
|  6>
|  7> %pal nprocs 4
|  8> end
|  9>
| 10> %scf
| 11>   MaxIter 150
| 12> end
| 13>
| 14>
| 15>                          ****END OF INPUT****

CARTESIAN COORDINATES (ANGSTROEM)
---------------------------------
  C      4.490588    1.155899   -2.469290
  N      4.305394    1.222762   -3.908317
  C      4.906458   -3.102816   -5.954844
  C      3.511771   -2.806215   -6.492283
  H      2.736044   -3.373445   -5.973736
  H      3.444904   -3.040831   -7.555281
  S      3.004618   -1.096206   -6.389259
  C      4.631918    2.246365   -4.670958
  C      4.541686    2.143990   -5.987139
  N      5.084086    3.393584   -4.118545
  H      4.920675    3.570501   -3.135870
  H      5.254652    4.197390   -4.706956
  H      3.824530    0.449113   -4.350926
  H      4.343373    1.249318   -6.416646
  H      4.676712    2.956624   -6.574113
  F      4.128856   -0.329647   -6.953717
  O      1.781285   -1.000779   -7.136399
  C      5.942129    0.939500   -2.036893
  H      3.864305    0.328532   -2.136611
  H      4.076233    2.049994   -1.989010
  C      6.462677   -3.117775   -3.944671
  C      5.024977   -3.025679   -4.437625
  H      4.423321   -3.818693   -3.977648
  H      4.579350   -2.087131   -4.108727
  H      5.201533   -4.100207   -6.296905
  H      5.605922   -2.397822   -6.413368
  C      6.559957   -0.356290   -2.559086
  H      5.967976    0.952567   -0.942444
  H      6.547184    1.788331   -2.368849
  C      6.006283   -1.615917   -1.899301
  H      7.642360   -0.318000   -2.402059
  H      6.414855   -0.403433   -3.642587
  C      6.608718   -2.917014   -2.435655
  H      6.190324   -1.561115   -0.820948
  H      4.919250   -1.651245   -2.016586
  H      7.066975   -2.374258   -4.475514
  H      6.887808   -4.089747   -4.215332
  H      6.135197   -3.755573   -1.915159
  H      7.671142   -2.955503   -2.172291
  O      2.851546   -0.783683   -4.956789

 Total Charge           Charge          ....    0
 Multiplicity           Mult            ....    1
 Number of Electrons    NEL             ....  144
 Basis Dimension        Dim             ....  540

ORBITAL ENERGIES
----------------

  NO   OCC          E(Eh)            E(eV)
   0   2.0000     -89.308830     -2430.2168
   1   2.0000     -24.896073      -677.4566
   2   2.0000     -19.243135      -523.6323
   3   2.0000     -19.241098      -523.5769
   4   2.0000     -14.383536      -391.3959
   5   2.0000     -14.368435      -390.9850
   6   2.0000     -10.303801      -280.3807
   7   2.0000     -10.268417      -279.4178
   8   2.0000     -10.262464      -279.2558
   9   2.0000     -10.256708      -279.0992
  10   2.0000     -10.241180      -278.6767
  11   2.0000     -10.236433      -278.5475
  12   2.0000     -10.231968      -278.4260
  13   2.0000     -10.227154      -278.2950
  14   2.0000     -10.223083      -278.1842
  15   2.0000     -10.222399      -278.1656
  16   2.0000     -10.127038      -275.5707
  17   2.0000      -8.267713      -224.9759
  18   2.0000      -6.213930      -169.0896
  19   2.0000      -6.208093      -168.9308
  20   2.0000      -6.206365      -168.8838
  21   2.0000      -1.393617       -37.9222
  22   2.0000      -1.153543       -31.3895
  23   2.0000      -1.055403       -28.7190
  24   2.0000      -0.970083       -26.3973
  25   2.0000      -0.883853       -24.0509
  26   2.0000      -0.868729       -23.6393
  27   2.0000      -0.832854       -22.6631
  28   2.0000      -0.803380       -21.8611
  29   2.0000      -0.769178       -20.9304
  30   2.0000      -0.747876       -20.3508
  31   2.0000      -0.720890       -19.6164
  32   2.0000      -0.696352       -18.9487
  33   2.0000      -0.665004       -18.0957
  34   2.0000      -0.640842       -17.4382
  35   2.0000      -0.619878       -16.8677
  36   2.0000      -0.610992       -16.6259
  37   2.0000      -0.604913       -16.4605
  38   2.0000      -0.596690       -16.2368
  39   2.0000      -0.575769       -15.6675
  40   2.0000      -0.569606       -15.4998
  41   2.0000      -0.533920       -14.5287
  42   2.0000      -0.519007       -14.1229
  43   2.0000      -0.509129       -13.8541
  44   2.0000      -0.501221       -13.6389
  45   2.0000      -0.496527       -13.5112
  46   2.0000      -0.483350       -13.1526
  47   2.0000      -0.483109       -13.1461
  48   2.0000      -0.476285       -12.9604
  49   2.0000      -0.460015       -12.5176
  50   2.0000      -0.452050       -12.3009
  51   2.0000      -0.447512       -12.1774
  52   2.0000      -0.436389       -11.8747
  53   2.0000      -0.416461       -11.3325
  54   2.0000      -0.408765       -11.1231
  55   2.0000      -0.407867       -11.0986
  56   2.0000      -0.397212       -10.8087
  57   2.0000      -0.387620       -10.5477
  58   2.0000      -0.382901       -10.4193
  59   2.0000      -0.377198       -10.2641
  60   2.0000      -0.371773       -10.1165
  61   2.0000      -0.365737        -9.9522
  62   2.0000      -0.356742        -9.7075
  63   2.0000      -0.354374        -9.6430
  64   2.0000      -0.348081        -9.4718
  65   2.0000      -0.342247        -9.3130
  66   2.0000      -0.338274        -9.2049
  67   2.0000      -0.327449        -8.9103
  68   2.0000      -0.325397        -8.8545
  69   2.0000      -0.321289        -8.7427
  70   2.0000      -0.250465        -6.8155
  71   2.0000      -0.159871        -4.3503
  72   0.0000      -0.000824        -0.0224
  73   0.0000       0.025683         0.6989
  74   0.0000       0.027798         0.7564
  75   0.0000       0.030224         0.8224
  76   0.0000       0.035673         0.9707

MULLIKEN ATOMIC CHARGES
-----------------------
   0 C :    0.893887
   1 N :    0.049475
   2 C :    0.093638
   3 C :    0.131127
   4 H :    0.108255
   5 H :    0.070265
   6 S :    1.572862
   7 C :    1.165713
   8 C :    0.450919
   9 N :    0.061719
  10 H :   -0.043341
  11 H :   -0.207757
  12 H :   -0.902733
  13 H :   -0.303428
  14 H :   -0.576431
  15 F :   -0.514006
  16 O :   -0.770947
  17 C :    0.166891
  18 H :   -0.213111
  19 H :   -0.124490
  20 C :   -0.121097
  21 C :    0.067404
  22 H :    0.081844
  23 H :   -0.319721
  24 H :   -0.050893
  25 H :    0.091997
  26 C :   -0.018788
  27 H :   -0.092356
  28 H :    0.024702
  29 C :   -0.284763
  30 H :   -0.102029
  31 H :   -0.027944
  32 C :    0.527165
  33 H :   -0.279264
  34 H :    0.229124
  35 H :    0.181727
  36 H :   -0.267169
  37 H :    0.024439
  38 H :    0.062998
  39 O :   -0.835881
Sum of atomic charges:    0.0000000

LOEWDIN ATOMIC CHARGES
----------------------
   0 C :    0.061287
   1 N :    0.005351
   2 C :   -0.037253
   3 C :   -0.040382
   4 H :    0.045163
   5 H :    0.028861
   6 S :    1.172263
   7 C :   -0.204551
   8 C :    0.162268
   9 N :    0.196725
  10 H :   -0.025151
  11 H :    0.003458
  12 H :   -0.089330
  13 H :   -0.162231
  14 H :   -0.094484
  15 F :   -0.269775
  16 O :   -0.437425
  17 C :   -0.025303
  18 H :    0.020214
  19 H :    0.012036
  20 C :   -0.039118
  21 C :   -0.031710
  22 H :    0.044522
  23 H :   -0.013338
  24 H :    0.039311
  25 H :    0.030846
  26 C :   -0.034633
  27 H :    0.021882
  28 H :    0.012981
  29 C :   -0.041422
  30 H :    0.028276
  31 H :    0.011203
  32 C :   -0.032928
  33 H :    0.026181
  34 H :    0.008522
  35 H :    0.020528
  36 H :    0.025753
  37 H :    0.024072
  38 H :    0.025286
  39 O :   -0.447954

  Mayer bond orders larger than 0.100000
B(  0-C ,  1-N ) :   0.9160 B(  0-C , 12-H ) :  -0.4578 B(  0-C , 17-C ) :   1.1225
B(  0-C , 18-H ) :   0.7103 B(  0-C , 19-H ) :   0.8802 B(  0-C , 27-H ) :   0.1035
B(  1-N ,  7-C ) :   1.0528 B(  1-N ,  8-C ) :   0.1497 B(  1-N ,  9-N ) :   0.3127
B(  1-N , 12-H ) :   1.0547 B(  1-N , 18-H ) :   0.2309 B(  2-C ,  3-C ) :   1.2310
B(  2-C ,  5-H ) :   0.2074 B(  2-C , 21-C ) :   1.1373 B(  2-C , 24-H ) :   0.8804
B(  2-C , 25-H ) :   0.8623 B(  3-C ,  4-H ) :   0.9103 B(  3-C ,  5-H ) :   0.7861
B(  3-C ,  6-S ) :   1.0308 B(  6-S , 15-F ) :   0.6036 B(  6-S , 16-O ) :   1.3618
B(  6-S , 39-O ) :   1.3657 B(  7-C ,  8-C ) :   1.3540 B(  7-C ,  9-N ) :   0.7040
B(  7-C , 11-H ) :  -0.1093 B(  7-C , 12-H ) :  -0.6980 B(  7-C , 14-H ) :   0.1655
B(  8-C ,  9-N ) :   0.3009 B(  8-C , 13-H ) :   0.4035 B(  8-C , 14-H ) :   0.8632
B(  9-N , 10-H ) :   0.9910 B(  9-N , 11-H ) :   1.2523 B( 10-H , 11-H ) :  -0.1815
B( 13-H , 14-H ) :  -0.1498 B( 13-H , 15-F ) :   0.1696 B( 16-O , 39-O ) :   0.1572
B( 17-C , 18-H ) :   0.1152 B( 17-C , 26-C ) :   1.2383 B( 17-C , 27-H ) :   0.9580
B( 17-C , 28-H ) :   0.7562 B( 17-C , 31-H ) :   0.1113 B( 18-H , 19-H ) :  -0.1460
B( 20-C , 21-C ) :   1.2356 B( 20-C , 22-H ) :   0.1110 B( 20-C , 32-C ) :   1.1674
B( 20-C , 35-H ) :   0.8524 B( 20-C , 36-H ) :   1.0094 B( 20-C , 37-H ) :   0.1114
B( 20-C , 38-H ) :   0.1852 B( 21-C , 22-H ) :   0.7494 B( 21-C , 23-H ) :   0.9364
B( 21-C , 24-H ) :   0.1747 B( 21-C , 36-H ) :   0.1861 B( 22-H , 23-H ) :   0.2066
B( 23-H , 34-H ) :   0.1047 B( 26-C , 28-H ) :   0.1756 B( 26-C , 29-C ) :   1.2246
B( 26-C , 30-H ) :   0.9020 B( 26-C , 31-H ) :   0.9313 B( 26-C , 33-H ) :   0.1334
B( 29-C , 30-H ) :   0.1445 B( 29-C , 32-C ) :   1.1677 B( 29-C , 33-H ) :   1.0863
B( 29-C , 34-H ) :   0.8213 B( 29-C , 37-H ) :   0.2438 B( 29-C , 38-H ) :   0.1320
B( 32-C , 37-H ) :   0.7141 B( 32-C , 38-H ) :   0.7300

Dispersion correction           -0.042641802
FINAL SINGLE POINT ENERGY     -1189.249109198767

DIPOLE MOMENT
-------------
                                X             Y             Z
Electronic contribution:    -16.36097       3.92303     -19.59750
Nuclear contribution   :     17.27667      -5.32157      20.03034
                        -----------------------------------------
Total Dipole Moment    :      0.91570      -1.39854       0.43284
                        -----------------------------------------
Magnitude (a.u.)       :      1.72678
Magnitude (Debye)      :      4.38912

Rotational constants in cm-1:     0.014355     0.012269     0.007481
Rotational constants in MHz :   430.360270   367.823451   224.273399

                             ****ORCA TERMINATED NORMALLY****
TOTAL RUN TIME: 0 days 0 hours 4 minutes 31 seconds 242 msec
