                         Program Version 5.0.0 -  RELEASE  -
|  1> !LC-BLYP RIJCOSX def2-TZVPD def2/J TightSCF
|  2> *xyz -1 1
|  3> C         -0.77455        2.78833       -0.54394
|  4> C          0.69721        3.22791       -0.52513
|  5> O          1.48929        2.37470        0.19919
|  6> H          0.71600        4.26403       -0.13077
|  7> H          1.03615        3.33092       -1.58367
|  8> H         -1.34746        3.48478       -1.11982
|  9> H         -1.15078        2.75876        0.45729
| 10> H         -0.85058        1.81526       -0.98241
| 11> *
| 12>
| 13> %MaxCore 64000
| 14> %pal nprocs 4
| 15> end
| 16>
| 17> %scf
| 18>   MaxIter 150
| 19> end
| 20>
| 21>
| 22>                          ****END OF INPUT****

CARTESIAN COORDINATES (ANGSTROEM)
---------------------------------
  C     -0.774550    2.788330   -0.543940
  C      0.697210    3.227910   -0.525130
  O      1.489290    2.374700    0.199190
  H      0.716000    4.264030   -0.130770
  H      1.036150    3.330920   -1.583670
  H     -1.347460    3.484780   -1.119820
  H     -1.150780    2.758760    0.457290
  H     -0.850580    1.815260   -0.982410

 Total Charge           Charge          ....   -1
 Multiplicity           Mult            ....    1
 Number of Electrons    NEL             ....   26
 Basis Dimension        Dim             ....  159

ORBITAL ENERGIES
----------------

  NO   OCC          E(Eh)            E(eV)
   0   2.0000     -18.605816      -506.2900
   1   2.0000      -9.884247      -268.9640
   2   2.0000      -9.859396      -268.2878
   3   2.0000      -0.776925       -21.1412
   4   2.0000      -0.635040       -17.2803
   5   2.0000      -0.481133       -13.0923
   6   2.0000      -0.358195        -9.7470
   7   2.0000      -0.333165        -9.0659
   8   2.0000      -0.277109        -7.5405
   9   2.0000      -0.256900        -6.9906
  10   2.0000      -0.212759        -5.7895
  11   2.0000      -0.067452        -1.8355
  12   2.0000      -0.065467        -1.7814
  13   0.0000       0.198144         5.3918
  14   0.0000       0.219124         5.9627
  15   0.0000       0.249524         6.7899
  16   0.0000       0.249639         6.7930
  17   0.0000       0.273343         7.4380

MULLIKEN ATOMIC CHARGES
-----------------------
   0 C :   -1.178226
   1 C :   -0.516935
   2 O :   -0.907192
   3 H :    0.289934
   4 H :    0.292514
   5 H :    0.395849
   6 H :    0.310733
   7 H :    0.313323
Sum of atomic charges:   -1.0000000

LOEWDIN ATOMIC CHARGES
----------------------
   0 C :   -0.185643
   1 C :   -0.646582
   2 O :   -0.416566
   3 H :    0.061707
   4 H :    0.065115
   5 H :    0.033502
   6 H :    0.044403
   7 H :    0.044065

  Mayer bond orders larger than 0.100000
B(  0-C ,  1-C ) :   0.6505 B(  0-C ,  2-O ) :   0.2606 B(  0-C ,  5-H ) :   0.9106
B(  0-C ,  6-H ) :   0.9636 B(  0-C ,  7-H ) :   0.9601 B(  1-C ,  2-O ) :   0.9491
B(  1-C ,  3-H ) :   1.0072 B(  1-C ,  4-H ) :   0.9993 B(  3-H ,  4-H ) :   0.1022

FINAL SINGLE POINT ENERGY      -154.111564772369

DIPOLE MOMENT
-------------
                                X             Y             Z
Electronic contribution:      2.32632      -0.95935       1.11376
Nuclear contribution   :     -3.69910       1.55962      -1.78699
                        -----------------------------------------
Total Dipole Moment    :     -1.37277       0.60028      -0.67323
                        -----------------------------------------
Magnitude (a.u.)       :      1.64258
Magnitude (Debye)      :      4.17512

Rotational constants in cm-1:     1.268893     0.327436     0.287754
Rotational constants in MHz : 38040.440181  9816.269339  8626.646564

                             ****ORCA TERMINATED NORMALLY****
TOTAL RUN TIME: 0 days 0 hours 0 minutes 17 seconds 837 msec
