                         Program Version 5.0.0 -  RELEASE  -
|  1> !LC-BLYP RIJCOSX def2-TZVPD def2/J TightSCF
|  2> *xyz 1 1
|  3> C          3.95643        0.50147       -0.37910
|  4> H          3.16840        0.02920        0.20738
|  5> N          3.80389        1.96157       -0.15675
|  6> C          3.84232        0.14849       -1.85406
|  7> H          4.92323        0.17798        0.00937
|  8> H          4.20643        2.24441        0.74536
|  9> H          2.80827        2.21132       -0.09610
| 10> H          4.28076        2.50155       -0.89104
| 11> H          4.62951        0.62800       -2.39748
| 12> H          2.89665        0.48102       -2.22825
| 13> H          3.92053       -0.91187       -1.97413
| 14> *
| 15>
| 16> %MaxCore 64000
| 17> %pal nprocs 4
| 18> end
| 19>
| 20> %scf
| 21>   MaxIter 150
| 22> end
| 23>
| 24>
| 25>                          ****END OF INPUT****

CARTESIAN COORDINATES (ANGSTROEM)
---------------------------------
  C      3.956430    0.501470   -0.379100
  H      3.168400    0.029200    0.207380
  N      3.803890    1.961570   -0.156750
  C      3.842320    0.148490   -1.854060
  H      4.923230    0.177980    0.009370
  H      4.206430    2.244410    0.745360
  H      2.808270    2.211320   -0.096100
  H      4.280760    2.501550   -0.891040
  H      4.629510    0.628000   -2.397480
  H      2.896650    0.481020   -2.228250
  H      3.920530   -0.911870   -1.974130

 Total Charge           Charge          ....    1
 Multiplicity           Mult            ....    1
 Number of Electrons    NEL             ....   26
 Basis Dimension        Dim             ....  183

ORBITAL ENERGIES
----------------

  NO   OCC          E(Eh)            E(eV)
   0   2.0000     -14.503194      -394.6520
   1   2.0000     -10.321680      -280.8672
   2   2.0000     -10.241697      -278.6907
   3   2.0000      -1.318232       -35.8709
   4   2.0000      -1.075495       -29.2657
   5   2.0000      -0.953397       -25.9432
   6   2.0000      -0.908330       -24.7169
   7   2.0000      -0.889460       -24.2034
   8   2.0000      -0.800501       -21.7827
   9   2.0000      -0.746951       -20.3256
  10   2.0000      -0.683564       -18.6007
  11   2.0000      -0.668585       -18.1931
  12   2.0000      -0.649263       -17.6673
  13   0.0000      -0.141706        -3.8560
  14   0.0000      -0.084715        -2.3052
  15   0.0000      -0.083308        -2.2669
  16   0.0000      -0.077725        -2.1150
  17   0.0000      -0.045052        -1.2259

MULLIKEN ATOMIC CHARGES
-----------------------
   0 C :   -0.462529
   1 H :    0.406319
   2 N :   -0.394499
   3 C :   -1.386546
   4 H :    0.401083
   5 H :    0.375675
   6 H :    0.372735
   7 H :    0.359887
   8 H :    0.460847
   9 H :    0.443511
  10 H :    0.423515
Sum of atomic charges:    1.0000000

LOEWDIN ATOMIC CHARGES
----------------------
   0 C :   -0.218820
   1 H :    0.141234
   2 N :    0.179561
   3 C :   -0.068869
   4 H :    0.141781
   5 H :    0.182904
   6 H :    0.185521
   7 H :    0.182271
   8 H :    0.088152
   9 H :    0.088453
  10 H :    0.097812

  Mayer bond orders larger than 0.100000
B(  0-C ,  1-H ) :   0.8751 B(  0-C ,  2-N ) :   0.8420 B(  0-C ,  3-C ) :   0.4762
B(  0-C ,  4-H ) :   0.8806 B(  2-N ,  5-H ) :   0.8638 B(  2-N ,  6-H ) :   0.8582
B(  2-N ,  7-H ) :   0.8601 B(  3-C ,  8-H ) :   0.8300 B(  3-C ,  9-H ) :   0.8720
B(  3-C , 10-H ) :   0.9082

FINAL SINGLE POINT ENERGY      -135.191365858114

DIPOLE MOMENT
-------------
                                X             Y             Z
Electronic contribution:     -0.01194       1.32958       1.24985
Nuclear contribution   :     -0.06214      -0.04120      -0.39947
                        -----------------------------------------
Total Dipole Moment    :     -0.07408       1.28838       0.85038
                        -----------------------------------------
Magnitude (a.u.)       :      1.54549
Magnitude (Debye)      :      3.92833

Rotational constants in cm-1:     1.011771     0.281435     0.249812
Rotational constants in MHz : 30332.138762  8437.210602  7489.166323

                             ****ORCA TERMINATED NORMALLY****
TOTAL RUN TIME: 0 days 0 hours 0 minutes 20 seconds 255 msec
