                         Program Version 5.0.0 -  RELEASE  -
|  1> !LC-BLYP RIJCOSX def2-TZVPD def2/J TightSCF xyzfile
|  2>
|  3> *xyzfile 0 1 B.xyz
|  4>
|  5> %MaxCore 64000
|  6>
|  7> %pal nprocs 4
|  8> end
|  9>
| 10> %scf
| 11>   MaxIter 150
| 12> end
| 13>
| 14>
| 15>                          ****END OF INPUT****

CARTESIAN COORDINATES (ANGSTROEM)
---------------------------------
  C      3.956426    0.501466   -0.379100
  H      3.168398    0.029201    0.207383
  N      3.803893    1.961572   -0.156747
  C      3.842322    0.148490   -1.854058
  H      4.923231    0.177982    0.009371
  H      4.620021    0.694502   -2.402150
  H      4.096015   -0.910930   -1.955103
  C      2.475619    0.412708   -2.485377
  H      2.174689    1.445076   -2.287971
  C      1.383931   -0.532740   -1.995203
  H      2.575613    0.318574   -3.571460
  H      1.264698   -0.412309   -0.915491
  H      1.705223   -1.566885   -2.164984
  C      0.031398   -0.317260   -2.677791
  C     -0.587292    1.060853   -2.436460
  H     -0.662815   -1.089530   -2.329985
  H      0.149465   -0.478040   -3.755648
  H      0.104376    1.828590   -2.793130
  C     -0.951213    1.334978   -0.972500
  H     -1.478832    1.161355   -3.062484
  H     -0.317007    0.741648   -0.311389
  H     -1.980916    1.012842   -0.788958
  C     -0.774550    2.788332   -0.543943
  H     -1.352609    3.459372   -1.192585
  H     -1.171014    2.902331    0.469968
  C      0.697208    3.227911   -0.525126
  O      1.489294    2.374703    0.199189
  H      0.715998    4.264030   -0.130774
  H      1.036148    3.330920   -1.583669
  H      4.206425    2.244406    0.745359
  H      2.808269    2.211323   -0.096097
  H      4.280757    2.501552   -0.891037

 Total Charge           Charge          ....    0
 Multiplicity           Mult            ....    1
 Number of Electrons    NEL             ....   90
 Basis Dimension        Dim             ....  599

ORBITAL ENERGIES
----------------

  NO   OCC          E(Eh)            E(eV)
   0   2.0000     -18.808406      -511.8027
   1   2.0000     -14.248541      -387.7225
   2   2.0000     -10.135288      -275.7952
   3   2.0000     -10.091412      -274.6013
   4   2.0000     -10.065404      -273.8936
   5   2.0000     -10.052917      -273.5538
   6   2.0000     -10.051852      -273.5248
   7   2.0000     -10.047602      -273.4091
   8   2.0000     -10.035208      -273.0719
   9   2.0000     -10.022127      -272.7159
  10   2.0000     -10.015802      -272.5438
  11   2.0000      -1.090997       -29.6875
  12   2.0000      -0.986496       -26.8439
  13   2.0000      -0.928141       -25.2560
  14   2.0000      -0.888823       -24.1861
  15   2.0000      -0.850365       -23.1396
  16   2.0000      -0.807247       -21.9663
  17   2.0000      -0.769688       -20.9443
  18   2.0000      -0.730969       -19.8907
  19   2.0000      -0.703951       -19.1555
  20   2.0000      -0.676813       -18.4170
  21   2.0000      -0.674080       -18.3426
  22   2.0000      -0.655227       -17.8296
  23   2.0000      -0.616747       -16.7825
  24   2.0000      -0.595964       -16.2170
  25   2.0000      -0.575311       -15.6550
  26   2.0000      -0.573195       -15.5974
  27   2.0000      -0.543278       -14.7833
  28   2.0000      -0.527729       -14.3602
  29   2.0000      -0.523601       -14.2479
  30   2.0000      -0.502627       -13.6772
  31   2.0000      -0.493100       -13.4179
  32   2.0000      -0.483011       -13.1434
  33   2.0000      -0.463979       -12.6255
  34   2.0000      -0.455776       -12.4023
  35   2.0000      -0.443628       -12.0717
  36   2.0000      -0.435837       -11.8597
  37   2.0000      -0.422582       -11.4990
  38   2.0000      -0.412682       -11.2297
  39   2.0000      -0.407012       -11.0754
  40   2.0000      -0.385689       -10.4951
  41   2.0000      -0.380993       -10.3673
  42   2.0000      -0.375884       -10.2283
  43   2.0000      -0.279478        -7.6050
  44   2.0000      -0.272848        -7.4246
  45   0.0000       0.026435         0.7193
  46   0.0000       0.051754         1.4083
  47   0.0000       0.056336         1.5330
  48   0.0000       0.069012         1.8779
  49   0.0000       0.081769         2.2251

MULLIKEN ATOMIC CHARGES
-----------------------
   0 C :   -0.692975
   1 H :    0.398962
   2 N :   -0.231122
   3 C :   -0.893255
   4 H :    0.422926
   5 H :    0.362085
   6 H :    0.417116
   7 C :   -0.363470
   8 H :    0.182142
   9 C :   -0.674623
  10 H :    0.380509
  11 H :    0.333659
  12 H :    0.393160
  13 C :   -0.973690
  14 C :   -0.742754
  15 H :    0.388979
  16 H :    0.413132
  17 H :    0.354346
  18 C :   -0.538748
  19 H :    0.424731
  20 H :    0.225890
  21 H :    0.420620
  22 C :   -0.986155
  23 H :    0.357779
  24 H :    0.457409
  25 C :   -0.569403
  26 O :   -0.878631
  27 H :    0.387204
  28 H :    0.310926
  29 H :    0.364514
  30 H :    0.208608
  31 H :    0.340130
Sum of atomic charges:    0.0000000

LOEWDIN ATOMIC CHARGES
----------------------
   0 C :   -0.186680
   1 H :    0.131750
   2 N :    0.137323
   3 C :   -0.206273
   4 H :    0.124239
   5 H :    0.117456
   6 H :    0.122485
   7 C :   -0.216780
   8 H :    0.096168
   9 C :   -0.224409
  10 H :    0.125501
  11 H :    0.102024
  12 H :    0.119678
  13 C :   -0.222592
  14 C :   -0.221980
  15 H :    0.117239
  16 H :    0.113145
  17 H :    0.095752
  18 C :   -0.228601
  19 H :    0.114639
  20 H :    0.094464
  21 H :    0.112948
  22 C :   -0.218527
  23 H :    0.113742
  24 H :    0.110718
  25 C :   -0.435898
  26 O :   -0.262245
  27 H :    0.102515
  28 H :    0.093282
  29 H :    0.163814
  30 H :   -0.048699
  31 H :    0.163804

  Mayer bond orders larger than 0.100000
B(  0-C ,  1-H ) :   0.9015 B(  0-C ,  2-N ) :   0.8322 B(  0-C ,  3-C ) :   0.6033
B(  0-C ,  4-H ) :   0.8907 B(  2-N , 26-O ) :  -0.1635 B(  2-N , 29-H ) :   0.8739
B(  2-N , 30-H ) :   0.7680 B(  2-N , 31-H ) :   0.8592 B(  3-C ,  5-H ) :   0.9901
B(  3-C ,  6-H ) :   0.9172 B(  3-C ,  7-C ) :   0.5941 B(  7-C ,  8-H ) :   1.0634
B(  7-C ,  9-C ) :   0.3675 B(  7-C , 10-H ) :   0.9479 B(  8-H , 10-H ) :   0.1118
B(  9-C , 11-H ) :   0.9746 B(  9-C , 12-H ) :   0.9331 B(  9-C , 13-C ) :   0.6138
B( 11-H , 12-H ) :   0.1056 B( 13-C , 14-C ) :   0.6919 B( 13-C , 15-H ) :   0.9539
B( 13-C , 16-H ) :   0.9253 B( 14-C , 17-H ) :   0.9757 B( 14-C , 18-C ) :   0.4073
B( 14-C , 19-H ) :   0.9040 B( 18-C , 20-H ) :   1.0370 B( 18-C , 21-H ) :   0.8861
B( 18-C , 22-C ) :   0.7651 B( 22-C , 23-H ) :   1.0100 B( 22-C , 24-H ) :   0.8487
B( 22-C , 25-C ) :   0.7290 B( 25-C , 26-O ) :   0.7794 B( 25-C , 27-H ) :   0.9472
B( 25-C , 28-H ) :   0.9707 B( 26-O , 30-H ) :   0.3454

FINAL SINGLE POINT ENERGY      -484.392658602226

DIPOLE MOMENT
-------------
                                X             Y             Z
Electronic contribution:      2.10008       0.91721       2.53074
Nuclear contribution   :      0.61785      -1.47632      -2.91844
                        -----------------------------------------
Total Dipole Moment    :      2.71792      -0.55911      -0.38770
                        -----------------------------------------
Magnitude (a.u.)       :      2.80179
Magnitude (Debye)      :      7.12159

Rotational constants in cm-1:     0.040993     0.027400     0.018162
Rotational constants in MHz :  1228.944366   821.418004   544.476857

                             ****ORCA TERMINATED NORMALLY****
TOTAL RUN TIME: 0 days 0 hours 5 minutes 23 seconds 688 msec
