                         Program Version 5.0.0 -  RELEASE  -
|  1> !LC-BLYP RIJCOSX def2-TZVPD def2/J TightSCF
|  2> *xyz 0 1
|  3> C         -0.77455        2.78833       -0.54394
|  4> C          0.69721        3.22791       -0.52513
|  5> F          1.48929        2.37470        0.19919
|  6> H          0.71600        4.26403       -0.13077
|  7> H          1.03615        3.33092       -1.58367
|  8> H         -1.34746        3.48478       -1.11982
|  9> H         -1.15078        2.75876        0.45729
| 10> H         -0.85058        1.81526       -0.98241
| 11> *
| 12>
| 13> %MaxCore 64000
| 14> %pal nprocs 4
| 15> end
| 16>
| 17> %scf
| 18>   MaxIter 150
| 19> end
| 20>
| 21>
| 22>                          ****END OF INPUT****

CARTESIAN COORDINATES (ANGSTROEM)
---------------------------------
  C     -0.774550    2.788330   -0.543940
  C      0.697210    3.227910   -0.525130
  F      1.489290    2.374700    0.199190
  H      0.716000    4.264030   -0.130770
  H      1.036150    3.330920   -1.583670
  H     -1.347460    3.484780   -1.119820
  H     -1.150780    2.758760    0.457290
  H     -0.850580    1.815260   -0.982410

 Total Charge           Charge          ....    0
 Multiplicity           Mult            ....    1
 Number of Electrons    NEL             ....   26
 Basis Dimension        Dim             ....  159

ORBITAL ENERGIES
----------------

  NO   OCC          E(Eh)            E(eV)
   0   2.0000     -24.442616      -665.1174
   1   2.0000     -10.148662      -276.1591
   2   2.0000     -10.063329      -273.8371
   3   2.0000      -1.279282       -34.8110
   4   2.0000      -0.875186       -23.8150
   5   2.0000      -0.739906       -20.1339
   6   2.0000      -0.614447       -16.7199
   7   2.0000      -0.603071       -16.4104
   8   2.0000      -0.562464       -15.3054
   9   2.0000      -0.506930       -13.7943
  10   2.0000      -0.502377       -13.6704
  11   2.0000      -0.436402       -11.8751
  12   2.0000      -0.428663       -11.6645
  13   0.0000       0.055413         1.5079
  14   0.0000       0.078846         2.1455
  15   0.0000       0.100137         2.7249
  16   0.0000       0.103369         2.8128
  17   0.0000       0.132133         3.5955

MULLIKEN ATOMIC CHARGES
-----------------------
   0 C :   -1.161962
   1 C :   -0.297703
   2 F :   -0.275945
   3 H :    0.313020
   4 H :    0.313585
   5 H :    0.392099
   6 H :    0.358555
   7 H :    0.358352
Sum of atomic charges:   -0.0000000

LOEWDIN ATOMIC CHARGES
----------------------
   0 C :   -0.099343
   1 C :   -0.317407
   2 F :   -0.031848
   3 H :    0.116299
   4 H :    0.120449
   5 H :    0.071988
   6 H :    0.070091
   7 H :    0.069771

  Mayer bond orders larger than 0.100000
B(  0-C ,  1-C ) :   0.6408 B(  0-C ,  5-H ) :   0.8989 B(  0-C ,  6-H ) :   0.9148
B(  0-C ,  7-H ) :   0.9125 B(  1-C ,  2-F ) :   0.8313 B(  1-C ,  3-H ) :   0.9456
B(  1-C ,  4-H ) :   0.9413

FINAL SINGLE POINT ENERGY      -178.741699966927

DIPOLE MOMENT
-------------
                                X             Y             Z
Electronic contribution:      4.39679      -1.63447       1.98465
Nuclear contribution   :     -4.89513       2.05627      -2.36166
                        -----------------------------------------
Total Dipole Moment    :     -0.49835       0.42180      -0.37701
                        -----------------------------------------
Magnitude (a.u.)       :      0.75393
Magnitude (Debye)      :      1.91633

Rotational constants in cm-1:     1.247826     0.304622     0.269019
Rotational constants in MHz : 37408.889506  9132.346906  8064.979146

                             ****ORCA TERMINATED NORMALLY****
TOTAL RUN TIME: 0 days 0 hours 0 minutes 13 seconds 560 msec
