                         Program Version 5.0.0 -  RELEASE  -
|  1> !LC-BLYP RIJCOSX def2-TZVPD def2/J TightSCF
|  2> *xyz 0 1
|  3> C          3.95643        0.50147       -0.37910
|  4> H          3.16840        0.02920        0.20738
|  5> C          3.80389        1.96157       -0.15675
|  6> C          3.84232        0.14849       -1.85406
|  7> H          4.92323        0.17798        0.00937
|  8> H          4.20643        2.24441        0.74536
|  9> H          2.80827        2.21132       -0.09610
| 10> H          4.28076        2.50155       -0.89104
| 11> H          4.62951        0.62800       -2.39748
| 12> H          2.89665        0.48102       -2.22825
| 13> H          3.92053       -0.91187       -1.97413
| 14> *
| 15>
| 16> %MaxCore 64000
| 17> %pal nprocs 4
| 18> end
| 19>
| 20> %scf
| 21>   MaxIter 150
| 22> end
| 23>
| 24>
| 25>                          ****END OF INPUT****

CARTESIAN COORDINATES (ANGSTROEM)
---------------------------------
  C      3.956430    0.501470   -0.379100
  H      3.168400    0.029200    0.207380
  C      3.803890    1.961570   -0.156750
  C      3.842320    0.148490   -1.854060
  H      4.923230    0.177980    0.009370
  H      4.206430    2.244410    0.745360
  H      2.808270    2.211320   -0.096100
  H      4.280760    2.501550   -0.891040
  H      4.629510    0.628000   -2.397480
  H      2.896650    0.481020   -2.228250
  H      3.920530   -0.911870   -1.974130

 Total Charge           Charge          ....    0
 Multiplicity           Mult            ....    1
 Number of Electrons    NEL             ....   26
 Basis Dimension        Dim             ....  183

ORBITAL ENERGIES
----------------

  NO   OCC          E(Eh)            E(eV)
   0   2.0000     -10.053354      -273.5657
   1   2.0000     -10.044149      -273.3152
   2   2.0000     -10.026637      -272.8387
   3   2.0000      -0.902071       -24.5466
   4   2.0000      -0.798648       -21.7323
   5   2.0000      -0.692898       -18.8547
   6   2.0000      -0.576917       -15.6987
   7   2.0000      -0.551881       -15.0174
   8   2.0000      -0.504052       -13.7159
   9   2.0000      -0.491506       -13.3746
  10   2.0000      -0.435430       -11.8486
  11   2.0000      -0.432892       -11.7796
  12   2.0000      -0.422029       -11.4840
  13   0.0000       0.060643         1.6502
  14   0.0000       0.080199         2.1823
  15   0.0000       0.082722         2.2510
  16   0.0000       0.110036         2.9942
  17   0.0000       0.132380         3.6022

MULLIKEN ATOMIC CHARGES
-----------------------
   0 C :   -0.374472
   1 H :    0.324773
   2 C :   -1.415548
   3 C :   -1.294234
   4 H :    0.352254
   5 H :    0.435531
   6 H :    0.411829
   7 H :    0.407457
   8 H :    0.388187
   9 H :    0.375960
  10 H :    0.388262
Sum of atomic charges:   -0.0000000

LOEWDIN ATOMIC CHARGES
----------------------
   0 C :   -0.334118
   1 H :    0.109264
   2 C :   -0.141581
   3 C :   -0.130917
   4 H :    0.109023
   5 H :    0.056508
   6 H :    0.061383
   7 H :    0.059939
   8 H :    0.071335
   9 H :    0.073023
  10 H :    0.066141

  Mayer bond orders larger than 0.100000
B(  0-C ,  1-H ) :   0.9478 B(  0-C ,  2-C ) :   0.4853 B(  0-C ,  3-C ) :   0.5184
B(  0-C ,  4-H ) :   0.9320 B(  2-C ,  5-H ) :   0.8986 B(  2-C ,  6-H ) :   0.9141
B(  2-C ,  7-H ) :   0.8655 B(  3-C ,  8-H ) :   0.9169 B(  3-C ,  9-H ) :   0.9294
B(  3-C , 10-H ) :   0.9332

FINAL SINGLE POINT ENERGY      -118.784366973020

DIPOLE MOMENT
-------------
                                X             Y             Z
Electronic contribution:      0.08110      -0.29789       0.23660
Nuclear contribution   :     -0.08172       0.30475      -0.19303
                        -----------------------------------------
Total Dipole Moment    :     -0.00061       0.00686       0.04357
                        -----------------------------------------
Magnitude (a.u.)       :      0.04411
Magnitude (Debye)      :      0.11213

Rotational constants in cm-1:     1.020248     0.295755     0.261591
Rotational constants in MHz : 30586.266829  8866.511639  7842.297953

                             ****ORCA TERMINATED NORMALLY****
TOTAL RUN TIME: 0 days 0 hours 0 minutes 19 seconds 460 msec
