                         Program Version 5.0.0 -  RELEASE  -
|  1> !LC-BLYP RIJCOSX def2-TZVPD def2/J TightSCF xyzfile
|  2>
|  3> *xyzfile 0 1 D.xyz
|  4>
|  5> %MaxCore 64000
|  6>
|  7> %pal nprocs 4
|  8> end
|  9>
| 10> %scf
| 11>   MaxIter 150
| 12> end
| 13>
| 14>
| 15>                          ****END OF INPUT****

CARTESIAN COORDINATES (ANGSTROEM)
---------------------------------
  C      3.956426    0.501466   -0.379100
  H      3.168398    0.029201    0.207383
  C      3.803893    1.961572   -0.156747
  C      3.842322    0.148490   -1.854058
  H      4.923231    0.177982    0.009371
  H      4.620021    0.694502   -2.402150
  H      4.096015   -0.910930   -1.955103
  C      2.475619    0.412708   -2.485377
  H      2.174689    1.445076   -2.287971
  C      1.383931   -0.532740   -1.995203
  H      2.575613    0.318574   -3.571460
  H      1.264698   -0.412309   -0.915491
  H      1.705223   -1.566885   -2.164984
  C      0.031398   -0.317260   -2.677791
  C     -0.587292    1.060853   -2.436460
  H     -0.662815   -1.089530   -2.329985
  H      0.149465   -0.478040   -3.755648
  H      0.104376    1.828590   -2.793130
  C     -0.951213    1.334978   -0.972500
  H     -1.478832    1.161355   -3.062484
  H     -0.317007    0.741648   -0.311389
  H     -1.980916    1.012842   -0.788958
  C     -0.774550    2.788332   -0.543943
  H     -1.352609    3.459372   -1.192585
  H     -1.171014    2.902331    0.469968
  C      0.697208    3.227911   -0.525126
  F      1.489294    2.374703    0.199189
  H      0.715998    4.264030   -0.130774
  H      1.036148    3.330920   -1.583669
  H      4.206425    2.244406    0.745359
  H      2.808269    2.211323   -0.096097
  H      4.280757    2.501552   -0.891037

 Total Charge           Charge          ....    0
 Multiplicity           Mult            ....    1
 Number of Electrons    NEL             ....   90
 Basis Dimension        Dim             ....  599

ORBITAL ENERGIES
----------------

  NO   OCC          E(Eh)            E(eV)
   0   2.0000     -24.462542      -665.6596
   1   2.0000     -10.156578      -276.3745
   2   2.0000     -10.079584      -274.2794
   3   2.0000     -10.065565      -273.8979
   4   2.0000     -10.062167      -273.8055
   5   2.0000     -10.059040      -273.7204
   6   2.0000     -10.052958      -273.5549
   7   2.0000     -10.050992      -273.5014
   8   2.0000     -10.045067      -273.3402
   9   2.0000     -10.034372      -273.0491
  10   2.0000      -9.981662      -271.6148
  11   2.0000      -1.312609       -35.7179
  12   2.0000      -0.931869       -25.3574
  13   2.0000      -0.911822       -24.8119
  14   2.0000      -0.878363       -23.9015
  15   2.0000      -0.846694       -23.0397
  16   2.0000      -0.799025       -21.7426
  17   2.0000      -0.773731       -21.0543
  18   2.0000      -0.733171       -19.9506
  19   2.0000      -0.708973       -19.2921
  20   2.0000      -0.673300       -18.3214
  21   2.0000      -0.659728       -17.9521
  22   2.0000      -0.635924       -17.3044
  23   2.0000      -0.623030       -16.9535
  24   2.0000      -0.601196       -16.3594
  25   2.0000      -0.577197       -15.7063
  26   2.0000      -0.565386       -15.3849
  27   2.0000      -0.554851       -15.0983
  28   2.0000      -0.534551       -14.5459
  29   2.0000      -0.530068       -14.4239
  30   2.0000      -0.513131       -13.9630
  31   2.0000      -0.495539       -13.4843
  32   2.0000      -0.487802       -13.2738
  33   2.0000      -0.475247       -12.9321
  34   2.0000      -0.465727       -12.6731
  35   2.0000      -0.453731       -12.3466
  36   2.0000      -0.448202       -12.1962
  37   2.0000      -0.440480       -11.9861
  38   2.0000      -0.421341       -11.4653
  39   2.0000      -0.416811       -11.3420
  40   2.0000      -0.410211       -11.1624
  41   2.0000      -0.408882       -11.1262
  42   2.0000      -0.393423       -10.7056
  43   2.0000      -0.391906       -10.6643
  44   2.0000      -0.369206       -10.0466
  45   0.0000       0.051428         1.3994
  46   0.0000       0.058518         1.5923
  47   0.0000       0.063722         1.7340
  48   0.0000       0.068824         1.8728
  49   0.0000       0.079304         2.1580

MULLIKEN ATOMIC CHARGES
-----------------------
   0 C :   -0.496519
   1 H :    0.388721
   2 C :   -1.107552
   3 C :   -0.940657
   4 H :    0.370396
   5 H :    0.417495
   6 H :    0.385162
   7 C :   -0.464369
   8 H :    0.174531
   9 C :   -0.602979
  10 H :    0.364763
  11 H :    0.289826
  12 H :    0.401223
  13 C :   -0.992521
  14 C :   -0.744903
  15 H :    0.389832
  16 H :    0.426242
  17 H :    0.382491
  18 C :   -0.580189
  19 H :    0.418890
  20 H :    0.282849
  21 H :    0.427238
  22 C :   -0.949898
  23 H :    0.368373
  24 H :    0.461583
  25 C :   -0.467707
  26 F :   -0.439855
  27 H :    0.402455
  28 H :    0.355462
  29 H :    0.548976
  30 H :    0.095472
  31 H :    0.435170
Sum of atomic charges:    0.0000000

LOEWDIN ATOMIC CHARGES
----------------------
   0 C :   -0.265155
   1 H :    0.109857
   2 C :   -0.123325
   3 C :   -0.229409
   4 H :    0.111768
   5 H :    0.117261
   6 H :    0.112171
   7 C :   -0.218449
   8 H :    0.093001
   9 C :   -0.223735
  10 H :    0.123060
  11 H :    0.100182
  12 H :    0.122954
  13 C :   -0.221961
  14 C :   -0.220365
  15 H :    0.117542
  16 H :    0.116208
  17 H :    0.097085
  18 C :   -0.218681
  19 H :    0.117409
  20 H :    0.102436
  21 H :    0.120570
  22 C :   -0.192577
  23 H :    0.127597
  24 H :    0.117315
  25 C :   -0.224188
  26 F :   -0.021602
  27 H :    0.132499
  28 H :    0.125347
  29 H :    0.065868
  30 H :   -0.040080
  31 H :    0.069399

  Mayer bond orders larger than 0.100000
B(  0-C ,  1-H ) :   0.9055 B(  0-C ,  2-C ) :   0.2782 B(  0-C ,  3-C ) :   0.6393
B(  0-C ,  4-H ) :   0.9515 B(  0-C , 30-H ) :  -0.1092 B(  1-H ,  2-C ) :  -0.1097
B(  1-H , 30-H ) :   0.1253 B(  2-C , 26-F ) :   0.2543 B(  2-C , 29-H ) :   0.8874
B(  2-C , 30-H ) :   0.7117 B(  2-C , 31-H ) :   1.1009 B(  3-C ,  5-H ) :   0.9221
B(  3-C ,  6-H ) :   0.9254 B(  3-C ,  7-C ) :   0.7478 B(  7-C ,  8-H ) :   1.1171
B(  7-C ,  9-C ) :   0.2897 B(  7-C , 10-H ) :   0.9435 B(  8-H ,  9-C ) :  -0.1247
B(  8-H , 10-H ) :   0.1136 B(  9-C , 11-H ) :   1.0334 B(  9-C , 12-H ) :   0.9110
B(  9-C , 13-C ) :   0.6006 B( 13-C , 14-C ) :   0.7222 B( 13-C , 15-H ) :   0.9609
B( 13-C , 16-H ) :   0.9172 B( 14-C , 17-H ) :   0.9611 B( 14-C , 18-C ) :   0.4089
B( 14-C , 19-H ) :   0.9124 B( 18-C , 20-H ) :   1.0061 B( 18-C , 21-H ) :   0.8907
B( 18-C , 22-C ) :   0.7182 B( 22-C , 23-H ) :   0.9614 B( 22-C , 24-H ) :   0.8702
B( 22-C , 25-C ) :   0.6689 B( 22-C , 26-F ) :   0.1170 B( 25-C , 26-F ) :   0.6594
B( 25-C , 27-H ) :   0.8893 B( 25-C , 28-H ) :   0.9559 B( 26-F , 30-H ) :  -0.1448
B( 30-H , 31-H ) :  -0.1056

FINAL SINGLE POINT ENERGY      -492.350138700177

DIPOLE MOMENT
-------------
                                X             Y             Z
Electronic contribution:     -1.96966       3.29336       4.26911
Nuclear contribution   :      1.09293      -2.80761      -4.51228
                        -----------------------------------------
Total Dipole Moment    :     -0.87673       0.48575      -0.24317
                        -----------------------------------------
Magnitude (a.u.)       :      1.03138
Magnitude (Debye)      :      2.62155

Rotational constants in cm-1:     0.040502     0.027818     0.018259
Rotational constants in MHz :  1214.218058   833.972871   547.398614

                             ****ORCA TERMINATED NORMALLY****
TOTAL RUN TIME: 0 days 0 hours 4 minutes 50 seconds 414 msec
