                               Psi4 1.1 release

  ==> Input File <==

--------------------------------------------------------------------------
memory 2GB

molecule mol {
1 1
  N    0.28127984387120      0.67645445008226     -2.24017882281796
  H    0.39078982234721     -0.31925305682600     -2.02649472204110
  H   -0.69268573463875      0.99010404550299     -2.13812305565438
  H    0.85420640417775      1.21221440488510     -1.57527895335090
--
-1 1
  C   -2.35773202247692      2.30685761880910     -3.13675348718298
  O   -3.44376282706836      2.84651849689285     -3.25274403211467
  O   -1.97092208588631      1.58304212923087     -2.15122870414341
--
0 1
  C    0.64865609197938      1.00359491430560     -3.64560058948429
  C    0.13296805634975      2.38586900509717     -4.02461835552568
  C   -1.36646223853163      2.47910585019382     -4.31393172260702
  H   -1.63680195209747      1.72709458177639     -5.06399277142402
  H   -1.58234651576219      3.44560530582257     -4.76868652162466
  H    0.19099313978949      0.23965470972905     -4.27575248646522
  H    1.73157234277303      0.93172861192758     -3.75075059014208
  H    0.41483853888046      3.10284729263349     -3.24516509130670
  H    0.68316713629335      2.68755963993716     -4.91972109411489

symmetry c1
no_reorient
no_com
}

# => Standard Options <= #

set {
basis aug-cc-pvtz
scf_type df
guess sad
freeze_core true
fisapt_do_plot false  # For extra analysis
}

energy('fisapt0')
--------------------------------------------------------------------------

    Molecular point group: c1

    Geometry (in Angstrom), charge = 0, multiplicity = 1:

       Center              X                  Y                   Z               Mass
    ------------   -----------------  -----------------  -----------------  -----------------
           N          0.281279843871     0.676454450082    -2.240178822818    14.003074004780
           H          0.390789822347    -0.319253056826    -2.026494722041     1.007825032070
           H         -0.692685734639     0.990104045503    -2.138123055654     1.007825032070
           H          0.854206404178     1.212214404885    -1.575278953351     1.007825032070
           C         -2.357732022477     2.306857618809    -3.136753487183    12.000000000000
           O         -3.443762827068     2.846518496893    -3.252744032115    15.994914619560
           O         -1.970922085886     1.583042129231    -2.151228704143    15.994914619560
           C          0.648656091979     1.003594914306    -3.645600589484    12.000000000000
           C          0.132968056350     2.385869005097    -4.024618355526    12.000000000000
           C         -1.366462238532     2.479105850194    -4.313931722607    12.000000000000
           H         -1.636801952097     1.727094581776    -5.063992771424     1.007825032070
           H         -1.582346515762     3.445605305823    -4.768686521625     1.007825032070
           H          0.190993139789     0.239654709729    -4.275752486465     1.007825032070
           H          1.731572342773     0.931728611928    -3.750750590142     1.007825032070
           H          0.414838538880     3.102847292633    -3.245165091307     1.007825032070
           H          0.683167136293     2.687559639937    -4.919721094115     1.007825032070

  Charge       = 0
  Multiplicity = 1
  Basis Set: AUG-CC-PVTZ
    Blend: AUG-CC-PVTZ
  Basis Set: (AUG-CC-PVTZ AUX)
    Blend: AUG-CC-PVTZ-JKFIT

    Orbital Energies (a.u.)
    -----------------------

    Doubly Occupied:

       1A    -20.474141     2A    -20.455675     3A    -15.678476
       4A    -11.319730     5A    -11.304167     6A    -11.256316
       7A    -11.219173     8A     -1.356783     9A     -1.321431
      10A     -1.249001    11A     -1.085535    12A     -0.966160
      13A     -0.860996    14A     -0.800226    15A     -0.777789
      16A     -0.702858    17A     -0.668451    18A     -0.652076
      19A     -0.602304    20A     -0.595743    21A     -0.566167
      22A     -0.545923    23A     -0.535950    24A     -0.512898
      25A     -0.486488    26A     -0.394448    27A     -0.373669
      28A     -0.364343

  @DF-RHF Final Energy:  -361.00722286877641

   => Energetics <=

    Nuclear Repulsion Energy =            323.5774615493272108
    One-Electron Energy =               -1134.9155292684372398
    Two-Electron Energy =                 450.3308448503336763
    DFT Exchange-Correlation Energy =       0.0000000000000000
    Empirical Dispersion Energy =           0.0000000000000000
    PCM Polarization Energy =               0.0000000000000000
    EFP Energy =                            0.0000000000000000
    Total Energy =                       -361.0072228687764095
  Basis Set: (AUG-CC-PVTZ AUX)
    Blend: AUG-CC-PVTZ-JKFIT
  Basis Set: (AUG-CC-PVTZ AUX)
    Blend: AUG-CC-PVTZ-JKFIT
  Basis Set: (AUG-CC-PVTZ AUX)
    Blend: AUG-CC-PVTZ-JKFIT
  Basis Set: (AUG-CC-PVTZ AUX)
    Blend: AUG-CC-PVTZ-JKFIT
  Basis Set: (AUG-CC-PVTZ AUX)
    Blend: AUG-CC-PVTZ-RI

    SAPT Results
  --------------------------------------------------------------------------------------------------------
    Electrostatics               -207.15489990 [mEh]    -129.99166766 [kcal/mol]    -543.88518969 [kJ/mol]
      Elst10,r                   -207.15489990 [mEh]    -129.99166766 [kcal/mol]    -543.88518969 [kJ/mol]

    Exchange                       87.85117268 [mEh]      55.12744544 [kcal/mol]     230.65325388 [kJ/mol]
      Exch10                       87.85117268 [mEh]      55.12744544 [kcal/mol]     230.65325388 [kJ/mol]
      Exch10(S^2)                  83.70386787 [mEh]      52.52497228 [kcal/mol]     219.76450510 [kJ/mol]

    Induction                     -54.50783385 [mEh]     -34.20418356 [kcal/mol]    -143.11031777 [kJ/mol]
      Ind20,r                     -72.02511562 [mEh]     -45.19644429 [kcal/mol]    -189.10194106 [kJ/mol]
      Exch-Ind20,r                 39.33156467 [mEh]      24.68093048 [kcal/mol]     103.26502305 [kJ/mol]
      delta HF,r (2)              -21.81428290 [mEh]     -13.68866976 [kcal/mol]     -57.27339976 [kJ/mol]
      Induction (A<-B)            -13.10923154 [mEh]      -8.22616733 [kcal/mol]     -34.41828740 [kJ/mol]
      Induction (B<-A)            -41.39860231 [mEh]     -25.97801624 [kcal/mol]    -108.69203036 [kJ/mol]

    Dispersion                    -12.08255886 [mEh]      -7.58192047 [kcal/mol]     -31.72275829 [kJ/mol]
      Disp20                      -15.69912409 [mEh]      -9.85134951 [kcal/mol]     -41.21805030 [kJ/mol]
      Exch-Disp20                   3.61656523 [mEh]       2.26942904 [kcal/mol]       9.49529200 [kJ/mol]

  Total HF                       -173.81156107 [mEh]    -109.06840578 [kcal/mol]    -456.34225358 [kJ/mol]
  Total SAPT0                    -185.89411993 [mEh]    -116.65032625 [kcal/mol]    -488.06501187 [kJ/mol]

  --------------------------------------------------------------------------------------------------------

*** Psi4 exiting successfully. Buy a developer a beer!
