                               Psi4 1.1 release

  ==> Input File <==

--------------------------------------------------------------------------
memory 2GB

molecule mol {
1 1
  N     -3.176900   -0.159484    1.610700
  H     -4.064736    0.231272    1.286754
  H     -3.344073   -0.671511    2.484928
  H     -2.716861   -0.781886    0.935880
--
-1 1
  O     -1.712061   -1.376836    0.202535
--
0 1
  C     -2.120502    0.885196    1.789506
  C     -0.778939    0.171966    1.804965
  H     -2.324193    1.472649    2.686078
  H     -2.187698    1.541272    0.919482
  H      0.015695    0.910767    1.939153
  H     -0.743553   -0.506827    2.665420
  C     -0.602493   -0.630712    0.492240
  H      0.313894   -1.240346    0.603498
  H     -0.363829    0.113322   -0.301169

symmetry c1
no_reorient
no_com
}

# => Standard Options <= #

set {
basis aug-cc-pvtz
scf_type df
guess sad
freeze_core true
fisapt_do_plot false  # For extra analysis
}

energy('fisapt0')
--------------------------------------------------------------------------

    Molecular point group: c1

    Geometry (in Angstrom), charge = 0, multiplicity = 1:

       Center              X                  Y                   Z               Mass
    ------------   -----------------  -----------------  -----------------  -----------------
           N         -3.176900000000    -0.159484000000     1.610700000000    14.003074004780
           H         -4.064736000000     0.231272000000     1.286754000000     1.007825032070
           H         -3.344073000000    -0.671511000000     2.484928000000     1.007825032070
           H         -2.716861000000    -0.781886000000     0.935880000000     1.007825032070
           O         -1.712061000000    -1.376836000000     0.202535000000    15.994914619560
           C         -2.120502000000     0.885196000000     1.789506000000    12.000000000000
           C         -0.778939000000     0.171966000000     1.804965000000    12.000000000000
           H         -2.324193000000     1.472649000000     2.686078000000     1.007825032070
           H         -2.187698000000     1.541272000000     0.919482000000     1.007825032070
           H          0.015695000000     0.910767000000     1.939153000000     1.007825032070
           H         -0.743553000000    -0.506827000000     2.665420000000     1.007825032070
           C         -0.602493000000    -0.630712000000     0.492240000000    12.000000000000
           H          0.313894000000    -1.240346000000     0.603498000000     1.007825032070
           H         -0.363829000000     0.113322000000    -0.301169000000     1.007825032070

  Charge       = 0
  Multiplicity = 1
  Basis Set: AUG-CC-PVTZ
    Blend: AUG-CC-PVTZ
  Basis Set: (AUG-CC-PVTZ AUX)
    Blend: AUG-CC-PVTZ-JKFIT

    Orbital Energies (a.u.)
    -----------------------

    Doubly Occupied:

       1A    -20.413501     2A    -15.646007     3A    -11.292403
       4A    -11.222327     5A    -11.216834     6A     -1.302675
       7A     -1.213719     8A     -1.036563     9A     -0.888824
      10A     -0.798206    11A     -0.757837    12A     -0.736131
      13A     -0.649521    14A     -0.599596    15A     -0.562303
      16A     -0.556759    17A     -0.510287    18A     -0.489103
      19A     -0.468313    20A     -0.330058    21A     -0.326425

  @DF-RHF Final Energy:  -248.17537310882133

   => Energetics <=

    Nuclear Repulsion Energy =            200.8008053328065898
    One-Electron Energy =                -735.9175760303512561
    Two-Electron Energy =                 286.9413975887233050
    DFT Exchange-Correlation Energy =       0.0000000000000000
    Empirical Dispersion Energy =           0.0000000000000000
    PCM Polarization Energy =               0.0000000000000000
    EFP Energy =                            0.0000000000000000
    Total Energy =                       -248.1753731088213613
  Basis Set: (AUG-CC-PVTZ AUX)
    Blend: AUG-CC-PVTZ-JKFIT
  Basis Set: (AUG-CC-PVTZ AUX)
    Blend: AUG-CC-PVTZ-JKFIT
  Basis Set: (AUG-CC-PVTZ AUX)
    Blend: AUG-CC-PVTZ-JKFIT
  Basis Set: (AUG-CC-PVTZ AUX)
    Blend: AUG-CC-PVTZ-JKFIT
  Basis Set: (AUG-CC-PVTZ AUX)
    Blend: AUG-CC-PVTZ-RI

    SAPT Results
  --------------------------------------------------------------------------------------------------------
    Electrostatics               -280.27842017 [mEh]    -175.87737130 [kcal/mol]    -735.87099217 [kJ/mol]
      Elst10,r                   -280.27842017 [mEh]    -175.87737130 [kcal/mol]    -735.87099217 [kJ/mol]

    Exchange                      117.37585639 [mEh]      73.65446495 [kcal/mol]     308.17031094 [kJ/mol]
      Exch10                      117.37585639 [mEh]      73.65446495 [kcal/mol]     308.17031094 [kJ/mol]
      Exch10(S^2)                 109.97982446 [mEh]      69.01338466 [kcal/mol]     288.75202913 [kJ/mol]

    Induction                     -71.57064840 [mEh]     -44.91126179 [kcal/mol]    -187.90873737 [kJ/mol]
      Ind20,r                    -118.97142818 [mEh]     -74.65570141 [kcal/mol]    -312.35948468 [kJ/mol]
      Exch-Ind20,r                 74.21941006 [mEh]      46.57338490 [kcal/mol]     194.86306112 [kJ/mol]
      delta HF,r (2)              -26.81863028 [mEh]     -16.82894528 [kcal/mol]     -70.41231381 [kJ/mol]
      Induction (A<-B)            -28.13002713 [mEh]     -17.65185926 [kcal/mol]     -73.85538622 [kJ/mol]
      Induction (B<-A)            -43.44062127 [mEh]     -27.25940254 [kcal/mol]    -114.05335116 [kJ/mol]

    Dispersion                    -13.74812647 [mEh]      -8.62707997 [kcal/mol]     -36.09570604 [kJ/mol]
      Disp20                      -18.82220314 [mEh]     -11.81111128 [kcal/mol]     -49.41769434 [kJ/mol]
      Exch-Disp20                   5.07407667 [mEh]       3.18403131 [kcal/mol]      13.32198829 [kJ/mol]

  Total HF                       -234.47321219 [mEh]    -147.13416814 [kcal/mol]    -615.60941860 [kJ/mol]
  Total SAPT0                    -248.22133866 [mEh]    -155.76124811 [kcal/mol]    -651.70512464 [kJ/mol]

  --------------------------------------------------------------------------------------------------------

*** Psi4 exiting successfully. Buy a developer a beer!
