                               Psi4 1.1 release

  ==> Input File <==

--------------------------------------------------------------------------
memory 2GB

molecule mol {
1 1
  N   -5.76353884223015     -1.91517009418630      0.70501225109336
  H   -5.84081245237619     -2.11520496885759     -0.30064636473643
  H   -6.40882305467270     -1.14865557918753      0.93612380710616
  H   -6.17478054583437     -2.79060640086591      1.05143281280082
--
-1 1
  S   -6.90317860430990     -4.61903253888189     -0.52845825115517
  O   -8.11485258526140     -5.25093175024807     -0.95700738251447
  O   -6.53271453225512     -3.42683780758907     -1.31484833350533
  O   -6.86563206192867     -4.29495735314382      0.91411800996612
--
0 1
  C   -4.38262307886767     -1.67088922228706      1.21620123990041
  C   -3.28172816708473     -2.19127232077839      0.29436121170575
  C   -5.57236426601091     -5.80779778121059     -0.81644493289857
  H   -4.32861817962042     -2.13922323707488      2.19810279265955
  H   -4.26158307942325     -0.59739871300170      1.35724823988995
  C   -3.47464105423692     -3.60589776252897     -0.25960779625154
  H   -2.35454782301695     -2.12760215089291      0.87143339272696
  H   -3.16661075688755     -1.49969259247718     -0.54503743179829
  C   -3.82707794579219     -4.66109690477400      0.78617419203130
  H   -2.56055885694710     -3.88939125067962     -0.78805017589939
  H   -4.25593238268619     -3.57004024272238     -1.01930020512300
  C   -4.45780043491397     -5.94187487851777      0.22919486881541
  H   -5.17734748006984     -5.54257484549727     -1.79771391924681
  H   -6.07420247450873     -6.76889357327374     -0.92127238617293
  H   -4.53050586409487     -4.25364028666500      1.51197854131922
  H   -2.93339997158313     -4.93230154381368      1.35682513909863
  H   -3.68106403831382     -6.56223642818638     -0.22988450045485
  H   -4.84394246707289     -6.51272777265803      1.07580518064312

symmetry c1
no_reorient
no_com
}

# => Standard Options <= #

set {
basis aug-cc-pvtz
scf_type df
guess sad
freeze_core true
fisapt_do_plot false  # For extra analysis
}

energy('fisapt0')
--------------------------------------------------------------------------

    Molecular point group: c1

    Geometry (in Angstrom), charge = 0, multiplicity = 1:

       Center              X                  Y                   Z               Mass
    ------------   -----------------  -----------------  -----------------  -----------------
           N         -5.763538842230    -1.915170094186     0.705012251093    14.003074004780
           H         -5.840812452376    -2.115204968858    -0.300646364736     1.007825032070
           H         -6.408823054673    -1.148655579188     0.936123807106     1.007825032070
           H         -6.174780545834    -2.790606400866     1.051432812801     1.007825032070
           S         -6.903178604310    -4.619032538882    -0.528458251155    31.972070999000
           O         -8.114852585261    -5.250931750248    -0.957007382514    15.994914619560
           O         -6.532714532255    -3.426837807589    -1.314848333505    15.994914619560
           O         -6.865632061929    -4.294957353144     0.914118009966    15.994914619560
           C         -4.382623078868    -1.670889222287     1.216201239900    12.000000000000
           C         -3.281728167085    -2.191272320778     0.294361211706    12.000000000000
           C         -5.572364266011    -5.807797781211    -0.816444932899    12.000000000000
           H         -4.328618179620    -2.139223237075     2.198102792660     1.007825032070
           H         -4.261583079423    -0.597398713002     1.357248239890     1.007825032070
           C         -3.474641054237    -3.605897762529    -0.259607796252    12.000000000000
           H         -2.354547823017    -2.127602150893     0.871433392727     1.007825032070
           H         -3.166610756888    -1.499692592477    -0.545037431798     1.007825032070
           C         -3.827077945792    -4.661096904774     0.786174192031    12.000000000000
           H         -2.560558856947    -3.889391250680    -0.788050175899     1.007825032070
           H         -4.255932382686    -3.570040242722    -1.019300205123     1.007825032070
           C         -4.457800434914    -5.941874878518     0.229194868815    12.000000000000
           H         -5.177347480070    -5.542574845497    -1.797713919247     1.007825032070
           H         -6.074202474509    -6.768893573274    -0.921272386173     1.007825032070
           H         -4.530505864095    -4.253640286665     1.511978541319     1.007825032070
           H         -2.933399971583    -4.932301543814     1.356825139099     1.007825032070
           H         -3.681064038314    -6.562236428186    -0.229884500455     1.007825032070
           H         -4.843942467073    -6.512727772658     1.075805180643     1.007825032070

  Charge       = 0
  Multiplicity = 1
  Basis Set: AUG-CC-PVTZ
    Blend: AUG-CC-PVTZ
  Basis Set: (AUG-CC-PVTZ AUX)
    Blend: AUG-CC-PVTZ-JKFIT

    Orbital Energies (a.u.)
    -----------------------

    Doubly Occupied:

       1A    -92.151173     2A    -20.505778     3A    -20.501684
       4A    -20.488718     5A    -15.673432     6A    -11.317827
       7A    -11.260701     8A    -11.236572     9A    -11.233977
      10A    -11.231736    11A    -11.228395    12A     -9.115213
      13A     -6.800520    14A     -6.800349    15A     -6.799969
      16A     -1.445124    17A     -1.318227    18A     -1.292384
      19A     -1.290668    20A     -1.112141    21A     -1.063264
      22A     -0.998951    23A     -0.932916    24A     -0.863520
      25A     -0.801380    26A     -0.789674    27A     -0.761191
      28A     -0.746083    29A     -0.684441    30A     -0.665460
      31A     -0.660234    32A     -0.642111    33A     -0.621312
      34A     -0.620204    35A     -0.610058    36A     -0.583052
      37A     -0.576083    38A     -0.537770    39A     -0.528132
      40A     -0.523932    41A     -0.496563    42A     -0.491271
      43A     -0.485867    44A     -0.478579    45A     -0.466528
      46A     -0.444045    47A     -0.434516    48A     -0.408723
      49A     -0.405823

  @DF-RHF Final Energy:  -912.68091842317801

   => Energetics <=

    Nuclear Repulsion Energy =            871.9920222252019357
    One-Electron Energy =               -2987.0933444678698834
    Two-Electron Energy =                1202.4204038194902751
    DFT Exchange-Correlation Energy =       0.0000000000000000
    Empirical Dispersion Energy =           0.0000000000000000
    PCM Polarization Energy =               0.0000000000000000
    EFP Energy =                            0.0000000000000000
    Total Energy =                       -912.6809184231779000
  Basis Set: (AUG-CC-PVTZ AUX)
    Blend: AUG-CC-PVTZ-JKFIT
  Basis Set: (AUG-CC-PVTZ AUX)
    Blend: AUG-CC-PVTZ-JKFIT
  Basis Set: (AUG-CC-PVTZ AUX)
    Blend: AUG-CC-PVTZ-JKFIT
  Basis Set: (AUG-CC-PVTZ AUX)
    Blend: AUG-CC-PVTZ-JKFIT
  Basis Set: (AUG-CC-PVTZ AUX)
    Blend: AUG-CC-PVTZ-RI

    SAPT Results
  --------------------------------------------------------------------------------------------------------
    Electrostatics               -222.14596372 [mEh]    -139.39870262 [kcal/mol]    -583.24422775 [kJ/mol]
      Elst10,r                   -222.14596372 [mEh]    -139.39870262 [kcal/mol]    -583.24422775 [kJ/mol]

    Exchange                       69.31955457 [mEh]      43.49867903 [kcal/mol]     181.99849051 [kJ/mol]
      Exch10                       69.31955457 [mEh]      43.49867903 [kcal/mol]     181.99849051 [kJ/mol]
      Exch10(S^2)                  67.99090051 [mEh]      42.66493598 [kcal/mol]     178.51010929 [kJ/mol]

    Induction                     -34.89078837 [mEh]     -21.89430117 [kcal/mol]     -91.60576488 [kJ/mol]
      Ind20,r                     -63.59263996 [mEh]     -39.90498570 [kcal/mol]    -166.96247620 [kJ/mol]
      Exch-Ind20,r                 40.89301354 [mEh]      25.66075448 [kcal/mol]     107.36460704 [kJ/mol]
      delta HF,r (2)              -12.19116196 [mEh]      -7.65006994 [kcal/mol]     -32.00789571 [kJ/mol]
      Induction (A<-B)             -7.44544014 [mEh]      -4.67208442 [kcal/mol]     -19.54800309 [kJ/mol]
      Induction (B<-A)            -27.44534823 [mEh]     -17.22221675 [kcal/mol]     -72.05776179 [kJ/mol]

    Dispersion                    -12.68916589 [mEh]      -7.96257214 [kcal/mol]     -33.31540504 [kJ/mol]
      Disp20                      -16.35447181 [mEh]     -10.26258643 [kcal/mol]     -42.93866573 [kJ/mol]
      Exch-Disp20                   3.66530592 [mEh]       2.30001428 [kcal/mol]       9.62326069 [kJ/mol]

  Total HF                       -187.71719753 [mEh]    -117.79432476 [kcal/mol]    -492.85150211 [kJ/mol]
  Total SAPT0                    -200.40636342 [mEh]    -125.75689691 [kcal/mol]    -526.16690715 [kJ/mol]

  --------------------------------------------------------------------------------------------------------

*** Psi4 exiting successfully. Buy a developer a beer!
