                               Psi4 1.1 release

  ==> Input File <==

--------------------------------------------------------------------------
memory 2GB

molecule mol {
1 1
  N      0.680528    4.614820   -4.048005
  H      0.699926    5.584890   -4.388272
  H      1.278044    4.055977   -4.668235
  H      1.085729    4.533581   -3.106524
--
-1 1
  O      1.565248    4.233493   -1.864885
--
0 1
  C     -0.701686    4.072499   -4.003920
  C      1.444422    5.266576   -0.975463
  C     -1.703475    5.093197   -3.477396
  H     -0.995895    3.740394   -5.000654
  H     -0.643580    3.201910   -3.351533
  C     -1.313997    5.785995   -2.169271
  H     -1.877057    5.850103   -4.251154
  H     -2.653264    4.564475   -3.354796
  H     -2.097137    6.509395   -1.929558
  H     -0.416875    6.387594   -2.339097
  C     -1.073895    4.844728   -0.979904
  H     -1.968893    4.809608   -0.352568
  C      0.148120    5.210874   -0.138092
  H     -0.909754    3.827531   -1.338975
  H      1.474250    6.264638   -1.476917
  H      2.289622    5.303267   -0.264450
  H      0.261827    4.450942    0.640711
  H     -0.002516    6.171031    0.371483

symmetry c1
no_reorient
no_com
}

# => Standard Options <= #

set {
basis aug-cc-pvtz
scf_type df
guess sad
freeze_core true
fisapt_do_plot false  # For extra analysis
}

energy('fisapt0')
--------------------------------------------------------------------------

    Molecular point group: c1

    Geometry (in Angstrom), charge = 0, multiplicity = 1:

       Center              X                  Y                   Z               Mass
    ------------   -----------------  -----------------  -----------------  -----------------
           N          0.680528000000     4.614820000000    -4.048005000000    14.003074004780
           H          0.699926000000     5.584890000000    -4.388272000000     1.007825032070
           H          1.278044000000     4.055977000000    -4.668235000000     1.007825032070
           H          1.085729000000     4.533581000000    -3.106524000000     1.007825032070
           O          1.565248000000     4.233493000000    -1.864885000000    15.994914619560
           C         -0.701686000000     4.072499000000    -4.003920000000    12.000000000000
           C          1.444422000000     5.266576000000    -0.975463000000    12.000000000000
           C         -1.703475000000     5.093197000000    -3.477396000000    12.000000000000
           H         -0.995895000000     3.740394000000    -5.000654000000     1.007825032070
           H         -0.643580000000     3.201910000000    -3.351533000000     1.007825032070
           C         -1.313997000000     5.785995000000    -2.169271000000    12.000000000000
           H         -1.877057000000     5.850103000000    -4.251154000000     1.007825032070
           H         -2.653264000000     4.564475000000    -3.354796000000     1.007825032070
           H         -2.097137000000     6.509395000000    -1.929558000000     1.007825032070
           H         -0.416875000000     6.387594000000    -2.339097000000     1.007825032070
           C         -1.073895000000     4.844728000000    -0.979904000000    12.000000000000
           H         -1.968893000000     4.809608000000    -0.352568000000     1.007825032070
           C          0.148120000000     5.210874000000    -0.138092000000    12.000000000000
           H         -0.909754000000     3.827531000000    -1.338975000000     1.007825032070
           H          1.474250000000     6.264638000000    -1.476917000000     1.007825032070
           H          2.289622000000     5.303267000000    -0.264450000000     1.007825032070
           H          0.261827000000     4.450942000000     0.640711000000     1.007825032070
           H         -0.002516000000     6.171031000000     0.371483000000     1.007825032070

  Charge       = 0
  Multiplicity = 1
  Basis Set: AUG-CC-PVTZ
    Blend: AUG-CC-PVTZ
  Basis Set: (AUG-CC-PVTZ AUX)
    Blend: AUG-CC-PVTZ-JKFIT

    Orbital Energies (a.u.)
    -----------------------

    Doubly Occupied:

       1A    -20.409068     2A    -15.644729     3A    -11.293670
       4A    -11.244980     5A    -11.218881     6A    -11.207924
       7A    -11.196421     8A    -11.177815     9A     -1.297707
      10A     -1.212500    11A     -1.085744    12A     -1.010588
      13A     -0.941023    14A     -0.865792    15A     -0.804726
      16A     -0.763023    17A     -0.747284    18A     -0.722266
      19A     -0.653495    20A     -0.633177    21A     -0.621525
      22A     -0.577431    23A     -0.563711    24A     -0.546854
      25A     -0.524842    26A     -0.503807    27A     -0.498643
      28A     -0.475922    29A     -0.450054    30A     -0.437458
      31A     -0.432652    32A     -0.324647    33A     -0.322337

  @DF-RHF Final Energy:  -365.31311387101840

   => Energetics <=

    Nuclear Repulsion Energy =            429.7810922578372583
    One-Electron Energy =               -1349.3670128615785870
    Two-Electron Energy =                 554.2728067327229837
    DFT Exchange-Correlation Energy =       0.0000000000000000
    Empirical Dispersion Energy =           0.0000000000000000
    PCM Polarization Energy =               0.0000000000000000
    EFP Energy =                            0.0000000000000000
    Total Energy =                       -365.3131138710183450
  Basis Set: (AUG-CC-PVTZ AUX)
    Blend: AUG-CC-PVTZ-JKFIT
  Basis Set: (AUG-CC-PVTZ AUX)
    Blend: AUG-CC-PVTZ-JKFIT
  Basis Set: (AUG-CC-PVTZ AUX)
    Blend: AUG-CC-PVTZ-JKFIT
  Basis Set: (AUG-CC-PVTZ AUX)
    Blend: AUG-CC-PVTZ-JKFIT
  Basis Set: (AUG-CC-PVTZ AUX)
    Blend: AUG-CC-PVTZ-RI

    SAPT Results
  --------------------------------------------------------------------------------------------------------
    Electrostatics               -296.56449881 [mEh]    -186.09704036 [kcal/mol]    -778.63009162 [kJ/mol]
      Elst10,r                   -296.56449881 [mEh]    -186.09704036 [kcal/mol]    -778.63009162 [kJ/mol]

    Exchange                      128.77430375 [mEh]      80.80709896 [kcal/mol]     338.09693449 [kJ/mol]
      Exch10                      128.77430375 [mEh]      80.80709896 [kcal/mol]     338.09693449 [kJ/mol]
      Exch10(S^2)                 120.40382082 [mEh]      75.55454140 [kcal/mol]     316.12023157 [kJ/mol]

    Induction                     -71.88578119 [mEh]     -45.10901061 [kcal/mol]    -188.73611851 [kJ/mol]
      Ind20,r                    -148.80570762 [mEh]     -93.37699518 [kcal/mol]    -390.68938535 [kJ/mol]
      Exch-Ind20,r                101.54287060 [mEh]      63.71911596 [kcal/mol]     266.60080675 [kJ/mol]
      delta HF,r (2)              -24.62294417 [mEh]     -15.45113138 [kcal/mol]     -64.64753991 [kJ/mol]
      Induction (A<-B)            -30.14831430 [mEh]     -18.91835363 [kcal/mol]     -79.15439921 [kJ/mol]
      Induction (B<-A)            -41.73746688 [mEh]     -26.19065698 [kcal/mol]    -109.58171930 [kJ/mol]

    Dispersion                    -14.10566228 [mEh]      -8.85143709 [kcal/mol]     -37.03441632 [kJ/mol]
      Disp20                      -20.26183071 [mEh]     -12.71449126 [kcal/mol]     -53.19743653 [kJ/mol]
      Exch-Disp20                   6.15616843 [mEh]       3.86305417 [kcal/mol]      16.16302021 [kJ/mol]

  Total HF                       -239.67597625 [mEh]    -150.39895202 [kcal/mol]    -629.26927563 [kJ/mol]
  Total SAPT0                    -253.78163853 [mEh]    -159.25038910 [kcal/mol]    -666.30369195 [kJ/mol]

  --------------------------------------------------------------------------------------------------------

*** Psi4 exiting successfully. Buy a developer a beer!
