                               Psi4 1.1 release

  ==> Input File <==

--------------------------------------------------------------------------
memory 2GB

molecule mol {
1 1
  N    1.10055208871417     -2.46749227747736     -3.59926909119873
  H    1.70060599146350     -1.75722509223885     -4.07837772892521
  H    0.29385515315016     -2.35976611333848     -4.25632433732008
  H    1.50132417792186     -3.42847874342986     -3.69491499151003
--
-1 1
  C    0.39595827375538     -0.37069586279003     -5.33993942241200
  O   -0.32632925825688     -1.39039817422041     -5.49127878122901
  O    1.61941221571514     -0.40072627782657     -5.03682695028978
--
0 1
  C    0.81606673724241     -2.10149058870509     -2.18654640454073
  H    1.69623183089009     -2.36869143989330     -1.60045720521435
  C    0.51624257596063     -0.61363434016829     -2.03937303604041
  H   -0.02006587904244     -2.71284938037043     -1.84084413400210
  C   -0.86862067924298     -0.19392482334263     -2.54630304976128
  C   -0.98480092879417      1.28473879161483     -2.92868617924178
  H   -0.76493940288803      1.90411646357744     -2.05156825699074
  H   -2.03261285669165      1.47895328307028     -3.17895231040188
  C   -0.10608468153276      1.76991388264695     -4.08983603216727
  H   -0.34774375926214      2.82219601244361     -4.26294213025306
  H    0.94968329017289      1.74587544419840     -3.80878112139977
  C   -0.25874724475583      1.00432256078874     -5.40982893674845
  H    0.23915015980210      1.56939264527327     -6.20125273283106
  H   -1.30936043093542      0.88869370937366     -5.68245461672084
  H   -1.60727053932045     -0.41265124021545     -1.76895462709808
  H   -1.15723448037438     -0.79616429021186     -3.40925356245728
  H    1.29904365537052     -0.05680475906092     -2.55898241077219
  H    0.61239299093826     -0.36557938969762     -0.97917095047386

symmetry c1
no_reorient
no_com
}

# => Standard Options <= #

set {
basis aug-cc-pvtz
scf_type df
guess sad
freeze_core true
fisapt_do_plot false  # For extra analysis
}

energy('fisapt0')
--------------------------------------------------------------------------

    Molecular point group: c1

    Geometry (in Angstrom), charge = 0, multiplicity = 1:

       Center              X                  Y                   Z               Mass
    ------------   -----------------  -----------------  -----------------  -----------------
           N          1.100552088714    -2.467492277477    -3.599269091199    14.003074004780
           H          1.700605991464    -1.757225092239    -4.078377728925     1.007825032070
           H          0.293855153150    -2.359766113338    -4.256324337320     1.007825032070
           H          1.501324177922    -3.428478743430    -3.694914991510     1.007825032070
           C          0.395958273755    -0.370695862790    -5.339939422412    12.000000000000
           O         -0.326329258257    -1.390398174220    -5.491278781229    15.994914619560
           O          1.619412215715    -0.400726277827    -5.036826950290    15.994914619560
           C          0.816066737242    -2.101490588705    -2.186546404541    12.000000000000
           H          1.696231830890    -2.368691439893    -1.600457205214     1.007825032070
           C          0.516242575961    -0.613634340168    -2.039373036040    12.000000000000
           H         -0.020065879042    -2.712849380370    -1.840844134002     1.007825032070
           C         -0.868620679243    -0.193924823343    -2.546303049761    12.000000000000
           C         -0.984800928794     1.284738791615    -2.928686179242    12.000000000000
           H         -0.764939402888     1.904116463577    -2.051568256991     1.007825032070
           H         -2.032612856692     1.478953283070    -3.178952310402     1.007825032070
           C         -0.106084681533     1.769913882647    -4.089836032167    12.000000000000
           H         -0.347743759262     2.822196012444    -4.262942130253     1.007825032070
           H          0.949683290173     1.745875444198    -3.808781121400     1.007825032070
           C         -0.258747244756     1.004322560789    -5.409828936748    12.000000000000
           H          0.239150159802     1.569392645273    -6.201252732831     1.007825032070
           H         -1.309360430935     0.888693709374    -5.682454616721     1.007825032070
           H         -1.607270539320    -0.412651240215    -1.768954627098     1.007825032070
           H         -1.157234480374    -0.796164290212    -3.409253562457     1.007825032070
           H          1.299043655371    -0.056804759061    -2.558982410772     1.007825032070
           H          0.612392990938    -0.365579389698    -0.979170950474     1.007825032070

  Charge       = 0
  Multiplicity = 1
  Basis Set: AUG-CC-PVTZ
    Blend: AUG-CC-PVTZ
  Basis Set: (AUG-CC-PVTZ AUX)
    Blend: AUG-CC-PVTZ-JKFIT

    Orbital Energies (a.u.)
    -----------------------

    Doubly Occupied:

       1A    -20.479995     2A    -20.479456     3A    -15.653069
       4A    -11.316141     5A    -11.301825     6A    -11.237952
       7A    -11.219687     8A    -11.216196     9A    -11.209567
      10A    -11.201403    11A     -1.372605    12A     -1.285105
      13A     -1.259563    14A     -1.093677    15A     -1.040849
      16A     -0.980782    17A     -0.899292    18A     -0.851049
      19A     -0.775859    20A     -0.755102    21A     -0.729399
      22A     -0.701639    23A     -0.667986    24A     -0.638347
      25A     -0.627639    26A     -0.616807    27A     -0.594620
      28A     -0.580841    29A     -0.565716    30A     -0.544726
      31A     -0.539760    32A     -0.522091    33A     -0.501321
      34A     -0.493235    35A     -0.463578    36A     -0.449329
      37A     -0.444592    38A     -0.399587    39A     -0.389247
      40A     -0.384801

  @DF-RHF Final Energy:  -478.15818356886615

   => Energetics <=

    Nuclear Repulsion Energy =            605.3323483832926968
    One-Electron Energy =               -1854.0121875760899002
    Two-Electron Energy =                 770.5216556239311103
    DFT Exchange-Correlation Energy =       0.0000000000000000
    Empirical Dispersion Energy =           0.0000000000000000
    PCM Polarization Energy =               0.0000000000000000
    EFP Energy =                            0.0000000000000000
    Total Energy =                       -478.1581835688662068
  Basis Set: (AUG-CC-PVTZ AUX)
    Blend: AUG-CC-PVTZ-JKFIT
  Basis Set: (AUG-CC-PVTZ AUX)
    Blend: AUG-CC-PVTZ-JKFIT
  Basis Set: (AUG-CC-PVTZ AUX)
    Blend: AUG-CC-PVTZ-JKFIT
  Basis Set: (AUG-CC-PVTZ AUX)
    Blend: AUG-CC-PVTZ-JKFIT
  Basis Set: (AUG-CC-PVTZ AUX)
    Blend: AUG-CC-PVTZ-RI

    SAPT Results
  --------------------------------------------------------------------------------------------------------
    Electrostatics               -267.14942094 [mEh]    -167.63879956 [kcal/mol]    -701.40080467 [kJ/mol]
      Elst10,r                   -267.14942094 [mEh]    -167.63879956 [kcal/mol]    -701.40080467 [kJ/mol]

    Exchange                       87.82103602 [mEh]      55.10853440 [kcal/mol]     230.57413006 [kJ/mol]
      Exch10                       87.82103602 [mEh]      55.10853440 [kcal/mol]     230.57413006 [kJ/mol]
      Exch10(S^2)                  85.80680707 [mEh]      53.84458660 [kcal/mol]     225.28577196 [kJ/mol]

    Induction                     -44.45217756 [mEh]     -27.89416371 [kcal/mol]    -116.70919218 [kJ/mol]
      Ind20,r                     -80.48802643 [mEh]     -50.50700122 [kcal/mol]    -211.32131339 [kJ/mol]
      Exch-Ind20,r                 52.99142698 [mEh]      33.25262385 [kcal/mol]     139.12899152 [kJ/mol]
      delta HF,r (2)              -16.95557811 [mEh]     -10.63978634 [kcal/mol]     -44.51687032 [kJ/mol]
      Induction (A<-B)            -13.62136052 [mEh]      -8.54753313 [kcal/mol]     -35.76288205 [kJ/mol]
      Induction (B<-A)            -30.83081704 [mEh]     -19.34663058 [kcal/mol]     -80.94631013 [kJ/mol]

    Dispersion                    -14.94964106 [mEh]      -9.38104179 [kcal/mol]     -39.25028260 [kJ/mol]
      Disp20                      -19.93009908 [mEh]     -12.50632651 [kcal/mol]     -52.32647513 [kJ/mol]
      Exch-Disp20                   4.98045802 [mEh]       3.12528472 [kcal/mol]      13.07619254 [kJ/mol]

  Total HF                       -223.78056248 [mEh]    -140.42442887 [kcal/mol]    -587.53586680 [kJ/mol]
  Total SAPT0                    -238.73020354 [mEh]    -149.80547066 [kcal/mol]    -626.78614939 [kJ/mol]

  --------------------------------------------------------------------------------------------------------

*** Psi4 exiting successfully. Buy a developer a beer!
