                               Psi4 1.1 release

  ==> Input File <==

--------------------------------------------------------------------------
memory 2GB

molecule mol {
1 1
  N   -1.08066917485929      3.79295716904080      5.15685738529579
  H   -0.87448820994566      4.76273669430624      5.42734404752623
  H   -0.68079276269827      3.13476207100411      5.83899982088274
  H   -2.05754955770866      3.53169096852038      5.34619686655228
--
-1 1
  C   -2.07841859712748      1.48042140192617      6.56409754430678
  O   -0.90125151908755      1.85815580666537      6.82810392868327
  O   -2.93658243146526      2.17730943402594      5.96415093051161
--
0 1
  C   -0.69912274446286      3.48945114949551      3.75516301250790
  H   -0.96671595306569      4.34901310921256      3.14049072821106
  C    0.77695573772895      3.13839120240963      3.61740781442809
  H   -1.33145545225942      2.65651033197871      3.44632274344449
  H    1.37139818923124      3.88834184167537      4.14974428893862
  H    1.04692614532659      3.23205669513528      2.56133071668078
  C    1.11891710514087      1.73116988742490      4.11515536755442
  H    2.20057319694071      1.65422609092753      4.25488237153010
  C    0.65946643905142      0.63518223027940      3.15330571330501
  H    0.67702393724897      1.57667420687725      5.10315049489046
  H    1.31228798023081      0.63887034052592      2.27420661500811
  H   -0.33956307779536      0.86804937925156      2.77287623070120
  C    0.63995683587287     -0.77117532985334      3.75561871022193
  C   -0.34182074522006     -0.96553664646882      4.91504555048172
  H    1.64826557103701     -1.02866459835602      4.09701450961763
  H    0.39856761721770     -1.48238609455668      2.95845273613268
  H   -0.27989249845988     -2.00564602925052      5.25254701479986
  C   -1.78916386267702     -0.63923149415162      4.55749611816624
  H   -0.03238041329046     -0.35291826345959      5.76511779864826
  H   -2.10715126791527     -1.27010207744427      3.71961942951780
  H   -1.85635204986975      0.39163608826319      4.19760351160565
  C   -2.79070042671666     -0.78527473936702      5.70281243130836
  H   -2.86730793603917     -1.83565092064048      6.00167457933461
  H   -3.77455390561600     -0.48657697602186      5.33480708300890
  C   -2.45379669235908      0.05510147096220      6.94144503886623
  H   -1.62558397204322     -0.38216310147529      7.49891396425670
  H   -3.32527350434504      0.08774570113745      7.59917490307443

symmetry c1
no_reorient
no_com
}

# => Standard Options <= #

set {
basis aug-cc-pvtz
scf_type df
guess sad
freeze_core true
fisapt_do_plot false  # For extra analysis
}

energy('fisapt0')
--------------------------------------------------------------------------

    Molecular point group: c1

    Geometry (in Angstrom), charge = 0, multiplicity = 1:

       Center              X                  Y                   Z               Mass
    ------------   -----------------  -----------------  -----------------  -----------------
           N         -1.080669174859     3.792957169041     5.156857385296    14.003074004780
           H         -0.874488209946     4.762736694306     5.427344047526     1.007825032070
           H         -0.680792762698     3.134762071004     5.838999820883     1.007825032070
           H         -2.057549557709     3.531690968520     5.346196866552     1.007825032070
           C         -2.078418597127     1.480421401926     6.564097544307    12.000000000000
           O         -0.901251519088     1.858155806665     6.828103928683    15.994914619560
           O         -2.936582431465     2.177309434026     5.964150930512    15.994914619560
           C         -0.699122744463     3.489451149496     3.755163012508    12.000000000000
           H         -0.966715953066     4.349013109213     3.140490728211     1.007825032070
           C          0.776955737729     3.138391202410     3.617407814428    12.000000000000
           H         -1.331455452259     2.656510331979     3.446322743444     1.007825032070
           H          1.371398189231     3.888341841675     4.149744288939     1.007825032070
           H          1.046926145327     3.232056695135     2.561330716681     1.007825032070
           C          1.118917105141     1.731169887425     4.115155367554    12.000000000000
           H          2.200573196941     1.654226090928     4.254882371530     1.007825032070
           C          0.659466439051     0.635182230279     3.153305713305    12.000000000000
           H          0.677023937249     1.576674206877     5.103150494890     1.007825032070
           H          1.312287980231     0.638870340526     2.274206615008     1.007825032070
           H         -0.339563077795     0.868049379252     2.772876230701     1.007825032070
           C          0.639956835873    -0.771175329853     3.755618710222    12.000000000000
           C         -0.341820745220    -0.965536646469     4.915045550482    12.000000000000
           H          1.648265571037    -1.028664598356     4.097014509618     1.007825032070
           H          0.398567617218    -1.482386094557     2.958452736133     1.007825032070
           H         -0.279892498460    -2.005646029251     5.252547014800     1.007825032070
           C         -1.789163862677    -0.639231494152     4.557496118166    12.000000000000
           H         -0.032380413290    -0.352918263460     5.765117798648     1.007825032070
           H         -2.107151267915    -1.270102077444     3.719619429518     1.007825032070
           H         -1.856352049870     0.391636088263     4.197603511606     1.007825032070
           C         -2.790700426717    -0.785274739367     5.702812431308    12.000000000000
           H         -2.867307936039    -1.835650920640     6.001674579335     1.007825032070
           H         -3.774553905616    -0.486576976022     5.334807083009     1.007825032070
           C         -2.453796692359     0.055101470962     6.941445038866    12.000000000000
           H         -1.625583972043    -0.382163101475     7.498913964257     1.007825032070
           H         -3.325273504345     0.087745701137     7.599174903074     1.007825032070

  Charge       = 0
  Multiplicity = 1
  Basis Set: AUG-CC-PVTZ
    Blend: AUG-CC-PVTZ
  Basis Set: (AUG-CC-PVTZ AUX)
    Blend: AUG-CC-PVTZ-JKFIT

    Orbital Energies (a.u.)
    -----------------------

    Doubly Occupied:

       1A    -20.480908     2A    -20.479000     3A    -15.646733
       4A    -11.315598     5A    -11.297570     6A    -11.246716
       7A    -11.220518     8A    -11.217788     9A    -11.211558
      10A    -11.203608    11A    -11.202295    12A    -11.200515
      13A    -11.196402    14A     -1.371147    15A     -1.290639
      16A     -1.258805    17A     -1.101909    18A     -1.070052
      19A     -1.033849    20A     -0.975046    21A     -0.933221
      22A     -0.882722    23A     -0.832515    24A     -0.801438
      25A     -0.773059    26A     -0.752767    27A     -0.731857
      28A     -0.687992    29A     -0.665115    30A     -0.643599
      31A     -0.640464    32A     -0.620846    33A     -0.615770
      34A     -0.592003    35A     -0.586926    36A     -0.570175
      37A     -0.564829    38A     -0.556940    39A     -0.536730
      40A     -0.530290    41A     -0.509526    42A     -0.503860
      43A     -0.497033    44A     -0.478281    45A     -0.464709
      46A     -0.459916    47A     -0.442601    48A     -0.436510
      49A     -0.431208    50A     -0.399879    51A     -0.389630
      52A     -0.383853

  @DF-RHF Final Energy:  -595.30537077895292

   => Energetics <=

    Nuclear Repulsion Energy =            915.0156264352817743
    One-Electron Energy =               -2628.7681443682267854
    Two-Electron Energy =                1118.4471471539920913
    DFT Exchange-Correlation Energy =       0.0000000000000000
    Empirical Dispersion Energy =           0.0000000000000000
    PCM Polarization Energy =               0.0000000000000000
    EFP Energy =                            0.0000000000000000
    Total Energy =                       -595.3053707789529199
  Basis Set: (AUG-CC-PVTZ AUX)
    Blend: AUG-CC-PVTZ-JKFIT
  Basis Set: (AUG-CC-PVTZ AUX)
    Blend: AUG-CC-PVTZ-JKFIT
  Basis Set: (AUG-CC-PVTZ AUX)
    Blend: AUG-CC-PVTZ-JKFIT
  Basis Set: (AUG-CC-PVTZ AUX)
    Blend: AUG-CC-PVTZ-JKFIT
  Basis Set: (AUG-CC-PVTZ AUX)
    Blend: AUG-CC-PVTZ-RI

    SAPT Results
  --------------------------------------------------------------------------------------------------------
    Electrostatics               -275.55261445 [mEh]    -172.91188332 [kcal/mol]    -723.46338925 [kJ/mol]
      Elst10,r                   -275.55261445 [mEh]    -172.91188332 [kcal/mol]    -723.46338925 [kJ/mol]

    Exchange                       88.87753715 [mEh]      55.77149890 [kcal/mol]     233.34797377 [kJ/mol]
      Exch10                       88.87753715 [mEh]      55.77149890 [kcal/mol]     233.34797377 [kJ/mol]
      Exch10(S^2)                  86.66966799 [mEh]      54.38604003 [kcal/mol]     227.55121331 [kJ/mol]

    Induction                     -44.45635305 [mEh]     -27.89678387 [kcal/mol]    -116.72015492 [kJ/mol]
      Ind20,r                     -81.52445682 [mEh]     -51.15737114 [kcal/mol]    -214.04246138 [kJ/mol]
      Exch-Ind20,r                 53.57338621 [mEh]      33.61780879 [kcal/mol]     140.65692548 [kJ/mol]
      delta HF,r (2)              -16.50528243 [mEh]     -10.35722153 [kcal/mol]     -43.33461903 [kJ/mol]
      Induction (A<-B)            -13.98592110 [mEh]      -8.77629836 [kcal/mol]     -36.72003586 [kJ/mol]
      Induction (B<-A)            -30.47043194 [mEh]     -19.12048551 [kcal/mol]     -80.00011907 [kJ/mol]

    Dispersion                    -14.59907315 [mEh]      -9.16105709 [kcal/mol]     -38.32986654 [kJ/mol]
      Disp20                      -19.55969605 [mEh]     -12.27389509 [kcal/mol]     -51.35398197 [kJ/mol]
      Exch-Disp20                   4.96062290 [mEh]       3.11283800 [kcal/mol]      13.02411543 [kJ/mol]

  Total HF                       -231.13143035 [mEh]    -145.03716830 [kcal/mol]    -606.83557040 [kJ/mol]
  Total SAPT0                    -245.73050350 [mEh]    -154.19822539 [kcal/mol]    -645.16543694 [kJ/mol]

  --------------------------------------------------------------------------------------------------------

*** Psi4 exiting successfully. Buy a developer a beer!
