                               Psi4 1.1 release

  ==> Input File <==

--------------------------------------------------------------------------
memory 2GB

molecule mol {
1 1
  N   -3.03010802996344     -1.91085698300007     -4.54107381742999
  H   -3.47744291055849     -2.79151285048975     -4.25709593036079
  H   -2.53801341361208     -2.01785996805920     -5.43807543700154
  H   -3.89158877965842     -1.37603852045161     -4.71436503875806
--
-1 1
  S   -6.01965886865847     -2.92696536364214     -4.41912849357646
  O   -5.64582952425166     -1.58838385949231     -4.91930700060193
  O   -4.88196091756499     -3.50369656015453     -3.66723503438814
  O   -6.54926738281223     -3.80514951285478     -5.42507063143538
--
0 1
  C   -2.16037555541677     -1.36948629830854     -3.46710372953529
  C   -2.04771650973753      0.14658321887388     -3.51177430695476
  C   -7.33043992223276     -2.67899058199158     -3.20681098297805
  H   -1.18443825539874     -1.84399734807476     -3.56639268692608
  H   -2.59819497113749     -1.70837609627743     -2.52847706862327
  C   -3.32875509138943      0.87503716305976     -3.10366920798985
  H   -1.74003390022663      0.45234260284813     -4.51712603569840
  H   -1.23261061120350      0.43493809014520     -2.84220809302021
  C   -3.62848746663121      0.77160055259619     -1.60936266489861
  H   -4.17510586250952      0.49079106430491     -3.68220311955098
  H   -3.23781244167171      1.92866267983199     -3.38148026431786
  C   -4.97571800619043      1.36143218520543     -1.19064358092472
  H   -2.83070046693720      1.27623379731250     -1.05476562539092
  H   -3.59431173637945     -0.27583813686627     -1.29460266859388
  C   -6.18471972531181      0.78434657190612     -1.92646404973750
  H   -4.95629159075651      2.44572526239768     -1.34219956515884
  H   -5.09725631207324      1.20525150719183     -0.11413606508544
  C   -6.28692144371843     -0.73588173244676     -1.89353112756117
  H   -6.16399381471729      1.10019920482636     -2.97424958633525
  H   -7.09453029446805      1.22345936469084     -1.50450890010372
  C   -7.46899884654230     -1.24615271537452     -2.71383278466789
  H   -6.36064146171857     -1.09034705797104     -0.85917577911896
  H   -5.36984843579279     -1.17185269158493     -2.29598192346810
  H   -7.60191373375158     -0.60134883305503     -3.58532920200977
  H   -8.38979142915680     -1.17343628142172     -2.12692217812372
  H   -7.11825406086471     -3.37981831436294     -2.39805475494193
  H   -8.24183822698380     -3.00474455931058     -3.70651266473138

symmetry c1
no_reorient
no_com
}

# => Standard Options <= #

set {
basis aug-cc-pvtz
scf_type df
guess sad
freeze_core true
fisapt_do_plot false  # For extra analysis
}

energy('fisapt0')
--------------------------------------------------------------------------

    Molecular point group: c1

    Geometry (in Angstrom), charge = 0, multiplicity = 1:

       Center              X                  Y                   Z               Mass
    ------------   -----------------  -----------------  -----------------  -----------------
           N         -3.030108029963    -1.910856983000    -4.541073817430    14.003074004780
           H         -3.477442910558    -2.791512850490    -4.257095930361     1.007825032070
           H         -2.538013413612    -2.017859968059    -5.438075437002     1.007825032070
           H         -3.891588779658    -1.376038520452    -4.714365038758     1.007825032070
           S         -6.019658868658    -2.926965363642    -4.419128493576    31.972070999000
           O         -5.645829524252    -1.588383859492    -4.919307000602    15.994914619560
           O         -4.881960917565    -3.503696560155    -3.667235034388    15.994914619560
           O         -6.549267382812    -3.805149512855    -5.425070631435    15.994914619560
           C         -2.160375555417    -1.369486298309    -3.467103729535    12.000000000000
           C         -2.047716509738     0.146583218874    -3.511774306955    12.000000000000
           C         -7.330439922233    -2.678990581992    -3.206810982978    12.000000000000
           H         -1.184438255399    -1.843997348075    -3.566392686926     1.007825032070
           H         -2.598194971137    -1.708376096277    -2.528477068623     1.007825032070
           C         -3.328755091389     0.875037163060    -3.103669207990    12.000000000000
           H         -1.740033900227     0.452342602848    -4.517126035698     1.007825032070
           H         -1.232610611204     0.434938090145    -2.842208093020     1.007825032070
           C         -3.628487466631     0.771600552596    -1.609362664899    12.000000000000
           H         -4.175105862510     0.490791064305    -3.682203119551     1.007825032070
           H         -3.237812441672     1.928662679832    -3.381480264318     1.007825032070
           C         -4.975718006190     1.361432185205    -1.190643580925    12.000000000000
           H         -2.830700466937     1.276233797312    -1.054765625391     1.007825032070
           H         -3.594311736379    -0.275838136866    -1.294602668594     1.007825032070
           C         -6.184719725312     0.784346571906    -1.926464049738    12.000000000000
           H         -4.956291590757     2.445725262398    -1.342199565159     1.007825032070
           H         -5.097256312073     1.205251507192    -0.114136065085     1.007825032070
           C         -6.286921443718    -0.735881732447    -1.893531127561    12.000000000000
           H         -6.163993814717     1.100199204826    -2.974249586335     1.007825032070
           H         -7.094530294468     1.223459364691    -1.504508900104     1.007825032070
           C         -7.468998846542    -1.246152715375    -2.713832784668    12.000000000000
           H         -6.360641461719    -1.090347057971    -0.859175779119     1.007825032070
           H         -5.369848435793    -1.171852691585    -2.295981923468     1.007825032070
           H         -7.601913733752    -0.601348833055    -3.585329202010     1.007825032070
           H         -8.389791429157    -1.173436281422    -2.126922178124     1.007825032070
           H         -7.118254060865    -3.379818314363    -2.398054754942     1.007825032070
           H         -8.241838226984    -3.004744559311    -3.706512664731     1.007825032070

  Charge       = 0
  Multiplicity = 1
  Basis Set: AUG-CC-PVTZ
    Blend: AUG-CC-PVTZ
  Basis Set: (AUG-CC-PVTZ AUX)
    Blend: AUG-CC-PVTZ-JKFIT

    Orbital Energies (a.u.)
    -----------------------

    Doubly Occupied:

       1A    -92.148266     2A    -20.502781     3A    -20.502451
       4A    -20.487058     5A    -15.670004     6A    -11.312182
       7A    -11.260961     8A    -11.239975     9A    -11.231624
      10A    -11.231018    11A    -11.223896    12A    -11.217391
      13A    -11.216299    14A    -11.213184    15A     -9.112757
      16A     -6.797998    17A     -6.797822    18A     -6.797466
      19A     -1.442511    20A     -1.316060    21A     -1.289603
      22A     -1.287751    23A     -1.117958    24A     -1.085969
      25A     -1.052295    26A     -0.996315    27A     -0.952638
      28A     -0.896924    29A     -0.848529    30A     -0.820892
      31A     -0.789502    32A     -0.770515    33A     -0.753040
      34A     -0.749022    35A     -0.682793    36A     -0.665696
      37A     -0.658950    38A     -0.649639    39A     -0.629813
      40A     -0.625272    41A     -0.615820    42A     -0.599285
      43A     -0.588826    44A     -0.577818    45A     -0.570883
      46A     -0.555235    47A     -0.538850    48A     -0.522224
      49A     -0.516388    50A     -0.501122    51A     -0.494016
      52A     -0.490097    53A     -0.485230    54A     -0.473748
      55A     -0.459426    56A     -0.455456    57A     -0.450338
      58A     -0.443276    59A     -0.431619    60A     -0.408347
      61A     -0.404247

  @DF-RHF Final Energy: -1029.83258866196593

   => Energetics <=

    Nuclear Repulsion Energy =           1206.1616465165927821
    One-Electron Energy =               -3810.7343275121120314
    Two-Electron Energy =                1574.7400923335535481
    DFT Exchange-Correlation Energy =       0.0000000000000000
    Empirical Dispersion Energy =           0.0000000000000000
    PCM Polarization Energy =               0.0000000000000000
    EFP Energy =                            0.0000000000000000
    Total Energy =                      -1029.8325886619659286
  Basis Set: (AUG-CC-PVTZ AUX)
    Blend: AUG-CC-PVTZ-JKFIT
  Basis Set: (AUG-CC-PVTZ AUX)
    Blend: AUG-CC-PVTZ-JKFIT
  Basis Set: (AUG-CC-PVTZ AUX)
    Blend: AUG-CC-PVTZ-JKFIT
  Basis Set: (AUG-CC-PVTZ AUX)
    Blend: AUG-CC-PVTZ-JKFIT
  Basis Set: (AUG-CC-PVTZ AUX)
    Blend: AUG-CC-PVTZ-RI

    SAPT Results
  --------------------------------------------------------------------------------------------------------
    Electrostatics               -234.14735504 [mEh]    -146.92968969 [kcal/mol]    -614.75388066 [kJ/mol]
      Elst10,r                   -234.14735504 [mEh]    -146.92968969 [kcal/mol]    -614.75388066 [kJ/mol]

    Exchange                       69.99458135 [mEh]      43.92226474 [kcal/mol]     183.77077332 [kJ/mol]
      Exch10                       69.99458135 [mEh]      43.92226474 [kcal/mol]     183.77077332 [kJ/mol]
      Exch10(S^2)                  68.60266406 [mEh]      43.04882342 [kcal/mol]     180.11629449 [kJ/mol]

    Induction                     -35.34243094 [mEh]     -22.17771117 [kcal/mol]     -92.79155244 [kJ/mol]
      Ind20,r                     -64.04128335 [mEh]     -40.18651369 [kcal/mol]    -168.14038944 [kJ/mol]
      Exch-Ind20,r                 41.02862171 [mEh]      25.74584990 [kcal/mol]     107.72064630 [kJ/mol]
      delta HF,r (2)              -12.32976930 [mEh]      -7.73704737 [kcal/mol]     -32.37180930 [kJ/mol]
      Induction (A<-B)             -7.96820053 [mEh]      -5.00012153 [kcal/mol]     -20.92051049 [kJ/mol]
      Induction (B<-A)            -27.37423041 [mEh]     -17.17758964 [kcal/mol]     -71.87104194 [kJ/mol]

    Dispersion                    -12.95187226 [mEh]      -8.12742288 [kcal/mol]     -34.00514061 [kJ/mol]
      Disp20                      -16.69264797 [mEh]     -10.47479518 [kcal/mol]     -43.82654724 [kJ/mol]
      Exch-Disp20                   3.74077571 [mEh]       2.34737230 [kcal/mol]       9.82140663 [kJ/mol]

  Total HF                       -199.49520464 [mEh]    -125.18513611 [kcal/mol]    -523.77465978 [kJ/mol]
  Total SAPT0                    -212.44707689 [mEh]    -133.31255900 [kcal/mol]    -557.77980039 [kJ/mol]

  --------------------------------------------------------------------------------------------------------

*** Psi4 exiting successfully. Buy a developer a beer!
