                               Psi4 1.1 release

  ==> Input File <==

--------------------------------------------------------------------------
memory 2GB

molecule mol {
1 1
  C   4.25586804247112      3.70385134850463     -4.72605431448344
  N   3.73403183515138      4.29378349178124     -5.80077012935255
  N   5.51503873886098      3.40725476795129     -4.63718475574677
  H   6.14918688706815      3.60120266249580     -5.39905334440414
  H   5.81358411092688      2.89950388619310     -3.80878546906787
  H   2.74138001626484      4.51310886731342     -5.82470109663063
  H   4.28754816283857      4.52126022688647     -6.61434088449523
--
-1 1
  C   5.01734352973491      1.31521182071668     -2.22130486810223
  O   4.73705506938985      0.85411209978948     -1.12282504204880
  O   5.92814610220347      2.16810809638091     -2.49136468137082
--
0 1
  C   3.34350005093394      3.35457058974267     -3.59199780976274
  C   2.95263326012696      1.86307658588633     -3.57484884311380
  C   4.12920891347371      0.89839402753374     -3.41895027033527
  H   3.73368657161974     -0.10060450851713     -3.23763326927244
  H   4.71909530136736      0.86255588332926     -4.33900522421567
  H   2.27893774274414      1.73524992653171     -2.72549604266386
  H   2.37746631720847      1.62578654059136     -4.47586924409931
  H   3.86124601437151      3.59725223276503     -2.66297851465776
  H   2.44649333324393      3.97346145412396     -3.65655619617661

symmetry c1
no_reorient
no_com
}

# => Standard Options <= #

set {
basis aug-cc-pvtz
scf_type df
guess sad
freeze_core true
fisapt_do_plot false  # For extra analysis
}

energy('fisapt0')
--------------------------------------------------------------------------

    Molecular point group: c1

    Geometry (in Angstrom), charge = 0, multiplicity = 1:

       Center              X                  Y                   Z               Mass
    ------------   -----------------  -----------------  -----------------  -----------------
           C          4.255868042471     3.703851348505    -4.726054314483    12.000000000000
           N          3.734031835151     4.293783491781    -5.800770129353    14.003074004780
           N          5.515038738861     3.407254767951    -4.637184755747    14.003074004780
           H          6.149186887068     3.601202662496    -5.399053344404     1.007825032070
           H          5.813584110927     2.899503886193    -3.808785469068     1.007825032070
           H          2.741380016265     4.513108867313    -5.824701096631     1.007825032070
           H          4.287548162839     4.521260226886    -6.614340884495     1.007825032070
           C          5.017343529735     1.315211820717    -2.221304868102    12.000000000000
           O          4.737055069390     0.854112099789    -1.122825042049    15.994914619560
           O          5.928146102203     2.168108096381    -2.491364681371    15.994914619560
           C          3.343500050934     3.354570589743    -3.591997809763    12.000000000000
           C          2.952633260127     1.863076585886    -3.574848843114    12.000000000000
           C          4.129208913474     0.898394027534    -3.418950270335    12.000000000000
           H          3.733686571620    -0.100604508517    -3.237633269272     1.007825032070
           H          4.719095301367     0.862555883329    -4.339005224216     1.007825032070
           H          2.278937742744     1.735249926532    -2.725496042664     1.007825032070
           H          2.377466317208     1.625786540591    -4.475869244099     1.007825032070
           H          3.861246014372     3.597252232765    -2.662978514658     1.007825032070
           H          2.446493333244     3.973461454124    -3.656556196177     1.007825032070

  Charge       = 0
  Multiplicity = 1
  Basis Set: AUG-CC-PVTZ
    Blend: AUG-CC-PVTZ
  Basis Set: (AUG-CC-PVTZ AUX)
    Blend: AUG-CC-PVTZ-JKFIT

    Orbital Energies (a.u.)
    -----------------------

    Doubly Occupied:

       1A    -20.454613     2A    -20.446122     3A    -15.663270
       4A    -15.621256     5A    -11.411117     6A    -11.289945
       7A    -11.273644     8A    -11.249128     9A    -11.207296
      10A     -1.367456    11A     -1.336552    12A     -1.253673
      13A     -1.230559    14A     -1.101343    15A     -0.994666
      16A     -0.899789    17A     -0.847589    18A     -0.805403
      19A     -0.786470    20A     -0.727559    21A     -0.675602
      22A     -0.667456    23A     -0.633789    24A     -0.620418
      25A     -0.590951    26A     -0.574066    27A     -0.550523
      28A     -0.531754    29A     -0.524186    30A     -0.489156
      31A     -0.477071    32A     -0.467509    33A     -0.377045
      34A     -0.357647    35A     -0.352016

  @DF-RHF Final Energy:  -453.95785243178051

   => Energetics <=

    Nuclear Repulsion Energy =            475.9346002836210232
    One-Electron Energy =               -1564.0716134038748351
    Two-Electron Energy =                 634.1791606884733028
    DFT Exchange-Correlation Energy =       0.0000000000000000
    Empirical Dispersion Energy =           0.0000000000000000
    PCM Polarization Energy =               0.0000000000000000
    EFP Energy =                            0.0000000000000000
    Total Energy =                       -453.9578524317805659
  Basis Set: (AUG-CC-PVTZ AUX)
    Blend: AUG-CC-PVTZ-JKFIT
  Basis Set: (AUG-CC-PVTZ AUX)
    Blend: AUG-CC-PVTZ-JKFIT
  Basis Set: (AUG-CC-PVTZ AUX)
    Blend: AUG-CC-PVTZ-JKFIT
  Basis Set: (AUG-CC-PVTZ AUX)
    Blend: AUG-CC-PVTZ-JKFIT
  Basis Set: (AUG-CC-PVTZ AUX)
    Blend: AUG-CC-PVTZ-RI

    SAPT Results
  --------------------------------------------------------------------------------------------------------
    Electrostatics               -174.14482698 [mEh]    -109.27753330 [kcal/mol]    -457.21724323 [kJ/mol]
      Elst10,r                   -174.14482698 [mEh]    -109.27753330 [kcal/mol]    -457.21724323 [kJ/mol]

    Exchange                       62.84404678 [mEh]      39.43523637 [kcal/mol]     164.99704481 [kJ/mol]
      Exch10                       62.84404678 [mEh]      39.43523637 [kcal/mol]     164.99704481 [kJ/mol]
      Exch10(S^2)                  60.64770713 [mEh]      38.05701238 [kcal/mol]     159.23055506 [kJ/mol]

    Induction                     -40.78981601 [mEh]     -25.59599705 [kcal/mol]    -107.09366194 [kJ/mol]
      Ind20,r                     -48.16966228 [mEh]     -30.22692069 [kcal/mol]    -126.46944831 [kJ/mol]
      Exch-Ind20,r                 23.04005469 [mEh]      14.45785320 [kcal/mol]      60.49166360 [kJ/mol]
      delta HF,r (2)              -15.66020843 [mEh]      -9.82692956 [kcal/mol]     -41.11587723 [kJ/mol]
      Induction (A<-B)            -13.96139357 [mEh]      -8.76090710 [kcal/mol]     -36.65563883 [kJ/mol]
      Induction (B<-A)            -26.82842244 [mEh]     -16.83508995 [kcal/mol]     -70.43802311 [kJ/mol]

    Dispersion                    -10.94021580 [mEh]      -6.86508935 [kcal/mol]     -28.72353659 [kJ/mol]
      Disp20                      -14.49281930 [mEh]      -9.09438179 [kcal/mol]     -38.05089706 [kJ/mol]
      Exch-Disp20                   3.55260349 [mEh]       2.22929244 [kcal/mol]       9.32736047 [kJ/mol]

  Total HF                       -152.09059621 [mEh]     -95.43829398 [kcal/mol]    -399.31386036 [kJ/mol]
  Total SAPT0                    -163.03081202 [mEh]    -102.30338333 [kcal/mol]    -428.03739695 [kJ/mol]

  --------------------------------------------------------------------------------------------------------

*** Psi4 exiting successfully. Buy a developer a beer!
