                               Psi4 1.1 release

  ==> Input File <==

--------------------------------------------------------------------------
memory 2GB

molecule mol {
1 1
  C   -0.42384055274795      2.39877189610259     -6.47431661041161
  N   -0.95946676147821      3.49264746388406     -7.00740064351677
  N    0.14558481008630      1.48689082624733     -7.20398720863589
  H    0.56537089098927      0.69680707894345     -6.72385841555464
  H    0.22068167599344      1.58176813779902     -8.20751968602530
  H   -1.40624262810436      4.18150658549070     -6.40326083435084
  H   -0.93421495760361      3.68160125641265     -7.99946843148752
--
-1 1
  S    1.87964372522168      0.07859386315408     -4.46296509697773
  O    3.20757441982960     -0.46611124555230     -4.42025907767002
  O    1.07506383934461     -0.05616016865527     -3.26875785677706
  O    1.13166146504037     -0.31995960280141     -5.67903101622402
--
0 1
  C   -0.46129278604562      2.23468578704369     -4.98961904005500
  C    0.84888265971981      2.66796697355912     -4.30235138435066
  C    2.09343392030341      1.86103708067235     -4.65684462674424
  H    2.44481370900931      2.04156655490911     -5.67499044304010
  H    2.90174787099152      2.13786372324099     -3.98033777958977
  H    0.66843227713818      2.55942701671355     -3.23285008216146
  H    1.03407416083197      3.72942640343435     -4.49708109698683
  H   -1.28888406744720      2.82673696913203     -4.59499714538315
  H   -0.65169567107254      1.18634340026987     -4.75655152405734

symmetry c1
no_reorient
no_com
}

# => Standard Options <= #

set {
basis aug-cc-pvtz
scf_type df
guess sad
freeze_core true
fisapt_do_plot false  # For extra analysis
}

energy('fisapt0')
--------------------------------------------------------------------------

    Molecular point group: c1

    Geometry (in Angstrom), charge = 0, multiplicity = 1:

       Center              X                  Y                   Z               Mass
    ------------   -----------------  -----------------  -----------------  -----------------
           C         -0.423840552748     2.398771896103    -6.474316610412    12.000000000000
           N         -0.959466761478     3.492647463884    -7.007400643517    14.003074004780
           N          0.145584810086     1.486890826247    -7.203987208636    14.003074004780
           H          0.565370890989     0.696807078943    -6.723858415555     1.007825032070
           H          0.220681675993     1.581768137799    -8.207519686025     1.007825032070
           H         -1.406242628104     4.181506585491    -6.403260834351     1.007825032070
           H         -0.934214957604     3.681601256413    -7.999468431488     1.007825032070
           S          1.879643725222     0.078593863154    -4.462965096978    31.972070999000
           O          3.207574419830    -0.466111245552    -4.420259077670    15.994914619560
           O          1.075063839345    -0.056160168655    -3.268757856777    15.994914619560
           O          1.131661465040    -0.319959602801    -5.679031016224    15.994914619560
           C         -0.461292786046     2.234685787044    -4.989619040055    12.000000000000
           C          0.848882659720     2.667966973559    -4.302351384351    12.000000000000
           C          2.093433920303     1.861037080672    -4.656844626744    12.000000000000
           H          2.444813709009     2.041566554909    -5.674990443040     1.007825032070
           H          2.901747870992     2.137863723241    -3.980337779590     1.007825032070
           H          0.668432277138     2.559427016714    -3.232850082161     1.007825032070
           H          1.034074160832     3.729426403434    -4.497081096987     1.007825032070
           H         -1.288884067447     2.826736969132    -4.594997145383     1.007825032070
           H         -0.651695671073     1.186343400270    -4.756551524057     1.007825032070

  Charge       = 0
  Multiplicity = 1
  Basis Set: AUG-CC-PVTZ
    Blend: AUG-CC-PVTZ
  Basis Set: (AUG-CC-PVTZ AUX)
    Blend: AUG-CC-PVTZ-JKFIT

    Orbital Energies (a.u.)
    -----------------------

    Doubly Occupied:

       1A    -92.134419     2A    -20.489266     3A    -20.475789
       4A    -20.473785     5A    -15.674361     6A    -15.640049
       7A    -11.424194     8A    -11.281019     9A    -11.260962
      10A    -11.239041    11A     -9.097978    12A     -6.783405
      13A     -6.783161    14A     -6.782984    15A     -1.427733
      16A     -1.379600    17A     -1.281626    18A     -1.275872
      19A     -1.257775    20A     -1.113968    21A     -1.015440
      22A     -0.918791    23A     -0.866500    24A     -0.818557
      25A     -0.805988    26A     -0.755002    27A     -0.718112
      28A     -0.686456    29A     -0.658985    30A     -0.640792
      31A     -0.619986    32A     -0.608925    33A     -0.593928
      34A     -0.590711    35A     -0.546375    36A     -0.524462
      37A     -0.510299    38A     -0.483860    39A     -0.476855
      40A     -0.470716    41A     -0.432614    42A     -0.423519
      43A     -0.395163    44A     -0.385529

  @DF-RHF Final Energy:  -888.49149306337756

   => Energetics <=

    Nuclear Repulsion Energy =            724.7834523901183275
    One-Electron Energy =               -2662.1007911535084531
    Two-Electron Energy =                1048.8258457000124508
    DFT Exchange-Correlation Energy =       0.0000000000000000
    Empirical Dispersion Energy =           0.0000000000000000
    PCM Polarization Energy =               0.0000000000000000
    EFP Energy =                            0.0000000000000000
    Total Energy =                       -888.4914930633776748
  Basis Set: (AUG-CC-PVTZ AUX)
    Blend: AUG-CC-PVTZ-JKFIT
  Basis Set: (AUG-CC-PVTZ AUX)
    Blend: AUG-CC-PVTZ-JKFIT
  Basis Set: (AUG-CC-PVTZ AUX)
    Blend: AUG-CC-PVTZ-JKFIT
  Basis Set: (AUG-CC-PVTZ AUX)
    Blend: AUG-CC-PVTZ-JKFIT
  Basis Set: (AUG-CC-PVTZ AUX)
    Blend: AUG-CC-PVTZ-RI

    SAPT Results
  --------------------------------------------------------------------------------------------------------
    Electrostatics               -144.58128815 [mEh]     -90.72613184 [kcal/mol]    -379.59817204 [kJ/mol]
      Elst10,r                   -144.58128815 [mEh]     -90.72613184 [kcal/mol]    -379.59817204 [kJ/mol]

    Exchange                       46.64151272 [mEh]      29.26799233 [kcal/mol]     122.45729165 [kJ/mol]
      Exch10                       46.64151272 [mEh]      29.26799233 [kcal/mol]     122.45729165 [kJ/mol]
      Exch10(S^2)                  45.41137897 [mEh]      28.49607171 [kcal/mol]     119.22757550 [kJ/mol]

    Induction                     -30.56808649 [mEh]     -19.18176467 [kcal/mol]     -80.25651107 [kJ/mol]
      Ind20,r                     -34.67907732 [mEh]     -21.76145047 [kcal/mol]     -91.04991750 [kJ/mol]
      Exch-Ind20,r                 15.36962460 [mEh]       9.64458545 [kcal/mol]      40.35294939 [kJ/mol]
      delta HF,r (2)              -11.25863377 [mEh]      -7.06489965 [kcal/mol]     -29.55954296 [kJ/mol]
      Induction (A<-B)             -8.36375047 [mEh]      -5.24833287 [kcal/mol]     -21.95902685 [kJ/mol]
      Induction (B<-A)            -22.20433602 [mEh]     -13.93343179 [kcal/mol]     -58.29748422 [kJ/mol]

    Dispersion                     -9.64978697 [mEh]      -6.05533300 [kcal/mol]     -25.33551569 [kJ/mol]
      Disp20                      -12.15630440 [mEh]      -7.62819650 [kcal/mol]     -31.91637721 [kJ/mol]
      Exch-Disp20                   2.50651743 [mEh]       1.57286350 [kcal/mol]       6.58086152 [kJ/mol]

  Total HF                       -128.50786192 [mEh]     -80.63990418 [kcal/mol]    -337.39739146 [kJ/mol]
  Total SAPT0                    -138.15764889 [mEh]     -86.69523717 [kcal/mol]    -362.73290715 [kJ/mol]

  --------------------------------------------------------------------------------------------------------

*** Psi4 exiting successfully. Buy a developer a beer!
