                               Psi4 1.1 release

  ==> Input File <==

--------------------------------------------------------------------------
memory 2GB

molecule mol {
1 1
  C    3.03763997849377     -2.36671526471768     -3.92350943909038
  N    2.28036027750712     -2.45440843965470     -4.96769193609095
  N    4.32173646154089     -2.01793205672493     -4.01664106724403
  H    4.87994041829025     -1.91166830352159     -3.17382346306176
  H    4.71014844190860     -1.67088223168682     -4.88356140916725
  H    1.27042313346493     -2.41265029830005     -4.86614337313377
  H    2.58182907910976     -2.05528175896671     -5.84687764501041
--
-1 1
  C    0.18467333974854     -0.50664031068703     -4.91676016062775
  O   -0.15868519583601     -1.70108791344051     -4.65798147152184
  O    1.05593828678209     -0.17441007749019     -5.74037293281371
--
0 1
  C    2.48645174392235     -2.67712111017583     -2.56344745414933
  C   -0.87096286432920      0.24804330086107     -2.66280359441276
  C   -0.47749212543589      0.60819058585265     -4.10105165102444
  H    0.20677285543285      1.45829890963281     -4.11874769299583
  H   -1.36844157239807      0.92941856824102     -4.64785490712585
  C    2.49799074863121     -1.46946392821315     -1.61030340097980
  C    1.58284114553340     -0.32198565925180     -2.04261939775410
  H    2.19308290911619     -1.83391170438583     -0.62541965845019
  H    3.52335565695981     -1.10398165864498     -1.49039240222848
  C    0.10015959938459     -0.67355135045674     -1.91581451783850
  H    1.82231142824637     -0.04036053174775     -3.07283441959583
  H    1.81317984861537      0.55701886149846     -1.43326592511797
  H   -0.06328413030348     -1.67912007396634     -2.30111155310606
  H   -0.16881970768030     -0.69168034017568     -0.85383138169735
  H   -1.00104812723379      1.18104015333071     -2.10407084445305
  H   -1.84464502676291     -0.24659201979481     -2.66328068611982
  H    1.47259199771523     -3.05152743598431     -2.69436550523192
  H    3.08320139957629     -3.49063791142926     -2.14147210995678

symmetry c1
no_reorient
no_com
}

# => Standard Options <= #

set {
basis aug-cc-pvtz
scf_type df
guess sad
freeze_core true
fisapt_do_plot false  # For extra analysis
}

energy('fisapt0')
--------------------------------------------------------------------------

    Molecular point group: c1

    Geometry (in Angstrom), charge = 0, multiplicity = 1:

       Center              X                  Y                   Z               Mass
    ------------   -----------------  -----------------  -----------------  -----------------
           C          3.037639978494    -2.366715264718    -3.923509439090    12.000000000000
           N          2.280360277507    -2.454408439655    -4.967691936091    14.003074004780
           N          4.321736461541    -2.017932056725    -4.016641067244    14.003074004780
           H          4.879940418290    -1.911668303522    -3.173823463062     1.007825032070
           H          4.710148441909    -1.670882231687    -4.883561409167     1.007825032070
           H          1.270423133465    -2.412650298300    -4.866143373134     1.007825032070
           H          2.581829079110    -2.055281758967    -5.846877645010     1.007825032070
           C          0.184673339749    -0.506640310687    -4.916760160628    12.000000000000
           O         -0.158685195836    -1.701087913441    -4.657981471522    15.994914619560
           O          1.055938286782    -0.174410077490    -5.740372932814    15.994914619560
           C          2.486451743922    -2.677121110176    -2.563447454149    12.000000000000
           C         -0.870962864329     0.248043300861    -2.662803594413    12.000000000000
           C         -0.477492125436     0.608190585853    -4.101051651024    12.000000000000
           H          0.206772855433     1.458298909633    -4.118747692996     1.007825032070
           H         -1.368441572398     0.929418568241    -4.647854907126     1.007825032070
           C          2.497990748631    -1.469463928213    -1.610303400980    12.000000000000
           C          1.582841145533    -0.321985659252    -2.042619397754    12.000000000000
           H          2.193082909116    -1.833911704386    -0.625419658450     1.007825032070
           H          3.523355656960    -1.103981658645    -1.490392402228     1.007825032070
           C          0.100159599385    -0.673551350457    -1.915814517838    12.000000000000
           H          1.822311428246    -0.040360531748    -3.072834419596     1.007825032070
           H          1.813179848615     0.557018861498    -1.433265925118     1.007825032070
           H         -0.063284130303    -1.679120073966    -2.301111553106     1.007825032070
           H         -0.168819707680    -0.691680340176    -0.853831381697     1.007825032070
           H         -1.001048127234     1.181040153331    -2.104070844453     1.007825032070
           H         -1.844645026763    -0.246592019795    -2.663280686120     1.007825032070
           H          1.472591997715    -3.051527435984    -2.694365505232     1.007825032070
           H          3.083201399576    -3.490637911429    -2.141472109957     1.007825032070

  Charge       = 0
  Multiplicity = 1
  Basis Set: AUG-CC-PVTZ
    Blend: AUG-CC-PVTZ
  Basis Set: (AUG-CC-PVTZ AUX)
    Blend: AUG-CC-PVTZ-JKFIT

    Orbital Energies (a.u.)
    -----------------------

    Doubly Occupied:

       1A    -20.455402     2A    -20.450699     3A    -15.645774
       4A    -15.605943     5A    -11.397717     6A    -11.290800
       7A    -11.273672     8A    -11.254330     9A    -11.222175
      10A    -11.202481    11A    -11.198572    12A    -11.186970
      13A     -1.355008    14A     -1.338734    15A     -1.236115
      16A     -1.228035    17A     -1.111784    18A     -1.050734
      19A     -0.992196    20A     -0.920969    21A     -0.882624
      22A     -0.833295    23A     -0.795728    24A     -0.777926
      25A     -0.757100    26A     -0.702497    27A     -0.672487
      28A     -0.662304    29A     -0.638972    30A     -0.620819
      31A     -0.612571    32A     -0.583935    33A     -0.577787
      34A     -0.574570    35A     -0.556471    36A     -0.544059
      37A     -0.525144    38A     -0.505087    39A     -0.499310
      40A     -0.481409    41A     -0.460989    42A     -0.453283
      43A     -0.443981    44A     -0.434716    45A     -0.375056
      46A     -0.362672    47A     -0.357161

  @DF-RHF Final Energy:  -571.10091867194524

   => Energetics <=

    Nuclear Repulsion Energy =            784.1899062523650628
    One-Electron Energy =               -2336.3615289070567087
    Two-Electron Energy =                 981.0707039827464087
    DFT Exchange-Correlation Energy =       0.0000000000000000
    Empirical Dispersion Energy =           0.0000000000000000
    PCM Polarization Energy =               0.0000000000000000
    EFP Energy =                            0.0000000000000000
    Total Energy =                       -571.1009186719452373
  Basis Set: (AUG-CC-PVTZ AUX)
    Blend: AUG-CC-PVTZ-JKFIT
  Basis Set: (AUG-CC-PVTZ AUX)
    Blend: AUG-CC-PVTZ-JKFIT
  Basis Set: (AUG-CC-PVTZ AUX)
    Blend: AUG-CC-PVTZ-JKFIT
  Basis Set: (AUG-CC-PVTZ AUX)
    Blend: AUG-CC-PVTZ-JKFIT
  Basis Set: (AUG-CC-PVTZ AUX)
    Blend: AUG-CC-PVTZ-RI

    SAPT Results
  --------------------------------------------------------------------------------------------------------
    Electrostatics               -205.14644498 [mEh]    -128.73134312 [kcal/mol]    -538.61199130 [kJ/mol]
      Elst10,r                   -205.14644498 [mEh]    -128.73134312 [kcal/mol]    -538.61199130 [kJ/mol]

    Exchange                       63.94977721 [mEh]      40.12909272 [kcal/mol]     167.90014006 [kJ/mol]
      Exch10                       63.94977721 [mEh]      40.12909272 [kcal/mol]     167.90014006 [kJ/mol]
      Exch10(S^2)                  62.34796890 [mEh]      39.12394279 [kcal/mol]     163.69459236 [kJ/mol]

    Induction                     -37.96093353 [mEh]     -23.82084642 [kcal/mol]     -99.66643098 [kJ/mol]
      Ind20,r                     -51.55243321 [mEh]     -32.34964159 [kcal/mol]    -135.35091340 [kJ/mol]
      Exch-Ind20,r                 28.39038514 [mEh]      17.81523638 [kcal/mol]      74.53895618 [kJ/mol]
      delta HF,r (2)              -14.79888545 [mEh]      -9.28644121 [kcal/mol]     -38.85447376 [kJ/mol]
      Induction (A<-B)            -19.13397430 [mEh]     -12.00675065 [kcal/mol]     -50.23624954 [kJ/mol]
      Induction (B<-A)            -18.82695922 [mEh]     -11.81409577 [kcal/mol]     -49.43018144 [kJ/mol]

    Dispersion                    -14.25437926 [mEh]      -8.94475840 [kcal/mol]     -37.42487274 [kJ/mol]
      Disp20                      -19.11565617 [mEh]     -11.99525585 [kcal/mol]     -50.18815527 [kJ/mol]
      Exch-Disp20                   4.86127691 [mEh]       3.05049744 [kcal/mol]      12.76328253 [kJ/mol]

  Total HF                       -179.15760130 [mEh]    -112.42309681 [kcal/mol]    -470.37828222 [kJ/mol]
  Total SAPT0                    -193.41198056 [mEh]    -121.36785522 [kcal/mol]    -507.80315497 [kJ/mol]

  --------------------------------------------------------------------------------------------------------

*** Psi4 exiting successfully. Buy a developer a beer!
