                               Psi4 1.1 release

  ==> Input File <==

--------------------------------------------------------------------------
memory 2GB

molecule mol {
1 1
  C    3.46658534930874     -1.59097113302117     -2.88908154363117
  N    4.65227491347413     -1.14316365889866     -3.25969197085875
  N    2.75226442097354     -2.29204320785818     -3.72802873265263
  H    1.77836380076627     -2.48960354340716     -3.51273808972934
  H    2.94861236744678     -2.20854372639547     -4.71681253762466
  H    5.14672300796749     -0.51250849646345     -2.63385194476357
  H    4.78302987666472     -1.00720259929899     -4.25349752672027
--
-1 1
  S    2.25262538381534     -0.18811476079310     -6.27183959250769
  O    3.56260742666456     -0.44446397946053     -5.63155189851986
  O    2.34494365709139     -0.03374220574718     -7.69650119599574
  O    1.26605846132039     -1.15917661362997     -5.80536456290656
--
0 1
  C    2.91632441016149     -1.24258949288613     -1.54312517112070
  C    0.70466112712955      1.44312909223046     -4.50362963163058
  C    1.72853931924467      1.42432006249010     -5.63944277968560
  H    2.64671821347868      1.95379379193246     -5.38105410348287
  H    1.29991639672259      1.93061324894890     -6.50361449165200
  C    2.80408416044204      0.29069783379302     -1.35924300821656
  C    1.05255034850399      0.69565870002704     -3.21491452828060
  H   -0.23248290100565      1.03292535323007     -4.88444937714405
  H    0.51169956799328      2.49579449368823     -4.26796562601076
  C    2.38837981438588      1.09366902341495     -2.59710754390303
  H    3.76342488854147      0.67471794057959     -0.99988877511160
  H    2.09478774138312      0.46122201940362     -0.54575587491500
  H    3.16731642857969      1.01324225073436     -3.35942951596932
  H    2.35769023295144      2.14937495698039     -2.31099682403245
  H    1.03928352292421     -0.36842852379492     -3.44932893415787
  H    0.25078692416074      0.86560459090064     -2.48828332251853
  H    1.94047159983143     -1.71652926488753     -1.44116115345812
  H    3.55856853907795     -1.66343315181139     -0.76637074280004

symmetry c1
no_reorient
no_com
}

# => Standard Options <= #

set {
basis aug-cc-pvtz
scf_type df
guess sad
freeze_core true
fisapt_do_plot false  # For extra analysis
}

energy('fisapt0')
--------------------------------------------------------------------------

    Molecular point group: c1

    Geometry (in Angstrom), charge = 0, multiplicity = 1:

       Center              X                  Y                   Z               Mass
    ------------   -----------------  -----------------  -----------------  -----------------
           C          3.466585349309    -1.590971133021    -2.889081543631    12.000000000000
           N          4.652274913474    -1.143163658899    -3.259691970859    14.003074004780
           N          2.752264420974    -2.292043207858    -3.728028732653    14.003074004780
           H          1.778363800766    -2.489603543407    -3.512738089729     1.007825032070
           H          2.948612367447    -2.208543726395    -4.716812537625     1.007825032070
           H          5.146723007967    -0.512508496463    -2.633851944764     1.007825032070
           H          4.783029876665    -1.007202599299    -4.253497526720     1.007825032070
           S          2.252625383815    -0.188114760793    -6.271839592508    31.972070999000
           O          3.562607426665    -0.444463979461    -5.631551898520    15.994914619560
           O          2.344943657091    -0.033742205747    -7.696501195996    15.994914619560
           O          1.266058461320    -1.159176613630    -5.805364562907    15.994914619560
           C          2.916324410161    -1.242589492886    -1.543125171121    12.000000000000
           C          0.704661127130     1.443129092230    -4.503629631631    12.000000000000
           C          1.728539319245     1.424320062490    -5.639442779686    12.000000000000
           H          2.646718213479     1.953793791932    -5.381054103483     1.007825032070
           H          1.299916396723     1.930613248949    -6.503614491652     1.007825032070
           C          2.804084160442     0.290697833793    -1.359243008217    12.000000000000
           C          1.052550348504     0.695658700027    -3.214914528281    12.000000000000
           H         -0.232482901006     1.032925353230    -4.884449377144     1.007825032070
           H          0.511699567993     2.495794493688    -4.267965626011     1.007825032070
           C          2.388379814386     1.093669023415    -2.597107543903    12.000000000000
           H          3.763424888541     0.674717940580    -0.999888775112     1.007825032070
           H          2.094787741383     0.461222019404    -0.545755874915     1.007825032070
           H          3.167316428580     1.013242250734    -3.359429515969     1.007825032070
           H          2.357690232951     2.149374956980    -2.310996824032     1.007825032070
           H          1.039283522924    -0.368428523795    -3.449328934158     1.007825032070
           H          0.250786924161     0.865604590901    -2.488283322519     1.007825032070
           H          1.940471599831    -1.716529264888    -1.441161153458     1.007825032070
           H          3.558568539078    -1.663433151811    -0.766370742800     1.007825032070

  Charge       = 0
  Multiplicity = 1
  Basis Set: AUG-CC-PVTZ
    Blend: AUG-CC-PVTZ
  Basis Set: (AUG-CC-PVTZ AUX)
    Blend: AUG-CC-PVTZ-JKFIT

    Orbital Energies (a.u.)
    -----------------------

    Doubly Occupied:

       1A    -92.135326     2A    -20.489190     3A    -20.482121
       4A    -20.473055     5A    -15.633105     6A    -15.632987
       7A    -11.408723     8A    -11.294904     9A    -11.272167
      10A    -11.241792    11A    -11.228431    12A    -11.226944
      13A    -11.225667    14A     -9.099057    15A     -6.784363
      16A     -6.784227    17A     -6.783958    18A     -1.428142
      19A     -1.362340    20A     -1.277570    21A     -1.274670
      22A     -1.238158    23A     -1.129201    24A     -1.076719
      25A     -1.016098    26A     -0.947574    27A     -0.894386
      28A     -0.854608    29A     -0.805658    30A     -0.790804
      31A     -0.776745    32A     -0.736997    33A     -0.700516
      34A     -0.693027    35A     -0.668768    36A     -0.644096
      37A     -0.640785    38A     -0.617025    39A     -0.611344
      40A     -0.604516    41A     -0.586555    42A     -0.580923
      43A     -0.570160    44A     -0.536498    45A     -0.530212
      46A     -0.524060    47A     -0.494090    48A     -0.483113
      49A     -0.475673    50A     -0.473869    51A     -0.464884
      52A     -0.455123    53A     -0.429723    54A     -0.421703
      55A     -0.395123    56A     -0.388769

  @DF-RHF Final Energy: -1005.63288291897493

   => Energetics <=

    Nuclear Repulsion Energy =           1085.8945366072437082
    One-Electron Energy =               -3539.4623498775044936
    Two-Electron Energy =                1447.9349303512856295
    DFT Exchange-Correlation Energy =       0.0000000000000000
    Empirical Dispersion Energy =           0.0000000000000000
    PCM Polarization Energy =               0.0000000000000000
    EFP Energy =                            0.0000000000000000
    Total Energy =                      -1005.6328829189749285
  Basis Set: (AUG-CC-PVTZ AUX)
    Blend: AUG-CC-PVTZ-JKFIT
  Basis Set: (AUG-CC-PVTZ AUX)
    Blend: AUG-CC-PVTZ-JKFIT
  Basis Set: (AUG-CC-PVTZ AUX)
    Blend: AUG-CC-PVTZ-JKFIT
  Basis Set: (AUG-CC-PVTZ AUX)
    Blend: AUG-CC-PVTZ-JKFIT
  Basis Set: (AUG-CC-PVTZ AUX)
    Blend: AUG-CC-PVTZ-RI

    SAPT Results
  --------------------------------------------------------------------------------------------------------
    Electrostatics               -177.13194302 [mEh]    -111.15197700 [kcal/mol]    -465.05991640 [kJ/mol]
      Elst10,r                   -177.13194302 [mEh]    -111.15197700 [kcal/mol]    -465.05991640 [kJ/mol]

    Exchange                       44.10073630 [mEh]      27.67363098 [kcal/mol]     115.78648315 [kJ/mol]
      Exch10                       44.10073630 [mEh]      27.67363098 [kcal/mol]     115.78648315 [kJ/mol]
      Exch10(S^2)                  43.47696393 [mEh]      27.28220789 [kcal/mol]     114.14876879 [kJ/mol]

    Induction                     -21.02642934 [mEh]     -13.19428416 [kcal/mol]     -55.20489023 [kJ/mol]
      Ind20,r                     -38.49399067 [mEh]     -24.15534484 [kcal/mol]    -101.06597250 [kJ/mol]
      Exch-Ind20,r                 23.38114959 [mEh]      14.67189349 [kcal/mol]      61.38720825 [kJ/mol]
      delta HF,r (2)               -5.91358826 [mEh]      -3.71083281 [kcal/mol]     -15.52612598 [kJ/mol]
      Induction (A<-B)            -10.82728802 [mEh]      -6.79422609 [kcal/mol]     -28.42704470 [kJ/mol]
      Induction (B<-A)            -10.19914132 [mEh]      -6.40005807 [kcal/mol]     -26.77784553 [kJ/mol]

    Dispersion                    -14.09554116 [mEh]      -8.84508599 [kcal/mol]     -37.00784332 [kJ/mol]
      Disp20                      -17.92587096 [mEh]     -11.24865432 [kcal/mol]     -47.06437421 [kJ/mol]
      Exch-Disp20                   3.83032980 [mEh]       2.40356834 [kcal/mol]      10.05653090 [kJ/mol]

  Total HF                       -154.05763607 [mEh]     -96.67263018 [kcal/mol]    -404.47832349 [kJ/mol]
  Total SAPT0                    -168.15317723 [mEh]    -105.51771616 [kcal/mol]    -441.48616681 [kJ/mol]

  --------------------------------------------------------------------------------------------------------

*** Psi4 exiting successfully. Buy a developer a beer!
