                               Psi4 1.1 release

  ==> Input File <==

--------------------------------------------------------------------------
memory 2GB

molecule mol {
1 1
  C    3.86085122854086     -1.59156542266854      3.62289287132015
  N    2.75650162574631     -2.04615925209465      4.16633274264935
  N    4.25432509219432     -0.36290515094238      3.86045533866247
  H    3.56525601279035      0.31099394446487      4.16898282191692
  H    5.05429236017308     -0.01605855348191      3.33783772092085
  H    2.43969557699551     -2.97389369060373      3.89739548576565
  H    2.06686903212635     -1.41253213861069      4.54981259184623
--
-1 1
  C    1.08302716256020      0.74963953533347      4.08570516420685
  O    2.22816740579744      1.26347523114662      4.01982591263945
  O    0.81003438453957     -0.34541089890893      4.63626858690625
--
0 1
  C    4.60295394304411     -2.44009960431605      2.63477998475673
  C   -0.91494747942279      0.61511237483913      2.50553780705699
  C   -0.05914597904504      1.50352395842803      3.41057780749663
  H    0.36536442386802      2.34431472428831      2.86116128539235
  H   -0.69226136467381      1.92020678488270      4.19898491586828
  C    3.74468509407724     -2.58055657762700      1.36188237738604
  C    0.77213864638528      0.63688223129021      0.56212932528796
  C   -0.13073964798436     -0.19398490855792      1.47076311355233
  H   -0.84056338868553     -0.76016452672850      0.85637653047926
  H    0.46669075947644     -0.93894218909653      2.00695874530624
  H   -1.64796051000980      1.24596314951130      1.99107608446278
  H   -1.47818013776316     -0.08104634618574      3.13042398755735
  C    3.20372109175446     -1.25600353196732      0.82621087086116
  H    2.89893945178306     -3.23928879828922      1.58307360258282
  H    4.33496206775426     -3.09552304896171      0.60018812721577
  C    2.10781477278224     -1.44238541906717     -0.21686453376144
  H    2.78677529474304     -0.67276033302424      1.65071060947103
  H    4.02100849647130     -0.65299301771911      0.41404637285591
  C    1.39066158514704     -0.14591207597319     -0.60242185384882
  H    1.37217918348244     -2.15218442172401      0.17615073840218
  H    2.52330246029558     -1.90678735111703     -1.11711460944475
  H    1.56136065824558      1.10009369417633      1.16183125504762
  H    0.19551625691369      1.46832468434778      0.14275849422572
  H    0.60289290375026     -0.39821384276050     -1.31971575382723
  H    2.08724673015408      0.50827191665530     -1.13733527902548
  H    5.56155674775162     -1.97134728304569      2.40708363960203
  H    4.81049805824068     -3.42255184589228      3.06309911820632

symmetry c1
no_reorient
no_com
}

# => Standard Options <= #

set {
basis aug-cc-pvtz
scf_type df
guess sad
freeze_core true
fisapt_do_plot false  # For extra analysis
}

energy('fisapt0')
--------------------------------------------------------------------------

    Molecular point group: c1

    Geometry (in Angstrom), charge = 0, multiplicity = 1:

       Center              X                  Y                   Z               Mass
    ------------   -----------------  -----------------  -----------------  -----------------
           C          3.860851228541    -1.591565422669     3.622892871320    12.000000000000
           N          2.756501625746    -2.046159252095     4.166332742649    14.003074004780
           N          4.254325092194    -0.362905150942     3.860455338662    14.003074004780
           H          3.565256012790     0.310993944465     4.168982821917     1.007825032070
           H          5.054292360173    -0.016058553482     3.337837720921     1.007825032070
           H          2.439695576996    -2.973893690604     3.897395485766     1.007825032070
           H          2.066869032126    -1.412532138611     4.549812591846     1.007825032070
           C          1.083027162560     0.749639535333     4.085705164207    12.000000000000
           O          2.228167405797     1.263475231147     4.019825912639    15.994914619560
           O          0.810034384540    -0.345410898909     4.636268586906    15.994914619560
           C          4.602953943044    -2.440099604316     2.634779984757    12.000000000000
           C         -0.914947479423     0.615112374839     2.505537807057    12.000000000000
           C         -0.059145979045     1.503523958428     3.410577807497    12.000000000000
           H          0.365364423868     2.344314724288     2.861161285392     1.007825032070
           H         -0.692261364674     1.920206784883     4.198984915868     1.007825032070
           C          3.744685094077    -2.580556577627     1.361882377386    12.000000000000
           C          0.772138646385     0.636882231290     0.562129325288    12.000000000000
           C         -0.130739647984    -0.193984908558     1.470763113552    12.000000000000
           H         -0.840563388686    -0.760164526728     0.856376530479     1.007825032070
           H          0.466690759476    -0.938942189097     2.006958745306     1.007825032070
           H         -1.647960510010     1.245963149511     1.991076084463     1.007825032070
           H         -1.478180137763    -0.081046346186     3.130423987557     1.007825032070
           C          3.203721091754    -1.256003531967     0.826210870861    12.000000000000
           H          2.898939451783    -3.239288798289     1.583073602583     1.007825032070
           H          4.334962067754    -3.095523048962     0.600188127216     1.007825032070
           C          2.107814772782    -1.442385419067    -0.216864533761    12.000000000000
           H          2.786775294743    -0.672760333024     1.650710609471     1.007825032070
           H          4.021008496471    -0.652993017719     0.414046372856     1.007825032070
           C          1.390661585147    -0.145912075973    -0.602421853849    12.000000000000
           H          1.372179183482    -2.152184421724     0.176150738402     1.007825032070
           H          2.523302460296    -1.906787351117    -1.117114609445     1.007825032070
           H          1.561360658246     1.100093694176     1.161831255048     1.007825032070
           H          0.195516256914     1.468324684348     0.142758494226     1.007825032070
           H          0.602892903750    -0.398213842760    -1.319715753827     1.007825032070
           H          2.087246730154     0.508271916655    -1.137335279025     1.007825032070
           H          5.561556747752    -1.971347283046     2.407083639602     1.007825032070
           H          4.810498058241    -3.422551845892     3.063099118206     1.007825032070

  Charge       = 0
  Multiplicity = 1
  Basis Set: AUG-CC-PVTZ
    Blend: AUG-CC-PVTZ
  Basis Set: (AUG-CC-PVTZ AUX)
    Blend: AUG-CC-PVTZ-JKFIT

    Orbital Energies (a.u.)
    -----------------------

    Doubly Occupied:

       1A    -20.468061     2A    -20.465412     3A    -15.601615
       4A    -15.601460     5A    -11.384681     6A    -11.303572
       7A    -11.280790     8A    -11.259804     9A    -11.233617
      10A    -11.224161    11A    -11.215853    12A    -11.204568
      13A    -11.201235    14A    -11.197688    15A    -11.189410
      16A     -1.358087    17A     -1.333816    18A     -1.250698
      19A     -1.210813    20A     -1.119925    21A     -1.081413
      22A     -1.045566    23A     -0.994298    24A     -0.945921
      25A     -0.892656    26A     -0.866536    27A     -0.832391
      28A     -0.802170    29A     -0.771035    30A     -0.765395
      31A     -0.750553    32A     -0.692154    33A     -0.677860
      34A     -0.666607    35A     -0.650970    36A     -0.634450
      37A     -0.625848    38A     -0.607419    39A     -0.593653
      40A     -0.590590    41A     -0.577301    42A     -0.570772
      43A     -0.558416    44A     -0.555160    45A     -0.527126
      46A     -0.521817    47A     -0.512935    48A     -0.510746
      49A     -0.497491    50A     -0.477071    51A     -0.473123
      52A     -0.463958    53A     -0.445286    54A     -0.437692
      55A     -0.435472    56A     -0.430281    57A     -0.387126
      58A     -0.375775    59A     -0.372824

  @DF-RHF Final Energy:  -688.26334882089213

   => Energetics <=

    Nuclear Repulsion Energy =           1121.1560874965293806
    One-Electron Energy =               -3165.3926421161199869
    Two-Electron Energy =                1355.9732057986984728
    DFT Exchange-Correlation Energy =       0.0000000000000000
    Empirical Dispersion Energy =           0.0000000000000000
    PCM Polarization Energy =               0.0000000000000000
    EFP Energy =                            0.0000000000000000
    Total Energy =                       -688.2633488208921335
  Basis Set: (AUG-CC-PVTZ AUX)
    Blend: AUG-CC-PVTZ-JKFIT
  Basis Set: (AUG-CC-PVTZ AUX)
    Blend: AUG-CC-PVTZ-JKFIT
  Basis Set: (AUG-CC-PVTZ AUX)
    Blend: AUG-CC-PVTZ-JKFIT
  Basis Set: (AUG-CC-PVTZ AUX)
    Blend: AUG-CC-PVTZ-JKFIT
  Basis Set: (AUG-CC-PVTZ AUX)
    Blend: AUG-CC-PVTZ-RI

    SAPT Results
  --------------------------------------------------------------------------------------------------------
    Electrostatics               -233.06228541 [mEh]    -146.24879818 [kcal/mol]    -611.90503034 [kJ/mol]
      Elst10,r                   -233.06228541 [mEh]    -146.24879818 [kcal/mol]    -611.90503034 [kJ/mol]

    Exchange                       86.42420872 [mEh]      54.23201200 [kcal/mol]     226.90675999 [kJ/mol]
      Exch10                       86.42420872 [mEh]      54.23201200 [kcal/mol]     226.90675999 [kJ/mol]
      Exch10(S^2)                  84.41127217 [mEh]      52.96887520 [kcal/mol]     221.62179509 [kJ/mol]

    Induction                     -47.44527420 [mEh]     -29.77236029 [kcal/mol]    -124.56756742 [kJ/mol]
      Ind20,r                     -62.23041899 [mEh]     -39.05017910 [kcal/mol]    -163.38596505 [kJ/mol]
      Exch-Ind20,r                 32.47956014 [mEh]      20.38123254 [kcal/mol]      85.27508515 [kJ/mol]
      delta HF,r (2)              -17.69441536 [mEh]     -11.10341373 [kcal/mol]     -46.45668752 [kJ/mol]
      Induction (A<-B)            -23.62203907 [mEh]     -14.82305393 [kcal/mol]     -62.01966358 [kJ/mol]
      Induction (B<-A)            -23.82323513 [mEh]     -14.94930636 [kcal/mol]     -62.54790383 [kJ/mol]

    Dispersion                    -17.99345411 [mEh]     -11.29106339 [kcal/mol]     -47.24181378 [kJ/mol]
      Disp20                      -24.02982795 [mEh]     -15.07894532 [kcal/mol]     -63.09031328 [kJ/mol]
      Exch-Disp20                   6.03637383 [mEh]       3.78788193 [kcal/mol]      15.84849950 [kJ/mol]

  Total HF                       -194.08335089 [mEh]    -121.78914648 [kcal/mol]    -509.56583776 [kJ/mol]
  Total SAPT0                    -212.07680500 [mEh]    -133.08020987 [kcal/mol]    -556.80765154 [kJ/mol]

  --------------------------------------------------------------------------------------------------------

*** Psi4 exiting successfully. Buy a developer a beer!
