                               Psi4 1.1 release

  ==> Input File <==

--------------------------------------------------------------------------
memory 2GB

molecule mol {
1 1
  C   4.18187974949198     -2.58967082095957     -6.29891130276334
  N   3.14587313755222     -1.76843071037587     -6.48675344134034
  N   4.01910248914614     -3.86430657378520     -6.22742700522572
  H   4.76848995739899     -4.59115304378902     -5.99077325774614
  H   3.12240505658281     -4.33339202131974     -6.31461966623220
  H   3.28163522056570     -0.77778567419413     -6.56654917939967
  H   2.21254861197046     -2.13419334164337     -6.56224562664970
--
-1 1
  S   4.31811545506567     -6.91592969660814     -5.36869190648433
  O   5.40615364575042     -5.89947989374624     -5.51297167824704
  O   3.11191036938056     -6.44507855898457     -6.04379206494658
  O   4.76339637356154     -8.23942389539531     -5.69862908432557
--
0 1
  C   5.55820632302252     -1.99291413531996     -6.21505421351243
  C   4.93019902356104     -7.37531898481774     -2.64962250643623
  C   3.84189238884114     -6.95161110933649     -3.63282905370793
  H   3.45814394053456     -5.95442470467814     -3.40712065489146
  H   2.98848428880503     -7.64360633090230     -3.56707763036172
  C   6.41926048955054     -2.54294354603346     -5.07763023621003
  C   5.87226654101859     -5.00275623965127     -2.42781921319432
  C   6.17399379497761     -6.48552155311244     -2.60631472920800
  H   6.73485241710673     -6.61376676968543     -3.53401493186319
  H   6.82146294980095     -6.83101796007975     -1.79361651690966
  H   4.46961153259920     -7.40616833831795     -1.65587592823096
  H   5.23013399282664     -8.39867767842852     -2.88590574396680
  C   5.89651185409837     -2.16931364969328     -3.69455161467147
  H   7.42887963011026     -2.14366544429548     -5.20807845161491
  H   6.50589368835433     -3.62754143468022     -5.17550166283606
  C   6.80780387451780     -2.62342822964900     -2.55101887749078
  H   4.89470841571317     -2.58973211214867     -3.55750059127234
  H   5.77882333075944     -1.08125500832607     -3.63578975266615
  C   7.11154448197950     -4.12246314313446     -2.52036343387404
  H   7.75161466099819     -2.07139278886590     -2.61440568925275
  H   6.34583733478283     -2.32640108763451     -1.60408626466964
  H   5.36288155069188     -4.82869714378795     -1.47133472865490
  H   5.17442942456655     -4.70257718853718     -3.21129769697719
  H   7.77832947426381     -4.32934720697316     -1.67765147907328
  H   7.67318928577850     -4.40284543607579     -3.41758633721406
  H   6.03682579759296     -2.19818891432732     -7.17685170093669
  H   5.46761044668115     -0.90737063070617     -6.12796814694217

symmetry c1
no_reorient
no_com
}

# => Standard Options <= #

set {
basis aug-cc-pvtz
scf_type df
guess sad
freeze_core true
fisapt_do_plot false  # For extra analysis
}

energy('fisapt0')
--------------------------------------------------------------------------

    Molecular point group: c1

    Geometry (in Angstrom), charge = 0, multiplicity = 1:

       Center              X                  Y                   Z               Mass
    ------------   -----------------  -----------------  -----------------  -----------------
           C          4.181879749492    -2.589670820960    -6.298911302763    12.000000000000
           N          3.145873137552    -1.768430710376    -6.486753441340    14.003074004780
           N          4.019102489146    -3.864306573785    -6.227427005226    14.003074004780
           H          4.768489957399    -4.591153043789    -5.990773257746     1.007825032070
           H          3.122405056583    -4.333392021320    -6.314619666232     1.007825032070
           H          3.281635220566    -0.777785674194    -6.566549179400     1.007825032070
           H          2.212548611970    -2.134193341643    -6.562245626650     1.007825032070
           S          4.318115455066    -6.915929696608    -5.368691906484    31.972070999000
           O          5.406153645750    -5.899479893746    -5.512971678247    15.994914619560
           O          3.111910369381    -6.445078558985    -6.043792064947    15.994914619560
           O          4.763396373562    -8.239423895395    -5.698629084326    15.994914619560
           C          5.558206323023    -1.992914135320    -6.215054213512    12.000000000000
           C          4.930199023561    -7.375318984818    -2.649622506436    12.000000000000
           C          3.841892388841    -6.951611109336    -3.632829053708    12.000000000000
           H          3.458143940535    -5.954424704678    -3.407120654891     1.007825032070
           H          2.988484288805    -7.643606330902    -3.567077630362     1.007825032070
           C          6.419260489551    -2.542943546033    -5.077630236210    12.000000000000
           C          5.872266541019    -5.002756239651    -2.427819213194    12.000000000000
           C          6.173993794978    -6.485521553112    -2.606314729208    12.000000000000
           H          6.734852417107    -6.613766769685    -3.534014931863     1.007825032070
           H          6.821462949801    -6.831017960080    -1.793616516910     1.007825032070
           H          4.469611532599    -7.406168338318    -1.655875928231     1.007825032070
           H          5.230133992827    -8.398677678429    -2.885905743967     1.007825032070
           C          5.896511854098    -2.169313649693    -3.694551614671    12.000000000000
           H          7.428879630110    -2.143665444295    -5.208078451615     1.007825032070
           H          6.505893688354    -3.627541434680    -5.175501662836     1.007825032070
           C          6.807803874518    -2.623428229649    -2.551018877491    12.000000000000
           H          4.894708415713    -2.589732112149    -3.557500591272     1.007825032070
           H          5.778823330759    -1.081255008326    -3.635789752666     1.007825032070
           C          7.111544481980    -4.122463143134    -2.520363433874    12.000000000000
           H          7.751614660998    -2.071392788866    -2.614405689253     1.007825032070
           H          6.345837334783    -2.326401087635    -1.604086264670     1.007825032070
           H          5.362881550692    -4.828697143788    -1.471334728655     1.007825032070
           H          5.174429424567    -4.702577188537    -3.211297696977     1.007825032070
           H          7.778329474264    -4.329347206973    -1.677651479073     1.007825032070
           H          7.673189285779    -4.402845436076    -3.417586337214     1.007825032070
           H          6.036825797593    -2.198188914327    -7.176851700937     1.007825032070
           H          5.467610446681    -0.907370630706    -6.127968146942     1.007825032070

  Charge       = 0
  Multiplicity = 1
  Basis Set: AUG-CC-PVTZ
    Blend: AUG-CC-PVTZ
  Basis Set: (AUG-CC-PVTZ AUX)
    Blend: AUG-CC-PVTZ-JKFIT

    Orbital Energies (a.u.)
    -----------------------

    Doubly Occupied:

       1A    -92.136023     2A    -20.493564     3A    -20.482490
       4A    -20.475176     5A    -15.653209     6A    -15.613221
       7A    -11.406259     8A    -11.286705     9A    -11.250799
      10A    -11.238578    11A    -11.226357    12A    -11.224579
      13A    -11.213212    14A    -11.208147    15A    -11.204624
      16A    -11.197514    17A     -9.099836    18A     -6.785159
      19A     -6.784909    20A     -6.784682    21A     -1.427984
      22A     -1.358788    23A     -1.281251    24A     -1.275765
      25A     -1.234692    26A     -1.122821    27A     -1.084504
      28A     -1.055094    29A     -1.004620    30A     -0.956160
      31A     -0.909789    32A     -0.881043    33A     -0.847103
      34A     -0.805350    35A     -0.790845    36A     -0.783388
      37A     -0.768736    38A     -0.739294    39A     -0.704908
      40A     -0.670664    41A     -0.661670    42A     -0.645046
      43A     -0.640902    44A     -0.625358    45A     -0.616899
      46A     -0.605894    47A     -0.594944    48A     -0.590801
      49A     -0.584225    50A     -0.557033    51A     -0.552216
      52A     -0.547017    53A     -0.523304    54A     -0.516842
      55A     -0.508561    56A     -0.489032    57A     -0.486501
      58A     -0.477801    59A     -0.471933    60A     -0.468254
      61A     -0.457846    62A     -0.453159    63A     -0.447026
      64A     -0.435748    65A     -0.424917    66A     -0.423025
      67A     -0.393188    68A     -0.390727

  @DF-RHF Final Energy: -1122.78152494959454

   => Energetics <=

    Nuclear Repulsion Energy =           1429.3785181754287805
    One-Electron Energy =               -4382.2046614976225101
    Two-Electron Energy =                1830.0446183725991887
    DFT Exchange-Correlation Energy =       0.0000000000000000
    Empirical Dispersion Energy =           0.0000000000000000
    PCM Polarization Energy =               0.0000000000000000
    EFP Energy =                            0.0000000000000000
    Total Energy =                      -1122.7815249495945409
  Basis Set: (AUG-CC-PVTZ AUX)
    Blend: AUG-CC-PVTZ-JKFIT
  Basis Set: (AUG-CC-PVTZ AUX)
    Blend: AUG-CC-PVTZ-JKFIT
  Basis Set: (AUG-CC-PVTZ AUX)
    Blend: AUG-CC-PVTZ-JKFIT
  Basis Set: (AUG-CC-PVTZ AUX)
    Blend: AUG-CC-PVTZ-JKFIT
  Basis Set: (AUG-CC-PVTZ AUX)
    Blend: AUG-CC-PVTZ-RI

    SAPT Results
  --------------------------------------------------------------------------------------------------------
    Electrostatics               -185.24341604 [mEh]    -116.24200338 [kcal/mol]    -486.35658882 [kJ/mol]
      Elst10,r                   -185.24341604 [mEh]    -116.24200338 [kcal/mol]    -486.35658882 [kJ/mol]

    Exchange                       66.04349668 [mEh]      41.44292158 [kcal/mol]     173.39720055 [kJ/mol]
      Exch10                       66.04349668 [mEh]      41.44292158 [kcal/mol]     173.39720055 [kJ/mol]
      Exch10(S^2)                  64.31123455 [mEh]      40.35591064 [kcal/mol]     168.84914632 [kJ/mol]

    Induction                     -41.08118369 [mEh]     -25.77883304 [kcal/mol]    -107.85864778 [kJ/mol]
      Ind20,r                     -46.36342811 [mEh]     -29.09349159 [kcal/mol]    -121.72718051 [kJ/mol]
      Exch-Ind20,r                 21.52459417 [mEh]      13.50688733 [kcal/mol]      56.51282199 [kJ/mol]
      delta HF,r (2)              -16.24234975 [mEh]     -10.19222877 [kcal/mol]     -42.64428927 [kJ/mol]
      Induction (A<-B)            -14.56211679 [mEh]      -9.13786662 [kcal/mol]     -38.23283763 [kJ/mol]
      Induction (B<-A)            -26.51906690 [mEh]     -16.64096641 [kcal/mol]     -69.62581016 [kJ/mol]

    Dispersion                    -14.54478488 [mEh]      -9.12699069 [kcal/mol]     -38.18733270 [kJ/mol]
      Disp20                      -18.50982819 [mEh]     -11.61509304 [kcal/mol]     -48.59755392 [kJ/mol]
      Exch-Disp20                   3.96504331 [mEh]       2.48810235 [kcal/mol]      10.41022122 [kJ/mol]

  Total HF                       -160.28110305 [mEh]    -100.57791483 [kcal/mol]    -420.81803605 [kJ/mol]
  Total SAPT0                    -174.82588793 [mEh]    -109.70490552 [kcal/mol]    -459.00536876 [kJ/mol]

  --------------------------------------------------------------------------------------------------------

*** Psi4 exiting successfully. Buy a developer a beer!
