                               Psi4 1.1 release

  ==> Input File <==

--------------------------------------------------------------------------
memory 2GB

molecule mol {
1 1
  C    3.05650338331497     -0.32079712227794     -0.70738441964908
  N    2.38982528472702      0.71128523917987     -0.24390854983093
  N    2.51599915502833     -1.50772110597523     -0.55022869017013
  H    2.96768349302617     -2.32291458467886     -0.95630541420828
  H    1.54987212597906     -1.49063385262893     -0.24987626572520
  H    2.74307130863236      1.64947073690287     -0.41280172083215
  H    1.44036400093257      0.50277761889166      0.03703091057877
--
-1 1
  O    0.26170326728597     -0.58030703540009      0.13861070897944
--
0 1
  C    4.36645427451694     -0.13321454085556     -1.41606238187347
  C    4.50829163186317     -0.93187211305901     -2.72424931742061
  H    4.75371553538325     -1.97205124920192     -2.48840805664131
  C    3.29416443298811     -0.91821442563072     -3.65656998689809
  H    5.38563722807613     -0.53623556391885     -3.24263968485996
  H    2.48346303505728     -1.47737775755059     -3.18576439683001
  H    3.55309247877913     -1.47849507554146     -4.56033123356794
  C    2.77233505813200      0.46010008580740     -4.05144758254894
  H    2.60876161766481      1.06510687467322     -3.15519416763712
  C    1.46535412439777      0.41053704405884     -4.85364357226631
  H    3.53293995526563      0.98884836691320     -4.63567084836454
  C    0.32617078608220     -0.37561317197479     -4.19258037205238
  H    1.66670387984157     -0.02226858642508     -5.83932290100563
  H    1.13819765531995      1.43924637333964     -5.03544911015978
  C   -0.01740511924545      0.08058793732787     -2.77840588041015
  H    0.58557349602150     -1.43938473812308     -4.16805652363173
  H   -0.56000465843704     -0.31142523460731     -4.83146053710162
  H    0.90208987433971      0.20129611973388     -2.20672931150706
  C   -0.90349461011537     -0.87394470751609     -1.98738822581940
  H   -0.47954857765702      1.07465728873206     -2.81191455891158
  H   -0.50255427472994     -1.89209587470610     -2.08120449115066
  H   -1.91703924035949     -0.89542699984880     -2.40627726628260
  C   -0.96014819844854     -0.52236494227433     -0.48986681352304
  H   -1.69039236838790     -1.20813028673113     -0.02167748186227
  H   -1.41449049121222      0.48632887624557     -0.40667723549367
  H    4.48783513322442      0.93299747439470     -1.61156868419169
  H    5.16967232271248     -0.41443206727480     -0.72981693713026

symmetry c1
no_reorient
no_com
}

# => Standard Options <= #

set {
basis aug-cc-pvtz
scf_type df
guess sad
freeze_core true
fisapt_do_plot false  # For extra analysis
}

energy('fisapt0')
--------------------------------------------------------------------------

    Molecular point group: c1

    Geometry (in Angstrom), charge = 0, multiplicity = 1:

       Center              X                  Y                   Z               Mass
    ------------   -----------------  -----------------  -----------------  -----------------
           C          3.056503383315    -0.320797122278    -0.707384419649    12.000000000000
           N          2.389825284727     0.711285239180    -0.243908549831    14.003074004780
           N          2.515999155028    -1.507721105975    -0.550228690170    14.003074004780
           H          2.967683493026    -2.322914584679    -0.956305414208     1.007825032070
           H          1.549872125979    -1.490633852629    -0.249876265725     1.007825032070
           H          2.743071308632     1.649470736903    -0.412801720832     1.007825032070
           H          1.440364000933     0.502777618892     0.037030910579     1.007825032070
           O          0.261703267286    -0.580307035400     0.138610708979    15.994914619560
           C          4.366454274517    -0.133214540856    -1.416062381873    12.000000000000
           C          4.508291631863    -0.931872113059    -2.724249317421    12.000000000000
           H          4.753715535383    -1.972051249202    -2.488408056641     1.007825032070
           C          3.294164432988    -0.918214425631    -3.656569986898    12.000000000000
           H          5.385637228076    -0.536235563919    -3.242639684860     1.007825032070
           H          2.483463035057    -1.477377757551    -3.185764396830     1.007825032070
           H          3.553092478779    -1.478495075541    -4.560331233568     1.007825032070
           C          2.772335058132     0.460100085807    -4.051447582549    12.000000000000
           H          2.608761617665     1.065106874673    -3.155194167637     1.007825032070
           C          1.465354124398     0.410537044059    -4.853643572266    12.000000000000
           H          3.532939955266     0.988848366913    -4.635670848365     1.007825032070
           C          0.326170786082    -0.375613171975    -4.192580372052    12.000000000000
           H          1.666703879842    -0.022268586425    -5.839322901006     1.007825032070
           H          1.138197655320     1.439246373340    -5.035449110160     1.007825032070
           C         -0.017405119245     0.080587937328    -2.778405880410    12.000000000000
           H          0.585573496022    -1.439384738123    -4.168056523632     1.007825032070
           H         -0.560004658437    -0.311425234607    -4.831460537102     1.007825032070
           H          0.902089874340     0.201296119734    -2.206729311507     1.007825032070
           C         -0.903494610115    -0.873944707516    -1.987388225819    12.000000000000
           H         -0.479548577657     1.074657288732    -2.811914558912     1.007825032070
           H         -0.502554274730    -1.892095874706    -2.081204491151     1.007825032070
           H         -1.917039240359    -0.895426999849    -2.406277266283     1.007825032070
           C         -0.960148198449    -0.522364942274    -0.489866813523    12.000000000000
           H         -1.690392368388    -1.208130286731    -0.021677481862     1.007825032070
           H         -1.414490491212     0.486328876246    -0.406677235494     1.007825032070
           H          4.487835133224     0.932997474395    -1.611568684192     1.007825032070
           H          5.169672322712    -0.414432067275    -0.729816937130     1.007825032070

  Charge       = 0
  Multiplicity = 1
  Basis Set: AUG-CC-PVTZ
    Blend: AUG-CC-PVTZ
  Basis Set: (AUG-CC-PVTZ AUX)
    Blend: AUG-CC-PVTZ-JKFIT

    Orbital Energies (a.u.)
    -----------------------

    Doubly Occupied:

       1A    -20.406339     2A    -15.588929     3A    -15.588072
       4A    -11.372992     5A    -11.275452     6A    -11.257736
       7A    -11.233940     8A    -11.227036     9A    -11.217496
      10A    -11.205358    11A    -11.201691    12A    -11.190277
      13A    -11.176263    14A     -1.329317    15A     -1.206435
      16A     -1.197087    17A     -1.117203    18A     -1.074497
      19A     -1.026889    20A     -0.975985    21A     -0.927368
      22A     -0.866032    23A     -0.844433    24A     -0.819394
      25A     -0.767436    26A     -0.760828    27A     -0.741581
      28A     -0.727389    29A     -0.673742    30A     -0.672236
      31A     -0.654429    32A     -0.630304    33A     -0.611911
      34A     -0.589004    35A     -0.575462    36A     -0.570185
      37A     -0.563556    38A     -0.556805    39A     -0.532829
      40A     -0.520529    41A     -0.509098    42A     -0.497795
      43A     -0.486362    44A     -0.481057    45A     -0.460923
      46A     -0.451509    47A     -0.439612    48A     -0.435078
      49A     -0.432941    50A     -0.415183    51A     -0.321971
      52A     -0.319936

  @DF-RHF Final Energy:  -575.41419775016800

   => Energetics <=

    Nuclear Repulsion Energy =            909.9289556949719326
    One-Electron Energy =               -2589.2344920520727101
    Two-Electron Energy =                1103.8913386069325497
    DFT Exchange-Correlation Energy =       0.0000000000000000
    Empirical Dispersion Energy =           0.0000000000000000
    PCM Polarization Energy =               0.0000000000000000
    EFP Energy =                            0.0000000000000000
    Total Energy =                       -575.4141977501681140
  Basis Set: (AUG-CC-PVTZ AUX)
    Blend: AUG-CC-PVTZ-JKFIT
  Basis Set: (AUG-CC-PVTZ AUX)
    Blend: AUG-CC-PVTZ-JKFIT
  Basis Set: (AUG-CC-PVTZ AUX)
    Blend: AUG-CC-PVTZ-JKFIT
  Basis Set: (AUG-CC-PVTZ AUX)
    Blend: AUG-CC-PVTZ-JKFIT
  Basis Set: (AUG-CC-PVTZ AUX)
    Blend: AUG-CC-PVTZ-RI

    SAPT Results
  --------------------------------------------------------------------------------------------------------
    Electrostatics               -285.16833355 [mEh]    -178.94583840 [kcal/mol]    -748.70945973 [kJ/mol]
      Elst10,r                   -285.16833355 [mEh]    -178.94583840 [kcal/mol]    -748.70945973 [kJ/mol]

    Exchange                      130.13439995 [mEh]      81.66057225 [kcal/mol]     341.66786708 [kJ/mol]
      Exch10                      130.13439995 [mEh]      81.66057225 [kcal/mol]     341.66786708 [kJ/mol]
      Exch10(S^2)                 125.85206799 [mEh]      78.97336826 [kcal/mol]     330.42460451 [kJ/mol]

    Induction                     -62.66962711 [mEh]     -39.32578637 [kcal/mol]    -164.53910598 [kJ/mol]
      Ind20,r                    -149.39030125 [mEh]     -93.74383324 [kcal/mol]    -392.22423594 [kJ/mol]
      Exch-Ind20,r                101.94596963 [mEh]      63.97206443 [kcal/mol]     267.65914328 [kJ/mol]
      delta HF,r (2)              -15.22529549 [mEh]      -9.55401756 [kcal/mol]     -39.97401331 [kJ/mol]
      Induction (A<-B)            -41.02977626 [mEh]     -25.74657438 [kcal/mol]    -107.72367756 [kJ/mol]
      Induction (B<-A)            -21.63985085 [mEh]     -13.57921199 [kcal/mol]     -56.81542842 [kJ/mol]

    Dispersion                    -18.79981891 [mEh]     -11.79706497 [kcal/mol]     -49.35892455 [kJ/mol]
      Disp20                      -28.82609673 [mEh]     -18.08864955 [kcal/mol]     -75.68291698 [kJ/mol]
      Exch-Disp20                  10.02627782 [mEh]       6.29158458 [kcal/mol]      26.32399242 [kJ/mol]

  Total HF                       -217.70356071 [mEh]    -136.61105253 [kcal/mol]    -571.58069864 [kJ/mol]
  Total SAPT0                    -236.50337962 [mEh]    -148.40811749 [kcal/mol]    -620.93962319 [kJ/mol]

  --------------------------------------------------------------------------------------------------------

*** Psi4 exiting successfully. Buy a developer a beer!
