                               Psi4 1.1 release

  ==> Input File <==

--------------------------------------------------------------------------
memory 2GB

molecule mol {
1 1
  N   5.28156001386356     -1.97413230202639     -4.53576396509695
  C   4.79250040037565     -1.36131633161753     -3.45729543047029
  N   3.93989812200971     -0.37492457796416     -3.55735935698078
  N   5.25985994691107     -1.75422360742556     -2.23913258292645
  H   5.92282439266980     -2.52145050287608     -2.18672046160884
  H   4.65467848233861     -1.64040418559269     -1.44201608171381
  H   5.70913931601787     -2.87559879741736     -4.38702107927370
  H   3.33010127435397     -0.31763918833135     -4.36124687374376
  H   3.69849409063960      0.11446792224571     -2.70833270752008
--
-1 1
  O   2.45972920999948     -0.50920407754511     -5.50575660540022
--
0 1
  C   4.99986217247582     -1.59613296193310     -5.92487556889778
  C   3.76677942509234     -2.26611016126918     -6.51175157294435
  C   2.49670203593654     -1.84416112189797     -5.73570407103022
  H   1.62641603508535     -2.21743410374496     -6.30894985053107
  H   2.48182441182043     -2.45606903488391     -4.79341408821103
  H   4.84333288368632     -0.51792980682896     -5.94301905078900
  H   5.90169506332698     -1.82250328709904     -6.49646680938943
  H   3.88619055705276     -3.35707593204907     -6.53360433014879
  H   3.68560216634413     -1.92216794174328     -7.54712751332339

symmetry c1
no_reorient
no_com
}

# => Standard Options <= #

set {
basis aug-cc-pvtz
scf_type df
guess sad
freeze_core true
fisapt_do_plot false  # For extra analysis
}

energy('fisapt0')
--------------------------------------------------------------------------

    Molecular point group: c1

    Geometry (in Angstrom), charge = 0, multiplicity = 1:

       Center              X                  Y                   Z               Mass
    ------------   -----------------  -----------------  -----------------  -----------------
           N          5.281560013864    -1.974132302026    -4.535763965097    14.003074004780
           C          4.792500400376    -1.361316331618    -3.457295430470    12.000000000000
           N          3.939898122010    -0.374924577964    -3.557359356981    14.003074004780
           N          5.259859946911    -1.754223607426    -2.239132582926    14.003074004780
           H          5.922824392670    -2.521450502876    -2.186720461609     1.007825032070
           H          4.654678482339    -1.640404185593    -1.442016081714     1.007825032070
           H          5.709139316018    -2.875598797417    -4.387021079274     1.007825032070
           H          3.330101274354    -0.317639188331    -4.361246873744     1.007825032070
           H          3.698494090640     0.114467922246    -2.708332707520     1.007825032070
           O          2.459729209999    -0.509204077545    -5.505756605400    15.994914619560
           C          4.999862172476    -1.596132961933    -5.924875568898    12.000000000000
           C          3.766779425092    -2.266110161269    -6.511751572944    12.000000000000
           C          2.496702035937    -1.844161121898    -5.735704071030    12.000000000000
           H          1.626416035085    -2.217434103745    -6.308949850531     1.007825032070
           H          2.481824411820    -2.456069034884    -4.793414088211     1.007825032070
           H          4.843332883686    -0.517929806829    -5.943019050789     1.007825032070
           H          5.901695063327    -1.822503287099    -6.496466809389     1.007825032070
           H          3.886190557053    -3.357075932049    -6.533604330149     1.007825032070
           H          3.685602166344    -1.922167941743    -7.547127513323     1.007825032070

  Charge       = 0
  Multiplicity = 1
  Basis Set: AUG-CC-PVTZ
    Blend: AUG-CC-PVTZ
  Basis Set: (AUG-CC-PVTZ AUX)
    Blend: AUG-CC-PVTZ-JKFIT

    Orbital Energies (a.u.)
    -----------------------

    Doubly Occupied:

       1A    -20.391415     2A    -15.631261     3A    -15.617963
       4A    -15.575635     5A    -11.414008     6A    -11.259708
       7A    -11.206445     8A    -11.190466     9A     -1.368603
      10A     -1.236899    11A     -1.224559    12A     -1.195169
      13A     -1.018748    14A     -0.910413    15A     -0.849033
      16A     -0.803817    17A     -0.781076    18A     -0.740752
      19A     -0.696589    20A     -0.684168    21A     -0.635119
      22A     -0.627749    23A     -0.598807    24A     -0.561775
      25A     -0.514245    26A     -0.494277    27A     -0.479607
      28A     -0.454664    29A     -0.442773    30A     -0.410252
      31A     -0.310289    32A     -0.306449

  @DF-RHF Final Energy:  -396.18363320230276

   => Energetics <=

    Nuclear Repulsion Energy =            414.8881542781043663
    One-Electron Energy =               -1362.8781019976063362
    Two-Electron Energy =                 551.8063145171992119
    DFT Exchange-Correlation Energy =       0.0000000000000000
    Empirical Dispersion Energy =           0.0000000000000000
    PCM Polarization Energy =               0.0000000000000000
    EFP Energy =                            0.0000000000000000
    Total Energy =                       -396.1836332023027580
  Basis Set: (AUG-CC-PVTZ AUX)
    Blend: AUG-CC-PVTZ-JKFIT
  Basis Set: (AUG-CC-PVTZ AUX)
    Blend: AUG-CC-PVTZ-JKFIT
  Basis Set: (AUG-CC-PVTZ AUX)
    Blend: AUG-CC-PVTZ-JKFIT
  Basis Set: (AUG-CC-PVTZ AUX)
    Blend: AUG-CC-PVTZ-JKFIT
  Basis Set: (AUG-CC-PVTZ AUX)
    Blend: AUG-CC-PVTZ-RI

    SAPT Results
  --------------------------------------------------------------------------------------------------------
    Electrostatics               -231.44156077 [mEh]    -145.23177808 [kcal/mol]    -607.64981779 [kJ/mol]
      Elst10,r                   -231.44156077 [mEh]    -145.23177808 [kcal/mol]    -607.64981779 [kJ/mol]

    Exchange                       90.25425823 [mEh]      56.63540445 [kcal/mol]     236.96255497 [kJ/mol]
      Exch10                       90.25425823 [mEh]      56.63540445 [kcal/mol]     236.96255497 [kJ/mol]
      Exch10(S^2)                  85.73409759 [mEh]      53.79896071 [kcal/mol]     225.09487322 [kJ/mol]

    Induction                     -59.68685916 [mEh]     -37.45407115 [kcal/mol]    -156.70784873 [kJ/mol]
      Ind20,r                     -83.08824243 [mEh]     -52.13866146 [kcal/mol]    -218.14818051 [kJ/mol]
      Exch-Ind20,r                 44.52277070 [mEh]      27.93846158 [kcal/mol]     116.89453448 [kJ/mol]
      delta HF,r (2)              -21.12138743 [mEh]     -13.25387127 [kcal/mol]     -55.45420270 [kJ/mol]
      Induction (A<-B)            -31.71965059 [mEh]     -19.90438208 [kcal/mol]     -83.27994263 [kJ/mol]
      Induction (B<-A)            -27.96720857 [mEh]     -17.54968907 [kcal/mol]     -73.42790610 [kJ/mol]

    Dispersion                    -13.27401647 [mEh]      -8.32957144 [kcal/mol]     -34.85093025 [kJ/mol]
      Disp20                      -18.71030544 [mEh]     -11.74089441 [kcal/mol]     -49.12390694 [kJ/mol]
      Exch-Disp20                   5.43628897 [mEh]       3.41132297 [kcal/mol]      14.27297669 [kJ/mol]

  Total HF                       -200.87416170 [mEh]    -126.05044477 [kcal/mol]    -527.39511155 [kJ/mol]
  Total SAPT0                    -214.14817818 [mEh]    -134.38001621 [kcal/mol]    -562.24604180 [kJ/mol]

  --------------------------------------------------------------------------------------------------------

*** Psi4 exiting successfully. Buy a developer a beer!
