                               Psi4 1.1 release

  ==> Input File <==

--------------------------------------------------------------------------
memory 2GB

molecule mol {
1 1
  N   5.29561544148172      3.13151463189311     -4.10533427738733
  C   5.70861941097975      3.46888548901111     -5.32419033899509
  N   6.90469597467801      3.03895367317843     -5.71708406340109
  N   4.98188442747266      4.29356985176773     -6.09745662789833
  H   5.00054649887452      4.10131148961536     -7.08776140004861
  H   4.08469301436389      4.59689864893086     -5.73965185066001
  H   5.96335824188284      2.52611200906673     -3.64239110343941
  H   7.04716417563478      2.06686091797147     -5.47360368190500
  H   7.19814532819337      3.30799406200566     -6.64522520998895
--
-1 1
  C   5.10584579108154      0.66802242093208     -5.30546252084629
  O   4.80913158391404      1.15018659454622     -6.41436116266800
  O   6.26736646993431      0.56499944056063     -4.81948096895293
--
0 1
  C   3.90594730056438      2.81985472396617     -3.75291954362640
  C   3.80351126540380      1.37471570584528     -3.26080731472895
  C   3.93993384003018      0.32036234078962     -4.36772932829208
  H   4.10504309121958     -0.65508455224231     -3.90773296457214
  H   3.02280142165645      0.28051729531502     -4.95711742835281
  H   3.28202462799347      2.94918701936661     -4.64025896902848
  H   3.56525363654760      3.51457361221196     -2.98252251523612
  H   4.57483307231304      1.21515713430784     -2.50044303611179
  H   2.84351438578003      1.26084549096040     -2.75146469386016

symmetry c1
no_reorient
no_com
}

# => Standard Options <= #

set {
basis aug-cc-pvtz
scf_type df
guess sad
freeze_core true
fisapt_do_plot false  # For extra analysis
}

energy('fisapt0')
--------------------------------------------------------------------------

    Molecular point group: c1

    Geometry (in Angstrom), charge = 0, multiplicity = 1:

       Center              X                  Y                   Z               Mass
    ------------   -----------------  -----------------  -----------------  -----------------
           N          5.295615441482     3.131514631893    -4.105334277387    14.003074004780
           C          5.708619410980     3.468885489011    -5.324190338995    12.000000000000
           N          6.904695974678     3.038953673178    -5.717084063401    14.003074004780
           N          4.981884427473     4.293569851768    -6.097456627898    14.003074004780
           H          5.000546498875     4.101311489615    -7.087761400049     1.007825032070
           H          4.084693014364     4.596898648931    -5.739651850660     1.007825032070
           H          5.963358241883     2.526112009067    -3.642391103439     1.007825032070
           H          7.047164175635     2.066860917971    -5.473603681905     1.007825032070
           H          7.198145328193     3.307994062006    -6.645225209989     1.007825032070
           C          5.105845791082     0.668022420932    -5.305462520846    12.000000000000
           O          4.809131583914     1.150186594546    -6.414361162668    15.994914619560
           O          6.267366469934     0.564999440561    -4.819480968953    15.994914619560
           C          3.905947300564     2.819854723966    -3.752919543626    12.000000000000
           C          3.803511265404     1.374715705845    -3.260807314729    12.000000000000
           C          3.939933840030     0.320362340790    -4.367729328292    12.000000000000
           H          4.105043091220    -0.655084552242    -3.907732964572     1.007825032070
           H          3.022801421656     0.280517295315    -4.957117428353     1.007825032070
           H          3.282024627993     2.949187019367    -4.640258969028     1.007825032070
           H          3.565253636548     3.514573612212    -2.982522515236     1.007825032070
           H          4.574833072313     1.215157134308    -2.500443036112     1.007825032070
           H          2.843514385780     1.260845490960    -2.751464693860     1.007825032070

  Charge       = 0
  Multiplicity = 1
  Basis Set: AUG-CC-PVTZ
    Blend: AUG-CC-PVTZ
  Basis Set: (AUG-CC-PVTZ AUX)
    Blend: AUG-CC-PVTZ-JKFIT

    Orbital Energies (a.u.)
    -----------------------

    Doubly Occupied:

       1A    -20.463170     2A    -20.462014     3A    -15.629341
       4A    -15.616338     5A    -15.595344     6A    -11.421161
       7A    -11.301097     8A    -11.291236     9A    -11.237882
      10A    -11.205588    11A     -1.379523    12A     -1.346497
      13A     -1.247007    14A     -1.241384    15A     -1.222093
      16A     -1.068064    17A     -0.962719    18A     -0.872463
      19A     -0.844176    20A     -0.798712    21A     -0.762843
      22A     -0.712712    23A     -0.688973    24A     -0.687334
      25A     -0.659024    26A     -0.643842    27A     -0.606647
      28A     -0.596377    29A     -0.577179    30A     -0.552138
      31A     -0.543107    32A     -0.537892    33A     -0.490862
      34A     -0.484782    35A     -0.463608    36A     -0.429437
      37A     -0.382821    38A     -0.372752    39A     -0.366734

  @DF-RHF Final Energy:  -509.02360207125059

   => Energetics <=

    Nuclear Repulsion Energy =            597.6852602761485969
    One-Electron Energy =               -1881.8879858693130700
    Two-Electron Energy =                 775.1791235219137661
    DFT Exchange-Correlation Energy =       0.0000000000000000
    Empirical Dispersion Energy =           0.0000000000000000
    PCM Polarization Energy =               0.0000000000000000
    EFP Energy =                            0.0000000000000000
    Total Energy =                       -509.0236020712505933
  Basis Set: (AUG-CC-PVTZ AUX)
    Blend: AUG-CC-PVTZ-JKFIT
  Basis Set: (AUG-CC-PVTZ AUX)
    Blend: AUG-CC-PVTZ-JKFIT
  Basis Set: (AUG-CC-PVTZ AUX)
    Blend: AUG-CC-PVTZ-JKFIT
  Basis Set: (AUG-CC-PVTZ AUX)
    Blend: AUG-CC-PVTZ-JKFIT
  Basis Set: (AUG-CC-PVTZ AUX)
    Blend: AUG-CC-PVTZ-RI

    SAPT Results
  --------------------------------------------------------------------------------------------------------
    Electrostatics               -204.02845747 [mEh]    -128.02979533 [kcal/mol]    -535.67671508 [kJ/mol]
      Elst10,r                   -204.02845747 [mEh]    -128.02979533 [kcal/mol]    -535.67671508 [kJ/mol]

    Exchange                       58.01593231 [mEh]      36.40554868 [kcal/mol]     152.32083029 [kJ/mol]
      Exch10                       58.01593231 [mEh]      36.40554868 [kcal/mol]     152.32083029 [kJ/mol]
      Exch10(S^2)                  57.17991908 [mEh]      35.88094243 [kcal/mol]     150.12587753 [kJ/mol]

    Induction                     -29.30859860 [mEh]     -18.39142405 [kcal/mol]     -76.94972562 [kJ/mol]
      Ind20,r                     -51.02289483 [mEh]     -32.01735122 [kcal/mol]    -133.96061037 [kJ/mol]
      Exch-Ind20,r                 30.92412826 [mEh]      19.40518426 [kcal/mol]      81.19129876 [kJ/mol]
      delta HF,r (2)               -9.20983203 [mEh]      -5.77925709 [kcal/mol]     -24.18041401 [kJ/mol]
      Induction (A<-B)            -17.69299091 [mEh]     -11.10251988 [kcal/mol]     -46.45294763 [kJ/mol]
      Induction (B<-A)            -11.61560769 [mEh]      -7.28890417 [kcal/mol]     -30.49677799 [kJ/mol]

    Dispersion                    -18.44448795 [mEh]     -11.57409141 [kcal/mol]     -48.42600310 [kJ/mol]
      Disp20                      -24.00602983 [mEh]     -15.06401178 [kcal/mol]     -63.02783133 [kJ/mol]
      Exch-Disp20                   5.56154189 [mEh]       3.48992037 [kcal/mol]      14.60182822 [kJ/mol]

  Total HF                       -175.32112375 [mEh]    -110.01567070 [kcal/mol]    -460.30561041 [kJ/mol]
  Total SAPT0                    -193.76561170 [mEh]    -121.58976211 [kcal/mol]    -508.73161351 [kJ/mol]

  --------------------------------------------------------------------------------------------------------

*** Psi4 exiting successfully. Buy a developer a beer!
