                               Psi4 1.1 release

  ==> Input File <==

--------------------------------------------------------------------------
memory 2GB

molecule mol {
1 1
  N    2.48451054779694     -0.50741010489923     -5.14039220586384
  C    3.45114904822142     -0.14952959969228     -5.95258931056356
  N    3.92266725757306      1.08955941157092     -5.85071100312544
  N    3.96616225215346     -1.00618312729475     -6.86787982631006
  H    3.52139091633662     -1.90646668470398     -6.99526977778063
  H    4.44482384097907     -0.62347203477148     -7.67034822361071
  H    2.25199501730161      0.24080384883423     -4.49879192862828
  H    3.46427738032099      1.64078158057000     -5.13639226354592
  H    4.83446964257857      1.31374538177409     -6.22465309302575
--
-1 1
  O    2.35381452646305      1.71203224304926     -3.93447711246953
--
0 1
  C    1.63555696857484     -1.67039581584569     -5.29210936179467
  C    0.33848398095050     -1.50090735351920     -4.50539820736011
  C   -0.68487299561367     -0.52802569712833     -5.09988905866512
  C   -0.29040632486478      0.95133524937234     -5.15342333556533
  H    0.60799118987378      1.07069205690554     -5.76441230650137
  C   -0.05516770138012      1.61941950626961     -3.78857718749378
  H   -1.08091236304801      1.48377461082105     -5.68943642524196
  H    0.04500584815616      0.86230221749977     -3.00301466377115
  H   -0.92293620905943      2.23032880630548     -3.51702799847526
  C    1.22302185706643      2.46986505259633     -3.75691138054356
  H    1.11470139380930      3.25807411756368     -4.53299943422719
  H    1.23773198037888      3.01124224852555     -2.79215732416151
  H    1.39833744126282     -1.82923896176344     -6.35259108677487
  H    2.15586426714118     -2.56539838508644     -4.93209076038469
  H   -0.93799870764406     -0.86905644974999     -6.11083778440305
  H   -1.60463836245734     -0.62249600116412     -4.51313158693470
  H    0.59488650552839     -1.21157800094638     -3.48231182503573
  H   -0.12653019839971     -2.48765611509254     -4.43417552774212

symmetry c1
no_reorient
no_com
}

# => Standard Options <= #

set {
basis aug-cc-pvtz
scf_type df
guess sad
freeze_core true
fisapt_do_plot false  # For extra analysis
}

energy('fisapt0')
--------------------------------------------------------------------------

    Molecular point group: c1

    Geometry (in Angstrom), charge = 0, multiplicity = 1:

       Center              X                  Y                   Z               Mass
    ------------   -----------------  -----------------  -----------------  -----------------
           N          2.484510547797    -0.507410104899    -5.140392205864    14.003074004780
           C          3.451149048221    -0.149529599692    -5.952589310564    12.000000000000
           N          3.922667257573     1.089559411571    -5.850711003125    14.003074004780
           N          3.966162252153    -1.006183127295    -6.867879826310    14.003074004780
           H          3.521390916337    -1.906466684704    -6.995269777781     1.007825032070
           H          4.444823840979    -0.623472034771    -7.670348223611     1.007825032070
           H          2.251995017302     0.240803848834    -4.498791928628     1.007825032070
           H          3.464277380321     1.640781580570    -5.136392263546     1.007825032070
           H          4.834469642579     1.313745381774    -6.224653093026     1.007825032070
           O          2.353814526463     1.712032243049    -3.934477112470    15.994914619560
           C          1.635556968575    -1.670395815846    -5.292109361795    12.000000000000
           C          0.338483980950    -1.500907353519    -4.505398207360    12.000000000000
           C         -0.684872995614    -0.528025697128    -5.099889058665    12.000000000000
           C         -0.290406324865     0.951335249372    -5.153423335565    12.000000000000
           H          0.607991189874     1.070692056906    -5.764412306501     1.007825032070
           C         -0.055167701380     1.619419506270    -3.788577187494    12.000000000000
           H         -1.080912363048     1.483774610821    -5.689436425242     1.007825032070
           H          0.045005848156     0.862302217500    -3.003014663771     1.007825032070
           H         -0.922936209059     2.230328806305    -3.517027998475     1.007825032070
           C          1.223021857066     2.469865052596    -3.756911380544    12.000000000000
           H          1.114701393809     3.258074117564    -4.532999434227     1.007825032070
           H          1.237731980379     3.011242248526    -2.792157324162     1.007825032070
           H          1.398337441263    -1.829238961763    -6.352591086775     1.007825032070
           H          2.155864267141    -2.565398385086    -4.932090760385     1.007825032070
           H         -0.937998707644    -0.869056449750    -6.110837784403     1.007825032070
           H         -1.604638362457    -0.622496001164    -4.513131586935     1.007825032070
           H          0.594886505528    -1.211578000946    -3.482311825036     1.007825032070
           H         -0.126530198400    -2.487656115093    -4.434175527742     1.007825032070

  Charge       = 0
  Multiplicity = 1
  Basis Set: AUG-CC-PVTZ
    Blend: AUG-CC-PVTZ
  Basis Set: (AUG-CC-PVTZ AUX)
    Blend: AUG-CC-PVTZ-JKFIT

    Orbital Energies (a.u.)
    -----------------------

    Doubly Occupied:

       1A    -20.402652     2A    -15.624356     3A    -15.576472
       4A    -15.575000     5A    -11.398341     6A    -11.279520
       7A    -11.226328     8A    -11.213023     9A    -11.199373
      10A    -11.193101    11A    -11.173398    12A     -1.358622
      13A     -1.231490    14A     -1.209193    15A     -1.196389
      16A     -1.074659    17A     -1.008687    18A     -0.938181
      19A     -0.878006    20A     -0.844681    21A     -0.798389
      22A     -0.781885    23A     -0.752326    24A     -0.731847
      25A     -0.683473    26A     -0.670755    27A     -0.662613
      28A     -0.644352    29A     -0.602450    30A     -0.586491
      31A     -0.573381    32A     -0.568089    33A     -0.539195
      34A     -0.514285    35A     -0.506132    36A     -0.482311
      37A     -0.463402    38A     -0.455713    39A     -0.442961
      40A     -0.433191    41A     -0.428608    42A     -0.393527
      43A     -0.318871    44A     -0.316156

  @DF-RHF Final Energy:  -513.33483005566404

   => Energetics <=

    Nuclear Repulsion Energy =            694.6622597763451950
    One-Electron Energy =               -2078.0904537397159402
    Two-Electron Energy =                 870.0933639077065891
    DFT Exchange-Correlation Energy =       0.0000000000000000
    Empirical Dispersion Energy =           0.0000000000000000
    PCM Polarization Energy =               0.0000000000000000
    EFP Energy =                            0.0000000000000000
    Total Energy =                       -513.3348300556640424
  Basis Set: (AUG-CC-PVTZ AUX)
    Blend: AUG-CC-PVTZ-JKFIT
  Basis Set: (AUG-CC-PVTZ AUX)
    Blend: AUG-CC-PVTZ-JKFIT
  Basis Set: (AUG-CC-PVTZ AUX)
    Blend: AUG-CC-PVTZ-JKFIT
  Basis Set: (AUG-CC-PVTZ AUX)
    Blend: AUG-CC-PVTZ-JKFIT
  Basis Set: (AUG-CC-PVTZ AUX)
    Blend: AUG-CC-PVTZ-RI

    SAPT Results
  --------------------------------------------------------------------------------------------------------
    Electrostatics               -282.43329693 [mEh]    -177.22957694 [kcal/mol]    -741.52862108 [kJ/mol]
      Elst10,r                   -282.43329693 [mEh]    -177.22957694 [kcal/mol]    -741.52862108 [kJ/mol]

    Exchange                      135.50880505 [mEh]      85.03306250 [kcal/mol]     355.77836765 [kJ/mol]
      Exch10                      135.50880505 [mEh]      85.03306250 [kcal/mol]     355.77836765 [kJ/mol]
      Exch10(S^2)                 130.36314191 [mEh]      81.80411000 [kcal/mol]     342.26842908 [kJ/mol]

    Induction                     -64.18824576 [mEh]     -40.27873401 [kcal/mol]    -168.52623925 [kJ/mol]
      Ind20,r                    -168.27071543 [mEh]    -105.59147250 [kcal/mol]    -441.79476336 [kJ/mol]
      Exch-Ind20,r                117.60438197 [mEh]      73.79786693 [kcal/mol]     308.77030487 [kJ/mol]
      delta HF,r (2)              -13.52191231 [mEh]      -8.48512843 [kcal/mol]     -35.50178076 [kJ/mol]
      Induction (A<-B)            -42.63324490 [mEh]     -26.75276619 [kcal/mol]    -111.93358448 [kJ/mol]
      Induction (B<-A)            -21.55500086 [mEh]     -13.52596782 [kcal/mol]     -56.59265477 [kJ/mol]

    Dispersion                    -18.65045948 [mEh]     -11.70334050 [kcal/mol]     -48.96678136 [kJ/mol]
      Disp20                      -28.82416701 [mEh]     -18.08743863 [kcal/mol]     -75.67785047 [kJ/mol]
      Exch-Disp20                  10.17370753 [mEh]       6.38409812 [kcal/mol]      26.71106911 [kJ/mol]

  Total HF                       -211.11273765 [mEh]    -132.47524844 [kcal/mol]    -554.27649269 [kJ/mol]
  Total SAPT0                    -229.76319712 [mEh]    -144.17858894 [kcal/mol]    -603.24327404 [kJ/mol]

  --------------------------------------------------------------------------------------------------------

*** Psi4 exiting successfully. Buy a developer a beer!
