                               Psi4 1.1 release

  ==> Input File <==

--------------------------------------------------------------------------
memory 2GB

molecule mol {
1 1
  N   4.30539357759474      1.22276171772989     -3.90831707954832
  C   4.63191802118304      2.24636530588977     -4.67095783713700
  N   4.54168605587906      2.14398958030115     -5.98713861636265
  N   5.08408567897372      3.39358431547207     -4.11854542099563
  H   4.92067470663503      3.57050051749320     -3.13587047738743
  H   5.25465156972577      4.19738974039907     -4.70695614367641
  H   3.82452982069098      0.44911338149334     -4.35092589508632
  H   4.34337337041103      1.24931773356438     -6.41664641632432
  H   4.67671218134767      2.95662352158758     -6.57411338763789
--
-1 1
  S   3.00461762524979     -1.09620635139870     -6.38925892346112
  O   4.12885624354887     -0.32964695104251     -6.95371738482914
  O   1.78128456109544     -1.00077924340479     -7.13639903924805
  O   2.85154575656931     -0.78368307217092     -4.95678935364747
--
0 1
  C   4.49058828459565      1.15589856379256     -2.46928985772460
  C   4.90645815367018     -3.10281641829988     -5.95484411575280
  C   3.51177094785996     -2.80621482336234     -6.49228339799105
  H   2.73604386591082     -3.37344524132504     -5.97373550836139
  H   3.44490433841772     -3.04083129884908     -7.55528106024963
  C   5.94212934200506      0.93949984410552     -2.03689287919944
  H   3.86430546335699      0.32853240614265     -2.13661136254684
  H   4.07623274386868      2.04999380182267     -1.98901028401622
  C   6.46267659777243     -3.11777498860426     -3.94467065892023
  C   5.02497747611449     -3.02567893224524     -4.43762488245753
  H   4.42332114610350     -3.81869316486848     -3.97764828764398
  H   4.57935030942481     -2.08713106900852     -4.10872719366710
  H   5.20153297727727     -4.10020738165822     -6.29690539783460
  H   5.60592207052365     -2.39782168691971     -6.41336792459643
  C   6.55995685847378     -0.35629024892673     -2.55908560620210
  H   5.96797606479666      0.95256667785465     -0.94244397924644
  H   6.54718431135504      1.78833055977840     -2.36884939785842
  C   6.00628323940050     -1.61591738837183     -1.89930084213948
  H   7.64235951455788     -0.31800042286935     -2.40205936859516
  H   6.41485458199805     -0.40343321743975     -3.64258686598218
  C   6.60871758019104     -2.91701411166357     -2.43565511072442
  H   6.19032356669693     -1.56111490667591     -0.82094772277603
  H   4.91924976712727     -1.65124456852965     -2.01658615680569
  H   7.06697548314998     -2.37425797298627     -4.47551407757881
  H   6.88780770811373     -4.08974658511977     -4.21533164162003
  H   6.13519652272706     -3.75557318986985     -1.91515938469324
  H   7.67114191560624     -2.95550343181653     -2.17229105947430

symmetry c1
no_reorient
no_com
}

# => Standard Options <= #

set {
basis aug-cc-pvtz
scf_type df
guess sad
freeze_core true
fisapt_do_plot false  # For extra analysis
}

energy('fisapt0')
--------------------------------------------------------------------------

    Molecular point group: c1

    Geometry (in Angstrom), charge = 0, multiplicity = 1:

       Center              X                  Y                   Z               Mass
    ------------   -----------------  -----------------  -----------------  -----------------
           N          4.305393577595     1.222761717730    -3.908317079548    14.003074004780
           C          4.631918021183     2.246365305890    -4.670957837137    12.000000000000
           N          4.541686055879     2.143989580301    -5.987138616363    14.003074004780
           N          5.084085678974     3.393584315472    -4.118545420996    14.003074004780
           H          4.920674706635     3.570500517493    -3.135870477387     1.007825032070
           H          5.254651569726     4.197389740399    -4.706956143676     1.007825032070
           H          3.824529820691     0.449113381493    -4.350925895086     1.007825032070
           H          4.343373370411     1.249317733564    -6.416646416324     1.007825032070
           H          4.676712181348     2.956623521588    -6.574113387638     1.007825032070
           S          3.004617625250    -1.096206351399    -6.389258923461    31.972070999000
           O          4.128856243549    -0.329646951043    -6.953717384829    15.994914619560
           O          1.781284561095    -1.000779243405    -7.136399039248    15.994914619560
           O          2.851545756569    -0.783683072171    -4.956789353647    15.994914619560
           C          4.490588284596     1.155898563793    -2.469289857725    12.000000000000
           C          4.906458153670    -3.102816418300    -5.954844115753    12.000000000000
           C          3.511770947860    -2.806214823362    -6.492283397991    12.000000000000
           H          2.736043865911    -3.373445241325    -5.973735508361     1.007825032070
           H          3.444904338418    -3.040831298849    -7.555281060250     1.007825032070
           C          5.942129342005     0.939499844106    -2.036892879199    12.000000000000
           H          3.864305463357     0.328532406143    -2.136611362547     1.007825032070
           H          4.076232743869     2.049993801823    -1.989010284016     1.007825032070
           C          6.462676597772    -3.117774988604    -3.944670658920    12.000000000000
           C          5.024977476114    -3.025678932245    -4.437624882458    12.000000000000
           H          4.423321146103    -3.818693164868    -3.977648287644     1.007825032070
           H          4.579350309425    -2.087131069009    -4.108727193667     1.007825032070
           H          5.201532977277    -4.100207381658    -6.296905397835     1.007825032070
           H          5.605922070524    -2.397821686920    -6.413367924596     1.007825032070
           C          6.559956858474    -0.356290248927    -2.559085606202    12.000000000000
           H          5.967976064797     0.952566677855    -0.942443979246     1.007825032070
           H          6.547184311355     1.788330559778    -2.368849397858     1.007825032070
           C          6.006283239401    -1.615917388372    -1.899300842139    12.000000000000
           H          7.642359514558    -0.318000422869    -2.402059368595     1.007825032070
           H          6.414854581998    -0.403433217440    -3.642586865982     1.007825032070
           C          6.608717580191    -2.917014111664    -2.435655110724    12.000000000000
           H          6.190323566697    -1.561114906676    -0.820947722776     1.007825032070
           H          4.919249767127    -1.651244568530    -2.016586156806     1.007825032070
           H          7.066975483150    -2.374257972986    -4.475514077579     1.007825032070
           H          6.887807708114    -4.089746585120    -4.215331641620     1.007825032070
           H          6.135196522727    -3.755573189870    -1.915159384693     1.007825032070
           H          7.671141915606    -2.955503431817    -2.172291059474     1.007825032070

  Charge       = 0
  Multiplicity = 1
  Basis Set: AUG-CC-PVTZ
    Blend: AUG-CC-PVTZ
  Basis Set: (AUG-CC-PVTZ AUX)
    Blend: AUG-CC-PVTZ-JKFIT

    Orbital Energies (a.u.)
    -----------------------

    Doubly Occupied:

       1A    -92.135689     2A    -20.489794     3A    -20.488659
       4A    -20.475289     5A    -15.640675     6A    -15.604072
       7A    -15.603353     8A    -11.423647     9A    -11.292723
      10A    -11.243346    11A    -11.226540    12A    -11.220365
      13A    -11.219607    14A    -11.214899    15A    -11.208118
      16A    -11.207940    17A    -11.198547    18A     -9.099999
      19A     -6.785300    20A     -6.785116    21A     -6.784771
      22A     -1.430921    23A     -1.378575    24A     -1.280964
      25A     -1.280120    26A     -1.243607    27A     -1.227202
      28A     -1.104203    29A     -1.074994    30A     -1.040748
      31A     -0.991059    32A     -0.944960    33A     -0.905770
      34A     -0.870942    35A     -0.838893    36A     -0.817230
      37A     -0.806437    38A     -0.771901    39A     -0.754416
      40A     -0.749986    41A     -0.716042    42A     -0.693844
      43A     -0.679071    44A     -0.656884    45A     -0.649777
      46A     -0.636694    47A     -0.629455    48A     -0.623588
      49A     -0.609015    50A     -0.603348    51A     -0.591310
      52A     -0.572723    53A     -0.571345    54A     -0.556553
      55A     -0.542686    56A     -0.531885    57A     -0.511059
      58A     -0.504967    59A     -0.496013    60A     -0.482677
      61A     -0.477378    62A     -0.475522    63A     -0.468899
      64A     -0.461542    65A     -0.450555    66A     -0.445279
      67A     -0.440790    68A     -0.431722    69A     -0.421865
      70A     -0.415787    71A     -0.396185    72A     -0.390422

  @DF-RHF Final Energy: -1177.85856998640747

   => Energetics <=

    Nuclear Repulsion Energy =           1572.1035813756941479
    One-Electron Energy =               -4741.9317894524738222
    Two-Electron Energy =                1991.9696380903719728
    DFT Exchange-Correlation Energy =       0.0000000000000000
    Empirical Dispersion Energy =           0.0000000000000000
    PCM Polarization Energy =               0.0000000000000000
    EFP Energy =                            0.0000000000000000
    Total Energy =                      -1177.8585699864074741
  Basis Set: (AUG-CC-PVTZ AUX)
    Blend: AUG-CC-PVTZ-JKFIT
  Basis Set: (AUG-CC-PVTZ AUX)
    Blend: AUG-CC-PVTZ-JKFIT
  Basis Set: (AUG-CC-PVTZ AUX)
    Blend: AUG-CC-PVTZ-JKFIT
  Basis Set: (AUG-CC-PVTZ AUX)
    Blend: AUG-CC-PVTZ-JKFIT
  Basis Set: (AUG-CC-PVTZ AUX)
    Blend: AUG-CC-PVTZ-RI

    SAPT Results
  --------------------------------------------------------------------------------------------------------
    Electrostatics               -197.20203549 [mEh]    -123.74615069 [kcal/mol]    -517.75394419 [kJ/mol]
      Elst10,r                   -197.20203549 [mEh]    -123.74615069 [kcal/mol]    -517.75394419 [kJ/mol]

    Exchange                       67.73797940 [mEh]      42.50622559 [kcal/mol]     177.84606492 [kJ/mol]
      Exch10                       67.73797940 [mEh]      42.50622559 [kcal/mol]     177.84606492 [kJ/mol]
      Exch10(S^2)                  66.37197063 [mEh]      41.64904210 [kcal/mol]     174.25960889 [kJ/mol]

    Induction                     -39.64360472 [mEh]     -24.87673858 [kcal/mol]    -104.08428420 [kJ/mol]
      Ind20,r                     -51.48972490 [mEh]     -32.31029153 [kcal/mol]    -135.18627274 [kJ/mol]
      Exch-Ind20,r                 26.89289047 [mEh]      16.87554425 [kcal/mol]      70.60728394 [kJ/mol]
      delta HF,r (2)              -15.04677029 [mEh]      -9.44199130 [kcal/mol]     -39.50529540 [kJ/mol]
      Induction (A<-B)            -18.10133511 [mEh]     -11.35875974 [kcal/mol]     -47.52505532 [kJ/mol]
      Induction (B<-A)            -21.54226962 [mEh]     -13.51797884 [kcal/mol]     -56.55922889 [kJ/mol]

    Dispersion                    -15.83955699 [mEh]      -9.93947249 [kcal/mol]     -41.58675688 [kJ/mol]
      Disp20                      -20.26801874 [mEh]     -12.71837430 [kcal/mol]     -53.21368319 [kJ/mol]
      Exch-Disp20                   4.42846174 [mEh]       2.77890181 [kcal/mol]      11.62692631 [kJ/mol]

  Total HF                       -169.10766082 [mEh]    -106.11666368 [kcal/mol]    -443.99216347 [kJ/mol]
  Total SAPT0                    -184.94721781 [mEh]    -116.05613617 [kcal/mol]    -485.57892035 [kJ/mol]

  --------------------------------------------------------------------------------------------------------

*** Psi4 exiting successfully. Buy a developer a beer!
