                         Program Version 5.0.0 -  RELEASE  -
|  1> !PBE D3BJ RIJCOSX def2-TZVP def2/J TightSCF
|  2>
|  3> *xyz -1 1
|  4> C          2.95263        1.86308       -3.57485
|  5> C          4.12921        0.89839       -3.41895
|  6> H          3.73369       -0.10060       -3.23763
|  7> H          4.71910        0.86256       -4.33901
|  8> C          5.01734        1.31521       -2.22130
|  9> O          4.73706        0.85411       -1.12283
| 10> O          5.92815        2.16811       -2.49136
| 11> H          2.35067        1.56005       -4.40594
| 12> H          3.32277        2.85258       -3.74453
| 13> H          2.36134        1.85149       -2.68315
| 14> *
| 15> %MaxCore 64000
| 16>
| 17> %pal nprocs 4
| 18> end
| 19>
| 20> %scf
| 21>   MaxIter 150
| 22> end
| 23>
| 24>
| 25>                          ****END OF INPUT****

CARTESIAN COORDINATES (ANGSTROEM)
---------------------------------
  C      2.952630    1.863080   -3.574850
  C      4.129210    0.898390   -3.418950
  H      3.733690   -0.100600   -3.237630
  H      4.719100    0.862560   -4.339010
  C      5.017340    1.315210   -2.221300
  O      4.737060    0.854110   -1.122830
  O      5.928150    2.168110   -2.491360
  H      2.350670    1.560050   -4.405940
  H      3.322770    2.852580   -3.744530
  H      2.361340    1.851490   -2.683150

 Total Charge           Charge          ....   -1
 Multiplicity           Mult            ....    1
 Number of Electrons    NEL             ....   40
 Basis Dimension        Dim             ....  185

ORBITAL ENERGIES
----------------

  NO   OCC          E(Eh)            E(eV)
   0   2.0000     -18.478700      -502.8310
   1   2.0000     -18.468711      -502.5592
   2   2.0000      -9.742620      -265.1102
   3   2.0000      -9.712037      -264.2780
   4   2.0000      -9.696413      -263.8528
   5   2.0000      -0.726478       -19.7685
   6   2.0000      -0.634552       -17.2670
   7   2.0000      -0.527321       -14.3491
   8   2.0000      -0.399369       -10.8674
   9   2.0000      -0.260246        -7.0817
  10   2.0000      -0.236121        -6.4252
  11   2.0000      -0.201920        -5.4945
  12   2.0000      -0.176254        -4.7961
  13   2.0000      -0.154866        -4.2141
  14   2.0000      -0.153768        -4.1842
  15   2.0000      -0.122154        -3.3240
  16   2.0000      -0.114889        -3.1263
  17   2.0000      -0.001204        -0.0328
  18   2.0000       0.014447         0.3931
  19   2.0000       0.029441         0.8011
  20   0.0000       0.167391         4.5549
  21   0.0000       0.208351         5.6695
  22   0.0000       0.219745         5.9796
  23   0.0000       0.230353         6.2682
  24   0.0000       0.242847         6.6082

MULLIKEN ATOMIC CHARGES
-----------------------
   0 C :   -0.343285
   1 C :   -0.126954
   2 H :    0.017137
   3 H :    0.025105
   4 C :    0.133554
   5 O :   -0.433140
   6 O :   -0.510729
   7 H :    0.059069
   8 H :    0.089061
   9 H :    0.090181
Sum of atomic charges:   -1.0000000

LOEWDIN ATOMIC CHARGES
----------------------
   0 C :   -0.332777
   1 C :   -0.303202
   2 H :    0.112501
   3 H :    0.113679
   4 C :   -0.742919
   5 O :   -0.038948
   6 O :   -0.122938
   7 H :    0.094497
   8 H :    0.110040
   9 H :    0.110066

  Mayer bond orders larger than 0.100000
B(  0-C ,  1-C ) :   0.9951 B(  0-C ,  7-H ) :   0.9635 B(  0-C ,  8-H ) :   0.9718
B(  0-C ,  9-H ) :   0.9753 B(  1-C ,  2-H ) :   0.9283 B(  1-C ,  3-H ) :   0.9348
B(  1-C ,  4-C ) :   0.9062 B(  4-C ,  5-O ) :   1.9529 B(  4-C ,  6-O ) :   1.8780

Dispersion correction           -0.006556637
FINAL SINGLE POINT ENERGY      -267.634282767622

DIPOLE MOMENT
-------------
                                X             Y             Z
Electronic contribution:      4.55859      -0.14514       4.04239
Nuclear contribution   :     -5.85873      -0.10793      -5.24103
                        -----------------------------------------
Total Dipole Moment    :     -1.30014      -0.25308      -1.19864
                        -----------------------------------------
Magnitude (a.u.)       :      1.78637
Magnitude (Debye)      :      4.54060

Rotational constants in cm-1:     0.292505     0.135951     0.110253
Rotational constants in MHz :  8769.065873  4075.717001  3305.311891

                             ****ORCA TERMINATED NORMALLY****
TOTAL RUN TIME: 0 days 0 hours 0 minutes 9 seconds 247 msec
