                         Program Version 5.0.0 -  RELEASE  -
|  1> !PBE D3BJ RIJCOSX def2-TZVP def2/J TightSCF
|  2>
|  3> *xyz 1 1
|  4> C          3.34350        3.35457       -3.59200
|  5> C          2.95263        1.86308       -3.57485
|  6> C          4.25587        3.70385       -4.72605
|  7> N          3.73403        4.29378       -5.80077
|  8> N          5.51504        3.40725       -4.63718
|  9> H          6.14919        3.60120       -5.39905
| 10> H          5.81358        2.89950       -3.80879
| 11> H          2.74138        4.51311       -5.82470
| 12> H          4.28755        4.52126       -6.61434
| 13> H          3.86125        3.59725       -2.66298
| 14> H          2.44649        3.97346       -3.65656
| 15> H          2.44395        1.61721       -4.48352
| 16> H          2.30781        1.67290       -2.74242
| 17> H          3.83491        1.26414       -3.48670
| 18> *
| 19> %MaxCore 64000
| 20>
| 21> %pal nprocs 4
| 22> end
| 23>
| 24> %scf
| 25>   MaxIter 150
| 26> end
| 27>
| 28>
| 29>                          ****END OF INPUT****

CARTESIAN COORDINATES (ANGSTROEM)
---------------------------------
  C      3.343500    3.354570   -3.592000
  C      2.952630    1.863080   -3.574850
  C      4.255870    3.703850   -4.726050
  N      3.734030    4.293780   -5.800770
  N      5.515040    3.407250   -4.637180
  H      6.149190    3.601200   -5.399050
  H      5.813580    2.899500   -3.808790
  H      2.741380    4.513110   -5.824700
  H      4.287550    4.521260   -6.614340
  H      3.861250    3.597250   -2.662980
  H      2.446490    3.973460   -3.656560
  H      2.443950    1.617210   -4.483520
  H      2.307810    1.672900   -2.742420
  H      3.834910    1.264140   -3.486700

 Total Charge           Charge          ....    1
 Multiplicity           Mult            ....    1
 Number of Electrons    NEL             ....   40
 Basis Dimension        Dim             ....  209

ORBITAL ENERGIES
----------------

  NO   OCC          E(Eh)            E(eV)
   0   2.0000     -14.230918      -387.2430
   1   2.0000     -14.227081      -387.1385
   2   2.0000     -10.193161      -277.3700
   3   2.0000     -10.079714      -274.2830
   4   2.0000     -10.035621      -273.0831
   5   2.0000      -1.121440       -30.5159
   6   2.0000      -1.033252       -28.1162
   7   2.0000      -0.897072       -24.4106
   8   2.0000      -0.799082       -21.7441
   9   2.0000      -0.757568       -20.6145
  10   2.0000      -0.725268       -19.7356
  11   2.0000      -0.697305       -18.9746
  12   2.0000      -0.654332       -17.8053
  13   2.0000      -0.600652       -16.3446
  14   2.0000      -0.576660       -15.6917
  15   2.0000      -0.566877       -15.4255
  16   2.0000      -0.503091       -13.6898
  17   2.0000      -0.493583       -13.4311
  18   2.0000      -0.485555       -13.2126
  19   2.0000      -0.454470       -12.3667
  20   0.0000      -0.241157        -6.5622
  21   0.0000      -0.183881        -5.0037
  22   0.0000      -0.138270        -3.7625
  23   0.0000      -0.136063        -3.7025
  24   0.0000      -0.110509        -3.0071

MULLIKEN ATOMIC CHARGES
-----------------------
   0 C :   -0.260316
   1 C :   -0.327718
   2 C :    0.276490
   3 N :   -0.305333
   4 N :   -0.263014
   5 H :    0.271446
   6 H :    0.289978
   7 H :    0.288579
   8 H :    0.270175
   9 H :    0.166965
  10 H :    0.145497
  11 H :    0.141543
  12 H :    0.174306
  13 H :    0.131401
Sum of atomic charges:    1.0000000

LOEWDIN ATOMIC CHARGES
----------------------
   0 C :   -0.224344
   1 C :   -0.261709
   2 C :   -0.314729
   3 N :    0.116502
   4 N :    0.141686
   5 H :    0.200296
   6 H :    0.215005
   7 H :    0.207820
   8 H :    0.193188
   9 H :    0.167316
  10 H :    0.161732
  11 H :    0.130449
  12 H :    0.140976
  13 H :    0.125814

  Mayer bond orders larger than 0.100000
B(  0-C ,  1-C ) :   0.9873 B(  0-C ,  2-C ) :   1.0028 B(  0-C ,  9-H ) :   0.9361
B(  0-C , 10-H ) :   0.9464 B(  1-C , 11-H ) :   0.9570 B(  1-C , 12-H ) :   0.9548
B(  1-C , 13-H ) :   0.9628 B(  2-C ,  3-N ) :   1.4596 B(  2-C ,  4-N ) :   1.4983
B(  3-N ,  7-H ) :   0.8842 B(  3-N ,  8-H ) :   0.8892 B(  4-N ,  5-H ) :   0.8863
B(  4-N ,  6-H ) :   0.8811

Dispersion correction           -0.010122729
FINAL SINGLE POINT ENERGY      -228.828533404245

DIPOLE MOMENT
-------------
                                X             Y             Z
Electronic contribution:      2.38098       2.57688      -2.29935
Nuclear contribution   :     -1.74195      -2.09431       1.58516
                        -----------------------------------------
Total Dipole Moment    :      0.63903       0.48257      -0.71418
                        -----------------------------------------
Magnitude (a.u.)       :      1.07299
Magnitude (Debye)      :      2.72732

Rotational constants in cm-1:     0.258965     0.126500     0.098780
Rotational constants in MHz :  7763.584551  3792.383135  2961.336502

                             ****ORCA TERMINATED NORMALLY****
TOTAL RUN TIME: 0 days 0 hours 0 minutes 10 seconds 564 msec
