                         Program Version 5.0.0 -  RELEASE  -
|  1> !PBE D3BJ RIJCOSX def2-TZVP def2/J TightSCF
|  2>
|  3> *xyz 0 1
|  4> C          2.95263        1.86308       -3.57485
|  5> C          4.12921        0.89839       -3.41895
|  6> H          3.73369       -0.10060       -3.23763
|  7> H          4.71910        0.86256       -4.33901
|  8> C          5.01734        1.31521       -2.22130
|  9> F          4.73706        0.85411       -1.12283
| 10> O          5.92815        2.16811       -2.49136
| 11> H          2.35067        1.56005       -4.40594
| 12> H          3.32277        2.85258       -3.74453
| 13> H          2.36134        1.85149       -2.68315
| 14> *
| 15> %MaxCore 64000
| 16>
| 17> %pal nprocs 4
| 18> end
| 19>
| 20> %scf
| 21>   MaxIter 150
| 22> end
| 23>
| 24>
| 25>                          ****END OF INPUT****

CARTESIAN COORDINATES (ANGSTROEM)
---------------------------------
  C      2.952630    1.863080   -3.574850
  C      4.129210    0.898390   -3.418950
  H      3.733690   -0.100600   -3.237630
  H      4.719100    0.862560   -4.339010
  C      5.017340    1.315210   -2.221300
  F      4.737060    0.854110   -1.122830
  O      5.928150    2.168110   -2.491360
  H      2.350670    1.560050   -4.405940
  H      3.322770    2.852580   -3.744530
  H      2.361340    1.851490   -2.683150

 Total Charge           Charge          ....    0
 Multiplicity           Mult            ....    1
 Number of Electrons    NEL             ....   40
 Basis Dimension        Dim             ....  185

ORBITAL ENERGIES
----------------

  NO   OCC          E(Eh)            E(eV)
   0   2.0000     -24.337052      -662.2449
   1   2.0000     -18.747450      -510.1441
   2   2.0000     -10.048037      -273.4210
   3   2.0000      -9.909133      -269.6412
   4   2.0000      -9.886500      -269.0253
   5   2.0000      -1.238362       -33.6976
   6   2.0000      -0.930651       -25.3243
   7   2.0000      -0.727122       -19.7860
   8   2.0000      -0.625349       -17.0166
   9   2.0000      -0.583463       -15.8768
  10   2.0000      -0.500717       -13.6252
  11   2.0000      -0.484952       -13.1962
  12   2.0000      -0.449215       -12.2238
  13   2.0000      -0.414481       -11.2786
  14   2.0000      -0.384861       -10.4726
  15   2.0000      -0.354715        -9.6523
  16   2.0000      -0.330383        -8.9902
  17   2.0000      -0.325788        -8.8651
  18   2.0000      -0.301843        -8.2136
  19   2.0000      -0.233927        -6.3655
  20   0.0000      -0.064720        -1.7611
  21   0.0000       0.014280         0.3886
  22   0.0000       0.054393         1.4801
  23   0.0000       0.067414         1.8344
  24   0.0000       0.079301         2.1579

MULLIKEN ATOMIC CHARGES
-----------------------
   0 C :   -0.365208
   1 C :   -0.200549
   2 H :    0.100353
   3 H :    0.125817
   4 C :    0.307609
   5 F :   -0.034768
   6 O :   -0.314118
   7 H :    0.126268
   8 H :    0.135449
   9 H :    0.119147
Sum of atomic charges:   -0.0000000

LOEWDIN ATOMIC CHARGES
----------------------
   0 C :   -0.295506
   1 C :   -0.266231
   2 H :    0.137984
   3 H :    0.150249
   4 C :   -0.547638
   5 F :    0.396329
   6 O :    0.056243
   7 H :    0.122400
   8 H :    0.125366
   9 H :    0.120805

  Mayer bond orders larger than 0.100000
B(  0-C ,  1-C ) :   0.9890 B(  0-C ,  7-H ) :   0.9617 B(  0-C ,  8-H ) :   0.9674
B(  0-C ,  9-H ) :   0.9687 B(  1-C ,  2-H ) :   0.9357 B(  1-C ,  3-H ) :   0.9468
B(  1-C ,  4-C ) :   0.9908 B(  4-C ,  5-F ) :   1.2205 B(  4-C ,  6-O ) :   2.0655

Dispersion correction           -0.006212636
FINAL SINGLE POINT ENERGY      -292.180709121922

DIPOLE MOMENT
-------------
                                X             Y             Z
Electronic contribution:      5.10870      -1.14188       6.56132
Nuclear contribution   :     -6.06116       0.51860      -6.80802
                        -----------------------------------------
Total Dipole Moment    :     -0.95246      -0.62328      -0.24670
                        -----------------------------------------
Magnitude (a.u.)       :      1.16470
Magnitude (Debye)      :      2.96043

Rotational constants in cm-1:     0.276196     0.132056     0.105465
Rotational constants in MHz :  8280.156449  3958.940601  3161.775929

                             ****ORCA TERMINATED NORMALLY****
TOTAL RUN TIME: 0 days 0 hours 0 minutes 6 seconds 139 msec
