                         Program Version 5.0.0 -  RELEASE  -
|  1> !PBE D3BJ RIJCOSX def2-TZVP def2/J TightSCF
|  2>
|  3> *xyz 0 1
|  4> C          3.34350        3.35457       -3.59200
|  5> C          2.95263        1.86308       -3.57485
|  6> C          4.25587        3.70385       -4.72605
|  7> C          3.73403        4.29378       -5.80077
|  8> N          5.51504        3.40725       -4.63718
|  9> H          6.14919        3.60120       -5.39905
| 10> H          5.81358        2.89950       -3.80879
| 11> H          2.74138        4.51311       -5.82470
| 12> H          4.28755        4.52126       -6.61434
| 13> H          3.86125        3.59725       -2.66298
| 14> H          2.44649        3.97346       -3.65656
| 15> H          2.44395        1.61721       -4.48352
| 16> H          2.30781        1.67290       -2.74242
| 17> H          3.83491        1.26414       -3.48670
| 18> *
| 19> %MaxCore 64000
| 20>
| 21> %pal nprocs 4
| 22> end
| 23>
| 24> %scf
| 25>   MaxIter 150
| 26> end
| 27>
| 28>
| 29>                          ****END OF INPUT****

CARTESIAN COORDINATES (ANGSTROEM)
---------------------------------
  C      3.343500    3.354570   -3.592000
  C      2.952630    1.863080   -3.574850
  C      4.255870    3.703850   -4.726050
  C      3.734030    4.293780   -5.800770
  N      5.515040    3.407250   -4.637180
  H      6.149190    3.601200   -5.399050
  H      5.813580    2.899500   -3.808790
  H      2.741380    4.513110   -5.824700
  H      4.287550    4.521260   -6.614340
  H      3.861250    3.597250   -2.662980
  H      2.446490    3.973460   -3.656560
  H      2.443950    1.617210   -4.483520
  H      2.307810    1.672900   -2.742420
  H      3.834910    1.264140   -3.486700

 Total Charge           Charge          ....    0
 Multiplicity           Mult            ....    1
 Number of Electrons    NEL             ....   40
 Basis Dimension        Dim             ....  209

ORBITAL ENERGIES
----------------

  NO   OCC          E(Eh)            E(eV)
   0   2.0000     -13.987097      -380.6082
   1   2.0000      -9.895185      -269.2617
   2   2.0000      -9.879685      -268.8399
   3   2.0000      -9.865099      -268.4430
   4   2.0000      -9.809919      -266.9415
   5   2.0000      -0.856814       -23.3151
   6   2.0000      -0.705232       -19.1903
   7   2.0000      -0.643237       -17.5034
   8   2.0000      -0.572477       -15.5779
   9   2.0000      -0.514081       -13.9889
  10   2.0000      -0.480877       -13.0853
  11   2.0000      -0.427507       -11.6331
  12   2.0000      -0.389853       -10.6084
  13   2.0000      -0.373164       -10.1543
  14   2.0000      -0.346323        -9.4239
  15   2.0000      -0.336131        -9.1466
  16   2.0000      -0.310321        -8.4443
  17   2.0000      -0.290651        -7.9090
  18   2.0000      -0.288237        -7.8433
  19   2.0000      -0.155584        -4.2336
  20   0.0000       0.001675         0.0456
  21   0.0000       0.020063         0.5459
  22   0.0000       0.046467         1.2644
  23   0.0000       0.057401         1.5620
  24   0.0000       0.068021         1.8509

MULLIKEN ATOMIC CHARGES
-----------------------
   0 C :   -0.221288
   1 C :   -0.320249
   2 C :    0.200303
   3 C :   -0.419735
   4 N :   -0.378579
   5 H :    0.218266
   6 H :    0.217270
   7 H :    0.094163
   8 H :    0.080273
   9 H :    0.087869
  10 H :    0.108839
  11 H :    0.120424
  12 H :    0.115133
  13 H :    0.097312
Sum of atomic charges:   -0.0000000

LOEWDIN ATOMIC CHARGES
----------------------
   0 C :   -0.243037
   1 C :   -0.297533
   2 C :   -0.387843
   3 C :   -0.282061
   4 N :    0.028751
   5 H :    0.173932
   6 H :    0.173985
   7 H :    0.105621
   8 H :    0.094102
   9 H :    0.135813
  10 H :    0.148645
  11 H :    0.120613
  12 H :    0.116025
  13 H :    0.112989

  Mayer bond orders larger than 0.100000
B(  0-C ,  1-C ) :   0.9887 B(  0-C ,  2-C ) :   0.9880 B(  0-C ,  9-H ) :   0.9506
B(  0-C , 10-H ) :   0.9636 B(  1-C , 11-H ) :   0.9719 B(  1-C , 12-H ) :   0.9653
B(  1-C , 13-H ) :   0.9695 B(  2-C ,  3-C ) :   1.7410 B(  2-C ,  4-N ) :   1.2342
B(  3-C ,  7-H ) :   0.9797 B(  3-C ,  8-H ) :   0.9742 B(  4-N ,  5-H ) :   0.9107
B(  4-N ,  6-H ) :   0.9163

Dispersion correction           -0.010495245
FINAL SINGLE POINT ENERGY      -212.359404022076

DIPOLE MOMENT
-------------
                                X             Y             Z
Electronic contribution:      2.38410       1.47422      -0.86030
Nuclear contribution   :     -1.79713      -1.86925       1.28073
                        -----------------------------------------
Total Dipole Moment    :      0.58697      -0.39503       0.42044
                        -----------------------------------------
Magnitude (a.u.)       :      0.82301
Magnitude (Debye)      :      2.09193

Rotational constants in cm-1:     0.269040     0.129645     0.102087
Rotational constants in MHz :  8065.609820  3886.645139  3060.489045

                             ****ORCA TERMINATED NORMALLY****
TOTAL RUN TIME: 0 days 0 hours 0 minutes 8 seconds 167 msec
