                         Program Version 5.0.0 -  RELEASE  -
|  1> !PBE D3BJ RIJCOSX def2-TZVP def2/J TightSCF
|  2>
|  3> *xyz 0 1
|  4> C          2.95263        1.86308       -3.57485
|  5> C          4.12921        0.89839       -3.41895
|  6> H          3.73369       -0.10060       -3.23763
|  7> H          4.71910        0.86256       -4.33901
|  8> C          5.01734        1.31521       -2.22130
|  9> O          4.73706        0.85411       -1.12283
| 10> F          5.92815        2.16811       -2.49136
| 11> H          2.35067        1.56005       -4.40594
| 12> H          3.32277        2.85258       -3.74453
| 13> H          2.36134        1.85149       -2.68315
| 14> *
| 15> %MaxCore 64000
| 16>
| 17> %pal nprocs 4
| 18> end
| 19>
| 20> %scf
| 21>   MaxIter 150
| 22> end
| 23>
| 24>
| 25>                          ****END OF INPUT****

CARTESIAN COORDINATES (ANGSTROEM)
---------------------------------
  C      2.952630    1.863080   -3.574850
  C      4.129210    0.898390   -3.418950
  H      3.733690   -0.100600   -3.237630
  H      4.719100    0.862560   -4.339010
  C      5.017340    1.315210   -2.221300
  O      4.737060    0.854110   -1.122830
  F      5.928150    2.168110   -2.491360
  H      2.350670    1.560050   -4.405940
  H      3.322770    2.852580   -3.744530
  H      2.361340    1.851490   -2.683150

 Total Charge           Charge          ....    0
 Multiplicity           Mult            ....    1
 Number of Electrons    NEL             ....   40
 Basis Dimension        Dim             ....  185

ORBITAL ENERGIES
----------------

  NO   OCC          E(Eh)            E(eV)
   0   2.0000     -24.316563      -661.6873
   1   2.0000     -18.756297      -510.3848
   2   2.0000     -10.043751      -273.3044
   3   2.0000      -9.908919      -269.6354
   4   2.0000      -9.886891      -269.0360
   5   2.0000      -1.199017       -32.6269
   6   2.0000      -0.962919       -26.2023
   7   2.0000      -0.727071       -19.7846
   8   2.0000      -0.615285       -16.7427
   9   2.0000      -0.571697       -15.5567
  10   2.0000      -0.482623       -13.1329
  11   2.0000      -0.467132       -12.7113
  12   2.0000      -0.447066       -12.1653
  13   2.0000      -0.413204       -11.2439
  14   2.0000      -0.386504       -10.5173
  15   2.0000      -0.356715        -9.7067
  16   2.0000      -0.337056        -9.1718
  17   2.0000      -0.326659        -8.8888
  18   2.0000      -0.317117        -8.6292
  19   2.0000      -0.246126        -6.6974
  20   0.0000      -0.059945        -1.6312
  21   0.0000       0.014376         0.3912
  22   0.0000       0.054280         1.4770
  23   0.0000       0.067623         1.8401
  24   0.0000       0.079178         2.1545

MULLIKEN ATOMIC CHARGES
-----------------------
   0 C :   -0.367339
   1 C :   -0.203297
   2 H :    0.120765
   3 H :    0.107301
   4 C :    0.295051
   5 O :   -0.253896
   6 F :   -0.080657
   7 H :    0.126725
   8 H :    0.121261
   9 H :    0.134086
Sum of atomic charges:    0.0000000

LOEWDIN ATOMIC CHARGES
----------------------
   0 C :   -0.295794
   1 C :   -0.264750
   2 H :    0.149735
   3 H :    0.139301
   4 C :   -0.536981
   5 O :    0.128623
   6 F :    0.311073
   7 H :    0.122520
   8 H :    0.121164
   9 H :    0.125107

  Mayer bond orders larger than 0.100000
B(  0-C ,  1-C ) :   0.9893 B(  0-C ,  7-H ) :   0.9620 B(  0-C ,  8-H ) :   0.9692
B(  0-C ,  9-H ) :   0.9677 B(  1-C ,  2-H ) :   0.9485 B(  1-C ,  3-H ) :   0.9363
B(  1-C ,  4-C ) :   0.9925 B(  4-C ,  5-O ) :   2.1321 B(  4-C ,  6-F ) :   1.1667

Dispersion correction           -0.006212327
FINAL SINGLE POINT ENERGY      -292.196279648884

DIPOLE MOMENT
-------------
                                X             Y             Z
Electronic contribution:      7.06440       1.01927       4.29715
Nuclear contribution   :     -7.35982      -0.91407      -5.31589
                        -----------------------------------------
Total Dipole Moment    :     -0.29542       0.10520      -1.01874
                        -----------------------------------------
Magnitude (a.u.)       :      1.06591
Magnitude (Debye)      :      2.70934

Rotational constants in cm-1:     0.275433     0.132201     0.105422
Rotational constants in MHz :  8257.268192  3963.279062  3160.465566

                             ****ORCA TERMINATED NORMALLY****
TOTAL RUN TIME: 0 days 0 hours 0 minutes 5 seconds 870 msec
