                         Program Version 5.0.0 -  RELEASE  -
|  1> !PBE D3BJ RIJCOSX def2-TZVP def2/J TightSCF
|  2>
|  3> *xyz 0 1
|  4> C          3.34350        3.35457       -3.59200
|  5> C          2.95263        1.86308       -3.57485
|  6> C          4.25587        3.70385       -4.72605
|  7> N          3.73403        4.29378       -5.80077
|  8> C          5.51504        3.40725       -4.63718
|  9> H          6.14919        3.60120       -5.39905
| 10> H          5.81358        2.89950       -3.80879
| 11> H          2.74138        4.51311       -5.82470
| 12> H          4.28755        4.52126       -6.61434
| 13> H          3.86125        3.59725       -2.66298
| 14> H          2.44649        3.97346       -3.65656
| 15> H          2.44395        1.61721       -4.48352
| 16> H          2.30781        1.67290       -2.74242
| 17> H          3.83491        1.26414       -3.48670
| 18> *
| 19> %MaxCore 64000
| 20>
| 21> %pal nprocs 4
| 22> end
| 23>
| 24> %scf
| 25>   MaxIter 150
| 26> end
| 27>
| 28>
| 29>                          ****END OF INPUT****

CARTESIAN COORDINATES (ANGSTROEM)
---------------------------------
  C      3.343500    3.354570   -3.592000
  C      2.952630    1.863080   -3.574850
  C      4.255870    3.703850   -4.726050
  N      3.734030    4.293780   -5.800770
  C      5.515040    3.407250   -4.637180
  H      6.149190    3.601200   -5.399050
  H      5.813580    2.899500   -3.808790
  H      2.741380    4.513110   -5.824700
  H      4.287550    4.521260   -6.614340
  H      3.861250    3.597250   -2.662980
  H      2.446490    3.973460   -3.656560
  H      2.443950    1.617210   -4.483520
  H      2.307810    1.672900   -2.742420
  H      3.834910    1.264140   -3.486700

 Total Charge           Charge          ....    0
 Multiplicity           Mult            ....    1
 Number of Electrons    NEL             ....   40
 Basis Dimension        Dim             ....  209

ORBITAL ENERGIES
----------------

  NO   OCC          E(Eh)            E(eV)
   0   2.0000     -13.983281      -380.5044
   1   2.0000      -9.892930      -269.2003
   2   2.0000      -9.879392      -268.8319
   3   2.0000      -9.862949      -268.3845
   4   2.0000      -9.807911      -266.8868
   5   2.0000      -0.842646       -22.9296
   6   2.0000      -0.707550       -19.2534
   7   2.0000      -0.646719       -17.5981
   8   2.0000      -0.573298       -15.6002
   9   2.0000      -0.508214       -13.8292
  10   2.0000      -0.469438       -12.7741
  11   2.0000      -0.430852       -11.7241
  12   2.0000      -0.391254       -10.6466
  13   2.0000      -0.366067        -9.9612
  14   2.0000      -0.346381        -9.4255
  15   2.0000      -0.337717        -9.1898
  16   2.0000      -0.306050        -8.3280
  17   2.0000      -0.294387        -8.0107
  18   2.0000      -0.284252        -7.7349
  19   2.0000      -0.158834        -4.3221
  20   0.0000       0.004892         0.1331
  21   0.0000       0.020499         0.5578
  22   0.0000       0.047512         1.2929
  23   0.0000       0.054520         1.4836
  24   0.0000       0.072281         1.9669

MULLIKEN ATOMIC CHARGES
-----------------------
   0 C :   -0.212371
   1 C :   -0.322097
   2 C :    0.227861
   3 N :   -0.420295
   4 C :   -0.405304
   5 H :    0.077582
   6 H :    0.097708
   7 H :    0.215141
   8 H :    0.215442
   9 H :    0.114256
  10 H :    0.076447
  11 H :    0.106362
  12 H :    0.111232
  13 H :    0.118035
Sum of atomic charges:   -0.0000000

LOEWDIN ATOMIC CHARGES
----------------------
   0 C :   -0.241488
   1 C :   -0.294626
   2 C :   -0.377074
   3 N :    0.003565
   4 C :   -0.269394
   5 H :    0.099748
   6 H :    0.112887
   7 H :    0.166106
   8 H :    0.166269
   9 H :    0.149529
  10 H :    0.133290
  11 H :    0.117078
  12 H :    0.114530
  13 H :    0.119580

  Mayer bond orders larger than 0.100000
B(  0-C ,  1-C ) :   0.9949 B(  0-C ,  2-C ) :   0.9659 B(  0-C ,  9-H ) :   0.9672
B(  0-C , 10-H ) :   0.9529 B(  1-C , 11-H ) :   0.9713 B(  1-C , 12-H ) :   0.9644
B(  1-C , 13-H ) :   0.9710 B(  2-C ,  3-N ) :   1.1833 B(  2-C ,  4-C ) :   1.7770
B(  3-N ,  7-H ) :   0.9190 B(  3-N ,  8-H ) :   0.9139 B(  4-C ,  5-H ) :   0.9724
B(  4-C ,  6-H ) :   0.9799

Dispersion correction           -0.010504787
FINAL SINGLE POINT ENERGY      -212.359243311441

DIPOLE MOMENT
-------------
                                X             Y             Z
Electronic contribution:      0.75955       2.29864      -1.90922
Nuclear contribution   :     -1.38463      -2.07457       1.55023
                        -----------------------------------------
Total Dipole Moment    :     -0.62507       0.22406      -0.35898
                        -----------------------------------------
Magnitude (a.u.)       :      0.75484
Magnitude (Debye)      :      1.91866

Rotational constants in cm-1:     0.272312     0.128195     0.101724
Rotational constants in MHz :  8163.717141  3843.180148  3049.598073

                             ****ORCA TERMINATED NORMALLY****
TOTAL RUN TIME: 0 days 0 hours 0 minutes 12 seconds 882 msec
