                         Program Version 5.0.0 -  RELEASE  -
|  1> !PBE D3BJ RIJCOSX def2-TZVP def2/J TightSCF xyzfile
|  2>
|  3> *xyzfile 0 1 D1.xyz
|  4>
|  5> %MaxCore 64000
|  6>
|  7> %pal nprocs 18
|  8> end
|  9>
| 10> %scf
| 11>   MaxIter 150
| 12> end
| 13>
| 14>
| 15>                          ****END OF INPUT****

CARTESIAN COORDINATES (ANGSTROEM)
---------------------------------
  C      3.343500    3.354571   -3.591998
  C      2.952633    1.863077   -3.574849
  C      4.129209    0.898394   -3.418950
  H      3.733687   -0.100605   -3.237633
  H      4.719095    0.862556   -4.339005
  C      5.017344    1.315212   -2.221305
  C      4.255868    3.703851   -4.726054
  C      3.734032    4.293783   -5.800770
  N      5.515039    3.407255   -4.637185
  H      6.149187    3.601203   -5.399053
  H      5.813584    2.899504   -3.808785
  H      2.741380    4.513109   -5.824701
  H      4.287548    4.521260   -6.614341
  H      2.278938    1.735250   -2.725496
  H      2.377466    1.625787   -4.475869
  F      4.737055    0.854112   -1.122825
  O      5.928146    2.168108   -2.491365
  H      3.861246    3.597252   -2.662979
  H      2.446493    3.973461   -3.656556

 Total Charge           Charge          ....    0
 Multiplicity           Mult            ....    1
 Number of Electrons    NEL             ....   70
 Basis Dimension        Dim             ....  339

ORBITAL ENERGIES
----------------

  NO   OCC          E(Eh)            E(eV)
   0   2.0000     -24.359750      -662.8625
   1   2.0000     -18.778373      -510.9855
   2   2.0000     -13.950793      -379.6204
   3   2.0000     -10.076227      -274.1881
   4   2.0000      -9.918641      -269.8999
   5   2.0000      -9.903251      -269.4811
   6   2.0000      -9.885533      -268.9990
   7   2.0000      -9.881987      -268.9025
   8   2.0000      -9.800401      -266.6825
   9   2.0000      -1.260206       -34.2920
  10   2.0000      -0.969999       -26.3950
  11   2.0000      -0.835699       -22.7405
  12   2.0000      -0.748358       -20.3639
  13   2.0000      -0.679860       -18.4999
  14   2.0000      -0.641743       -17.4627
  15   2.0000      -0.612541       -16.6681
  16   2.0000      -0.568248       -15.4628
  17   2.0000      -0.522841       -14.2272
  18   2.0000      -0.514236       -13.9931
  19   2.0000      -0.493736       -13.4352
  20   2.0000      -0.487335       -13.2611
  21   2.0000      -0.452269       -12.3069
  22   2.0000      -0.432298       -11.7634
  23   2.0000      -0.409590       -11.1455
  24   2.0000      -0.395194       -10.7538
  25   2.0000      -0.379967       -10.3394
  26   2.0000      -0.348257        -9.4766
  27   2.0000      -0.339662        -9.2427
  28   2.0000      -0.330964        -9.0060
  29   2.0000      -0.326974        -8.8974
  30   2.0000      -0.315343        -8.5809
  31   2.0000      -0.284986        -7.7549
  32   2.0000      -0.280186        -7.6242
  33   2.0000      -0.258880        -7.0445
  34   2.0000      -0.142515        -3.8780
  35   0.0000      -0.091584        -2.4921
  36   0.0000       0.006581         0.1791
  37   0.0000       0.025541         0.6950
  38   0.0000       0.043248         1.1768
  39   0.0000       0.045359         1.2343

MULLIKEN ATOMIC CHARGES
-----------------------
   0 C :   -0.234202
   1 C :   -0.178601
   2 C :   -0.243583
   3 H :    0.117153
   4 H :    0.144055
   5 C :    0.320519
   6 C :    0.170256
   7 C :   -0.430312
   8 N :   -0.394523
   9 H :    0.197905
  10 H :    0.247263
  11 H :    0.085065
  12 H :    0.077993
  13 H :    0.102669
  14 H :    0.112233
  15 F :   -0.020322
  16 O :   -0.303333
  17 H :    0.118277
  18 H :    0.111488
Sum of atomic charges:    0.0000000

LOEWDIN ATOMIC CHARGES
----------------------
   0 C :   -0.216352
   1 C :   -0.250807
   2 C :   -0.238666
   3 H :    0.144748
   4 H :    0.156964
   5 C :   -0.516674
   6 C :   -0.388606
   7 C :   -0.295147
   8 N :    0.032625
   9 H :    0.165235
  10 H :    0.128375
  11 H :    0.101791
  12 H :    0.093507
  13 H :    0.140298
  14 H :    0.147810
  15 F :    0.410994
  16 O :    0.087358
  17 H :    0.143683
  18 H :    0.152865

  Mayer bond orders larger than 0.100000
B(  0-C ,  1-C ) :   0.9870 B(  0-C ,  6-C ) :   0.9778 B(  0-C , 17-H ) :   0.9537
B(  0-C , 18-H ) :   0.9528 B(  1-C ,  2-C ) :   1.0052 B(  1-C , 13-H ) :   0.9471
B(  1-C , 14-H ) :   0.9382 B(  2-C ,  3-H ) :   0.9355 B(  2-C ,  4-H ) :   0.9293
B(  2-C ,  5-C ) :   1.0135 B(  5-C , 15-F ) :   1.2502 B(  5-C , 16-O ) :   1.8934
B(  6-C ,  7-C ) :   1.7233 B(  6-C ,  8-N ) :   1.2749 B(  7-C ,  8-N ) :   0.1031
B(  7-C , 11-H ) :   0.9761 B(  7-C , 12-H ) :   0.9751 B(  8-N ,  9-H ) :   0.9157
B(  8-N , 10-H ) :   0.8238 B( 10-H , 16-O ) :   0.1574

Dispersion correction           -0.018864051
FINAL SINGLE POINT ENERGY      -464.076983180871

DIPOLE MOMENT
-------------
                                X             Y             Z
Electronic contribution:      5.61964      -5.91673      10.57899
Nuclear contribution   :     -5.86483       4.68058     -10.07545
                        -----------------------------------------
Total Dipole Moment    :     -0.24520      -1.23615       0.50354
                        -----------------------------------------
Magnitude (a.u.)       :      1.35710
Magnitude (Debye)      :      3.44949

Rotational constants in cm-1:     0.107256     0.035474     0.030113
Rotational constants in MHz :  3215.453922  1063.481574   902.777619

                             ****ORCA TERMINATED NORMALLY****
TOTAL RUN TIME: 0 days 0 hours 0 minutes 7 seconds 869 msec
