                         Program Version 5.0.0 -  RELEASE  -
|  1> !wB97X-D3 RIJCOSX def2-TZVP def2/J TightSCF
|  2> *xyz -1 1
|  3> C          1.69499        1.54179       -5.57045
|  4> S          1.78029       -0.03313       -6.42874
|  5> O          2.56929        0.21366       -7.60736
|  6> O          0.41688       -0.46297       -6.61859
|  7> O          2.50513       -0.93326       -5.48257
|  8> H          1.18489        2.25500       -6.18367
|  9> H          2.68564        1.89081       -5.36624
| 10> H          1.16361        1.41804       -4.65000
| 11> *
| 12> %MaxCore 64000
| 13>
| 14> %pal nprocs 8
| 15> end
| 16>
| 17> %scf
| 18>   MaxIter 150
| 19> end
| 20>
| 21>
| 22>                          ****END OF INPUT****

CARTESIAN COORDINATES (ANGSTROEM)
---------------------------------
  C      1.694990    1.541790   -5.570450
  S      1.780290   -0.033130   -6.428740
  O      2.569290    0.213660   -7.607360
  O      0.416880   -0.462970   -6.618590
  O      2.505130   -0.933260   -5.482570
  H      1.184890    2.255000   -6.183670
  H      2.685640    1.890810   -5.366240
  H      1.163610    1.418040   -4.650000

 Total Charge           Charge          ....   -1
 Multiplicity           Mult            ....    1
 Number of Electrons    NEL             ....   50
 Basis Dimension        Dim             ....  179

ORBITAL ENERGIES
----------------

  NO   OCC          E(Eh)            E(eV)
   0   2.0000     -88.928172     -2419.8586
   1   2.0000     -19.001897      -517.0679
   2   2.0000     -19.000687      -517.0350
   3   2.0000     -18.982238      -516.5330
   4   2.0000     -10.119736      -275.3720
   5   2.0000      -7.990414      -217.4302
   6   2.0000      -5.944927      -161.7697
   7   2.0000      -5.943391      -161.7279
   8   2.0000      -5.943035      -161.7182
   9   2.0000      -1.031853       -28.0781
  10   2.0000      -0.903377       -24.5821
  11   2.0000      -0.869999       -23.6739
  12   2.0000      -0.692358       -18.8400
  13   2.0000      -0.487005       -13.2521
  14   2.0000      -0.393369       -10.7041
  15   2.0000      -0.384194       -10.4545
  16   2.0000      -0.383305       -10.4303
  17   2.0000      -0.339063        -9.2264
  18   2.0000      -0.335394        -9.1265
  19   2.0000      -0.241917        -6.5829
  20   2.0000      -0.240077        -6.5328
  21   2.0000      -0.204944        -5.5768
  22   2.0000      -0.198390        -5.3985
  23   2.0000      -0.182920        -4.9775
  24   2.0000      -0.147828        -4.0226
  25   0.0000       0.277262         7.5447
  26   0.0000       0.333468         9.0741
  27   0.0000       0.335958         9.1419
  28   0.0000       0.348690         9.4883
  29   0.0000       0.415379        11.3030

MULLIKEN ATOMIC CHARGES
-----------------------
   0 C :   -0.387796
   1 S :    0.847556
   2 O :   -0.561107
   3 O :   -0.562303
   4 O :   -0.620643
   5 H :    0.088538
   6 H :    0.098603
   7 H :    0.097152
Sum of atomic charges:   -1.0000000

LOEWDIN ATOMIC CHARGES
----------------------
   0 C :   -0.462181
   1 S :    0.396036
   2 O :   -0.383236
   3 O :   -0.385215
   4 O :   -0.454315
   5 H :    0.093985
   6 H :    0.097762
   7 H :    0.097164

  Mayer bond orders larger than 0.100000
B(  0-C ,  1-S ) :   0.8738 B(  0-C ,  5-H ) :   0.9655 B(  0-C ,  6-H ) :   0.9703
B(  0-C ,  7-H ) :   0.9699 B(  1-S ,  2-O ) :   1.8038 B(  1-S ,  3-O ) :   1.8019
B(  1-S ,  4-O ) :   1.7397

Dispersion correction           -0.001521635
FINAL SINGLE POINT ENERGY      -663.898678052688

DIPOLE MOMENT
-------------
                                X             Y             Z
Electronic contribution:      0.12194      -3.72425      -2.19624
Nuclear contribution   :     -0.31747       5.08000       2.69095
                        -----------------------------------------
Total Dipole Moment    :     -0.19554       1.35575       0.49471
                        -----------------------------------------
Magnitude (a.u.)       :      1.45637
Magnitude (Debye)      :      3.70181

Rotational constants in cm-1:     0.172246     0.157831     0.154490
Rotational constants in MHz :  5163.797750  4731.657963  4631.481993

                             ****ORCA TERMINATED NORMALLY****
TOTAL RUN TIME: 0 days 0 hours 0 minutes 12 seconds 117 msec
