                         Program Version 5.0.0 -  RELEASE  -
|  1> !wB97X-D3 RIJCOSX def2-TZVP def2/J TightSCF
|  2> *xyz 1 1
|  3> C          1.96337       -1.74915       -1.89689
|  4> N          2.73849       -2.01517       -3.09711
|  5> C          4.04974       -2.15472       -3.15204
|  6> N          4.65821       -1.98629       -4.31866
|  7> N          4.76423       -2.45444       -2.05049
|  8> H          4.28736       -2.77626       -1.21750
|  9> H          5.75082       -2.65835       -2.12599
| 10> H          2.34518       -1.69027       -3.97145
| 11> H          4.10900       -1.59268       -5.07176
| 12> H          5.64910       -2.15646       -4.42724
| 13> H          0.92556       -1.68522       -2.14942
| 14> H          2.28268       -0.82430       -1.46378
| 15> H          2.11118       -2.54207       -1.19381
| 16> *
| 17> %MaxCore 64000
| 18>
| 19> %pal nprocs 8
| 20> end
| 21>
| 22> %scf
| 23>   MaxIter 150
| 24> end
| 25>
| 26>
| 27>                          ****END OF INPUT****

CARTESIAN COORDINATES (ANGSTROEM)
---------------------------------
  C      1.963370   -1.749150   -1.896890
  N      2.738490   -2.015170   -3.097110
  C      4.049740   -2.154720   -3.152040
  N      4.658210   -1.986290   -4.318660
  N      4.764230   -2.454440   -2.050490
  H      4.287360   -2.776260   -1.217500
  H      5.750820   -2.658350   -2.125990
  H      2.345180   -1.690270   -3.971450
  H      4.109000   -1.592680   -5.071760
  H      5.649100   -2.156460   -4.427240
  H      0.925560   -1.685220   -2.149420
  H      2.282680   -0.824300   -1.463780
  H      2.111180   -2.542070   -1.193810

 Total Charge           Charge          ....    1
 Multiplicity           Mult            ....    1
 Number of Electrons    NEL             ....   40
 Basis Dimension        Dim             ....  203

ORBITAL ENERGIES
----------------

  NO   OCC          E(Eh)            E(eV)
   0   2.0000     -14.651401      -398.6849
   1   2.0000     -14.648979      -398.6190
   2   2.0000     -14.647738      -398.5852
   3   2.0000     -10.617134      -288.9069
   4   2.0000     -10.477685      -285.1123
   5   2.0000      -1.340217       -36.4692
   6   2.0000      -1.225432       -33.3457
   7   2.0000      -1.212488       -32.9935
   8   2.0000      -1.022603       -27.8264
   9   2.0000      -0.938227       -25.5304
  10   2.0000      -0.890906       -24.2428
  11   2.0000      -0.862930       -23.4815
  12   2.0000      -0.796348       -21.6697
  13   2.0000      -0.789419       -21.4812
  14   2.0000      -0.759775       -20.6745
  15   2.0000      -0.744402       -20.2562
  16   2.0000      -0.692125       -18.8337
  17   2.0000      -0.676190       -18.4001
  18   2.0000      -0.576097       -15.6764
  19   2.0000      -0.551297       -15.0016
  20   0.0000      -0.085782        -2.3343
  21   0.0000      -0.074078        -2.0158
  22   0.0000      -0.035756        -0.9730
  23   0.0000      -0.027972        -0.7612
  24   0.0000      -0.001517        -0.0413

MULLIKEN ATOMIC CHARGES
-----------------------
   0 C :   -0.274158
   1 N :   -0.285757
   2 C :    0.488947
   3 N :   -0.441603
   4 N :   -0.451191
   5 H :    0.299126
   6 H :    0.297409
   7 H :    0.258078
   8 H :    0.293521
   9 H :    0.305225
  10 H :    0.182211
  11 H :    0.184481
  12 H :    0.143710
Sum of atomic charges:    1.0000000

LOEWDIN ATOMIC CHARGES
----------------------
   0 C :   -0.260410
   1 N :    0.141325
   2 C :   -0.399559
   3 N :    0.066225
   4 N :    0.057217
   5 H :    0.198131
   6 H :    0.197758
   7 H :    0.210909
   8 H :    0.200259
   9 H :    0.201047
  10 H :    0.137033
  11 H :    0.127360
  12 H :    0.122705

  Mayer bond orders larger than 0.100000
B(  0-C ,  1-N ) :   0.8965 B(  0-C , 10-H ) :   0.9558 B(  0-C , 11-H ) :   0.9665
B(  0-C , 12-H ) :   0.9650 B(  1-N ,  2-C ) :   1.3851 B(  1-N ,  7-H ) :   0.9038
B(  2-C ,  3-N ) :   1.3428 B(  2-C ,  4-N ) :   1.3319 B(  3-N ,  8-H ) :   0.8938
B(  3-N ,  9-H ) :   0.8880 B(  4-N ,  5-H ) :   0.8891 B(  4-N ,  6-H ) :   0.8929

Dispersion correction           -0.002387251
FINAL SINGLE POINT ENERGY      -245.107096491942

DIPOLE MOMENT
-------------
                                X             Y             Z
Electronic contribution:      2.06664      -0.55482      -1.82624
Nuclear contribution   :     -1.59972       0.59064       1.48941
                        -----------------------------------------
Total Dipole Moment    :      0.46692       0.03581      -0.33683
                        -----------------------------------------
Magnitude (a.u.)       :      0.57685
Magnitude (Debye)      :      1.46623

Rotational constants in cm-1:     0.309236     0.134358     0.096189
Rotational constants in MHz :  9270.657746  4027.948155  2883.671905

                             ****ORCA TERMINATED NORMALLY****
TOTAL RUN TIME: 0 days 0 hours 0 minutes 17 seconds 592 msec
