                         Program Version 5.0.0 -  RELEASE  -
|  1> !wB97X-D3 RIJCOSX def2-TZVP def2/J TightSCF xyzfile
|  2>
|  3> *xyzfile 0 1 B.xyz
|  4>
|  5> %MaxCore 64000
|  6>
|  7> %pal nprocs 18
|  8> end
|  9>
| 10> %scf
| 11>   MaxIter 150
| 12> end
| 13>
| 14>
| 15>                          ****END OF INPUT****

CARTESIAN COORDINATES (ANGSTROEM)
---------------------------------
  C      1.963365   -1.749150   -1.896887
  N      2.738490   -2.015170   -3.097113
  C      0.611877    1.657634   -4.500288
  C      1.694991    1.541794   -5.570447
  H      2.697326    1.734659   -5.183996
  H      1.506656    2.272239   -6.358076
  S      1.780287   -0.033128   -6.428739
  C      4.049736   -2.154717   -3.152044
  N      4.658206   -1.986293   -4.318655
  N      4.764231   -2.454435   -2.050491
  H      4.287363   -2.776259   -1.217496
  H      5.750825   -2.658351   -2.125988
  H      2.345176   -1.690274   -3.971447
  H      4.109004   -1.592677   -5.071760
  H      5.649095   -2.156462   -4.427237
  O      2.569287    0.213657   -7.607360
  O      0.416880   -0.462969   -6.618595
  C      2.088520   -0.300912   -1.415204
  H      2.231272   -2.451616   -1.102643
  H      0.930249   -1.977801   -2.155438
  C      0.680356    0.655418   -3.348038
  H     -0.356865    1.549231   -4.991128
  H      0.650228    2.675438   -4.096000
  C      1.968993    0.733582   -2.535654
  H      3.051356   -0.168602   -0.911868
  H      1.316501   -0.136231   -0.657252
  O      2.505129   -0.933263   -5.482570
  H      2.824195    0.624726   -3.208464
  H      2.058919    1.730331   -2.093112
  H      0.542252   -0.344731   -3.766662
  H     -0.174219    0.829692   -2.685182

 Total Charge           Charge          ....    0
 Multiplicity           Mult            ....    1
 Number of Electrons    NEL             ....  120
 Basis Dimension        Dim             ....  542

ORBITAL ENERGIES
----------------

  NO   OCC          E(Eh)            E(eV)
   0   2.0000     -89.078649     -2423.9533
   1   2.0000     -19.167271      -521.5680
   2   2.0000     -19.145967      -520.9882
   3   2.0000     -19.144442      -520.9468
   4   2.0000     -14.508995      -394.8098
   5   2.0000     -14.479781      -394.0149
   6   2.0000     -14.476343      -393.9213
   7   2.0000     -10.461042      -284.6594
   8   2.0000     -10.347913      -281.5810
   9   2.0000     -10.297604      -280.2121
  10   2.0000     -10.277998      -279.6786
  11   2.0000     -10.265899      -279.3493
  12   2.0000     -10.262333      -279.2523
  13   2.0000     -10.261788      -279.2374
  14   2.0000      -8.141757      -221.5485
  15   2.0000      -6.096333      -165.8896
  16   2.0000      -6.095061      -165.8550
  17   2.0000      -6.093732      -165.8189
  18   2.0000      -1.188082       -32.3294
  19   2.0000      -1.182599       -32.1801
  20   2.0000      -1.073848       -29.2209
  21   2.0000      -1.059475       -28.8298
  22   2.0000      -1.046589       -28.4791
  23   2.0000      -1.046011       -28.4634
  24   2.0000      -0.939168       -25.5560
  25   2.0000      -0.898632       -24.4530
  26   2.0000      -0.848998       -23.1024
  27   2.0000      -0.808073       -21.9888
  28   2.0000      -0.779624       -21.2146
  29   2.0000      -0.742349       -20.2004
  30   2.0000      -0.735565       -20.0157
  31   2.0000      -0.701299       -19.0833
  32   2.0000      -0.680633       -18.5210
  33   2.0000      -0.658131       -17.9086
  34   2.0000      -0.642012       -17.4700
  35   2.0000      -0.623793       -16.9743
  36   2.0000      -0.606804       -16.5120
  37   2.0000      -0.581880       -15.8338
  38   2.0000      -0.577913       -15.7258
  39   2.0000      -0.571388       -15.5483
  40   2.0000      -0.555206       -15.1079
  41   2.0000      -0.538778       -14.6609
  42   2.0000      -0.525826       -14.3085
  43   2.0000      -0.515525       -14.0282
  44   2.0000      -0.498660       -13.5692
  45   2.0000      -0.490870       -13.3572
  46   2.0000      -0.473241       -12.8775
  47   2.0000      -0.465176       -12.6581
  48   2.0000      -0.458695       -12.4817
  49   2.0000      -0.431603       -11.7445
  50   2.0000      -0.428163       -11.6509
  51   2.0000      -0.421941       -11.4816
  52   2.0000      -0.405508       -11.0344
  53   2.0000      -0.400103       -10.8874
  54   2.0000      -0.392509       -10.6807
  55   2.0000      -0.387329       -10.5398
  56   2.0000      -0.356135        -9.6909
  57   2.0000      -0.346073        -9.4171
  58   2.0000      -0.336189        -9.1482
  59   2.0000      -0.311058        -8.4643
  60   0.0000       0.054496         1.4829
  61   0.0000       0.064301         1.7497
  62   0.0000       0.087768         2.3883
  63   0.0000       0.117125         3.1871
  64   0.0000       0.125521         3.4156

MULLIKEN ATOMIC CHARGES
-----------------------
   0 C :   -0.265440
   1 N :   -0.234399
   2 C :   -0.164512
   3 C :   -0.308752
   4 H :    0.114245
   5 H :    0.143362
   6 S :    0.902359
   7 C :    0.437708
   8 N :   -0.429201
   9 N :   -0.477580
  10 H :    0.275685
  11 H :    0.267929
  12 H :    0.296935
  13 H :    0.318190
  14 H :    0.255401
  15 O :   -0.519157
  16 O :   -0.513337
  17 C :   -0.134269
  18 H :    0.120754
  19 H :    0.180192
  20 C :   -0.254892
  21 H :    0.133503
  22 H :    0.094854
  23 C :   -0.239014
  24 H :    0.109439
  25 H :    0.117515
  26 O :   -0.686816
  27 H :    0.115887
  28 H :    0.113591
  29 H :    0.130582
  30 H :    0.099239
Sum of atomic charges:    0.0000000

LOEWDIN ATOMIC CHARGES
----------------------
   0 C :   -0.275860
   1 N :    0.173521
   2 C :   -0.287212
   3 C :   -0.387522
   4 H :    0.124526
   5 H :    0.137879
   6 S :    0.457600
   7 C :   -0.410443
   8 N :    0.057704
   9 N :    0.020015
  10 H :    0.184664
  11 H :    0.182881
  12 H :    0.184559
  13 H :    0.179352
  14 H :    0.180054
  15 O :   -0.335011
  16 O :   -0.332931
  17 C :   -0.268504
  18 H :    0.126314
  19 H :    0.147941
  20 C :   -0.272189
  21 H :    0.146175
  22 H :    0.135201
  23 C :   -0.269462
  24 H :    0.133976
  25 H :    0.142381
  26 O :   -0.424099
  27 H :    0.137383
  28 H :    0.138935
  29 H :    0.136828
  30 H :    0.135347

  Mayer bond orders larger than 0.100000
B(  0-C ,  1-N ) :   0.9031 B(  0-C , 17-C ) :   0.9229 B(  0-C , 18-H ) :   0.9929
B(  0-C , 19-H ) :   0.9702 B(  1-N ,  7-C ) :   1.4393 B(  1-N , 12-H ) :   0.8086
B(  2-C ,  3-C ) :   0.9592 B(  2-C , 20-C ) :   0.9931 B(  2-C , 21-H ) :   0.9661
B(  2-C , 22-H ) :   0.9682 B(  3-C ,  4-H ) :   0.9672 B(  3-C ,  5-H ) :   0.9609
B(  3-C ,  6-S ) :   0.9002 B(  6-S , 15-O ) :   1.8864 B(  6-S , 16-O ) :   1.8287
B(  6-S , 26-O ) :   1.4018 B(  7-C ,  8-N ) :   1.3954 B(  7-C ,  9-N ) :   1.2548
B(  8-N , 13-H ) :   0.8083 B(  8-N , 14-H ) :   0.9135 B(  9-N , 10-H ) :   0.8964
B(  9-N , 11-H ) :   0.9096 B( 12-H , 26-O ) :   0.1247 B( 13-H , 26-O ) :   0.1109
B( 17-C , 23-C ) :   0.9714 B( 17-C , 24-H ) :   0.9794 B( 17-C , 25-H ) :   0.9771
B( 20-C , 23-C ) :   0.9501 B( 20-C , 29-H ) :   0.9603 B( 20-C , 30-H ) :   0.9730
B( 23-C , 27-H ) :   0.9751 B( 23-C , 28-H ) :   0.9743

Dispersion correction           -0.016453463
FINAL SINGLE POINT ENERGY     -1065.244665086701

DIPOLE MOMENT
-------------
                                X             Y             Z
Electronic contribution:      2.31746      -5.00906     -14.19789
Nuclear contribution   :      0.44641       3.59123      19.13564
                        -----------------------------------------
Total Dipole Moment    :      2.76387      -1.41783       4.93775
                        -----------------------------------------
Magnitude (a.u.)       :      5.83358
Magnitude (Debye)      :     14.82778

Rotational constants in cm-1:     0.029186     0.014646     0.011115
Rotational constants in MHz :   874.975540   439.070287   333.231642

                             ****ORCA TERMINATED NORMALLY****
TOTAL RUN TIME: 0 days 0 hours 1 minutes 20 seconds 100 msec
