                         Program Version 5.0.0 -  RELEASE  -
|  1> !wB97X-D3 RIJCOSX def2-TZVP def2/J TightSCF
|  2> *xyz 0 1
|  3> C          1.69499        1.54179       -5.57045
|  4> S          1.78029       -0.03313       -6.42874
|  5> F          2.56929        0.21366       -7.60736
|  6> O          0.41688       -0.46297       -6.61859
|  7> O          2.50513       -0.93326       -5.48257
|  8> H          1.18489        2.25500       -6.18367
|  9> H          2.68564        1.89081       -5.36624
| 10> H          1.16361        1.41804       -4.65000
| 11> *
| 12> %MaxCore 64000
| 13>
| 14> %pal nprocs 8
| 15> end
| 16>
| 17> %scf
| 18>   MaxIter 150
| 19> end
| 20>
| 21>
| 22>                          ****END OF INPUT****

CARTESIAN COORDINATES (ANGSTROEM)
---------------------------------
  C      1.694990    1.541790   -5.570450
  S      1.780290   -0.033130   -6.428740
  F      2.569290    0.213660   -7.607360
  O      0.416880   -0.462970   -6.618590
  O      2.505130   -0.933260   -5.482570
  H      1.184890    2.255000   -6.183670
  H      2.685640    1.890810   -5.366240
  H      1.163610    1.418040   -4.650000

 Total Charge           Charge          ....    0
 Multiplicity           Mult            ....    1
 Number of Electrons    NEL             ....   50
 Basis Dimension        Dim             ....  179

ORBITAL ENERGIES
----------------

  NO   OCC          E(Eh)            E(eV)
   0   2.0000     -89.202187     -2427.3149
   1   2.0000     -24.912074      -677.8920
   2   2.0000     -19.247666      -523.7556
   3   2.0000     -19.228276      -523.2280
   4   2.0000     -10.332271      -281.1554
   5   2.0000      -8.264892      -224.8991
   6   2.0000      -6.222290      -169.3171
   7   2.0000      -6.216146      -169.1499
   8   2.0000      -6.215388      -169.1293
   9   2.0000      -1.506764       -41.0011
  10   2.0000      -1.221783       -33.2464
  11   2.0000      -1.116153       -30.3721
  12   2.0000      -0.917947       -24.9786
  13   2.0000      -0.829787       -22.5797
  14   2.0000      -0.711209       -19.3530
  15   2.0000      -0.697449       -18.9786
  16   2.0000      -0.661871       -18.0104
  17   2.0000      -0.579282       -15.7631
  18   2.0000      -0.575954       -15.6725
  19   2.0000      -0.565365       -15.3844
  20   2.0000      -0.534354       -14.5405
  21   2.0000      -0.485475       -13.2104
  22   2.0000      -0.436426       -11.8757
  23   2.0000      -0.418225       -11.3805
  24   2.0000      -0.400429       -10.8962
  25   0.0000       0.100639         2.7385
  26   0.0000       0.132137         3.5956
  27   0.0000       0.140978         3.8362
  28   0.0000       0.155130         4.2213
  29   0.0000       0.167856         4.5676

MULLIKEN ATOMIC CHARGES
-----------------------
   0 C :   -0.387169
   1 S :    0.865646
   2 F :   -0.093450
   3 O :   -0.410018
   4 O :   -0.467662
   5 H :    0.153917
   6 H :    0.159199
   7 H :    0.179537
Sum of atomic charges:   -0.0000000

LOEWDIN ATOMIC CHARGES
----------------------
   0 C :   -0.398679
   1 S :    0.521256
   2 F :    0.102010
   3 O :   -0.264327
   4 O :   -0.330944
   5 H :    0.117779
   6 H :    0.120281
   7 H :    0.132624

  Mayer bond orders larger than 0.100000
B(  0-C ,  1-S ) :   0.9250 B(  0-C ,  5-H ) :   0.9455 B(  0-C ,  6-H ) :   0.9475
B(  0-C ,  7-H ) :   0.9487 B(  1-S ,  2-F ) :   1.1529 B(  1-S ,  3-O ) :   1.9416
B(  1-S ,  4-O ) :   1.8751

Dispersion correction           -0.001531723
FINAL SINGLE POINT ENERGY      -688.417547013852

DIPOLE MOMENT
-------------
                                X             Y             Z
Electronic contribution:      1.41700      -3.23425      -4.18435
Nuclear contribution   :     -1.09446       4.91008       3.93848
                        -----------------------------------------
Total Dipole Moment    :      0.32254       1.67583      -0.24587
                        -----------------------------------------
Magnitude (a.u.)       :      1.72421
Magnitude (Debye)      :      4.38258

Rotational constants in cm-1:     0.163326     0.155515     0.146672
Rotational constants in MHz :  4896.387829  4662.220576  4397.127261

                             ****ORCA TERMINATED NORMALLY****
TOTAL RUN TIME: 0 days 0 hours 0 minutes 12 seconds 547 msec
