                         Program Version 5.0.0 -  RELEASE  -
|  1> !wB97X-D3 RIJCOSX def2-TZVP def2/J TightSCF
|  2> *xyz 0 1
|  3> C          1.96337       -1.74915       -1.89689
|  4> C          2.73849       -2.01517       -3.09711
|  5> C          4.04974       -2.15472       -3.15204
|  6> N          4.65821       -1.98629       -4.31866
|  7> N          4.76423       -2.45444       -2.05049
|  8> H          4.28736       -2.77626       -1.21750
|  9> H          5.75082       -2.65835       -2.12599
| 10> H          2.34518       -1.69027       -3.97145
| 11> H          4.10900       -1.59268       -5.07176
| 12> H          5.64910       -2.15646       -4.42724
| 13> H          0.92556       -1.68522       -2.14942
| 14> H          2.28268       -0.82430       -1.46378
| 15> H          2.11118       -2.54207       -1.19381
| 16> *
| 17> %MaxCore 64000
| 18>
| 19> %pal nprocs 8
| 20> end
| 21>
| 22> %scf
| 23>   MaxIter 150
| 24> end
| 25>
| 26>
| 27>                          ****END OF INPUT****

CARTESIAN COORDINATES (ANGSTROEM)
---------------------------------
  C      1.963370   -1.749150   -1.896890
  C      2.738490   -2.015170   -3.097110
  C      4.049740   -2.154720   -3.152040
  N      4.658210   -1.986290   -4.318660
  N      4.764230   -2.454440   -2.050490
  H      4.287360   -2.776260   -1.217500
  H      5.750820   -2.658350   -2.125990
  H      2.345180   -1.690270   -3.971450
  H      4.109000   -1.592680   -5.071760
  H      5.649100   -2.156460   -4.427240
  H      0.925560   -1.685220   -2.149420
  H      2.282680   -0.824300   -1.463780
  H      2.111180   -2.542070   -1.193810

 Total Charge           Charge          ....    0
 Multiplicity           Mult            ....    1
 Number of Electrons    NEL             ....   40
 Basis Dimension        Dim             ....  203

ORBITAL ENERGIES
----------------

  NO   OCC          E(Eh)            E(eV)
   0   2.0000     -14.420047      -392.3894
   1   2.0000     -14.415757      -392.2727
   2   2.0000     -10.315016      -280.6859
   3   2.0000     -10.232917      -278.4518
   4   2.0000     -10.188308      -277.2380
   5   2.0000      -1.074781       -29.2463
   6   2.0000      -0.983633       -26.7660
   7   2.0000      -0.866184       -23.5701
   8   2.0000      -0.766760       -20.8646
   9   2.0000      -0.688007       -18.7216
  10   2.0000      -0.641606       -17.4590
  11   2.0000      -0.610597       -16.6152
  12   2.0000      -0.568207       -15.4617
  13   2.0000      -0.520087       -14.1523
  14   2.0000      -0.510086       -13.8801
  15   2.0000      -0.474218       -12.9041
  16   2.0000      -0.450949       -12.2709
  17   2.0000      -0.428431       -11.6582
  18   2.0000      -0.358180        -9.7466
  19   2.0000      -0.241083        -6.5602
  20   0.0000       0.103329         2.8117
  21   0.0000       0.135189         3.6787
  22   0.0000       0.151202         4.1144
  23   0.0000       0.163998         4.4626
  24   0.0000       0.176900         4.8137

MULLIKEN ATOMIC CHARGES
-----------------------
   0 C :   -0.308920
   1 C :   -0.324221
   2 C :    0.361374
   3 N :   -0.508896
   4 N :   -0.522490
   5 H :    0.253783
   6 H :    0.228410
   7 H :    0.051830
   8 H :    0.252286
   9 H :    0.229626
  10 H :    0.109292
  11 H :    0.105040
  12 H :    0.072888
Sum of atomic charges:    0.0000000

LOEWDIN ATOMIC CHARGES
----------------------
   0 C :   -0.317438
   1 C :   -0.322222
   2 C :   -0.459465
   3 N :   -0.018868
   4 N :   -0.024760
   5 H :    0.176258
   6 H :    0.161513
   7 H :    0.116563
   8 H :    0.180629
   9 H :    0.162375
  10 H :    0.121640
  11 H :    0.114590
  12 H :    0.109185

  Mayer bond orders larger than 0.100000
B(  0-C ,  1-C ) :   1.0090 B(  0-C , 10-H ) :   0.9913 B(  0-C , 11-H ) :   0.9751
B(  0-C , 12-H ) :   0.9778 B(  1-C ,  2-C ) :   1.7037 B(  1-C ,  7-H ) :   1.0076
B(  2-C ,  3-N ) :   1.1509 B(  2-C ,  4-N ) :   1.1351 B(  3-N ,  8-H ) :   0.9163
B(  3-N ,  9-H ) :   0.9254 B(  4-N ,  5-H ) :   0.9199 B(  4-N ,  6-H ) :   0.9247

Dispersion correction           -0.002389699
FINAL SINGLE POINT ENERGY      -228.622333934288

DIPOLE MOMENT
-------------
                                X             Y             Z
Electronic contribution:      2.83102      -0.67006      -1.59643
Nuclear contribution   :     -1.78367       0.60166       1.44982
                        -----------------------------------------
Total Dipole Moment    :      1.04735      -0.06840      -0.14662
                        -----------------------------------------
Magnitude (a.u.)       :      1.05978
Magnitude (Debye)      :      2.69373

Rotational constants in cm-1:     0.313991     0.135452     0.097139
Rotational constants in MHz :  9413.212964  4060.745953  2912.144668

                             ****ORCA TERMINATED NORMALLY****
TOTAL RUN TIME: 0 days 0 hours 0 minutes 17 seconds 869 msec
