                         Program Version 5.0.0 -  RELEASE  -
|  1> !wB97X-D3 RIJCOSX def2-TZVP def2/J TightSCF
|  2> *xyz 0 1
|  3> C          1.69499        1.54179       -5.57045
|  4> S          1.78029       -0.03313       -6.42874
|  5> O          2.56929        0.21366       -7.60736
|  6> F          0.41688       -0.46297       -6.61859
|  7> O          2.50513       -0.93326       -5.48257
|  8> H          1.18489        2.25500       -6.18367
|  9> H          2.68564        1.89081       -5.36624
| 10> H          1.16361        1.41804       -4.65000
| 11> *
| 12> %MaxCore 64000
| 13>
| 14> %pal nprocs 8
| 15> end
| 16>
| 17> %scf
| 18>   MaxIter 150
| 19> end
| 20>
| 21>
| 22>                          ****END OF INPUT****

CARTESIAN COORDINATES (ANGSTROEM)
---------------------------------
  C      1.694990    1.541790   -5.570450
  S      1.780290   -0.033130   -6.428740
  O      2.569290    0.213660   -7.607360
  F      0.416880   -0.462970   -6.618590
  O      2.505130   -0.933260   -5.482570
  H      1.184890    2.255000   -6.183670
  H      2.685640    1.890810   -5.366240
  H      1.163610    1.418040   -4.650000

 Total Charge           Charge          ....    0
 Multiplicity           Mult            ....    1
 Number of Electrons    NEL             ....   50
 Basis Dimension        Dim             ....  179

ORBITAL ENERGIES
----------------

  NO   OCC          E(Eh)            E(eV)
   0   2.0000     -89.201933     -2427.3080
   1   2.0000     -24.912373      -677.9001
   2   2.0000     -19.246498      -523.7238
   3   2.0000     -19.228323      -523.2293
   4   2.0000     -10.332280      -281.1556
   5   2.0000      -8.264677      -224.8933
   6   2.0000      -6.222035      -169.3102
   7   2.0000      -6.215943      -169.1444
   8   2.0000      -6.215175      -169.1235
   9   2.0000      -1.505703       -40.9723
  10   2.0000      -1.222683       -33.2709
  11   2.0000      -1.115838       -30.3635
  12   2.0000      -0.917516       -24.9669
  13   2.0000      -0.829828       -22.5808
  14   2.0000      -0.710777       -19.3412
  15   2.0000      -0.696904       -18.9637
  16   2.0000      -0.661455       -17.9991
  17   2.0000      -0.579333       -15.7644
  18   2.0000      -0.575755       -15.6671
  19   2.0000      -0.565950       -15.4003
  20   2.0000      -0.534211       -14.5366
  21   2.0000      -0.485647       -13.2151
  22   2.0000      -0.435702       -11.8561
  23   2.0000      -0.418176       -11.3792
  24   2.0000      -0.399918       -10.8823
  25   0.0000       0.099220         2.6999
  26   0.0000       0.131431         3.5764
  27   0.0000       0.140904         3.8342
  28   0.0000       0.154732         4.2105
  29   0.0000       0.168651         4.5892

MULLIKEN ATOMIC CHARGES
-----------------------
   0 C :   -0.386796
   1 S :    0.864767
   2 O :   -0.409212
   3 F :   -0.094239
   4 O :   -0.466958
   5 H :    0.153685
   6 H :    0.180476
   7 H :    0.158277
Sum of atomic charges:    0.0000000

LOEWDIN ATOMIC CHARGES
----------------------
   0 C :   -0.398514
   1 S :    0.521401
   2 O :   -0.262642
   3 F :    0.099418
   4 O :   -0.330328
   5 H :    0.117764
   6 H :    0.133025
   7 H :    0.119877

  Mayer bond orders larger than 0.100000
B(  0-C ,  1-S ) :   0.9254 B(  0-C ,  5-H ) :   0.9456 B(  0-C ,  6-H ) :   0.9484
B(  0-C ,  7-H ) :   0.9476 B(  1-S ,  2-O ) :   1.9429 B(  1-S ,  3-F ) :   1.1511
B(  1-S ,  4-O ) :   1.8752

Dispersion correction           -0.001531061
FINAL SINGLE POINT ENERGY      -688.416774556107

DIPOLE MOMENT
-------------
                                X             Y             Z
Electronic contribution:     -2.19770      -4.37068      -2.52018
Nuclear contribution   :      1.05593       5.58608       2.95063
                        -----------------------------------------
Total Dipole Moment    :     -1.14177       1.21540       0.43045
                        -----------------------------------------
Magnitude (a.u.)       :      1.72224
Magnitude (Debye)      :      4.37758

Rotational constants in cm-1:     0.163930     0.155251     0.146268
Rotational constants in MHz :  4914.487830  4654.318941  4385.000376

                             ****ORCA TERMINATED NORMALLY****
TOTAL RUN TIME: 0 days 0 hours 0 minutes 12 seconds 674 msec
