                         Program Version 5.0.0 -  RELEASE  -
|  1> !wB97X-D3 RIJCOSX def2-TZVP def2/J TightSCF
|  2> *xyz 0 1
|  3> C          1.96337       -1.74915       -1.89689
|  4> N          2.73849       -2.01517       -3.09711
|  5> C          4.04974       -2.15472       -3.15204
|  6> C          4.65821       -1.98629       -4.31866
|  7> N          4.76423       -2.45444       -2.05049
|  8> H          4.28736       -2.77626       -1.21750
|  9> H          5.75082       -2.65835       -2.12599
| 10> H          2.34518       -1.69027       -3.97145
| 11> H          4.10900       -1.59268       -5.07176
| 12> H          5.64910       -2.15646       -4.42724
| 13> H          0.92556       -1.68522       -2.14942
| 14> H          2.28268       -0.82430       -1.46378
| 15> H          2.11118       -2.54207       -1.19381
| 16> *
| 17> %MaxCore 64000
| 18>
| 19> %pal nprocs 8
| 20> end
| 21>
| 22> %scf
| 23>   MaxIter 150
| 24> end
| 25>
| 26>
| 27>                          ****END OF INPUT****

CARTESIAN COORDINATES (ANGSTROEM)
---------------------------------
  C      1.963370   -1.749150   -1.896890
  N      2.738490   -2.015170   -3.097110
  C      4.049740   -2.154720   -3.152040
  C      4.658210   -1.986290   -4.318660
  N      4.764230   -2.454440   -2.050490
  H      4.287360   -2.776260   -1.217500
  H      5.750820   -2.658350   -2.125990
  H      2.345180   -1.690270   -3.971450
  H      4.109000   -1.592680   -5.071760
  H      5.649100   -2.156460   -4.427240
  H      0.925560   -1.685220   -2.149420
  H      2.282680   -0.824300   -1.463780
  H      2.111180   -2.542070   -1.193810

 Total Charge           Charge          ....    0
 Multiplicity           Mult            ....    1
 Number of Electrons    NEL             ....   40
 Basis Dimension        Dim             ....  203

ORBITAL ENERGIES
----------------

  NO   OCC          E(Eh)            E(eV)
   0   2.0000     -14.420497      -392.4017
   1   2.0000     -14.419509      -392.3748
   2   2.0000     -10.319952      -280.8202
   3   2.0000     -10.303886      -280.3830
   4   2.0000     -10.181204      -277.0446
   5   2.0000      -1.084902       -29.5217
   6   2.0000      -0.996808       -27.1245
   7   2.0000      -0.859446       -23.3867
   8   2.0000      -0.778487       -21.1837
   9   2.0000      -0.704907       -19.1815
  10   2.0000      -0.636043       -17.3076
  11   2.0000      -0.593419       -16.1478
  12   2.0000      -0.573525       -15.6064
  13   2.0000      -0.557137       -15.1605
  14   2.0000      -0.500507       -13.6195
  15   2.0000      -0.484820       -13.1926
  16   2.0000      -0.483779       -13.1643
  17   2.0000      -0.458288       -12.4706
  18   2.0000      -0.348591        -9.4856
  19   2.0000      -0.248321        -6.7572
  20   0.0000       0.105401         2.8681
  21   0.0000       0.138404         3.7662
  22   0.0000       0.147753         4.0206
  23   0.0000       0.156528         4.2593
  24   0.0000       0.185338         5.0433

MULLIKEN ATOMIC CHARGES
-----------------------
   0 C :   -0.246975
   1 N :   -0.341187
   2 C :    0.407858
   3 C :   -0.552904
   4 N :   -0.523556
   5 H :    0.229759
   6 H :    0.254917
   7 H :    0.225804
   8 H :    0.084183
   9 H :    0.096775
  10 H :    0.129111
  11 H :    0.130206
  12 H :    0.106009
Sum of atomic charges:   -0.0000000

LOEWDIN ATOMIC CHARGES
----------------------
   0 C :   -0.307804
   1 N :    0.085167
   2 C :   -0.462080
   3 C :   -0.344906
   4 N :   -0.022212
   5 H :    0.161946
   6 H :    0.176848
   7 H :    0.195529
   8 H :    0.095951
   9 H :    0.094467
  10 H :    0.115302
  11 H :    0.105985
  12 H :    0.105807

  Mayer bond orders larger than 0.100000
B(  0-C ,  1-N ) :   0.9505 B(  0-C , 10-H ) :   0.9754 B(  0-C , 11-H ) :   0.9743
B(  0-C , 12-H ) :   0.9777 B(  1-N ,  2-C ) :   1.2101 B(  1-N ,  7-H ) :   0.9258
B(  2-C ,  3-C ) :   1.6021 B(  2-C ,  4-N ) :   1.1314 B(  3-C ,  8-H ) :   1.0143
B(  3-C ,  9-H ) :   1.0134 B(  4-N ,  5-H ) :   0.9228 B(  4-N ,  6-H ) :   0.9209

Dispersion correction           -0.002400261
FINAL SINGLE POINT ENERGY      -228.616345467212

DIPOLE MOMENT
-------------
                                X             Y             Z
Electronic contribution:      0.85077      -0.65536      -0.28832
Nuclear contribution   :     -1.39484       0.60751       1.20240
                        -----------------------------------------
Total Dipole Moment    :     -0.54407      -0.04785       0.91408
                        -----------------------------------------
Magnitude (a.u.)       :      1.06482
Magnitude (Debye)      :      2.70655

Rotational constants in cm-1:     0.316419     0.139940     0.099730
Rotational constants in MHz :  9485.991536  4195.289338  2989.818216

                             ****ORCA TERMINATED NORMALLY****
TOTAL RUN TIME: 0 days 0 hours 0 minutes 18 seconds 429 msec
