                         Program Version 5.0.0 -  RELEASE  -
|  1> !wB97X-D3 RIJCOSX def2-TZVP def2/J TightSCF
|  2> *xyz 0 1
|  3> C          1.69499        1.54179       -5.57045
|  4> S          1.78029       -0.03313       -6.42874
|  5> O          2.56929        0.21366       -7.60736
|  6> O          0.41688       -0.46297       -6.61859
|  7> F          2.50513       -0.93326       -5.48257
|  8> H          1.18489        2.25500       -6.18367
|  9> H          2.68564        1.89081       -5.36624
| 10> H          1.16361        1.41804       -4.65000
| 11> *
| 12> %MaxCore 64000
| 13>
| 14> %pal nprocs 8
| 15> end
| 16>
| 17> %scf
| 18>   MaxIter 150
| 19> end
| 20>
| 21>
| 22>                          ****END OF INPUT****

CARTESIAN COORDINATES (ANGSTROEM)
---------------------------------
  C      1.694990    1.541790   -5.570450
  S      1.780290   -0.033130   -6.428740
  O      2.569290    0.213660   -7.607360
  O      0.416880   -0.462970   -6.618590
  F      2.505130   -0.933260   -5.482570
  H      1.184890    2.255000   -6.183670
  H      2.685640    1.890810   -5.366240
  H      1.163610    1.418040   -4.650000

 Total Charge           Charge          ....    0
 Multiplicity           Mult            ....    1
 Number of Electrons    NEL             ....   50
 Basis Dimension        Dim             ....  179

ORBITAL ENERGIES
----------------

  NO   OCC          E(Eh)            E(eV)
   0   2.0000     -89.199403     -2427.2392
   1   2.0000     -24.884541      -677.1428
   2   2.0000     -19.247180      -523.7424
   3   2.0000     -19.245981      -523.7098
   4   2.0000     -10.331240      -281.1273
   5   2.0000      -8.262115      -224.8236
   6   2.0000      -6.219569      -169.2431
   7   2.0000      -6.213623      -169.0813
   8   2.0000      -6.212472      -169.0500
   9   2.0000      -1.462232       -39.7893
  10   2.0000      -1.234463       -33.5915
  11   2.0000      -1.143391       -31.1133
  12   2.0000      -0.915138       -24.9022
  13   2.0000      -0.807109       -21.9625
  14   2.0000      -0.689839       -18.7715
  15   2.0000      -0.666243       -18.1294
  16   2.0000      -0.656582       -17.8665
  17   2.0000      -0.579190       -15.7606
  18   2.0000      -0.578521       -15.7424
  19   2.0000      -0.563527       -15.3343
  20   2.0000      -0.543072       -14.7777
  21   2.0000      -0.492826       -13.4105
  22   2.0000      -0.441496       -12.0137
  23   2.0000      -0.436904       -11.8888
  24   2.0000      -0.420609       -11.4454
  25   0.0000       0.103907         2.8274
  26   0.0000       0.129501         3.5239
  27   0.0000       0.144414         3.9297
  28   0.0000       0.162595         4.4244
  29   0.0000       0.165835         4.5126

MULLIKEN ATOMIC CHARGES
-----------------------
   0 C :   -0.389338
   1 S :    0.872924
   2 O :   -0.420878
   3 O :   -0.421042
   4 F :   -0.133655
   5 H :    0.175039
   6 H :    0.159082
   7 H :    0.157867
Sum of atomic charges:   -0.0000000

LOEWDIN ATOMIC CHARGES
----------------------
   0 C :   -0.398146
   1 S :    0.528642
   2 O :   -0.268139
   3 O :   -0.269309
   4 F :    0.036564
   5 H :    0.130660
   6 H :    0.120140
   7 H :    0.119587

  Mayer bond orders larger than 0.100000
B(  0-C ,  1-S ) :   0.9249 B(  0-C ,  5-H ) :   0.9477 B(  0-C ,  6-H ) :   0.9479
B(  0-C ,  7-H ) :   0.9479 B(  1-S ,  2-O ) :   1.9399 B(  1-S ,  3-O ) :   1.9388
B(  1-S ,  4-F ) :   1.1019

Dispersion correction           -0.001529323
FINAL SINGLE POINT ENERGY      -688.439984097859

DIPOLE MOMENT
-------------
                                X             Y             Z
Electronic contribution:      1.32386      -5.17553      -0.58623
Nuclear contribution   :     -1.03036       6.05593       1.81567
                        -----------------------------------------
Total Dipole Moment    :      0.29350       0.88039       1.22945
                        -----------------------------------------
Magnitude (a.u.)       :      1.54038
Magnitude (Debye)      :      3.91533

Rotational constants in cm-1:     0.164224     0.152173     0.148737
Rotational constants in MHz :  4923.310232  4562.031098  4459.033187

                             ****ORCA TERMINATED NORMALLY****
TOTAL RUN TIME: 0 days 0 hours 0 minutes 12 seconds 665 msec
