                         Program Version 5.0.0 -  RELEASE  -
|  1> !wB97X-D3 RIJCOSX def2-TZVP def2/J TightSCF
|  2> *xyz 0 1
|  3> C          1.96337       -1.74915       -1.89689
|  4> N          2.73849       -2.01517       -3.09711
|  5> C          4.04974       -2.15472       -3.15204
|  6> N          4.65821       -1.98629       -4.31866
|  7> C          4.76423       -2.45444       -2.05049
|  8> H          4.28736       -2.77626       -1.21750
|  9> H          5.75082       -2.65835       -2.12599
| 10> H          2.34518       -1.69027       -3.97145
| 11> H          4.10900       -1.59268       -5.07176
| 12> H          5.64910       -2.15646       -4.42724
| 13> H          0.92556       -1.68522       -2.14942
| 14> H          2.28268       -0.82430       -1.46378
| 15> H          2.11118       -2.54207       -1.19381
| 16> *
| 17> %MaxCore 64000
| 18>
| 19> %pal nprocs 8
| 20> end
| 21>
| 22> %scf
| 23>   MaxIter 150
| 24> end
| 25>
| 26>
| 27>                          ****END OF INPUT****

CARTESIAN COORDINATES (ANGSTROEM)
---------------------------------
  C      1.963370   -1.749150   -1.896890
  N      2.738490   -2.015170   -3.097110
  C      4.049740   -2.154720   -3.152040
  N      4.658210   -1.986290   -4.318660
  C      4.764230   -2.454440   -2.050490
  H      4.287360   -2.776260   -1.217500
  H      5.750820   -2.658350   -2.125990
  H      2.345180   -1.690270   -3.971450
  H      4.109000   -1.592680   -5.071760
  H      5.649100   -2.156460   -4.427240
  H      0.925560   -1.685220   -2.149420
  H      2.282680   -0.824300   -1.463780
  H      2.111180   -2.542070   -1.193810

 Total Charge           Charge          ....    0
 Multiplicity           Mult            ....    1
 Number of Electrons    NEL             ....   40
 Basis Dimension        Dim             ....  203

ORBITAL ENERGIES
----------------

  NO   OCC          E(Eh)            E(eV)
   0   2.0000     -14.425258      -392.5312
   1   2.0000     -14.420858      -392.4115
   2   2.0000     -10.321295      -280.8567
   3   2.0000     -10.297017      -280.1961
   4   2.0000     -10.182071      -277.0683
   5   2.0000      -1.090913       -29.6852
   6   2.0000      -1.000499       -27.2250
   7   2.0000      -0.833484       -22.6802
   8   2.0000      -0.807879       -21.9835
   9   2.0000      -0.674176       -18.3453
  10   2.0000      -0.647575       -17.6214
  11   2.0000      -0.627234       -17.0679
  12   2.0000      -0.552357       -15.0304
  13   2.0000      -0.545902       -14.8547
  14   2.0000      -0.513414       -13.9707
  15   2.0000      -0.478522       -13.0212
  16   2.0000      -0.469202       -12.7676
  17   2.0000      -0.462033       -12.5726
  18   2.0000      -0.344258        -9.3677
  19   2.0000      -0.251051        -6.8314
  20   0.0000       0.102198         2.7809
  21   0.0000       0.138208         3.7608
  22   0.0000       0.148679         4.0458
  23   0.0000       0.165485         4.5031
  24   0.0000       0.176023         4.7898

MULLIKEN ATOMIC CHARGES
-----------------------
   0 C :   -0.228124
   1 N :   -0.339333
   2 C :    0.375900
   3 N :   -0.510218
   4 C :   -0.529639
   5 H :    0.090561
   6 H :    0.086783
   7 H :    0.191071
   8 H :    0.220838
   9 H :    0.261512
  10 H :    0.121609
  11 H :    0.130612
  12 H :    0.128428
Sum of atomic charges:   -0.0000000

LOEWDIN ATOMIC CHARGES
----------------------
   0 C :   -0.292164
   1 N :    0.085533
   2 C :   -0.470470
   3 N :   -0.013908
   4 C :   -0.352796
   5 H :    0.095757
   6 H :    0.092534
   7 H :    0.176825
   8 H :    0.162591
   9 H :    0.180094
  10 H :    0.111864
  11 H :    0.109276
  12 H :    0.114865

  Mayer bond orders larger than 0.100000
B(  0-C ,  1-N ) :   0.9473 B(  0-C , 10-H ) :   0.9701 B(  0-C , 11-H ) :   0.9809
B(  0-C , 12-H ) :   0.9737 B(  1-N ,  2-C ) :   1.1940 B(  1-N ,  7-H ) :   0.9341
B(  2-C ,  3-N ) :   1.1373 B(  2-C ,  4-C ) :   1.6324 B(  3-N ,  8-H ) :   0.9260
B(  3-N ,  9-H ) :   0.9160 B(  4-C ,  5-H ) :   1.0122 B(  4-C ,  6-H ) :   1.0057

Dispersion correction           -0.002385497
FINAL SINGLE POINT ENERGY      -228.616427095331

DIPOLE MOMENT
-------------
                                X             Y             Z
Electronic contribution:      0.75680      -0.10517      -2.62980
Nuclear contribution   :     -1.37336       0.51269       1.66180
                        -----------------------------------------
Total Dipole Moment    :     -0.61656       0.40752      -0.96800
                        -----------------------------------------
Magnitude (a.u.)       :      1.21788
Magnitude (Debye)      :      3.09561

Rotational constants in cm-1:     0.331915     0.135033     0.098638
Rotational constants in MHz :  9950.555862  4048.179255  2957.099162

                             ****ORCA TERMINATED NORMALLY****
TOTAL RUN TIME: 0 days 0 hours 0 minutes 18 seconds 170 msec
