                         Program Version 5.0.0 -  RELEASE  -
|  1> !wB97X-D3 RIJCOSX def2-TZVP def2/J TightSCF xyzfile
|  2>
|  3> *xyzfile 0 1 D5.xyz
|  4>
|  5> %MaxCore 64000
|  6>
|  7> %pal nprocs 18
|  8> end
|  9>
| 10> %scf
| 11>   MaxIter 150
| 12> end
| 13>
| 14>
| 15>                          ****END OF INPUT****

CARTESIAN COORDINATES (ANGSTROEM)
---------------------------------
  C      1.963365   -1.749150   -1.896887
  N      2.738490   -2.015170   -3.097113
  C      0.611877    1.657634   -4.500288
  C      1.694991    1.541794   -5.570447
  H      2.697326    1.734659   -5.183996
  H      1.506656    2.272239   -6.358076
  S      1.780287   -0.033128   -6.428739
  C      4.049736   -2.154717   -3.152044
  C      4.658206   -1.986293   -4.318655
  N      4.764231   -2.454435   -2.050491
  H      4.287363   -2.776259   -1.217496
  H      5.750825   -2.658351   -2.125988
  H      2.345176   -1.690274   -3.971447
  H      4.109004   -1.592677   -5.071760
  H      5.649095   -2.156462   -4.427237
  O      2.569287    0.213657   -7.607360
  F      0.416880   -0.462969   -6.618595
  C      2.088520   -0.300912   -1.415204
  H      2.231272   -2.451616   -1.102643
  H      0.930249   -1.977801   -2.155438
  C      0.680356    0.655418   -3.348038
  H     -0.356865    1.549231   -4.991128
  H      0.650228    2.675438   -4.096000
  C      1.968993    0.733582   -2.535654
  H      3.051356   -0.168602   -0.911868
  H      1.316501   -0.136231   -0.657252
  O      2.505129   -0.933263   -5.482570
  H      2.824195    0.624726   -3.208464
  H      2.058919    1.730331   -2.093112
  H      0.542252   -0.344731   -3.766662
  H     -0.174219    0.829692   -2.685182

 Total Charge           Charge          ....    0
 Multiplicity           Mult            ....    1
 Number of Electrons    NEL             ....  120
 Basis Dimension        Dim             ....  542

ORBITAL ENERGIES
----------------

  NO   OCC          E(Eh)            E(eV)
   0   2.0000     -89.207046     -2427.4471
   1   2.0000     -24.918771      -678.0742
   2   2.0000     -19.254574      -523.9436
   3   2.0000     -19.241279      -523.5818
   4   2.0000     -14.399855      -391.8400
   5   2.0000     -14.386596      -391.4792
   6   2.0000     -10.341729      -281.4128
   7   2.0000     -10.311721      -280.5962
   8   2.0000     -10.300030      -280.2781
   9   2.0000     -10.294802      -280.1358
  10   2.0000     -10.289880      -280.0019
  11   2.0000     -10.275926      -279.6222
  12   2.0000     -10.269785      -279.4551
  13   2.0000     -10.150194      -276.2008
  14   2.0000      -8.270780      -225.0594
  15   2.0000      -6.228227      -169.4787
  16   2.0000      -6.221801      -169.3038
  17   2.0000      -6.221189      -169.2872
  18   2.0000      -1.512345       -41.1530
  19   2.0000      -1.233138       -33.5554
  20   2.0000      -1.132954       -30.8293
  21   2.0000      -1.062497       -28.9120
  22   2.0000      -0.979709       -26.6592
  23   2.0000      -0.964977       -26.2584
  24   2.0000      -0.911567       -24.8050
  25   2.0000      -0.873080       -23.7577
  26   2.0000      -0.836584       -22.7646
  27   2.0000      -0.813208       -22.1285
  28   2.0000      -0.772809       -21.0292
  29   2.0000      -0.739322       -20.1180
  30   2.0000      -0.712344       -19.3839
  31   2.0000      -0.709821       -19.3152
  32   2.0000      -0.695722       -18.9316
  33   2.0000      -0.677833       -18.4448
  34   2.0000      -0.653119       -17.7723
  35   2.0000      -0.619677       -16.8623
  36   2.0000      -0.605375       -16.4731
  37   2.0000      -0.597246       -16.2519
  38   2.0000      -0.580276       -15.7901
  39   2.0000      -0.574667       -15.6375
  40   2.0000      -0.568118       -15.4593
  41   2.0000      -0.558520       -15.1981
  42   2.0000      -0.543957       -14.8018
  43   2.0000      -0.529434       -14.4066
  44   2.0000      -0.522515       -14.2184
  45   2.0000      -0.496301       -13.5050
  46   2.0000      -0.493666       -13.4333
  47   2.0000      -0.482789       -13.1374
  48   2.0000      -0.473851       -12.8941
  49   2.0000      -0.461295       -12.5525
  50   2.0000      -0.455601       -12.3975
  51   2.0000      -0.445486       -12.1223
  52   2.0000      -0.433984       -11.8093
  53   2.0000      -0.427013       -11.6196
  54   2.0000      -0.423214       -11.5162
  55   2.0000      -0.418701       -11.3934
  56   2.0000      -0.412215       -11.2170
  57   2.0000      -0.403001       -10.9662
  58   2.0000      -0.324443        -8.8285
  59   2.0000      -0.224229        -6.1016
  60   0.0000       0.085043         2.3141
  61   0.0000       0.108247         2.9455
  62   0.0000       0.115415         3.1406
  63   0.0000       0.123671         3.3653
  64   0.0000       0.133359         3.6289

MULLIKEN ATOMIC CHARGES
-----------------------
   0 C :   -0.256286
   1 N :   -0.274388
   2 C :   -0.209918
   3 C :   -0.306494
   4 H :    0.192041
   5 H :    0.171130
   6 S :    0.900063
   7 C :    0.349326
   8 C :   -0.563783
   9 N :   -0.526521
  10 H :    0.222169
  11 H :    0.246938
  12 H :    0.233349
  13 H :    0.143351
  14 H :    0.080723
  15 O :   -0.404439
  16 F :   -0.096649
  17 C :   -0.105649
  18 H :    0.114064
  19 H :    0.136299
  20 C :   -0.273953
  21 H :    0.134399
  22 H :    0.128545
  23 C :   -0.242714
  24 H :    0.112921
  25 H :    0.091449
  26 O :   -0.477687
  27 H :    0.143810
  28 H :    0.108069
  29 H :    0.114176
  30 H :    0.115656
Sum of atomic charges:    0.0000000

LOEWDIN ATOMIC CHARGES
----------------------
   0 C :   -0.300616
   1 N :    0.116507
   2 C :   -0.287849
   3 C :   -0.359984
   4 H :    0.155014
   5 H :    0.144852
   6 S :    0.563176
   7 C :   -0.467292
   8 C :   -0.350266
   9 N :   -0.029546
  10 H :    0.157260
  11 H :    0.173283
  12 H :    0.171880
  13 H :    0.097872
  14 H :    0.089193
  15 O :   -0.247206
  16 F :    0.107015
  17 C :   -0.269855
  18 H :    0.125351
  19 H :    0.130650
  20 C :   -0.272491
  21 H :    0.139512
  22 H :    0.148134
  23 C :   -0.268407
  24 H :    0.138645
  25 H :    0.133063
  26 O :   -0.290544
  27 H :    0.143983
  28 H :    0.136488
  29 H :    0.131621
  30 H :    0.140555

  Mayer bond orders larger than 0.100000
B(  0-C ,  1-N ) :   0.9677 B(  0-C , 17-C ) :   0.9057 B(  0-C , 18-H ) :   0.9948
B(  0-C , 19-H ) :   0.9948 B(  1-N ,  7-C ) :   1.2281 B(  1-N , 12-H ) :   0.8917
B(  2-C ,  3-C ) :   0.9599 B(  2-C , 20-C ) :   0.9626 B(  2-C , 21-H ) :   0.9842
B(  2-C , 22-H ) :   0.9601 B(  3-C ,  4-H ) :   0.9418 B(  3-C ,  5-H ) :   0.9513
B(  3-C ,  6-S ) :   0.9160 B(  6-S , 15-O ) :   1.9699 B(  6-S , 16-F ) :   1.1455
B(  6-S , 26-O ) :   1.7274 B(  7-C ,  8-C ) :   1.6231 B(  7-C ,  9-N ) :   1.1089
B(  8-C , 13-H ) :   0.9941 B(  8-C , 14-H ) :   1.0138 B(  9-N , 10-H ) :   0.9194
B(  9-N , 11-H ) :   0.9243 B( 17-C , 23-C ) :   0.9795 B( 17-C , 24-H ) :   0.9669
B( 17-C , 25-H ) :   0.9779 B( 20-C , 23-C ) :   0.9298 B( 20-C , 29-H ) :   0.9885
B( 20-C , 30-H ) :   0.9720 B( 23-C , 27-H ) :   0.9687 B( 23-C , 28-H ) :   0.9701

Dispersion correction           -0.016430318
FINAL SINGLE POINT ENERGY     -1073.097357328369

DIPOLE MOMENT
-------------
                                X             Y             Z
Electronic contribution:     -4.63947      -1.98864     -20.71321
Nuclear contribution   :      2.89225       3.36404      21.70199
                        -----------------------------------------
Total Dipole Moment    :     -1.74722       1.37540       0.98878
                        -----------------------------------------
Magnitude (a.u.)       :      2.43356
Magnitude (Debye)      :      6.18561

Rotational constants in cm-1:     0.029431     0.014408     0.011084
Rotational constants in MHz :   882.306106   431.946714   332.288152

                             ****ORCA TERMINATED NORMALLY****
TOTAL RUN TIME: 0 days 0 hours 1 minutes 23 seconds 592 msec
