                         Program Version 5.0.0 -  RELEASE  -
|  1> !wB97X-D3 RIJCOSX def2-TZVP def2/J TightSCF xyzfile
|  2>
|  3> *xyzfile 0 1 D8.xyz
|  4>
|  5> %MaxCore 64000
|  6>
|  7> %pal nprocs 18
|  8> end
|  9>
| 10> %scf
| 11>   MaxIter 150
| 12> end
| 13>
| 14>
| 15>                          ****END OF INPUT****

CARTESIAN COORDINATES (ANGSTROEM)
---------------------------------
  C      1.963365   -1.749150   -1.896887
  N      2.738490   -2.015170   -3.097113
  C      0.611877    1.657634   -4.500288
  C      1.694991    1.541794   -5.570447
  H      2.697326    1.734659   -5.183996
  H      1.506656    2.272239   -6.358076
  S      1.780287   -0.033128   -6.428739
  C      4.049736   -2.154717   -3.152044
  C      4.658206   -1.986293   -4.318655
  N      4.764231   -2.454435   -2.050491
  H      4.287363   -2.776259   -1.217496
  H      5.750825   -2.658351   -2.125988
  H      2.345176   -1.690274   -3.971447
  H      4.109004   -1.592677   -5.071760
  H      5.649095   -2.156462   -4.427237
  O      2.569287    0.213657   -7.607360
  O      0.416880   -0.462969   -6.618595
  C      2.088520   -0.300912   -1.415204
  H      2.231272   -2.451616   -1.102643
  H      0.930249   -1.977801   -2.155438
  C      0.680356    0.655418   -3.348038
  H     -0.356865    1.549231   -4.991128
  H      0.650228    2.675438   -4.096000
  C      1.968993    0.733582   -2.535654
  H      3.051356   -0.168602   -0.911868
  H      1.316501   -0.136231   -0.657252
  F      2.505129   -0.933263   -5.482570
  H      2.824195    0.624726   -3.208464
  H      2.058919    1.730331   -2.093112
  H      0.542252   -0.344731   -3.766662
  H     -0.174219    0.829692   -2.685182

 Total Charge           Charge          ....    0
 Multiplicity           Mult            ....    1
 Number of Electrons    NEL             ....  120
 Basis Dimension        Dim             ....  542

ORBITAL ENERGIES
----------------

  NO   OCC          E(Eh)            E(eV)
   0   2.0000     -89.197001     -2427.1738
   1   2.0000     -24.893408      -677.3841
   2   2.0000     -19.249584      -523.8078
   3   2.0000     -19.247437      -523.7494
   4   2.0000     -14.420150      -392.3922
   5   2.0000     -14.416903      -392.3039
   6   2.0000     -10.336736      -281.2769
   7   2.0000     -10.320728      -280.8413
   8   2.0000     -10.315950      -280.7113
   9   2.0000     -10.305061      -280.4150
  10   2.0000     -10.292259      -280.0666
  11   2.0000     -10.285138      -279.8728
  12   2.0000     -10.281096      -279.7629
  13   2.0000     -10.179276      -276.9922
  14   2.0000      -8.260799      -224.7878
  15   2.0000      -6.218518      -169.2145
  16   2.0000      -6.211837      -169.0327
  17   2.0000      -6.210999      -169.0099
  18   2.0000      -1.475666       -40.1549
  19   2.0000      -1.237489       -33.6738
  20   2.0000      -1.145161       -31.1614
  21   2.0000      -1.087689       -29.5975
  22   2.0000      -1.001478       -27.2516
  23   2.0000      -0.962395       -26.1881
  24   2.0000      -0.917844       -24.9758
  25   2.0000      -0.880702       -23.9651
  26   2.0000      -0.834318       -22.7030
  27   2.0000      -0.823662       -22.4130
  28   2.0000      -0.785399       -21.3718
  29   2.0000      -0.746413       -20.3109
  30   2.0000      -0.705256       -19.1910
  31   2.0000      -0.702629       -19.1195
  32   2.0000      -0.681116       -18.5341
  33   2.0000      -0.676366       -18.4049
  34   2.0000      -0.656810       -17.8727
  35   2.0000      -0.635858       -17.3026
  36   2.0000      -0.606877       -16.5140
  37   2.0000      -0.601397       -16.3649
  38   2.0000      -0.589925       -16.0527
  39   2.0000      -0.583670       -15.8825
  40   2.0000      -0.571743       -15.5579
  41   2.0000      -0.563299       -15.3281
  42   2.0000      -0.546387       -14.8679
  43   2.0000      -0.536934       -14.6107
  44   2.0000      -0.523346       -14.2410
  45   2.0000      -0.505868       -13.7654
  46   2.0000      -0.499577       -13.5942
  47   2.0000      -0.491921       -13.3859
  48   2.0000      -0.481471       -13.1015
  49   2.0000      -0.472238       -12.8503
  50   2.0000      -0.465659       -12.6712
  51   2.0000      -0.460438       -12.5291
  52   2.0000      -0.444080       -12.0840
  53   2.0000      -0.439785       -11.9672
  54   2.0000      -0.433444       -11.7946
  55   2.0000      -0.424743       -11.5578
  56   2.0000      -0.423819       -11.5327
  57   2.0000      -0.421105       -11.4588
  58   2.0000      -0.347212        -9.4481
  59   2.0000      -0.250116        -6.8060
  60   0.0000       0.092829         2.5260
  61   0.0000       0.103784         2.8241
  62   0.0000       0.113716         3.0944
  63   0.0000       0.121479         3.3056
  64   0.0000       0.128569         3.4985

MULLIKEN ATOMIC CHARGES
-----------------------
   0 C :   -0.261790
   1 N :   -0.284285
   2 C :   -0.154331
   3 C :   -0.339663
   4 H :    0.176570
   5 H :    0.183047
   6 S :    0.895461
   7 C :    0.372485
   8 C :   -0.570612
   9 N :   -0.520761
  10 H :    0.229458
  11 H :    0.252614
  12 H :    0.224261
  13 H :    0.111396
  14 H :    0.096367
  15 O :   -0.421281
  16 O :   -0.424076
  17 C :   -0.100719
  18 H :    0.121764
  19 H :    0.150829
  20 C :   -0.319763
  21 H :    0.147474
  22 H :    0.122442
  23 C :   -0.254657
  24 H :    0.115510
  25 H :    0.100844
  26 F :   -0.144945
  27 H :    0.129622
  28 H :    0.115209
  29 H :    0.132020
  30 H :    0.119510
Sum of atomic charges:   -0.0000000

LOEWDIN ATOMIC CHARGES
----------------------
   0 C :   -0.294634
   1 N :    0.116869
   2 C :   -0.282451
   3 C :   -0.364752
   4 H :    0.142083
   5 H :    0.154005
   6 S :    0.560410
   7 C :   -0.463187
   8 C :   -0.352349
   9 N :   -0.020605
  10 H :    0.160908
  11 H :    0.176489
  12 H :    0.175683
  13 H :    0.091729
  14 H :    0.094108
  15 O :   -0.256525
  16 O :   -0.260856
  17 C :   -0.268969
  18 H :    0.128027
  19 H :    0.134976
  20 C :   -0.272887
  21 H :    0.147895
  22 H :    0.146014
  23 C :   -0.270980
  24 H :    0.138850
  25 H :    0.136265
  26 F :    0.051946
  27 H :    0.137697
  28 H :    0.139060
  29 H :    0.132513
  30 H :    0.142669

  Mayer bond orders larger than 0.100000
B(  0-C ,  1-N ) :   0.9452 B(  0-C , 17-C ) :   0.9072 B(  0-C , 18-H ) :   0.9937
B(  0-C , 19-H ) :   0.9897 B(  1-N ,  7-C ) :   1.2297 B(  1-N , 12-H ) :   0.9148
B(  2-C ,  3-C ) :   0.9481 B(  2-C , 20-C ) :   0.9734 B(  2-C , 21-H ) :   0.9712
B(  2-C , 22-H ) :   0.9594 B(  3-C ,  4-H ) :   0.9495 B(  3-C ,  5-H ) :   0.9446
B(  3-C ,  6-S ) :   0.9134 B(  6-S , 15-O ) :   1.9537 B(  6-S , 16-O ) :   1.9094
B(  6-S , 26-F ) :   1.0292 B(  7-C ,  8-C ) :   1.5968 B(  7-C ,  9-N ) :   1.1279
B(  8-C , 13-H ) :   1.0091 B(  8-C , 14-H ) :   1.0122 B(  9-N , 10-H ) :   0.9167
B(  9-N , 11-H ) :   0.9216 B( 17-C , 23-C ) :   0.9733 B( 17-C , 24-H ) :   0.9689
B( 17-C , 25-H ) :   0.9770 B( 20-C , 23-C ) :   0.9247 B( 20-C , 29-H ) :   0.9902
B( 20-C , 30-H ) :   0.9718 B( 23-C , 27-H ) :   0.9745 B( 23-C , 28-H ) :   0.9716

Dispersion correction           -0.016408015
FINAL SINGLE POINT ENERGY     -1073.115040389060

DIPOLE MOMENT
-------------
                                X             Y             Z
Electronic contribution:     -0.85737      -2.94965     -18.31653
Nuclear contribution   :      0.50676       3.90127      20.40426
                        -----------------------------------------
Total Dipole Moment    :     -0.35062       0.95162       2.08773
                        -----------------------------------------
Magnitude (a.u.)       :      2.32102
Magnitude (Debye)      :      5.89957

Rotational constants in cm-1:     0.029548     0.014706     0.011197
Rotational constants in MHz :   885.834387   440.871746   335.667619

                             ****ORCA TERMINATED NORMALLY****
TOTAL RUN TIME: 0 days 0 hours 1 minutes 32 seconds 399 msec
