                         Program Version 5.0.0 -  RELEASE  -
|  1> !wB97X-D3 RIJCOSX def2-SVP def2/J TightSCF
|  2> *xyz -1 1
|  3> C         -5.57236       -5.80780       -0.81644
|  4> S         -6.90318       -4.61903       -0.52846
|  5> O         -8.11485       -5.25093       -0.95701
|  6> O         -6.53271       -3.42684       -1.31485
|  7> O         -6.86563       -4.29496        0.91412
|  8> C         -3.82708       -4.66110        0.78617
|  9> C         -4.45780       -5.94187        0.22919
| 10> H         -5.17735       -5.54257       -1.79771
| 11> H         -6.07420       -6.76889       -0.92127
| 12> H         -3.68106       -6.56224       -0.22988
| 13> H         -4.84394       -6.51273        1.07581
| 14> H         -3.43706       -4.07576       -0.02016
| 15> H         -3.03403       -4.91680        1.45744
| 16> H         -4.56975       -4.09647        1.31013
| 17> *
| 18> %MaxCore 64000
| 19>
| 20> %pal nprocs 18
| 21> end
| 22>
| 23> %scf
| 24>   MaxIter 150
| 25> end
| 26>
| 27>                          ****END OF INPUT****

CARTESIAN COORDINATES (ANGSTROEM)
---------------------------------
  C     -5.572360   -5.807800   -0.816440
  S     -6.903180   -4.619030   -0.528460
  O     -8.114850   -5.250930   -0.957010
  O     -6.532710   -3.426840   -1.314850
  O     -6.865630   -4.294960    0.914120
  C     -3.827080   -4.661100    0.786170
  C     -4.457800   -5.941870    0.229190
  H     -5.177350   -5.542570   -1.797710
  H     -6.074200   -6.768890   -0.921270
  H     -3.681060   -6.562240   -0.229880
  H     -4.843940   -6.512730    1.075810
  H     -3.437060   -4.075760   -0.020160
  H     -3.034030   -4.916800    1.457440
  H     -4.569750   -4.096470    1.310130

 Total Charge           Charge          ....   -1
 Multiplicity           Mult            ....    1
 Number of Electrons    NEL             ....   66
 Basis Dimension        Dim             ....  137

ORBITAL ENERGIES
----------------

  NO   OCC          E(Eh)            E(eV)
   0   2.0000     -88.942179     -2420.2397
   1   2.0000     -18.998188      -516.9670
   2   2.0000     -18.985558      -516.6233
   3   2.0000     -18.981056      -516.5008
   4   2.0000     -10.157073      -276.3880
   5   2.0000     -10.139687      -275.9149
   6   2.0000     -10.134456      -275.7726
   7   2.0000      -8.022782      -218.3110
   8   2.0000      -5.981855      -162.7745
   9   2.0000      -5.981543      -162.7661
  10   2.0000      -5.981488      -162.7646
  11   2.0000      -1.022036       -27.8110
  12   2.0000      -0.877803       -23.8862
  13   2.0000      -0.853293       -23.2193
  14   2.0000      -0.759151       -20.6576
  15   2.0000      -0.668761       -18.1979
  16   2.0000      -0.571289       -15.5456
  17   2.0000      -0.468654       -12.7527
  18   2.0000      -0.425189       -11.5700
  19   2.0000      -0.410501       -11.1703
  20   2.0000      -0.381779       -10.3887
  21   2.0000      -0.366150        -9.9635
  22   2.0000      -0.342448        -9.3185
  23   2.0000      -0.332346        -9.0436
  24   2.0000      -0.310441        -8.4475
  25   2.0000      -0.303917        -8.2700
  26   2.0000      -0.290713        -7.9107
  27   2.0000      -0.221490        -6.0271
  28   2.0000      -0.220403        -5.9975
  29   2.0000      -0.187389        -5.0991
  30   2.0000      -0.174555        -4.7499
  31   2.0000      -0.169897        -4.6231
  32   2.0000      -0.132100        -3.5946
  33   0.0000       0.270441         7.3591
  34   0.0000       0.319432         8.6922
  35   0.0000       0.322515         8.7761
  36   0.0000       0.344162         9.3651
  37   0.0000       0.356011         9.6875

MULLIKEN ATOMIC CHARGES
-----------------------
   0 C :   -0.091476
   1 S :    0.890666
   2 O :   -0.567528
   3 O :   -0.620415
   4 O :   -0.605522
   5 C :   -0.006607
   6 C :   -0.067390
   7 H :    0.023150
   8 H :    0.017061
   9 H :   -0.018270
  10 H :    0.009349
  11 H :    0.004610
  12 H :   -0.024648
  13 H :    0.057019
Sum of atomic charges:   -1.0000000

LOEWDIN ATOMIC CHARGES
----------------------
   0 C :   -0.189215
   1 S :    1.110668
   2 O :   -0.599642
   3 O :   -0.649911
   4 O :   -0.639515
   5 C :   -0.066404
   6 C :   -0.053493
   7 H :    0.012666
   8 H :    0.012316
   9 H :    0.005266
  10 H :    0.015998
  11 H :    0.013555
  12 H :    0.001747
  13 H :    0.025964

  Mayer bond orders larger than 0.100000
B(  0-C ,  1-S ) :   0.8883 B(  0-C ,  6-C ) :   1.0566 B(  0-C ,  7-H ) :   0.9432
B(  0-C ,  8-H ) :   0.9461 B(  1-S ,  2-O ) :   1.6569 B(  1-S ,  3-O ) :   1.5961
B(  1-S ,  4-O ) :   1.5808 B(  5-C ,  6-C ) :   1.0837 B(  5-C , 11-H ) :   0.9746
B(  5-C , 12-H ) :   0.9666 B(  5-C , 13-H ) :   0.9552 B(  6-C ,  9-H ) :   0.9517
B(  6-C , 10-H ) :   0.9544

Dispersion correction           -0.004498576
FINAL SINGLE POINT ENERGY      -741.910428684875

DIPOLE MOMENT
-------------
                                X             Y             Z
Electronic contribution:     -9.98422       3.28193      -2.59238
Nuclear contribution   :     11.75544      -4.53524       2.70749
                        -----------------------------------------
Total Dipole Moment    :      1.77123      -1.25331       0.11511
                        -----------------------------------------
Magnitude (a.u.)       :      2.17285
Magnitude (Debye)      :      5.52294

Rotational constants in cm-1:     0.134586     0.054907     0.051455
Rotational constants in MHz :  4034.798577  1646.069534  1542.570153

                             ****ORCA TERMINATED NORMALLY****
TOTAL RUN TIME: 0 days 0 hours 0 minutes 10 seconds 645 msec
