                         Program Version 5.0.0 -  RELEASE  -
|  1> !wB97X-D3 RIJCOSX def2-SVP def2/J TightSCF
|  2> *xyz 1 1
|  3> C         -4.38262       -1.67089        1.21620
|  4> N         -5.76354       -1.91517        0.70501
|  5> C         -3.28173       -2.19127        0.29436
|  6> H         -5.84081       -2.11520       -0.30065
|  7> H         -6.40882       -1.14866        0.93612
|  8> H         -6.17478       -2.79061        1.05143
|  9> H         -4.32862       -2.13922        2.19810
| 10> H         -4.26158       -0.59740        1.35725
| 11> C         -3.47464       -3.60590       -0.25961
| 12> H         -2.35455       -2.12760        0.87143
| 13> H         -3.16661       -1.49969       -0.54504
| 14> H         -2.64612       -3.85908       -0.88759
| 15> H         -4.37934       -3.64545       -0.82956
| 16> H         -3.53324       -4.30157        0.55126
| 17> *
| 18> %MaxCore 64000
| 19>
| 20> %pal nprocs 18
| 21> end
| 22>
| 23> %scf
| 24>   MaxIter 150
| 25> end
| 26>
| 27>                          ****END OF INPUT****

CARTESIAN COORDINATES (ANGSTROEM)
---------------------------------
  C     -4.382620   -1.670890    1.216200
  N     -5.763540   -1.915170    0.705010
  C     -3.281730   -2.191270    0.294360
  H     -5.840810   -2.115200   -0.300650
  H     -6.408820   -1.148660    0.936120
  H     -6.174780   -2.790610    1.051430
  H     -4.328620   -2.139220    2.198100
  H     -4.261580   -0.597400    1.357250
  C     -3.474640   -3.605900   -0.259610
  H     -2.354550   -2.127600    0.871430
  H     -3.166610   -1.499690   -0.545040
  H     -2.646120   -3.859080   -0.887590
  H     -4.379340   -3.645450   -0.829560
  H     -3.533240   -4.301570    0.551260

 Total Charge           Charge          ....    1
 Multiplicity           Mult            ....    1
 Number of Electrons    NEL             ....   34
 Basis Dimension        Dim             ....  106

ORBITAL ENERGIES
----------------

  NO   OCC          E(Eh)            E(eV)
   0   2.0000     -14.771589      -401.9554
   1   2.0000     -10.537177      -286.7312
   2   2.0000     -10.465458      -284.7796
   3   2.0000     -10.438136      -284.0361
   4   2.0000      -1.322221       -35.9795
   5   2.0000      -1.084383       -29.5076
   6   2.0000      -0.998072       -27.1589
   7   2.0000      -0.904414       -24.6104
   8   2.0000      -0.894229       -24.3332
   9   2.0000      -0.872264       -23.7355
  10   2.0000      -0.790986       -21.5238
  11   2.0000      -0.736298       -20.0357
  12   2.0000      -0.706114       -19.2143
  13   2.0000      -0.681802       -18.5528
  14   2.0000      -0.623543       -16.9675
  15   2.0000      -0.619224       -16.8500
  16   2.0000      -0.600777       -16.3480
  17   0.0000      -0.091574        -2.4919
  18   0.0000      -0.038712        -1.0534
  19   0.0000      -0.034953        -0.9511
  20   0.0000       0.001863         0.0507
  21   0.0000       0.035439         0.9644

MULLIKEN ATOMIC CHARGES
-----------------------
   0 C :   -0.000097
   1 N :   -0.027615
   2 C :   -0.151796
   3 H :    0.209777
   4 H :    0.228196
   5 H :    0.216566
   6 H :    0.109453
   7 H :    0.114993
   8 C :   -0.053884
   9 H :    0.102590
  10 H :    0.079903
  11 H :    0.098074
  12 H :    0.011385
  13 H :    0.062456
Sum of atomic charges:    1.0000000

LOEWDIN ATOMIC CHARGES
----------------------
   0 C :    0.052031
   1 N :    0.285002
   2 C :   -0.047435
   3 H :    0.141480
   4 H :    0.150927
   5 H :    0.148022
   6 H :    0.053927
   7 H :    0.058189
   8 C :   -0.050050
   9 H :    0.061538
  10 H :    0.042214
  11 H :    0.056415
  12 H :    0.012735
  13 H :    0.035003

  Mayer bond orders larger than 0.100000
B(  0-C ,  1-N ) :   0.8876 B(  0-C ,  2-C ) :   1.0649 B(  0-C ,  6-H ) :   0.9556
B(  0-C ,  7-H ) :   0.9585 B(  1-N ,  3-H ) :   0.9310 B(  1-N ,  4-H ) :   0.9305
B(  1-N ,  5-H ) :   0.9332 B(  2-C ,  8-C ) :   1.0722 B(  2-C ,  9-H ) :   0.9422
B(  2-C , 10-H ) :   0.9521 B(  8-C , 11-H ) :   0.9652 B(  8-C , 12-H ) :   0.9705
B(  8-C , 13-H ) :   0.9777

Dispersion correction           -0.002896416
FINAL SINGLE POINT ENERGY      -174.674296082906

DIPOLE MOMENT
-------------
                                X             Y             Z
Electronic contribution:     -1.80926       1.33069       0.79753
Nuclear contribution   :     -0.18358      -0.73024      -0.44649
                        -----------------------------------------
Total Dipole Moment    :     -1.99284       0.60045       0.35103
                        -----------------------------------------
Magnitude (a.u.)       :      2.11073
Magnitude (Debye)      :      5.36505

Rotational constants in cm-1:     0.423641     0.164544     0.133152
Rotational constants in MHz : 12700.438743  4932.897948  3991.802402

                             ****ORCA TERMINATED NORMALLY****
TOTAL RUN TIME: 0 days 0 hours 0 minutes 6 seconds 776 msec
