                         Program Version 5.0.0 -  RELEASE  -
|  1> !wB97X-D3 RIJCOSX def2-SVP def2/J TightSCF
|  2> *xyz 0 1
|  3> C         -5.57236       -5.80780       -0.81644
|  4> S         -6.90318       -4.61903       -0.52846
|  5> F         -8.11485       -5.25093       -0.95701
|  6> O         -6.53271       -3.42684       -1.31485
|  7> O         -6.86563       -4.29496        0.91412
|  8> C         -3.82708       -4.66110        0.78617
|  9> C         -4.45780       -5.94187        0.22919
| 10> H         -5.17735       -5.54257       -1.79771
| 11> H         -6.07420       -6.76889       -0.92127
| 12> H         -3.68106       -6.56224       -0.22988
| 13> H         -4.84394       -6.51273        1.07581
| 14> H         -3.43706       -4.07576       -0.02016
| 15> H         -3.03403       -4.91680        1.45744
| 16> H         -4.56975       -4.09647        1.31013
| 17> *
| 18> %MaxCore 64000
| 19>
| 20> %pal nprocs 18
| 21> end
| 22>
| 23> %scf
| 24>   MaxIter 150
| 25> end
| 26>
| 27>                          ****END OF INPUT****

CARTESIAN COORDINATES (ANGSTROEM)
---------------------------------
  C     -5.572360   -5.807800   -0.816440
  S     -6.903180   -4.619030   -0.528460
  F     -8.114850   -5.250930   -0.957010
  O     -6.532710   -3.426840   -1.314850
  O     -6.865630   -4.294960    0.914120
  C     -3.827080   -4.661100    0.786170
  C     -4.457800   -5.941870    0.229190
  H     -5.177350   -5.542570   -1.797710
  H     -6.074200   -6.768890   -0.921270
  H     -3.681060   -6.562240   -0.229880
  H     -4.843940   -6.512730    1.075810
  H     -3.437060   -4.075760   -0.020160
  H     -3.034030   -4.916800    1.457440
  H     -4.569750   -4.096470    1.310130

 Total Charge           Charge          ....    0
 Multiplicity           Mult            ....    1
 Number of Electrons    NEL             ....   66
 Basis Dimension        Dim             ....  137

ORBITAL ENERGIES
----------------

  NO   OCC          E(Eh)            E(eV)
   0   2.0000     -89.213601     -2427.6255
   1   2.0000     -24.913601      -677.9335
   2   2.0000     -19.232901      -523.3538
   3   2.0000     -19.231433      -523.3139
   4   2.0000     -10.348652      -281.6011
   5   2.0000     -10.318068      -280.7689
   6   2.0000     -10.277240      -279.6579
   7   2.0000      -8.296635      -225.7629
   8   2.0000      -6.259757      -170.3366
   9   2.0000      -6.252996      -170.1527
  10   2.0000      -6.252020      -170.1261
  11   2.0000      -1.497743       -40.7557
  12   2.0000      -1.204155       -32.7667
  13   2.0000      -1.098485       -29.8913
  14   2.0000      -0.940013       -25.5791
  15   2.0000      -0.865673       -23.5562
  16   2.0000      -0.815320       -22.1860
  17   2.0000      -0.744788       -20.2667
  18   2.0000      -0.696067       -18.9409
  19   2.0000      -0.685793       -18.6614
  20   2.0000      -0.649279       -17.6678
  21   2.0000      -0.594134       -16.1672
  22   2.0000      -0.578556       -15.7433
  23   2.0000      -0.554061       -15.0768
  24   2.0000      -0.535899       -14.5826
  25   2.0000      -0.512447       -13.9444
  26   2.0000      -0.478595       -13.0232
  27   2.0000      -0.467649       -12.7254
  28   2.0000      -0.461018       -12.5449
  29   2.0000      -0.448005       -12.1908
  30   2.0000      -0.406954       -11.0738
  31   2.0000      -0.405454       -11.0330
  32   2.0000      -0.384725       -10.4689
  33   0.0000       0.114433         3.1139
  34   0.0000       0.123588         3.3630
  35   0.0000       0.156079         4.2471
  36   0.0000       0.166301         4.5253
  37   0.0000       0.179507         4.8846

MULLIKEN ATOMIC CHARGES
-----------------------
   0 C :   -0.131403
   1 S :    0.965702
   2 F :   -0.162791
   3 O :   -0.479255
   4 O :   -0.475331
   5 C :   -0.029481
   6 C :   -0.090302
   7 H :    0.095498
   8 H :    0.073383
   9 H :    0.050155
  10 H :    0.049070
  11 H :    0.033443
  12 H :    0.033303
  13 H :    0.068010
Sum of atomic charges:    0.0000000

LOEWDIN ATOMIC CHARGES
----------------------
   0 C :   -0.153484
   1 S :    1.167809
   2 F :   -0.107736
   3 O :   -0.519620
   4 O :   -0.515832
   5 C :   -0.057366
   6 C :   -0.042559
   7 H :    0.043913
   8 H :    0.033427
   9 H :    0.037728
  10 H :    0.032335
  11 H :    0.024287
  12 H :    0.027510
  13 H :    0.029588

  Mayer bond orders larger than 0.100000
B(  0-C ,  1-S ) :   0.9059 B(  0-C ,  6-C ) :   1.0521 B(  0-C ,  7-H ) :   0.9319
B(  0-C ,  8-H ) :   0.9383 B(  1-S ,  2-F ) :   1.0394 B(  1-S ,  3-O ) :   1.7451
B(  1-S ,  4-O ) :   1.7362 B(  5-C ,  6-C ) :   1.0829 B(  5-C , 11-H ) :   0.9772
B(  5-C , 12-H ) :   0.9691 B(  5-C , 13-H ) :   0.9647 B(  6-C ,  9-H ) :   0.9490
B(  6-C , 10-H ) :   0.9556

Dispersion correction           -0.004490134
FINAL SINGLE POINT ENERGY      -766.402392962866

DIPOLE MOMENT
-------------
                                X             Y             Z
Electronic contribution:    -13.46943       2.44334      -3.90520
Nuclear contribution   :     13.81909      -4.05404       3.42760
                        -----------------------------------------
Total Dipole Moment    :      0.34966      -1.61070      -0.47760
                        -----------------------------------------
Magnitude (a.u.)       :      1.71602
Magnitude (Debye)      :      4.36177

Rotational constants in cm-1:     0.132500     0.053014     0.049575
Rotational constants in MHz :  3972.256497  1589.318970  1486.215991

                             ****ORCA TERMINATED NORMALLY****
TOTAL RUN TIME: 0 days 0 hours 0 minutes 11 seconds 195 msec
