                         Program Version 5.0.0 -  RELEASE  -
|  1> !wB97X-D3 RIJCOSX def2-SVP def2/J TightSCF
|  2> *xyz 0 1
|  3> C         -4.38262       -1.67089        1.21620
|  4> C         -5.76354       -1.91517        0.70501
|  5> C         -3.28173       -2.19127        0.29436
|  6> H         -5.84081       -2.11520       -0.30065
|  7> H         -6.40882       -1.14866        0.93612
|  8> H         -6.17478       -2.79061        1.05143
|  9> H         -4.32862       -2.13922        2.19810
| 10> H         -4.26158       -0.59740        1.35725
| 11> C         -3.47464       -3.60590       -0.25961
| 12> H         -2.35455       -2.12760        0.87143
| 13> H         -3.16661       -1.49969       -0.54504
| 14> H         -2.64612       -3.85908       -0.88759
| 15> H         -4.37934       -3.64545       -0.82956
| 16> H         -3.53324       -4.30157        0.55126
| 17> *
| 18> %MaxCore 64000
| 19>
| 20> %pal nprocs 18
| 21> end
| 22>
| 23> %scf
| 24>   MaxIter 150
| 25> end
| 26>
| 27>                          ****END OF INPUT****

CARTESIAN COORDINATES (ANGSTROEM)
---------------------------------
  C     -4.382620   -1.670890    1.216200
  C     -5.763540   -1.915170    0.705010
  C     -3.281730   -2.191270    0.294360
  H     -5.840810   -2.115200   -0.300650
  H     -6.408820   -1.148660    0.936120
  H     -6.174780   -2.790610    1.051430
  H     -4.328620   -2.139220    2.198100
  H     -4.261580   -0.597400    1.357250
  C     -3.474640   -3.605900   -0.259610
  H     -2.354550   -2.127600    0.871430
  H     -3.166610   -1.499690   -0.545040
  H     -2.646120   -3.859080   -0.887590
  H     -4.379340   -3.645450   -0.829560
  H     -3.533240   -4.301570    0.551260

 Total Charge           Charge          ....    0
 Multiplicity           Mult            ....    1
 Number of Electrons    NEL             ....   34
 Basis Dimension        Dim             ....  106

ORBITAL ENERGIES
----------------

  NO   OCC          E(Eh)            E(eV)
   0   2.0000     -10.277089      -279.6538
   1   2.0000     -10.273640      -279.5600
   2   2.0000     -10.268862      -279.4299
   3   2.0000     -10.249006      -278.8896
   4   2.0000      -0.909300       -24.7433
   5   2.0000      -0.834912       -22.7191
   6   2.0000      -0.755919       -20.5696
   7   2.0000      -0.668072       -18.1792
   8   2.0000      -0.566128       -15.4051
   9   2.0000      -0.561319       -15.2743
  10   2.0000      -0.515767       -14.0347
  11   2.0000      -0.492299       -13.3961
  12   2.0000      -0.479271       -13.0416
  13   2.0000      -0.453564       -12.3421
  14   2.0000      -0.420074       -11.4308
  15   2.0000      -0.412915       -11.2360
  16   2.0000      -0.403307       -10.9745
  17   0.0000       0.144395         3.9292
  18   0.0000       0.182086         4.9548
  19   0.0000       0.188339         5.1250
  20   0.0000       0.198333         5.3969
  21   0.0000       0.219817         5.9815

MULLIKEN ATOMIC CHARGES
-----------------------
   0 C :   -0.075745
   1 C :    0.026896
   2 C :   -0.093456
   3 H :   -0.006054
   4 H :    0.008532
   5 H :   -0.001984
   6 H :    0.021418
   7 H :    0.024500
   8 C :   -0.022074
   9 H :    0.021700
  10 H :    0.022894
  11 H :    0.029773
  12 H :    0.020654
  13 H :    0.022946
Sum of atomic charges:   -0.0000000

LOEWDIN ATOMIC CHARGES
----------------------
   0 C :   -0.043590
   1 C :   -0.056334
   2 C :   -0.044585
   3 H :    0.013845
   4 H :    0.018114
   5 H :    0.017998
   6 H :    0.021119
   7 H :    0.023892
   8 C :   -0.056737
   9 H :    0.021300
  10 H :    0.020159
  11 H :    0.024647
  12 H :    0.019244
  13 H :    0.020928

  Mayer bond orders larger than 0.100000
B(  0-C ,  1-C ) :   1.0783 B(  0-C ,  2-C ) :   1.0761 B(  0-C ,  6-H ) :   0.9592
B(  0-C ,  7-H ) :   0.9639 B(  1-C ,  3-H ) :   0.9722 B(  1-C ,  4-H ) :   0.9690
B(  1-C ,  5-H ) :   0.9638 B(  2-C ,  8-C ) :   1.0869 B(  2-C ,  9-H ) :   0.9585
B(  2-C , 10-H ) :   0.9563 B(  8-C , 11-H ) :   0.9733 B(  8-C , 12-H ) :   0.9708
B(  8-C , 13-H ) :   0.9777

Dispersion correction           -0.002801691
FINAL SINGLE POINT ENERGY      -158.277637010481

DIPOLE MOMENT
-------------
                                X             Y             Z
Electronic contribution:      0.62479       0.58201       0.36941
Nuclear contribution   :     -0.64996      -0.59433      -0.37777
                        -----------------------------------------
Total Dipole Moment    :     -0.02517      -0.01232      -0.00836
                        -----------------------------------------
Magnitude (a.u.)       :      0.02925
Magnitude (Debye)      :      0.07434

Rotational constants in cm-1:     0.431358     0.171688     0.138554
Rotational constants in MHz : 12931.797515  5147.084397  4153.759343

                             ****ORCA TERMINATED NORMALLY****
TOTAL RUN TIME: 0 days 0 hours 0 minutes 6 seconds 723 msec
