                         Program Version 5.0.0 -  RELEASE  -
|  1> !wB97X-D3 RIJCOSX def2-SVP def2/J TightSCF
|  2> *xyz 0 1
|  3> C         -5.57236       -5.80780       -0.81644
|  4> S         -6.90318       -4.61903       -0.52846
|  5> O         -8.11485       -5.25093       -0.95701
|  6> F         -6.53271       -3.42684       -1.31485
|  7> O         -6.86563       -4.29496        0.91412
|  8> C         -3.82708       -4.66110        0.78617
|  9> C         -4.45780       -5.94187        0.22919
| 10> H         -5.17735       -5.54257       -1.79771
| 11> H         -6.07420       -6.76889       -0.92127
| 12> H         -3.68106       -6.56224       -0.22988
| 13> H         -4.84394       -6.51273        1.07581
| 14> H         -3.43706       -4.07576       -0.02016
| 15> H         -3.03403       -4.91680        1.45744
| 16> H         -4.56975       -4.09647        1.31013
| 17> *
| 18> %MaxCore 64000
| 19>
| 20> %pal nprocs 18
| 21> end
| 22>
| 23> %scf
| 24>   MaxIter 150
| 25> end
| 26>
| 27>                          ****END OF INPUT****

CARTESIAN COORDINATES (ANGSTROEM)
---------------------------------
  C     -5.572360   -5.807800   -0.816440
  S     -6.903180   -4.619030   -0.528460
  O     -8.114850   -5.250930   -0.957010
  F     -6.532710   -3.426840   -1.314850
  O     -6.865630   -4.294960    0.914120
  C     -3.827080   -4.661100    0.786170
  C     -4.457800   -5.941870    0.229190
  H     -5.177350   -5.542570   -1.797710
  H     -6.074200   -6.768890   -0.921270
  H     -3.681060   -6.562240   -0.229880
  H     -4.843940   -6.512730    1.075810
  H     -3.437060   -4.075760   -0.020160
  H     -3.034030   -4.916800    1.457440
  H     -4.569750   -4.096470    1.310130

 Total Charge           Charge          ....    0
 Multiplicity           Mult            ....    1
 Number of Electrons    NEL             ....   66
 Basis Dimension        Dim             ....  137

ORBITAL ENERGIES
----------------

  NO   OCC          E(Eh)            E(eV)
   0   2.0000     -89.212674     -2427.6003
   1   2.0000     -24.890991      -677.3183
   2   2.0000     -19.247921      -523.7626
   3   2.0000     -19.233771      -523.3775
   4   2.0000     -10.348303      -281.5917
   5   2.0000     -10.317858      -280.7632
   6   2.0000     -10.284126      -279.8453
   7   2.0000      -8.295500      -225.7320
   8   2.0000      -6.258500      -170.3024
   9   2.0000      -6.252073      -170.1276
  10   2.0000      -6.251068      -170.1002
  11   2.0000      -1.459685       -39.7201
  12   2.0000      -1.221912       -33.2499
  13   2.0000      -1.116288       -30.3758
  14   2.0000      -0.941430       -25.6176
  15   2.0000      -0.860751       -23.4222
  16   2.0000      -0.804520       -21.8921
  17   2.0000      -0.740909       -20.1612
  18   2.0000      -0.672621       -18.3030
  19   2.0000      -0.666890       -18.1470
  20   2.0000      -0.649581       -17.6760
  21   2.0000      -0.597226       -16.2513
  22   2.0000      -0.579349       -15.7649
  23   2.0000      -0.552306       -15.0290
  24   2.0000      -0.539070       -14.6688
  25   2.0000      -0.530784       -14.4434
  26   2.0000      -0.484092       -13.1728
  27   2.0000      -0.473697       -12.8899
  28   2.0000      -0.469203       -12.7677
  29   2.0000      -0.451499       -12.2859
  30   2.0000      -0.422487       -11.4965
  31   2.0000      -0.410293       -11.1646
  32   2.0000      -0.396550       -10.7907
  33   0.0000       0.117506         3.1975
  34   0.0000       0.121232         3.2989
  35   0.0000       0.155781         4.2390
  36   0.0000       0.168105         4.5744
  37   0.0000       0.186778         5.0825

MULLIKEN ATOMIC CHARGES
-----------------------
   0 C :   -0.140552
   1 S :    0.975352
   2 O :   -0.432431
   3 F :   -0.209187
   4 O :   -0.476599
   5 C :   -0.044624
   6 C :   -0.084399
   7 H :    0.077796
   8 H :    0.105527
   9 H :    0.047492
  10 H :    0.057035
  11 H :    0.022002
  12 H :    0.038745
  13 H :    0.063845
Sum of atomic charges:   -0.0000000

LOEWDIN ATOMIC CHARGES
----------------------
   0 C :   -0.154048
   1 S :    1.174732
   2 O :   -0.474333
   3 F :   -0.152669
   4 O :   -0.516705
   5 C :   -0.062579
   6 C :   -0.047313
   7 H :    0.033923
   8 H :    0.053089
   9 H :    0.036103
  10 H :    0.035310
  11 H :    0.018498
  12 H :    0.030069
  13 H :    0.025924

  Mayer bond orders larger than 0.100000
B(  0-C ,  1-S ) :   0.9053 B(  0-C ,  6-C ) :   1.0436 B(  0-C ,  7-H ) :   0.9340
B(  0-C ,  8-H ) :   0.9405 B(  1-S ,  2-O ) :   1.8070 B(  1-S ,  3-F ) :   0.9847
B(  1-S ,  4-O ) :   1.7402 B(  5-C ,  6-C ) :   1.0819 B(  5-C , 11-H ) :   0.9786
B(  5-C , 12-H ) :   0.9689 B(  5-C , 13-H ) :   0.9645 B(  6-C ,  9-H ) :   0.9480
B(  6-C , 10-H ) :   0.9553

Dispersion correction           -0.004434251
FINAL SINGLE POINT ENERGY      -766.422798685876

DIPOLE MOMENT
-------------
                                X             Y             Z
Electronic contribution:    -10.71714       5.60606      -4.53481
Nuclear contribution   :     12.11759      -6.01574       3.81244
                        -----------------------------------------
Total Dipole Moment    :      1.40045      -0.40968      -0.72237
                        -----------------------------------------
Magnitude (a.u.)       :      1.62816
Magnitude (Debye)      :      4.13847

Rotational constants in cm-1:     0.128152     0.053825     0.050608
Rotational constants in MHz :  3841.897096  1613.621976  1517.196867

                             ****ORCA TERMINATED NORMALLY****
TOTAL RUN TIME: 0 days 0 hours 0 minutes 8 seconds 78 msec
