                         Program Version 5.0.0 -  RELEASE  -
|  1> !wB97X-D3 RIJCOSX def2-SVP def2/J TightSCF
|  2> *xyz 0 1
|  3> C         -5.57236       -5.80780       -0.81644
|  4> S         -6.90318       -4.61903       -0.52846
|  5> O         -8.11485       -5.25093       -0.95701
|  6> O         -6.53271       -3.42684       -1.31485
|  7> F         -6.86563       -4.29496        0.91412
|  8> C         -3.82708       -4.66110        0.78617
|  9> C         -4.45780       -5.94187        0.22919
| 10> H         -5.17735       -5.54257       -1.79771
| 11> H         -6.07420       -6.76889       -0.92127
| 12> H         -3.68106       -6.56224       -0.22988
| 13> H         -4.84394       -6.51273        1.07581
| 14> H         -3.43706       -4.07576       -0.02016
| 15> H         -3.03403       -4.91680        1.45744
| 16> H         -4.56975       -4.09647        1.31013
| 17> *
| 18> %MaxCore 64000
| 19>
| 20> %pal nprocs 18
| 21> end
| 22>
| 23> %scf
| 24>   MaxIter 150
| 25> end
| 26>
| 27>                          ****END OF INPUT****

CARTESIAN COORDINATES (ANGSTROEM)
---------------------------------
  C     -5.572360   -5.807800   -0.816440
  S     -6.903180   -4.619030   -0.528460
  O     -8.114850   -5.250930   -0.957010
  O     -6.532710   -3.426840   -1.314850
  F     -6.865630   -4.294960    0.914120
  C     -3.827080   -4.661100    0.786170
  C     -4.457800   -5.941870    0.229190
  H     -5.177350   -5.542570   -1.797710
  H     -6.074200   -6.768890   -0.921270
  H     -3.681060   -6.562240   -0.229880
  H     -4.843940   -6.512730    1.075810
  H     -3.437060   -4.075760   -0.020160
  H     -3.034030   -4.916800    1.457440
  H     -4.569750   -4.096470    1.310130

 Total Charge           Charge          ....    0
 Multiplicity           Mult            ....    1
 Number of Electrons    NEL             ....   66
 Basis Dimension        Dim             ....  137

ORBITAL ENERGIES
----------------

  NO   OCC          E(Eh)            E(eV)
   0   2.0000     -89.210373     -2427.5377
   1   2.0000     -24.890629      -677.3085
   2   2.0000     -19.246277      -523.7178
   3   2.0000     -19.229924      -523.2728
   4   2.0000     -10.346892      -281.5532
   5   2.0000     -10.324764      -280.9511
   6   2.0000     -10.295102      -280.1440
   7   2.0000      -8.293287      -225.6718
   8   2.0000      -6.256390      -170.2450
   9   2.0000      -6.249819      -170.0662
  10   2.0000      -6.248773      -170.0378
  11   2.0000      -1.457444       -39.6591
  12   2.0000      -1.220797       -33.2196
  13   2.0000      -1.114181       -30.3184
  14   2.0000      -0.945974       -25.7413
  15   2.0000      -0.862110       -23.4592
  16   2.0000      -0.805617       -21.9220
  17   2.0000      -0.747966       -20.3532
  18   2.0000      -0.680630       -18.5209
  19   2.0000      -0.668005       -18.1774
  20   2.0000      -0.636783       -17.3277
  21   2.0000      -0.598371       -16.2825
  22   2.0000      -0.575092       -15.6490
  23   2.0000      -0.565091       -15.3769
  24   2.0000      -0.543046       -14.7770
  25   2.0000      -0.526890       -14.3374
  26   2.0000      -0.488625       -13.2962
  27   2.0000      -0.481730       -13.1085
  28   2.0000      -0.473027       -12.8717
  29   2.0000      -0.457807       -12.4576
  30   2.0000      -0.420664       -11.4468
  31   2.0000      -0.407454       -11.0874
  32   2.0000      -0.396134       -10.7793
  33   0.0000       0.103961         2.8289
  34   0.0000       0.137609         3.7445
  35   0.0000       0.156885         4.2690
  36   0.0000       0.169145         4.6027
  37   0.0000       0.179072         4.8728

MULLIKEN ATOMIC CHARGES
-----------------------
   0 C :   -0.121722
   1 S :    0.968639
   2 O :   -0.431819
   3 O :   -0.485335
   4 F :   -0.207039
   5 C :   -0.033514
   6 C :   -0.123744
   7 H :    0.107950
   8 H :    0.093566
   9 H :    0.055043
  10 H :    0.048231
  11 H :    0.045893
  12 H :    0.043884
  13 H :    0.039967
Sum of atomic charges:   -0.0000000

LOEWDIN ATOMIC CHARGES
----------------------
   0 C :   -0.149095
   1 S :    1.172536
   2 O :   -0.475007
   3 O :   -0.525453
   4 F :   -0.149872
   5 C :   -0.059905
   6 C :   -0.056397
   7 H :    0.052348
   8 H :    0.044323
   9 H :    0.039074
  10 H :    0.028773
  11 H :    0.028884
  12 H :    0.031646
  13 H :    0.018144

  Mayer bond orders larger than 0.100000
B(  0-C ,  1-S ) :   0.9158 B(  0-C ,  6-C ) :   1.0432 B(  0-C ,  7-H ) :   0.9341
B(  0-C ,  8-H ) :   0.9411 B(  1-S ,  2-O ) :   1.8057 B(  1-S ,  3-O ) :   1.7467
B(  1-S ,  4-F ) :   0.9769 B(  5-C ,  6-C ) :   1.0768 B(  5-C , 11-H ) :   0.9771
B(  5-C , 12-H ) :   0.9705 B(  5-C , 13-H ) :   0.9703 B(  6-C ,  9-H ) :   0.9476
B(  6-C , 10-H ) :   0.9599

Dispersion correction           -0.004470388
FINAL SINGLE POINT ENERGY      -766.422074058326

DIPOLE MOMENT
-------------
                                X             Y             Z
Electronic contribution:    -11.20719       4.07280      -0.66674
Nuclear contribution   :     12.47562      -5.08213       1.41531
                        -----------------------------------------
Total Dipole Moment    :      1.26843      -1.00932       0.74857
                        -----------------------------------------
Magnitude (a.u.)       :      1.78550
Magnitude (Debye)      :      4.53839

Rotational constants in cm-1:     0.128398     0.054249     0.051014
Rotational constants in MHz :  3849.278549  1626.338413  1529.351405

                             ****ORCA TERMINATED NORMALLY****
TOTAL RUN TIME: 0 days 0 hours 0 minutes 8 seconds 25 msec
