                         Program Version 5.0.0 -  RELEASE  -
|  1> !wB97X-D3 RIJCOSX def2-SVP def2/J TightSCF xyzfile
|  2>
|  3> *xyzfile 0 1 D2.xyz
|  4>
|  5> %MaxCore 64000
|  6>
|  7> %pal nprocs 18
|  8> end
|  9>
| 10> %scf
| 11>   MaxIter 150
| 12> end
| 13>
| 14>
| 15>                          ****END OF INPUT****

CARTESIAN COORDINATES (ANGSTROEM)
---------------------------------
  C     -4.382623   -1.670889    1.216201
  C     -5.763539   -1.915170    0.705012
  C     -3.281728   -2.191272    0.294361
  C     -5.572364   -5.807798   -0.816445
  S     -6.903179   -4.619033   -0.528458
  H     -5.840812   -2.115205   -0.300646
  H     -6.408823   -1.148656    0.936124
  H     -6.174781   -2.790606    1.051433
  O     -8.114853   -5.250932   -0.957007
  F     -6.532715   -3.426838   -1.314848
  H     -4.328618   -2.139223    2.198103
  H     -4.261583   -0.597399    1.357248
  O     -6.865632   -4.294957    0.914118
  C     -3.474641   -3.605898   -0.259608
  H     -2.354548   -2.127602    0.871433
  H     -3.166611   -1.499693   -0.545037
  C     -3.827078   -4.661097    0.786174
  H     -2.560559   -3.889391   -0.788050
  H     -4.255932   -3.570040   -1.019300
  C     -4.457800   -5.941875    0.229195
  H     -5.177347   -5.542575   -1.797714
  H     -6.074202   -6.768894   -0.921272
  H     -4.530506   -4.253640    1.511979
  H     -2.933400   -4.932302    1.356825
  H     -3.681064   -6.562236   -0.229885
  H     -4.843942   -6.512728    1.075805

 Total Charge           Charge          ....    0
 Multiplicity           Mult            ....    1
 Number of Electrons    NEL             ....   98
 Basis Dimension        Dim             ....  233

ORBITAL ENERGIES
----------------

  NO   OCC          E(Eh)            E(eV)
   0   2.0000     -89.222281     -2427.8617
   1   2.0000     -24.900819      -677.5857
   2   2.0000     -19.255796      -523.9768
   3   2.0000     -19.242600      -523.6178
   4   2.0000     -10.353126      -281.7229
   5   2.0000     -10.318735      -280.7871
   6   2.0000     -10.292210      -280.0653
   7   2.0000     -10.290765      -280.0260
   8   2.0000     -10.278845      -279.7016
   9   2.0000     -10.265204      -279.3304
  10   2.0000     -10.215585      -277.9802
  11   2.0000      -8.304764      -225.9841
  12   2.0000      -6.267766      -170.5546
  13   2.0000      -6.261441      -170.3825
  14   2.0000      -6.260224      -170.3494
  15   2.0000      -1.472429       -40.0668
  16   2.0000      -1.231793       -33.5188
  17   2.0000      -1.129790       -30.7431
  18   2.0000      -0.952583       -25.9211
  19   2.0000      -0.915526       -24.9127
  20   2.0000      -0.866275       -23.5725
  21   2.0000      -0.838306       -22.8115
  22   2.0000      -0.801692       -21.8152
  23   2.0000      -0.763653       -20.7800
  24   2.0000      -0.724250       -19.7078
  25   2.0000      -0.689337       -18.7578
  26   2.0000      -0.675683       -18.3863
  27   2.0000      -0.658588       -17.9211
  28   2.0000      -0.656698       -17.8697
  29   2.0000      -0.601659       -16.3720
  30   2.0000      -0.593415       -16.1476
  31   2.0000      -0.571875       -15.5615
  32   2.0000      -0.562205       -15.2984
  33   2.0000      -0.556190       -15.1347
  34   2.0000      -0.536170       -14.5899
  35   2.0000      -0.523137       -14.2353
  36   2.0000      -0.500949       -13.6315
  37   2.0000      -0.492588       -13.4040
  38   2.0000      -0.487426       -13.2635
  39   2.0000      -0.482337       -13.1250
  40   2.0000      -0.453749       -12.3472
  41   2.0000      -0.447070       -12.1654
  42   2.0000      -0.445724       -12.1288
  43   2.0000      -0.427491       -11.6326
  44   2.0000      -0.419516       -11.4156
  45   2.0000      -0.411791       -11.2054
  46   2.0000      -0.402641       -10.9564
  47   2.0000      -0.400467       -10.8973
  48   2.0000      -0.364640        -9.9224
  49   0.0000       0.109124         2.9694
  50   0.0000       0.116708         3.1758
  51   0.0000       0.144861         3.9419
  52   0.0000       0.151027         4.1097
  53   0.0000       0.159867         4.3502

MULLIKEN ATOMIC CHARGES
-----------------------
   0 C :   -0.083115
   1 C :   -0.012719
   2 C :   -0.011322
   3 C :   -0.156621
   4 S :    0.983341
   5 H :   -0.019875
   6 H :   -0.007063
   7 H :    0.032238
   8 O :   -0.419910
   9 F :   -0.189313
  10 H :    0.020392
  11 H :    0.017134
  12 O :   -0.453644
  13 C :   -0.058138
  14 H :    0.016254
  15 H :    0.020305
  16 C :   -0.061370
  17 H :    0.023932
  18 H :   -0.009779
  19 C :   -0.005075
  20 H :    0.085805
  21 H :    0.106544
  22 H :    0.053440
  23 H :    0.030332
  24 H :    0.044559
  25 H :    0.053666
Sum of atomic charges:    0.0000000

LOEWDIN ATOMIC CHARGES
----------------------
   0 C :   -0.043616
   1 C :   -0.094480
   2 C :   -0.037555
   3 C :   -0.151051
   4 S :    1.190103
   5 H :   -0.013625
   6 H :    0.013539
   7 H :   -0.011151
   8 O :   -0.466992
   9 F :   -0.115840
  10 H :    0.017874
  11 H :    0.021962
  12 O :   -0.465162
  13 C :   -0.049272
  14 H :    0.020760
  15 H :    0.023107
  16 C :   -0.046926
  17 H :    0.025115
  18 H :    0.001329
  19 C :   -0.040527
  20 H :    0.035529
  21 H :    0.053909
  22 H :    0.028757
  23 H :    0.030165
  24 H :    0.036805
  25 H :    0.037243

  Mayer bond orders larger than 0.100000
B(  0-C ,  1-C ) :   1.0809 B(  0-C ,  2-C ) :   1.0822 B(  0-C , 10-H ) :   0.9528
B(  0-C , 11-H ) :   0.9564 B(  1-C ,  5-H ) :   0.9647 B(  1-C ,  6-H ) :   0.9377
B(  1-C ,  7-H ) :   0.9390 B(  2-C , 13-C ) :   1.0831 B(  2-C , 14-H ) :   0.9512
B(  2-C , 15-H ) :   0.9485 B(  3-C ,  4-S ) :   0.9055 B(  3-C , 19-C ) :   1.0377
B(  3-C , 20-H ) :   0.9299 B(  3-C , 21-H ) :   0.9376 B(  4-S ,  8-O ) :   1.8187
B(  4-S ,  9-F ) :   0.9660 B(  4-S , 12-O ) :   1.6812 B(  7-H , 12-O ) :   0.1006
B( 13-C , 16-C ) :   1.0553 B( 13-C , 17-H ) :   0.9475 B( 13-C , 18-H ) :   0.9399
B( 16-C , 19-C ) :   1.0801 B( 16-C , 22-H ) :   0.9435 B( 16-C , 23-H ) :   0.9428
B( 19-C , 24-H ) :   0.9409 B( 19-C , 25-H ) :   0.9503

Dispersion correction           -0.012960698
FINAL SINGLE POINT ENERGY      -923.478775521623

DIPOLE MOMENT
-------------
                                X             Y             Z
Electronic contribution:    -16.05174      -5.43342      -7.28623
Nuclear contribution   :     17.25367       4.78608       6.55647
                        -----------------------------------------
Total Dipole Moment    :      1.20193      -0.64734      -0.72976
                        -----------------------------------------
Magnitude (a.u.)       :      1.54798
Magnitude (Debye)      :      3.93464

Rotational constants in cm-1:     0.048508     0.025517     0.020225
Rotational constants in MHz :  1454.219007   764.979652   606.316599

                             ****ORCA TERMINATED NORMALLY****
TOTAL RUN TIME: 0 days 0 hours 0 minutes 20 seconds 965 msec
