                         Program Version 5.0.0 -  RELEASE  -
|  1> !wB97X-D3 RIJCOSX def2-SVP def2/J TightSCF xyzfile
|  2>
|  3> *xyzfile 0 1 D3.xyz
|  4>
|  5> %MaxCore 64000
|  6>
|  7> %pal nprocs 18
|  8> end
|  9>
| 10> %scf
| 11>   MaxIter 150
| 12> end
| 13>
| 14>
| 15>                          ****END OF INPUT****

CARTESIAN COORDINATES (ANGSTROEM)
---------------------------------
  C     -4.382623   -1.670889    1.216201
  C     -5.763539   -1.915170    0.705012
  C     -3.281728   -2.191272    0.294361
  C     -5.572364   -5.807798   -0.816445
  S     -6.903179   -4.619033   -0.528458
  H     -5.840812   -2.115205   -0.300646
  H     -6.408823   -1.148656    0.936124
  H     -6.174781   -2.790606    1.051433
  O     -8.114853   -5.250932   -0.957007
  O     -6.532715   -3.426838   -1.314848
  H     -4.328618   -2.139223    2.198103
  H     -4.261583   -0.597399    1.357248
  F     -6.865632   -4.294957    0.914118
  C     -3.474641   -3.605898   -0.259608
  H     -2.354548   -2.127602    0.871433
  H     -3.166611   -1.499693   -0.545037
  C     -3.827078   -4.661097    0.786174
  H     -2.560559   -3.889391   -0.788050
  H     -4.255932   -3.570040   -1.019300
  C     -4.457800   -5.941875    0.229195
  H     -5.177347   -5.542575   -1.797714
  H     -6.074202   -6.768894   -0.921272
  H     -4.530506   -4.253640    1.511979
  H     -2.933400   -4.932302    1.356825
  H     -3.681064   -6.562236   -0.229885
  H     -4.843942   -6.512728    1.075805

 Total Charge           Charge          ....    0
 Multiplicity           Mult            ....    1
 Number of Electrons    NEL             ....   98
 Basis Dimension        Dim             ....  233

ORBITAL ENERGIES
----------------

  NO   OCC          E(Eh)            E(eV)
   0   2.0000     -89.221237     -2427.8333
   1   2.0000     -24.900991      -677.5904
   2   2.0000     -19.255338      -523.9644
   3   2.0000     -19.240754      -523.5675
   4   2.0000     -10.352181      -281.6972
   5   2.0000     -10.323851      -280.9263
   6   2.0000     -10.299511      -280.2639
   7   2.0000     -10.283670      -279.8329
   8   2.0000     -10.275883      -279.6210
   9   2.0000     -10.265815      -279.3470
  10   2.0000     -10.217652      -278.0364
  11   2.0000      -8.303807      -225.9581
  12   2.0000      -6.266966      -170.5328
  13   2.0000      -6.260408      -170.3544
  14   2.0000      -6.259179      -170.3209
  15   2.0000      -1.471808       -40.0499
  16   2.0000      -1.231859       -33.5206
  17   2.0000      -1.128434       -30.7063
  18   2.0000      -0.955676       -26.0053
  19   2.0000      -0.914310       -24.8796
  20   2.0000      -0.866086       -23.5674
  21   2.0000      -0.837872       -22.7997
  22   2.0000      -0.802873       -21.8473
  23   2.0000      -0.763768       -20.7832
  24   2.0000      -0.728369       -19.8199
  25   2.0000      -0.691488       -18.8163
  26   2.0000      -0.685383       -18.6502
  27   2.0000      -0.654799       -17.8180
  28   2.0000      -0.645600       -17.5677
  29   2.0000      -0.600312       -16.3353
  30   2.0000      -0.593666       -16.1545
  31   2.0000      -0.577156       -15.7052
  32   2.0000      -0.556344       -15.1389
  33   2.0000      -0.551996       -15.0206
  34   2.0000      -0.546045       -14.8586
  35   2.0000      -0.524737       -14.2788
  36   2.0000      -0.500940       -13.6313
  37   2.0000      -0.491807       -13.3828
  38   2.0000      -0.486181       -13.2297
  39   2.0000      -0.484957       -13.1963
  40   2.0000      -0.455018       -12.3817
  41   2.0000      -0.447669       -12.1817
  42   2.0000      -0.440278       -11.9806
  43   2.0000      -0.423821       -11.5328
  44   2.0000      -0.423187       -11.5155
  45   2.0000      -0.414397       -11.2763
  46   2.0000      -0.397049       -10.8042
  47   2.0000      -0.394233       -10.7276
  48   2.0000      -0.375952       -10.2302
  49   0.0000       0.098568         2.6822
  50   0.0000       0.129745         3.5305
  51   0.0000       0.147212         4.0059
  52   0.0000       0.152440         4.1481
  53   0.0000       0.158693         4.3183

MULLIKEN ATOMIC CHARGES
-----------------------
   0 C :   -0.090350
   1 C :   -0.007919
   2 C :   -0.005207
   3 C :   -0.140591
   4 S :    0.979001
   5 H :    0.037818
   6 H :   -0.006876
   7 H :   -0.018648
   8 O :   -0.418839
   9 O :   -0.456794
  10 H :    0.011408
  11 H :    0.019464
  12 F :   -0.190611
  13 C :   -0.064703
  14 H :    0.011706
  15 H :    0.025350
  16 C :   -0.061311
  17 H :    0.020584
  18 H :    0.029318
  19 C :   -0.040056
  20 H :    0.114323
  21 H :    0.096496
  22 H :    0.024361
  23 H :    0.035507
  24 H :    0.050688
  25 H :    0.045883
Sum of atomic charges:    0.0000000

LOEWDIN ATOMIC CHARGES
----------------------
   0 C :   -0.045650
   1 C :   -0.092283
   2 C :   -0.036476
   3 C :   -0.146783
   4 S :    1.189160
   5 H :    0.003168
   6 H :    0.013779
   7 H :   -0.021011
   8 O :   -0.466920
   9 O :   -0.472806
  10 H :    0.013088
  11 H :    0.023649
  12 F :   -0.113336
  13 C :   -0.052082
  14 H :    0.018198
  15 H :    0.026051
  16 C :   -0.048763
  17 H :    0.024114
  18 H :    0.014977
  19 C :   -0.049511
  20 H :    0.053168
  21 H :    0.046215
  22 H :    0.018090
  23 H :    0.032107
  24 H :    0.039218
  25 H :    0.030638

  Mayer bond orders larger than 0.100000
B(  0-C ,  1-C ) :   1.0781 B(  0-C ,  2-C ) :   1.0823 B(  0-C , 10-H ) :   0.9527
B(  0-C , 11-H ) :   0.9552 B(  1-C ,  5-H ) :   0.9567 B(  1-C ,  6-H ) :   0.9397
B(  1-C ,  7-H ) :   0.9581 B(  2-C , 13-C ) :   1.0857 B(  2-C , 14-H ) :   0.9520
B(  2-C , 15-H ) :   0.9475 B(  3-C ,  4-S ) :   0.9123 B(  3-C , 19-C ) :   1.0391
B(  3-C , 20-H ) :   0.9299 B(  3-C , 21-H ) :   0.9391 B(  4-S ,  8-O ) :   1.8184
B(  4-S ,  9-O ) :   1.6939 B(  4-S , 12-F ) :   0.9537 B( 13-C , 16-C ) :   1.0504
B( 13-C , 17-H ) :   0.9461 B( 13-C , 18-H ) :   0.9344 B( 16-C , 19-C ) :   1.0737
B( 16-C , 22-H ) :   0.9469 B( 16-C , 23-H ) :   0.9435 B( 19-C , 24-H ) :   0.9397
B( 19-C , 25-H ) :   0.9560

Dispersion correction           -0.012917554
FINAL SINGLE POINT ENERGY      -923.478270591383

DIPOLE MOMENT
-------------
                                X             Y             Z
Electronic contribution:    -16.61779      -6.93204      -3.46287
Nuclear contribution   :     17.63907       5.79106       3.97609
                        -----------------------------------------
Total Dipole Moment    :      1.02128      -1.14097       0.51322
                        -----------------------------------------
Magnitude (a.u.)       :      1.61500
Magnitude (Debye)      :      4.10501

Rotational constants in cm-1:     0.048663     0.025472     0.020259
Rotational constants in MHz :  1458.892793   763.621130   607.350055

                             ****ORCA TERMINATED NORMALLY****
TOTAL RUN TIME: 0 days 0 hours 0 minutes 20 seconds 194 msec
