                         Program Version 5.0.0 -  RELEASE  -
|  1> !LC-BLYP RIJCOSX def2-TZVPD def2/J TightSCF
|  2> *xyz -1 1
|  3> C          4.90646       -3.10282       -5.95484
|  4> C          3.51177       -2.80621       -6.49228
|  5> H          2.73604       -3.37345       -5.97374
|  6> H          3.44490       -3.04083       -7.55528
|  7> S          3.00462       -1.09621       -6.38926
|  8> O          4.12886       -0.32965       -6.95372
|  9> O          1.78128       -1.00078       -7.13640
| 10> O          2.85155       -0.78368       -4.95679
| 11> H          5.62703       -2.52424       -6.49422
| 12> H          5.12164       -4.14387       -6.07654
| 13> H          4.95004       -2.84862       -4.91639
| 14> *
| 15>
| 16> %MaxCore 64000
| 17>
| 18> %pal nprocs 4
| 19> end
| 20>
| 21> %scf
| 22>   MaxIter 150
| 23> end
| 24>
| 25>
| 26>                          ****END OF INPUT****

CARTESIAN COORDINATES (ANGSTROEM)
---------------------------------
  C      4.906460   -3.102820   -5.954840
  C      3.511770   -2.806210   -6.492280
  H      2.736040   -3.373450   -5.973740
  H      3.444900   -3.040830   -7.555280
  S      3.004620   -1.096210   -6.389260
  O      4.128860   -0.329650   -6.953720
  O      1.781280   -1.000780   -7.136400
  O      2.851550   -0.783680   -4.956790
  H      5.627030   -2.524240   -6.494220
  H      5.121640   -4.143870   -6.076540
  H      4.950040   -2.848620   -4.916390

 Total Charge           Charge          ....   -1
 Multiplicity           Mult            ....    1
 Number of Electrons    NEL             ....   58
 Basis Dimension        Dim             ....  285

ORBITAL ENERGIES
----------------

  NO   OCC          E(Eh)            E(eV)
   0   2.0000     -88.259848     -2401.6726
   1   2.0000     -18.723712      -509.4981
   2   2.0000     -18.712128      -509.1829
   3   2.0000     -18.711822      -509.1746
   4   2.0000      -9.934320      -270.3266
   5   2.0000      -9.924651      -270.0635
   6   2.0000      -7.802133      -212.3068
   7   2.0000      -5.830130      -158.6459
   8   2.0000      -5.829228      -158.6214
   9   2.0000      -5.828925      -158.6131
  10   2.0000      -1.021504       -27.7965
  11   2.0000      -0.884731       -24.0748
  12   2.0000      -0.864933       -23.5360
  13   2.0000      -0.746826       -20.3222
  14   2.0000      -0.620618       -16.8879
  15   2.0000      -0.488252       -13.2860
  16   2.0000      -0.428706       -11.6657
  17   2.0000      -0.421284       -11.4637
  18   2.0000      -0.382039       -10.3958
  19   2.0000      -0.366228        -9.9656
  20   2.0000      -0.356867        -9.7109
  21   2.0000      -0.332726        -9.0539
  22   2.0000      -0.314137        -8.5481
  23   2.0000      -0.255404        -6.9499
  24   2.0000      -0.254950        -6.9375
  25   2.0000      -0.216670        -5.8959
  26   2.0000      -0.207885        -5.6568
  27   2.0000      -0.203539        -5.5386
  28   2.0000      -0.162997        -4.4354
  29   0.0000       0.161485         4.3942
  30   0.0000       0.174964         4.7610
  31   0.0000       0.175774         4.7831
  32   0.0000       0.183790         5.0012
  33   0.0000       0.207658         5.6506

MULLIKEN ATOMIC CHARGES
-----------------------
   0 C :   -1.271380
   1 C :   -0.671532
   2 H :    0.380900
   3 H :    0.375569
   4 S :    1.079909
   5 O :   -0.695122
   6 O :   -0.643384
   7 O :   -0.693260
   8 H :    0.369377
   9 H :    0.414993
  10 H :    0.353930
Sum of atomic charges:   -1.0000000

LOEWDIN ATOMIC CHARGES
----------------------
   0 C :   -0.156532
   1 C :   -0.350386
   2 H :    0.091796
   3 H :    0.089086
   4 S :    0.307565
   5 O :   -0.395286
   6 O :   -0.372258
   7 O :   -0.398310
   8 H :    0.062396
   9 H :    0.054921
  10 H :    0.067009

  Mayer bond orders larger than 0.100000
B(  0-C ,  1-C ) :   0.4859 B(  0-C ,  8-H ) :   0.9454 B(  0-C ,  9-H ) :   0.8684
B(  0-C , 10-H ) :   0.9511 B(  1-C ,  2-H ) :   0.9013 B(  1-C ,  3-H ) :   0.9077
B(  1-C ,  4-S ) :   0.9537 B(  1-C ,  6-O ) :   0.1213 B(  1-C ,  7-O ) :   0.1091
B(  4-S ,  5-O ) :   1.4764 B(  4-S ,  6-O ) :   1.5172 B(  4-S ,  7-O ) :   1.4815

FINAL SINGLE POINT ENERGY      -702.485950313597

DIPOLE MOMENT
-------------
                                X             Y             Z
Electronic contribution:     -4.34259       6.33735      -0.66494
Nuclear contribution   :      5.05690      -8.21735       0.57889
                        -----------------------------------------
Total Dipole Moment    :      0.71431      -1.88000      -0.08604
                        -----------------------------------------
Magnitude (a.u.)       :      2.01297
Magnitude (Debye)      :      5.11657

Rotational constants in cm-1:     0.162547     0.083494     0.081672
Rotational constants in MHz :  4873.033504  2503.090885  2448.458543

                             ****ORCA TERMINATED NORMALLY****
TOTAL RUN TIME: 0 days 0 hours 0 minutes 40 seconds 121 msec
