                         Program Version 5.0.0 -  RELEASE  -
|  1> !LC-BLYP RIJCOSX def2-TZVPD def2/J TightSCF
|  2> *xyz 1 1
|  3> C          4.49059        1.15590       -2.46929
|  4> N          4.30539        1.22276       -3.90832
|  5> C          4.63192        2.24637       -4.67096
|  6> N          4.54169        2.14399       -5.98714
|  7> N          5.08409        3.39358       -4.11855
|  8> H          4.92067        3.57050       -3.13587
|  9> H          5.25465        4.19739       -4.70696
| 10> H          3.82453        0.44911       -4.35093
| 11> H          4.34337        1.24932       -6.41665
| 12> H          4.67671        2.95662       -6.57411
| 13> C          5.94213        0.93950       -2.03689
| 14> H          3.86431        0.32853       -2.13661
| 15> H          4.07623        2.04999       -1.98901
| 16> H          6.32982        0.06401       -2.51451
| 17> H          5.98308        0.81426       -0.97504
| 18> H          6.52865        1.78889       -2.31873
| 19> *
| 20>
| 21> %MaxCore 64000
| 22>
| 23> %pal nprocs 4
| 24> end
| 25>
| 26> %scf
| 27>   MaxIter 150
| 28> end
| 29>
| 30>
| 31>                          ****END OF INPUT****

CARTESIAN COORDINATES (ANGSTROEM)
---------------------------------
  C      4.490590    1.155900   -2.469290
  N      4.305390    1.222760   -3.908320
  C      4.631920    2.246370   -4.670960
  N      4.541690    2.143990   -5.987140
  N      5.084090    3.393580   -4.118550
  H      4.920670    3.570500   -3.135870
  H      5.254650    4.197390   -4.706960
  H      3.824530    0.449110   -4.350930
  H      4.343370    1.249320   -6.416650
  H      4.676710    2.956620   -6.574110
  C      5.942130    0.939500   -2.036890
  H      3.864310    0.328530   -2.136610
  H      4.076230    2.049990   -1.989010
  H      6.329820    0.064010   -2.514510
  H      5.983080    0.814260   -0.975040
  H      6.528650    1.788890   -2.318730

 Total Charge           Charge          ....    1
 Multiplicity           Mult            ....    1
 Number of Electrons    NEL             ....   48
 Basis Dimension        Dim             ....  312

ORBITAL ENERGIES
----------------

  NO   OCC          E(Eh)            E(eV)
   0   2.0000     -14.394575      -391.6963
   1   2.0000     -14.393147      -391.6574
   2   2.0000     -14.390878      -391.5957
   3   2.0000     -10.406919      -283.1867
   4   2.0000     -10.275394      -279.6077
   5   2.0000     -10.200911      -277.5809
   6   2.0000      -1.317717       -35.8569
   7   2.0000      -1.208052       -32.8728
   8   2.0000      -1.191939       -32.4343
   9   2.0000      -1.039163       -28.2771
  10   2.0000      -0.951253       -25.8849
  11   2.0000      -0.908177       -24.7128
  12   2.0000      -0.892531       -24.2870
  13   2.0000      -0.847352       -23.0576
  14   2.0000      -0.794770       -21.6268
  15   2.0000      -0.790448       -21.5092
  16   2.0000      -0.766150       -20.8480
  17   2.0000      -0.732120       -19.9220
  18   2.0000      -0.707978       -19.2650
  19   2.0000      -0.660899       -17.9840
  20   2.0000      -0.630824       -17.1656
  21   2.0000      -0.609662       -16.5897
  22   2.0000      -0.575823       -15.6690
  23   2.0000      -0.547795       -14.9063
  24   0.0000      -0.107782        -2.9329
  25   0.0000      -0.093133        -2.5343
  26   0.0000      -0.075382        -2.0513
  27   0.0000      -0.069639        -1.8950
  28   0.0000      -0.042151        -1.1470

MULLIKEN ATOMIC CHARGES
-----------------------
   0 C :   -0.768212
   1 N :   -0.201637
   2 C :    0.703091
   3 N :   -0.326533
   4 N :   -0.334340
   5 H :    0.223590
   6 H :    0.200166
   7 H :    0.184533
   8 H :    0.207894
   9 H :    0.208868
  10 C :   -1.199148
  11 H :    0.422894
  12 H :    0.441103
  13 H :    0.391075
  14 H :    0.438123
  15 H :    0.408531
Sum of atomic charges:    1.0000000

LOEWDIN ATOMIC CHARGES
----------------------
   0 C :   -0.223194
   1 N :    0.087355
   2 C :   -0.447225
   3 N :    0.213002
   4 N :    0.219866
   5 H :    0.123252
   6 H :    0.137250
   7 H :    0.171995
   8 H :    0.142502
   9 H :    0.140771
  10 C :   -0.070211
  11 H :    0.136131
  12 H :    0.126820
  13 H :    0.084652
  14 H :    0.087679
  15 H :    0.069354

  Mayer bond orders larger than 0.100000
B(  0-C ,  1-N ) :   0.7669 B(  0-C ,  2-C ) :  -0.1008 B(  0-C , 10-C ) :   0.4801
B(  0-C , 11-H ) :   0.8548 B(  0-C , 12-H ) :   0.8339 B(  1-N ,  2-C ) :   1.2014
B(  1-N ,  3-N ) :   0.1060 B(  1-N ,  7-H ) :   1.0609 B(  2-C ,  3-N ) :   1.0273
B(  2-C ,  4-N ) :   1.0996 B(  3-N ,  8-H ) :   0.9923 B(  3-N ,  9-H ) :   1.0127
B(  4-N ,  5-H ) :   0.9383 B(  4-N ,  6-H ) :   1.0242 B( 10-C , 13-H ) :   0.9452
B( 10-C , 14-H ) :   0.8948 B( 10-C , 15-H ) :   0.8732

FINAL SINGLE POINT ENERGY      -283.782651489042

DIPOLE MOMENT
-------------
                                X             Y             Z
Electronic contribution:     -1.81091       1.57571      -4.45085
Nuclear contribution   :      1.34333      -1.11039       3.43667
                        -----------------------------------------
Total Dipole Moment    :     -0.46759       0.46532      -1.01419
                        -----------------------------------------
Magnitude (a.u.)       :      1.20985
Magnitude (Debye)      :      3.07519

Rotational constants in cm-1:     0.227161     0.075356     0.065003
Rotational constants in MHz :  6810.114531  2259.122204  1948.738523

                             ****ORCA TERMINATED NORMALLY****
TOTAL RUN TIME: 0 days 0 hours 0 minutes 54 seconds 798 msec
