                         Program Version 5.0.0 -  RELEASE  -
|  1> !LC-BLYP RIJCOSX def2-TZVPD def2/J TightSCF xyzfile
|  2>
|  3> *xyzfile 0 1 B.xyz
|  4>
|  5> %MaxCore 64000
|  6>
|  7> %pal nprocs 4
|  8> end
|  9>
| 10> %scf
| 11>   MaxIter 150
| 12> end
| 13>
| 14>
| 15>                          ****END OF INPUT****

CARTESIAN COORDINATES (ANGSTROEM)
---------------------------------
  C      4.490588    1.155899   -2.469290
  N      4.305394    1.222762   -3.908317
  C      4.906458   -3.102816   -5.954844
  C      3.511771   -2.806215   -6.492283
  H      2.736044   -3.373445   -5.973736
  H      3.444904   -3.040831   -7.555281
  S      3.004618   -1.096206   -6.389259
  C      4.631918    2.246365   -4.670958
  N      4.541686    2.143990   -5.987139
  N      5.084086    3.393584   -4.118545
  H      4.920675    3.570501   -3.135870
  H      5.254652    4.197390   -4.706956
  H      3.824530    0.449113   -4.350926
  H      4.343373    1.249318   -6.416646
  H      4.676712    2.956624   -6.574113
  O      4.128856   -0.329647   -6.953717
  O      1.781285   -1.000779   -7.136399
  C      5.942129    0.939500   -2.036893
  H      3.864305    0.328532   -2.136611
  H      4.076233    2.049994   -1.989010
  C      6.462677   -3.117775   -3.944671
  C      5.024977   -3.025679   -4.437625
  H      4.423321   -3.818693   -3.977648
  H      4.579350   -2.087131   -4.108727
  H      5.201533   -4.100207   -6.296905
  H      5.605922   -2.397822   -6.413368
  C      6.559957   -0.356290   -2.559086
  H      5.967976    0.952567   -0.942444
  H      6.547184    1.788331   -2.368849
  C      6.006283   -1.615917   -1.899301
  H      7.642360   -0.318000   -2.402059
  H      6.414855   -0.403433   -3.642587
  C      6.608718   -2.917014   -2.435655
  H      6.190324   -1.561115   -0.820948
  H      4.919250   -1.651245   -2.016586
  H      7.066975   -2.374258   -4.475514
  H      6.887808   -4.089747   -4.215332
  H      6.135197   -3.755573   -1.915159
  H      7.671142   -2.955503   -2.172291
  O      2.851546   -0.783683   -4.956789

 Total Charge           Charge          ....    0
 Multiplicity           Mult            ....    1
 Number of Electrons    NEL             ....  144
 Basis Dimension        Dim             ....  854

ORBITAL ENERGIES
----------------

  NO   OCC          E(Eh)            E(eV)
   0   2.0000     -88.415667     -2405.9126
   1   2.0000     -18.880445      -513.7630
   2   2.0000     -18.879834      -513.7464
   3   2.0000     -18.866811      -513.3920
   4   2.0000     -14.245997      -387.6533
   5   2.0000     -14.215362      -386.8197
   6   2.0000     -14.211730      -386.7208
   7   2.0000     -10.243058      -278.7278
   8   2.0000     -10.134342      -275.7695
   9   2.0000     -10.088668      -274.5266
  10   2.0000     -10.071881      -274.0698
  11   2.0000     -10.065024      -273.8832
  12   2.0000     -10.061306      -273.7821
  13   2.0000     -10.060078      -273.7486
  14   2.0000     -10.053116      -273.5592
  15   2.0000     -10.051877      -273.5255
  16   2.0000     -10.043946      -273.3097
  17   2.0000      -7.958670      -216.5664
  18   2.0000      -5.986783      -162.9086
  19   2.0000      -5.985911      -162.8849
  20   2.0000      -5.984990      -162.8599
  21   2.0000      -1.182535       -32.1784
  22   2.0000      -1.154548       -31.4168
  23   2.0000      -1.048712       -28.5369
  24   2.0000      -1.042448       -28.3665
  25   2.0000      -1.036652       -28.2087
  26   2.0000      -1.028781       -27.9946
  27   2.0000      -0.935277       -25.4502
  28   2.0000      -0.909432       -24.7469
  29   2.0000      -0.882742       -24.0206
  30   2.0000      -0.844997       -22.9935
  31   2.0000      -0.809444       -22.0261
  32   2.0000      -0.784113       -21.3368
  33   2.0000      -0.755997       -20.5717
  34   2.0000      -0.735812       -20.0225
  35   2.0000      -0.723623       -19.6908
  36   2.0000      -0.703163       -19.1340
  37   2.0000      -0.683223       -18.5914
  38   2.0000      -0.658937       -17.9306
  39   2.0000      -0.651108       -17.7176
  40   2.0000      -0.642622       -17.4866
  41   2.0000      -0.622051       -16.9269
  42   2.0000      -0.608680       -16.5630
  43   2.0000      -0.592514       -16.1231
  44   2.0000      -0.587914       -15.9980
  45   2.0000      -0.573883       -15.6162
  46   2.0000      -0.566860       -15.4250
  47   2.0000      -0.557436       -15.1686
  48   2.0000      -0.538991       -14.6667
  49   2.0000      -0.536527       -14.5996
  50   2.0000      -0.529944       -14.4205
  51   2.0000      -0.519248       -14.1295
  52   2.0000      -0.510531       -13.8923
  53   2.0000      -0.500395       -13.6164
  54   2.0000      -0.490274       -13.3410
  55   2.0000      -0.481733       -13.1086
  56   2.0000      -0.464675       -12.6445
  57   2.0000      -0.457775       -12.4567
  58   2.0000      -0.448388       -12.2012
  59   2.0000      -0.432804       -11.7772
  60   2.0000      -0.425203       -11.5704
  61   2.0000      -0.422367       -11.4932
  62   2.0000      -0.418170       -11.3790
  63   2.0000      -0.412801       -11.2329
  64   2.0000      -0.410012       -11.1570
  65   2.0000      -0.404980       -11.0201
  66   2.0000      -0.400097       -10.8872
  67   2.0000      -0.383706       -10.4412
  68   2.0000      -0.372413       -10.1339
  69   2.0000      -0.363296        -9.8858
  70   2.0000      -0.354561        -9.6481
  71   2.0000      -0.328077        -8.9274
  72   0.0000       0.015941         0.4338
  73   0.0000       0.040190         1.0936
  74   0.0000       0.050321         1.3693
  75   0.0000       0.058111         1.5813
  76   0.0000       0.065780         1.7900

MULLIKEN ATOMIC CHARGES
-----------------------
   0 C :   -1.240566
   1 N :   -0.013673
   2 C :   -0.911872
   3 C :   -1.057419
   4 H :    0.427074
   5 H :    0.456627
   6 S :    1.336715
   7 C :    0.697964
   8 N :   -0.197530
   9 N :   -0.342084
  10 H :    0.217613
  11 H :    0.182463
  12 H :    0.125529
  13 H :    0.211325
  14 H :    0.171422
  15 O :   -0.909238
  16 O :   -0.638905
  17 C :   -0.738587
  18 H :    0.504612
  19 H :    0.500723
  20 C :   -0.926324
  21 C :   -0.384982
  22 H :    0.327380
  23 H :    0.396388
  24 H :    0.405637
  25 H :    0.434240
  26 C :   -0.549668
  27 H :    0.457537
  28 H :    0.481944
  29 C :   -0.863091
  30 H :    0.378919
  31 H :    0.331796
  32 C :   -0.958962
  33 H :    0.404500
  34 H :    0.434366
  35 H :    0.418875
  36 H :    0.438389
  37 H :    0.412073
  38 H :    0.414153
  39 O :   -0.835360
Sum of atomic charges:    0.0000000

LOEWDIN ATOMIC CHARGES
----------------------
   0 C :   -0.177157
   1 N :    0.106428
   2 C :   -0.241908
   3 C :   -0.259192
   4 H :    0.112909
   5 H :    0.107343
   6 S :    0.419186
   7 C :   -0.446178
   8 N :    0.215686
   9 N :    0.188433
  10 H :    0.107517
  11 H :    0.120159
  12 H :    0.066274
  13 H :    0.038894
  14 H :    0.130220
  15 O :   -0.356705
  16 O :   -0.307228
  17 C :   -0.199928
  18 H :    0.131727
  19 H :    0.121717
  20 C :   -0.231153
  21 C :   -0.232960
  22 H :    0.135177
  23 H :    0.084711
  24 H :    0.121145
  25 H :    0.114251
  26 C :   -0.219296
  27 H :    0.122201
  28 H :    0.107311
  29 C :   -0.229663
  30 H :    0.125724
  31 H :    0.112437
  32 C :   -0.222577
  33 H :    0.120502
  34 H :    0.108327
  35 H :    0.113502
  36 H :    0.120003
  37 H :    0.116766
  38 H :    0.115090
  39 O :   -0.359695

  Mayer bond orders larger than 0.100000
B(  0-C ,  1-N ) :   0.7719 B(  0-C , 12-H ) :  -0.2085 B(  0-C , 17-C ) :   0.4948
B(  0-C , 18-H ) :   0.7080 B(  0-C , 19-H ) :   0.7936 B(  1-N ,  7-C ) :   1.2311
B(  1-N , 12-H ) :   0.9656 B(  1-N , 39-O ) :  -0.1988 B(  2-C ,  3-C ) :   0.6906
B(  2-C , 20-C ) :   0.1976 B(  2-C , 21-C ) :   0.3145 B(  2-C , 24-H ) :   0.9343
B(  2-C , 25-H ) :   0.8633 B(  3-C ,  4-H ) :   0.8579 B(  3-C ,  5-H ) :   0.9213
B(  3-C ,  6-S ) :   1.0086 B(  3-C , 16-O ) :   0.1648 B(  6-S , 15-O ) :   1.1264
B(  6-S , 16-O ) :   1.3910 B(  6-S , 39-O ) :   1.3880 B(  7-C ,  8-N ) :   1.0704
B(  7-C ,  9-N ) :   1.0286 B(  7-C , 12-H ) :  -0.2192 B(  8-N , 13-H ) :   0.8603
B(  8-N , 14-H ) :   1.0422 B(  8-N , 15-O ) :  -0.1301 B(  9-N , 10-H ) :   0.9540
B(  9-N , 11-H ) :   1.0275 B( 12-H , 39-O ) :   0.1535 B( 13-H , 15-O ) :   0.1073
B( 15-O , 39-O ) :   0.1032 B( 17-C , 26-C ) :   0.6933 B( 17-C , 27-H ) :   0.9197
B( 17-C , 28-H ) :   0.7965 B( 20-C , 21-C ) :   0.2801 B( 20-C , 32-C ) :   0.6344
B( 20-C , 35-H ) :   0.9631 B( 20-C , 36-H ) :   0.8649 B( 21-C , 22-H ) :   0.9243
B( 21-C , 23-H ) :   1.0878 B( 21-C , 29-C ) :   0.1562 B( 21-C , 39-O ) :   0.1386
B( 22-H , 23-H ) :   0.2084 B( 23-H , 39-O ) :  -0.2127 B( 26-C , 29-C ) :   0.1886
B( 26-C , 30-H ) :   0.9528 B( 26-C , 31-H ) :   0.9643 B( 26-C , 34-H ) :  -0.1307
B( 29-C , 32-C ) :   0.6888 B( 29-C , 33-H ) :   0.9176 B( 29-C , 34-H ) :   0.9822
B( 32-C , 37-H ) :   0.9354 B( 32-C , 38-H ) :   0.9567

FINAL SINGLE POINT ENERGY     -1181.309993566526

DIPOLE MOMENT
-------------
                                X             Y             Z
Electronic contribution:    -14.50552       8.30151     -15.30252
Nuclear contribution   :     16.79156      -5.47215      17.54258
                        -----------------------------------------
Total Dipole Moment    :      2.28604       2.82936       2.24006
                        -----------------------------------------
Magnitude (a.u.)       :      4.27190
Magnitude (Debye)      :     10.85831

Rotational constants in cm-1:     0.014207     0.012373     0.007472
Rotational constants in MHz :   425.900436   370.942493   224.006604

                             ****ORCA TERMINATED NORMALLY****
TOTAL RUN TIME: 0 days 0 hours 12 minutes 36 seconds 576 msec
