                         Program Version 5.0.0 -  RELEASE  -
|  1> !LC-BLYP RIJCOSX def2-TZVPD def2/J TightSCF
|  2> *xyz 0 1
|  3> C          4.90646       -3.10282       -5.95484
|  4> C          3.51177       -2.80621       -6.49228
|  5> H          2.73604       -3.37345       -5.97374
|  6> H          3.44490       -3.04083       -7.55528
|  7> S          3.00462       -1.09621       -6.38926
|  8> F          4.12886       -0.32965       -6.95372
|  9> O          1.78128       -1.00078       -7.13640
| 10> O          2.85155       -0.78368       -4.95679
| 11> H          5.62703       -2.52424       -6.49422
| 12> H          5.12164       -4.14387       -6.07654
| 13> H          4.95004       -2.84862       -4.91639
| 14> *
| 15>
| 16> %MaxCore 64000
| 17>
| 18> %pal nprocs 4
| 19> end
| 20>
| 21> %scf
| 22>   MaxIter 150
| 23> end
| 24>
| 25>
| 26>                          ****END OF INPUT****

CARTESIAN COORDINATES (ANGSTROEM)
---------------------------------
  C      4.906460   -3.102820   -5.954840
  C      3.511770   -2.806210   -6.492280
  H      2.736040   -3.373450   -5.973740
  H      3.444900   -3.040830   -7.555280
  S      3.004620   -1.096210   -6.389260
  F      4.128860   -0.329650   -6.953720
  O      1.781280   -1.000780   -7.136400
  O      2.851550   -0.783680   -4.956790
  H      5.627030   -2.524240   -6.494220
  H      5.121640   -4.143870   -6.076540
  H      4.950040   -2.848620   -4.916390

 Total Charge           Charge          ....    0
 Multiplicity           Mult            ....    1
 Number of Electrons    NEL             ....   58
 Basis Dimension        Dim             ....  285

ORBITAL ENERGIES
----------------

  NO   OCC          E(Eh)            E(eV)
   0   2.0000     -88.518763     -2408.7180
   1   2.0000     -24.562678      -668.3844
   2   2.0000     -18.956518      -515.8331
   3   2.0000     -18.944686      -515.5111
   4   2.0000     -10.134756      -275.7807
   5   2.0000     -10.092517      -274.6313
   6   2.0000      -8.061541      -219.3657
   7   2.0000      -6.093479      -165.8120
   8   2.0000      -6.086295      -165.6165
   9   2.0000      -6.086121      -165.6118
  10   2.0000      -1.442440       -39.2508
  11   2.0000      -1.206731       -32.8368
  12   2.0000      -1.106953       -30.1217
  13   2.0000      -0.941433       -25.6177
  14   2.0000      -0.833507       -22.6809
  15   2.0000      -0.785734       -21.3809
  16   2.0000      -0.693770       -18.8784
  17   2.0000      -0.675008       -18.3679
  18   2.0000      -0.650907       -17.7121
  19   2.0000      -0.605059       -16.4645
  20   2.0000      -0.582129       -15.8405
  21   2.0000      -0.559537       -15.2258
  22   2.0000      -0.541230       -14.7276
  23   2.0000      -0.515948       -14.0397
  24   2.0000      -0.503494       -13.7008
  25   2.0000      -0.485300       -13.2057
  26   2.0000      -0.440153       -11.9772
  27   2.0000      -0.429301       -11.6819
  28   2.0000      -0.414024       -11.2662
  29   0.0000       0.034267         0.9324
  30   0.0000       0.050979         1.3872
  31   0.0000       0.056370         1.5339
  32   0.0000       0.059906         1.6301
  33   0.0000       0.086861         2.3636

MULLIKEN ATOMIC CHARGES
-----------------------
   0 C :   -1.300961
   1 C :   -0.668389
   2 H :    0.427953
   3 H :    0.439866
   4 S :    1.062857
   5 F :   -0.140280
   6 O :   -0.505701
   7 O :   -0.548317
   8 H :    0.415278
   9 H :    0.421037
  10 H :    0.396657
Sum of atomic charges:   -0.0000000

LOEWDIN ATOMIC CHARGES
----------------------
   0 C :   -0.121730
   1 C :   -0.297523
   2 H :    0.119756
   3 H :    0.107777
   4 S :    0.553803
   5 F :   -0.058354
   6 O :   -0.256916
   7 O :   -0.280870
   8 H :    0.074087
   9 H :    0.079642
  10 H :    0.080327

  Mayer bond orders larger than 0.100000
B(  0-C ,  1-C ) :   0.4696 B(  0-C ,  8-H ) :   0.8745 B(  0-C ,  9-H ) :   0.8879
B(  0-C , 10-H ) :   0.9340 B(  1-C ,  2-H ) :   0.8522 B(  1-C ,  3-H ) :   0.8534
B(  1-C ,  4-S ) :   0.9351 B(  4-S ,  5-F ) :   0.9960 B(  4-S ,  6-O ) :   1.7164
B(  4-S ,  7-O ) :   1.6783

FINAL SINGLE POINT ENERGY      -726.999870692375

DIPOLE MOMENT
-------------
                                X             Y             Z
Electronic contribution:     -2.96976       8.15883      -1.75337
Nuclear contribution   :      4.18919      -9.36357       1.23251
                        -----------------------------------------
Total Dipole Moment    :      1.21943      -1.20474      -0.52085
                        -----------------------------------------
Magnitude (a.u.)       :      1.79156
Magnitude (Debye)      :      4.55379

Rotational constants in cm-1:     0.153152     0.082513     0.079874
Rotational constants in MHz :  4591.373714  2473.673397  2394.575279

                             ****ORCA TERMINATED NORMALLY****
TOTAL RUN TIME: 0 days 0 hours 0 minutes 38 seconds 784 msec
