                         Program Version 5.0.0 -  RELEASE  -
|  1> !LC-BLYP RIJCOSX def2-TZVPD def2/J TightSCF
|  2> *xyz 0 1
|  3> C          4.49059        1.15590       -2.46929
|  4> C          4.30539        1.22276       -3.90832
|  5> C          4.63192        2.24637       -4.67096
|  6> N          4.54169        2.14399       -5.98714
|  7> N          5.08409        3.39358       -4.11855
|  8> H          4.92067        3.57050       -3.13587
|  9> H          5.25465        4.19739       -4.70696
| 10> H          3.82453        0.44911       -4.35093
| 11> H          4.34337        1.24932       -6.41665
| 12> H          4.67671        2.95662       -6.57411
| 13> C          5.94213        0.93950       -2.03689
| 14> H          3.86431        0.32853       -2.13661
| 15> H          4.07623        2.04999       -1.98901
| 16> H          6.32982        0.06401       -2.51451
| 17> H          5.98308        0.81426       -0.97504
| 18> H          6.52865        1.78889       -2.31873
| 19> *
| 20>
| 21> %MaxCore 64000
| 22>
| 23> %pal nprocs 4
| 24> end
| 25>
| 26> %scf
| 27>   MaxIter 150
| 28> end
| 29>
| 30>
| 31>                          ****END OF INPUT****

CARTESIAN COORDINATES (ANGSTROEM)
---------------------------------
  C      4.490590    1.155900   -2.469290
  C      4.305390    1.222760   -3.908320
  C      4.631920    2.246370   -4.670960
  N      4.541690    2.143990   -5.987140
  N      5.084090    3.393580   -4.118550
  H      4.920670    3.570500   -3.135870
  H      5.254650    4.197390   -4.706960
  H      3.824530    0.449110   -4.350930
  H      4.343370    1.249320   -6.416650
  H      4.676710    2.956620   -6.574110
  C      5.942130    0.939500   -2.036890
  H      3.864310    0.328530   -2.136610
  H      4.076230    2.049990   -1.989010
  H      6.329820    0.064010   -2.514510
  H      5.983080    0.814260   -0.975040
  H      6.528650    1.788890   -2.318730

 Total Charge           Charge          ....    0
 Multiplicity           Mult            ....    1
 Number of Electrons    NEL             ....   48
 Basis Dimension        Dim             ....  312

ORBITAL ENERGIES
----------------

  NO   OCC          E(Eh)            E(eV)
   0   2.0000     -14.171158      -385.6168
   1   2.0000     -14.168680      -385.5494
   2   2.0000     -10.113343      -275.1981
   3   2.0000     -10.041756      -273.2501
   4   2.0000     -10.029309      -272.9114
   5   2.0000      -9.989805      -271.8364
   6   2.0000      -1.061907       -28.8960
   7   2.0000      -0.971226       -26.4284
   8   2.0000      -0.881374       -23.9834
   9   2.0000      -0.801814       -21.8185
  10   2.0000      -0.724975       -19.7276
  11   2.0000      -0.683827       -18.6079
  12   2.0000      -0.647138       -17.6095
  13   2.0000      -0.612944       -16.6791
  14   2.0000      -0.575496       -15.6600
  15   2.0000      -0.540746       -14.7145
  16   2.0000      -0.528111       -14.3706
  17   2.0000      -0.493041       -13.4163
  18   2.0000      -0.490140       -13.3374
  19   2.0000      -0.451270       -12.2797
  20   2.0000      -0.426535       -11.6066
  21   2.0000      -0.413595       -11.2545
  22   2.0000      -0.365386        -9.9426
  23   2.0000      -0.254477        -6.9247
  24   0.0000       0.046855         1.2750
  25   0.0000       0.071745         1.9523
  26   0.0000       0.077244         2.1019
  27   0.0000       0.086780         2.3614
  28   0.0000       0.102978         2.8022

MULLIKEN ATOMIC CHARGES
-----------------------
   0 C :   -0.982324
   1 C :   -0.313687
   2 C :    0.376758
   3 N :   -0.382327
   4 N :   -0.371314
   5 H :    0.177319
   6 H :    0.138601
   7 H :    0.320443
   8 H :    0.166138
   9 H :    0.149911
  10 C :   -1.179206
  11 H :    0.359976
  12 H :    0.408417
  13 H :    0.373584
  14 H :    0.383905
  15 H :    0.373805
Sum of atomic charges:    0.0000000

LOEWDIN ATOMIC CHARGES
----------------------
   0 C :   -0.301178
   1 C :   -0.157333
   2 C :   -0.554462
   3 N :    0.113928
   4 N :    0.135526
   5 H :    0.096088
   6 H :    0.097162
   7 H :    0.070814
   8 H :    0.111853
   9 H :    0.098529
  10 C :   -0.117703
  11 H :    0.109059
  12 H :    0.103245
  13 H :    0.071611
  14 H :    0.062549
  15 H :    0.060313

  Mayer bond orders larger than 0.100000
B(  0-C ,  1-C ) :   0.5360 B(  0-C ,  2-C ) :   0.2938 B(  0-C , 10-C ) :   0.4707
B(  0-C , 11-H ) :   1.0316 B(  0-C , 12-H ) :   0.8205 B(  1-C ,  2-C ) :   1.0894
B(  1-C ,  3-N ) :   0.1085 B(  1-C ,  7-H ) :   1.0584 B(  1-C , 10-C ) :  -0.1073
B(  1-C , 11-H ) :  -0.1153 B(  2-C ,  3-N ) :   0.8837 B(  2-C ,  4-N ) :   0.9015
B(  2-C ,  7-H ) :  -0.1591 B(  3-N ,  8-H ) :   1.0256 B(  3-N ,  9-H ) :   1.0687
B(  4-N ,  5-H ) :   0.9785 B(  4-N ,  6-H ) :   1.0786 B( 10-C , 13-H ) :   0.9579
B( 10-C , 14-H ) :   0.9295 B( 10-C , 15-H ) :   0.9169 B( 11-H , 12-H ) :   0.1045

FINAL SINGLE POINT ENERGY      -267.303761251158

DIPOLE MOMENT
-------------
                                X             Y             Z
Electronic contribution:     -1.27001       1.95359      -4.09252
Nuclear contribution   :      1.23062      -1.24683       3.43056
                        -----------------------------------------
Total Dipole Moment    :     -0.03940       0.70676      -0.66196
                        -----------------------------------------
Magnitude (a.u.)       :      0.96915
Magnitude (Debye)      :      2.46338

Rotational constants in cm-1:     0.231477     0.075416     0.065327
Rotational constants in MHz :  6939.497385  2260.912204  1958.442932

                             ****ORCA TERMINATED NORMALLY****
TOTAL RUN TIME: 0 days 0 hours 0 minutes 56 seconds 632 msec
