                         Program Version 5.0.0 -  RELEASE  -
|  1> !LC-BLYP RIJCOSX def2-TZVPD def2/J TightSCF
|  2> *xyz 0 1
|  3> C          4.90646       -3.10282       -5.95484
|  4> C          3.51177       -2.80621       -6.49228
|  5> H          2.73604       -3.37345       -5.97374
|  6> H          3.44490       -3.04083       -7.55528
|  7> S          3.00462       -1.09621       -6.38926
|  8> O          4.12886       -0.32965       -6.95372
|  9> F          1.78128       -1.00078       -7.13640
| 10> O          2.85155       -0.78368       -4.95679
| 11> H          5.62703       -2.52424       -6.49422
| 12> H          5.12164       -4.14387       -6.07654
| 13> H          4.95004       -2.84862       -4.91639
| 14> *
| 15>
| 16> %MaxCore 64000
| 17>
| 18> %pal nprocs 4
| 19> end
| 20>
| 21> %scf
| 22>   MaxIter 150
| 23> end
| 24>
| 25>
| 26>                          ****END OF INPUT****

CARTESIAN COORDINATES (ANGSTROEM)
---------------------------------
  C      4.906460   -3.102820   -5.954840
  C      3.511770   -2.806210   -6.492280
  H      2.736040   -3.373450   -5.973740
  H      3.444900   -3.040830   -7.555280
  S      3.004620   -1.096210   -6.389260
  O      4.128860   -0.329650   -6.953720
  F      1.781280   -1.000780   -7.136400
  O      2.851550   -0.783680   -4.956790
  H      5.627030   -2.524240   -6.494220
  H      5.121640   -4.143870   -6.076540
  H      4.950040   -2.848620   -4.916390

 Total Charge           Charge          ....    0
 Multiplicity           Mult            ....    1
 Number of Electrons    NEL             ....   58
 Basis Dimension        Dim             ....  285

ORBITAL ENERGIES
----------------

  NO   OCC          E(Eh)            E(eV)
   0   2.0000     -88.521013     -2408.7792
   1   2.0000     -24.581479      -668.8961
   2   2.0000     -18.944942      -515.5181
   3   2.0000     -18.944901      -515.5170
   4   2.0000     -10.135651      -275.8051
   5   2.0000     -10.087711      -274.5006
   6   2.0000      -8.063760      -219.4261
   7   2.0000      -6.095461      -165.8659
   8   2.0000      -6.088546      -165.6778
   9   2.0000      -6.088402      -165.6738
  10   2.0000      -1.472696       -40.0741
  11   2.0000      -1.194120       -32.4937
  12   2.0000      -1.093912       -29.7669
  13   2.0000      -0.938293       -25.5322
  14   2.0000      -0.847626       -23.0651
  15   2.0000      -0.787238       -21.4218
  16   2.0000      -0.697534       -18.9809
  17   2.0000      -0.696591       -18.9552
  18   2.0000      -0.662425       -18.0255
  19   2.0000      -0.606140       -16.4939
  20   2.0000      -0.585991       -15.9456
  21   2.0000      -0.541911       -14.7462
  22   2.0000      -0.535999       -14.5853
  23   2.0000      -0.512825       -13.9547
  24   2.0000      -0.490835       -13.3563
  25   2.0000      -0.485316       -13.2061
  26   2.0000      -0.428803       -11.6683
  27   2.0000      -0.427723       -11.6389
  28   2.0000      -0.402803       -10.9608
  29   0.0000       0.032285         0.8785
  30   0.0000       0.049939         1.3589
  31   0.0000       0.056023         1.5245
  32   0.0000       0.060518         1.6468
  33   0.0000       0.086767         2.3610

MULLIKEN ATOMIC CHARGES
-----------------------
   0 C :   -1.298998
   1 C :   -0.699853
   2 H :    0.445822
   3 H :    0.440880
   4 S :    1.061124
   5 O :   -0.548039
   6 F :   -0.084489
   7 O :   -0.543469
   8 H :    0.410983
   9 H :    0.421054
  10 H :    0.394986
Sum of atomic charges:   -0.0000000

LOEWDIN ATOMIC CHARGES
----------------------
   0 C :   -0.111448
   1 C :   -0.307010
   2 H :    0.109347
   3 H :    0.105894
   4 S :    0.555412
   5 O :   -0.281543
   6 F :   -0.031369
   7 O :   -0.281717
   8 H :    0.078499
   9 H :    0.080781
  10 H :    0.083153

  Mayer bond orders larger than 0.100000
B(  0-C ,  1-C ) :   0.5582 B(  0-C ,  8-H ) :   0.8976 B(  0-C ,  9-H ) :   0.8714
B(  0-C , 10-H ) :   0.9071 B(  1-C ,  2-H ) :   0.8281 B(  1-C ,  3-H ) :   0.8225
B(  1-C ,  4-S ) :   0.9234 B(  4-S ,  5-O ) :   1.6784 B(  4-S ,  6-F ) :   1.0277
B(  4-S ,  7-O ) :   1.6799

FINAL SINGLE POINT ENERGY      -726.984672495121

DIPOLE MOMENT
-------------
                                X             Y             Z
Electronic contribution:     -6.95868       7.03883      -2.06150
Nuclear contribution   :      6.63544      -8.66423       1.42287
                        -----------------------------------------
Total Dipole Moment    :     -0.32323      -1.62540      -0.63863
                        -----------------------------------------
Magnitude (a.u.)       :      1.77602
Magnitude (Debye)      :      4.51429

Rotational constants in cm-1:     0.158118     0.080978     0.078216
Rotational constants in MHz :  4740.271775  2427.649826  2344.849020

                             ****ORCA TERMINATED NORMALLY****
TOTAL RUN TIME: 0 days 0 hours 0 minutes 39 seconds 447 msec
