                         Program Version 5.0.0 -  RELEASE  -
|  1> !LC-BLYP RIJCOSX def2-TZVPD def2/J TightSCF
|  2> *xyz 0 1
|  3> C          4.49059        1.15590       -2.46929
|  4> N          4.30539        1.22276       -3.90832
|  5> C          4.63192        2.24637       -4.67096
|  6> C          4.54169        2.14399       -5.98714
|  7> N          5.08409        3.39358       -4.11855
|  8> H          4.92067        3.57050       -3.13587
|  9> H          5.25465        4.19739       -4.70696
| 10> H          3.82453        0.44911       -4.35093
| 11> H          4.34337        1.24932       -6.41665
| 12> H          4.67671        2.95662       -6.57411
| 13> C          5.94213        0.93950       -2.03689
| 14> H          3.86431        0.32853       -2.13661
| 15> H          4.07623        2.04999       -1.98901
| 16> H          6.32982        0.06401       -2.51451
| 17> H          5.98308        0.81426       -0.97504
| 18> H          6.52865        1.78889       -2.31873
| 19> *
| 20>
| 21> %MaxCore 64000
| 22>
| 23> %pal nprocs 4
| 24> end
| 25>
| 26> %scf
| 27>   MaxIter 150
| 28> end
| 29>
| 30>
| 31>                          ****END OF INPUT****

CARTESIAN COORDINATES (ANGSTROEM)
---------------------------------
  C      4.490590    1.155900   -2.469290
  N      4.305390    1.222760   -3.908320
  C      4.631920    2.246370   -4.670960
  C      4.541690    2.143990   -5.987140
  N      5.084090    3.393580   -4.118550
  H      4.920670    3.570500   -3.135870
  H      5.254650    4.197390   -4.706960
  H      3.824530    0.449110   -4.350930
  H      4.343370    1.249320   -6.416650
  H      4.676710    2.956620   -6.574110
  C      5.942130    0.939500   -2.036890
  H      3.864310    0.328530   -2.136610
  H      4.076230    2.049990   -1.989010
  H      6.329820    0.064010   -2.514510
  H      5.983080    0.814260   -0.975040
  H      6.528650    1.788890   -2.318730

 Total Charge           Charge          ....    0
 Multiplicity           Mult            ....    1
 Number of Electrons    NEL             ....   48
 Basis Dimension        Dim             ....  312

ORBITAL ENERGIES
----------------

  NO   OCC          E(Eh)            E(eV)
   0   2.0000     -14.170394      -385.5960
   1   2.0000     -14.169018      -385.5586
   2   2.0000     -10.115816      -275.2654
   3   2.0000     -10.109079      -275.0820
   4   2.0000     -10.054972      -273.6097
   5   2.0000      -9.978370      -271.5252
   6   2.0000      -1.070489       -29.1295
   7   2.0000      -0.983274       -26.7562
   8   2.0000      -0.880140       -23.9498
   9   2.0000      -0.809190       -22.0192
  10   2.0000      -0.738707       -20.1012
  11   2.0000      -0.703745       -19.1499
  12   2.0000      -0.641514       -17.4565
  13   2.0000      -0.603674       -16.4268
  14   2.0000      -0.581540       -15.8245
  15   2.0000      -0.553036       -15.0489
  16   2.0000      -0.528845       -14.3906
  17   2.0000      -0.505671       -13.7600
  18   2.0000      -0.482663       -13.1339
  19   2.0000      -0.474618       -12.9150
  20   2.0000      -0.460983       -12.5440
  21   2.0000      -0.452188       -12.3047
  22   2.0000      -0.354107        -9.6357
  23   2.0000      -0.256990        -6.9931
  24   0.0000       0.046792         1.2733
  25   0.0000       0.071999         1.9592
  26   0.0000       0.073147         1.9904
  27   0.0000       0.077831         2.1179
  28   0.0000       0.105052         2.8586

MULLIKEN ATOMIC CHARGES
-----------------------
   0 C :   -0.752545
   1 N :   -0.231867
   2 C :    0.677296
   3 C :   -1.135231
   4 N :   -0.389154
   5 H :    0.177752
   6 H :    0.155514
   7 H :    0.140183
   8 H :    0.305896
   9 H :    0.262404
  10 C :   -1.206607
  11 H :    0.417491
  12 H :    0.408968
  13 H :    0.352233
  14 H :    0.422662
  15 H :    0.395006
Sum of atomic charges:   -0.0000000

LOEWDIN ATOMIC CHARGES
----------------------
   0 C :   -0.262281
   1 N :    0.017520
   2 C :   -0.573418
   3 C :   -0.009987
   4 N :    0.128161
   5 H :    0.087448
   6 H :    0.108309
   7 H :    0.147784
   8 H :    0.012194
   9 H :    0.009098
  10 C :   -0.097577
  11 H :    0.118448
  12 H :    0.109981
  13 H :    0.073873
  14 H :    0.068077
  15 H :    0.062368

  Mayer bond orders larger than 0.100000
B(  0-C ,  1-N ) :   0.7502 B(  0-C ,  2-C ) :  -0.1339 B(  0-C , 10-C ) :   0.4821
B(  0-C , 11-H ) :   0.8698 B(  0-C , 12-H ) :   0.8737 B(  1-N ,  2-C ) :   0.9940
B(  1-N ,  3-C ) :   0.1225 B(  1-N ,  7-H ) :   1.0740 B(  2-C ,  3-C ) :   0.9143
B(  2-C ,  4-N ) :   0.8947 B(  2-C ,  9-H ) :  -0.1684 B(  3-C ,  8-H ) :   0.9864
B(  3-C ,  9-H ) :   1.1562 B(  4-N ,  5-H ) :   1.0031 B(  4-N ,  6-H ) :   1.0365
B( 10-C , 13-H ) :   0.9771 B( 10-C , 14-H ) :   0.9004 B( 10-C , 15-H ) :   0.9035

FINAL SINGLE POINT ENERGY      -267.295716516211

DIPOLE MOMENT
-------------
                                X             Y             Z
Electronic contribution:     -1.41884       1.07226      -1.92415
Nuclear contribution   :      1.28075      -1.05140       2.98955
                        -----------------------------------------
Total Dipole Moment    :     -0.13810       0.02086       1.06541
                        -----------------------------------------
Magnitude (a.u.)       :      1.07452
Magnitude (Debye)      :      2.73122

Rotational constants in cm-1:     0.229858     0.078444     0.067377
Rotational constants in MHz :  6890.979812  2351.691803  2019.910665

                             ****ORCA TERMINATED NORMALLY****
TOTAL RUN TIME: 0 days 0 hours 0 minutes 54 seconds 635 msec
