                         Program Version 5.0.0 -  RELEASE  -
|  1> !LC-BLYP RIJCOSX def2-TZVPD def2/J TightSCF
|  2> *xyz 0 1
|  3> C          4.90646       -3.10282       -5.95484
|  4> C          3.51177       -2.80621       -6.49228
|  5> H          2.73604       -3.37345       -5.97374
|  6> H          3.44490       -3.04083       -7.55528
|  7> S          3.00462       -1.09621       -6.38926
|  8> O          4.12886       -0.32965       -6.95372
|  9> O          1.78128       -1.00078       -7.13640
| 10> F          2.85155       -0.78368       -4.95679
| 11> H          5.62703       -2.52424       -6.49422
| 12> H          5.12164       -4.14387       -6.07654
| 13> H          4.95004       -2.84862       -4.91639
| 14> *
| 15>
| 16> %MaxCore 64000
| 17>
| 18> %pal nprocs 4
| 19> end
| 20>
| 21> %scf
| 22>   MaxIter 150
| 23> end
| 24>
| 25>
| 26>                          ****END OF INPUT****

CARTESIAN COORDINATES (ANGSTROEM)
---------------------------------
  C      4.906460   -3.102820   -5.954840
  C      3.511770   -2.806210   -6.492280
  H      2.736040   -3.373450   -5.973740
  H      3.444900   -3.040830   -7.555280
  S      3.004620   -1.096210   -6.389260
  O      4.128860   -0.329650   -6.953720
  O      1.781280   -1.000780   -7.136400
  F      2.851550   -0.783680   -4.956790
  H      5.627030   -2.524240   -6.494220
  H      5.121640   -4.143870   -6.076540
  H      4.950040   -2.848620   -4.916390

 Total Charge           Charge          ....    0
 Multiplicity           Mult            ....    1
 Number of Electrons    NEL             ....   58
 Basis Dimension        Dim             ....  285

ORBITAL ENERGIES
----------------

  NO   OCC          E(Eh)            E(eV)
   0   2.0000     -88.518834     -2408.7199
   1   2.0000     -24.562372      -668.3761
   2   2.0000     -18.956746      -515.8393
   3   2.0000     -18.944986      -515.5193
   4   2.0000     -10.134619      -275.7770
   5   2.0000     -10.089410      -274.5468
   6   2.0000      -8.061606      -219.3675
   7   2.0000      -6.093501      -165.8126
   8   2.0000      -6.086489      -165.6218
   9   2.0000      -6.086098      -165.6111
  10   2.0000      -1.441572       -39.2272
  11   2.0000      -1.206905       -32.8416
  12   2.0000      -1.108558       -30.1654
  13   2.0000      -0.939099       -25.5542
  14   2.0000      -0.832953       -22.6658
  15   2.0000      -0.784578       -21.3494
  16   2.0000      -0.690785       -18.7972
  17   2.0000      -0.673873       -18.3370
  18   2.0000      -0.652974       -17.7683
  19   2.0000      -0.603740       -16.4286
  20   2.0000      -0.585090       -15.9211
  21   2.0000      -0.560034       -15.2393
  22   2.0000      -0.537459       -14.6250
  23   2.0000      -0.512157       -13.9365
  24   2.0000      -0.503943       -13.7130
  25   2.0000      -0.482341       -13.1252
  26   2.0000      -0.440404       -11.9840
  27   2.0000      -0.429947       -11.6995
  28   2.0000      -0.415564       -11.3081
  29   0.0000       0.034089         0.9276
  30   0.0000       0.051459         1.4003
  31   0.0000       0.056150         1.5279
  32   0.0000       0.059646         1.6231
  33   0.0000       0.086090         2.3426

MULLIKEN ATOMIC CHARGES
-----------------------
   0 C :   -1.273275
   1 C :   -0.694288
   2 H :    0.449502
   3 H :    0.422215
   4 S :    1.066008
   5 O :   -0.550327
   6 O :   -0.508335
   7 F :   -0.136650
   8 H :    0.407656
   9 H :    0.424259
  10 H :    0.393236
Sum of atomic charges:   -0.0000000

LOEWDIN ATOMIC CHARGES
----------------------
   0 C :   -0.121939
   1 C :   -0.298669
   2 H :    0.109494
   3 H :    0.116727
   4 S :    0.555834
   5 O :   -0.279561
   6 O :   -0.257142
   7 F :   -0.058389
   8 H :    0.076745
   9 H :    0.079246
  10 H :    0.077653

  Mayer bond orders larger than 0.100000
B(  0-C ,  1-C ) :   0.4909 B(  0-C ,  8-H ) :   0.9284 B(  0-C ,  9-H ) :   0.8835
B(  0-C , 10-H ) :   0.8893 B(  1-C ,  2-H ) :   0.8324 B(  1-C ,  3-H ) :   0.8585
B(  1-C ,  4-S ) :   0.9373 B(  4-S ,  5-O ) :   1.6755 B(  4-S ,  6-O ) :   1.7155
B(  4-S ,  7-F ) :   0.9900

FINAL SINGLE POINT ENERGY      -727.000214057287

DIPOLE MOMENT
-------------
                                X             Y             Z
Electronic contribution:     -5.14689       7.39905       1.64957
Nuclear contribution   :      5.52019      -8.89046      -0.84835
                        -----------------------------------------
Total Dipole Moment    :      0.37330      -1.49141       0.80122
                        -----------------------------------------
Magnitude (a.u.)       :      1.73367
Magnitude (Debye)      :      4.40663

Rotational constants in cm-1:     0.153332     0.082132     0.079755
Rotational constants in MHz :  4596.775407  2462.251277  2391.008596

                             ****ORCA TERMINATED NORMALLY****
TOTAL RUN TIME: 0 days 0 hours 0 minutes 39 seconds 139 msec
