                         Program Version 5.0.0 -  RELEASE  -
|  1> !LC-BLYP RIJCOSX def2-TZVPD def2/J TightSCF
|  2> *xyz 0 1
|  3> C          4.49059        1.15590       -2.46929
|  4> N          4.30539        1.22276       -3.90832
|  5> C          4.63192        2.24637       -4.67096
|  6> N          4.54169        2.14399       -5.98714
|  7> C          5.08409        3.39358       -4.11855
|  8> H          4.92067        3.57050       -3.13587
|  9> H          5.25465        4.19739       -4.70696
| 10> H          3.82453        0.44911       -4.35093
| 11> H          4.34337        1.24932       -6.41665
| 12> H          4.67671        2.95662       -6.57411
| 13> C          5.94213        0.93950       -2.03689
| 14> H          3.86431        0.32853       -2.13661
| 15> H          4.07623        2.04999       -1.98901
| 16> H          6.32982        0.06401       -2.51451
| 17> H          5.98308        0.81426       -0.97504
| 18> H          6.52865        1.78889       -2.31873
| 19> *
| 20>
| 21> %MaxCore 64000
| 22>
| 23> %pal nprocs 4
| 24> end
| 25>
| 26> %scf
| 27>   MaxIter 150
| 28> end
| 29>
| 30>
| 31>                          ****END OF INPUT****

CARTESIAN COORDINATES (ANGSTROEM)
---------------------------------
  C      4.490590    1.155900   -2.469290
  N      4.305390    1.222760   -3.908320
  C      4.631920    2.246370   -4.670960
  N      4.541690    2.143990   -5.987140
  C      5.084090    3.393580   -4.118550
  H      4.920670    3.570500   -3.135870
  H      5.254650    4.197390   -4.706960
  H      3.824530    0.449110   -4.350930
  H      4.343370    1.249320   -6.416650
  H      4.676710    2.956620   -6.574110
  C      5.942130    0.939500   -2.036890
  H      3.864310    0.328530   -2.136610
  H      4.076230    2.049990   -1.989010
  H      6.329820    0.064010   -2.514510
  H      5.983080    0.814260   -0.975040
  H      6.528650    1.788890   -2.318730

 Total Charge           Charge          ....    0
 Multiplicity           Mult            ....    1
 Number of Electrons    NEL             ....   48
 Basis Dimension        Dim             ....  312

ORBITAL ENERGIES
----------------

  NO   OCC          E(Eh)            E(eV)
   0   2.0000     -14.174807      -385.7161
   1   2.0000     -14.171513      -385.6265
   2   2.0000     -10.118942      -275.3504
   3   2.0000     -10.100892      -274.8593
   4   2.0000     -10.044827      -273.3336
   5   2.0000      -9.979760      -271.5631
   6   2.0000      -1.074196       -29.2304
   7   2.0000      -0.990679       -26.9577
   8   2.0000      -0.860602       -23.4182
   9   2.0000      -0.815117       -22.1804
  10   2.0000      -0.748422       -20.3656
  11   2.0000      -0.667252       -18.1568
  12   2.0000      -0.658810       -17.9271
  13   2.0000      -0.625913       -17.0320
  14   2.0000      -0.575737       -15.6666
  15   2.0000      -0.543690       -14.7946
  16   2.0000      -0.518440       -14.1075
  17   2.0000      -0.499031       -13.5793
  18   2.0000      -0.481186       -13.0937
  19   2.0000      -0.465288       -12.6611
  20   2.0000      -0.463558       -12.6140
  21   2.0000      -0.442818       -12.0497
  22   2.0000      -0.349095        -9.4994
  23   2.0000      -0.258996        -7.0476
  24   0.0000       0.047753         1.2994
  25   0.0000       0.067807         1.8451
  26   0.0000       0.075418         2.0522
  27   0.0000       0.083114         2.2616
  28   0.0000       0.106411         2.8956

MULLIKEN ATOMIC CHARGES
-----------------------
   0 C :   -0.717865
   1 N :   -0.265338
   2 C :    0.741682
   3 N :   -0.344618
   4 C :   -1.253645
   5 H :    0.269111
   6 H :    0.323935
   7 H :    0.148295
   8 H :    0.168405
   9 H :    0.169961
  10 C :   -1.244169
  11 H :    0.409286
  12 H :    0.404364
  13 H :    0.360294
  14 H :    0.415091
  15 H :    0.415210
Sum of atomic charges:   -0.0000000

LOEWDIN ATOMIC CHARGES
----------------------
   0 C :   -0.259007
   1 N :    0.013402
   2 C :   -0.575834
   3 N :    0.120161
   4 C :   -0.001258
   5 H :    0.002799
   6 H :    0.008321
   7 H :    0.139874
   8 H :    0.101941
   9 H :    0.111736
  10 C :   -0.096543
  11 H :    0.117006
  12 H :    0.115226
  13 H :    0.071338
  14 H :    0.068868
  15 H :    0.061970

  Mayer bond orders larger than 0.100000
B(  0-C ,  1-N ) :   0.7447 B(  0-C ,  4-C ) :   0.1558 B(  0-C , 10-C ) :   0.4907
B(  0-C , 11-H ) :   0.8455 B(  0-C , 12-H ) :   0.8940 B(  1-N ,  2-C ) :   0.9810
B(  1-N ,  7-H ) :   1.0966 B(  2-C ,  3-N ) :   0.8761 B(  2-C ,  4-C ) :   0.9797
B(  2-C ,  6-H ) :  -0.1226 B(  3-N ,  8-H ) :   1.0427 B(  3-N ,  9-H ) :   1.0216
B(  4-C ,  5-H ) :   1.0268 B(  4-C ,  6-H ) :   1.0570 B( 10-C , 13-H ) :   0.9508
B( 10-C , 14-H ) :   0.8961 B( 10-C , 15-H ) :   0.9157

FINAL SINGLE POINT ENERGY      -267.295455873707

DIPOLE MOMENT
-------------
                                X             Y             Z
Electronic contribution:     -1.89245      -0.12781      -3.80975
Nuclear contribution   :      1.39581      -0.78630       3.38596
                        -----------------------------------------
Total Dipole Moment    :     -0.49663      -0.91412      -0.42378
                        -----------------------------------------
Magnitude (a.u.)       :      1.12332
Magnitude (Debye)      :      2.85526

Rotational constants in cm-1:     0.239249     0.075811     0.066261
Rotational constants in MHz :  7172.504830  2272.756282  1986.457543

                             ****ORCA TERMINATED NORMALLY****
TOTAL RUN TIME: 0 days 0 hours 0 minutes 51 seconds 495 msec
