                         Program Version 5.0.0 -  RELEASE  -
|  1> !LC-BLYP RIJCOSX def2-TZVPD def2/J TightSCF xyzfile
|  2>
|  3> *xyzfile 0 1 D1.xyz
|  4>
|  5> %MaxCore 64000
|  6>
|  7> %pal nprocs 4
|  8> end
|  9>
| 10> %scf
| 11>   MaxIter 150
| 12> end
| 13>
| 14>
| 15>                          ****END OF INPUT****

CARTESIAN COORDINATES (ANGSTROEM)
---------------------------------
  C      4.490588    1.155899   -2.469290
  C      4.305394    1.222762   -3.908317
  C      4.906458   -3.102816   -5.954844
  C      3.511771   -2.806215   -6.492283
  H      2.736044   -3.373445   -5.973736
  H      3.444904   -3.040831   -7.555281
  S      3.004618   -1.096206   -6.389259
  C      4.631918    2.246365   -4.670958
  N      4.541686    2.143990   -5.987139
  N      5.084086    3.393584   -4.118545
  H      4.920675    3.570501   -3.135870
  H      5.254652    4.197390   -4.706956
  H      3.824530    0.449113   -4.350926
  H      4.343373    1.249318   -6.416646
  H      4.676712    2.956624   -6.574113
  F      4.128856   -0.329647   -6.953717
  O      1.781285   -1.000779   -7.136399
  C      5.942129    0.939500   -2.036893
  H      3.864305    0.328532   -2.136611
  H      4.076233    2.049994   -1.989010
  C      6.462677   -3.117775   -3.944671
  C      5.024977   -3.025679   -4.437625
  H      4.423321   -3.818693   -3.977648
  H      4.579350   -2.087131   -4.108727
  H      5.201533   -4.100207   -6.296905
  H      5.605922   -2.397822   -6.413368
  C      6.559957   -0.356290   -2.559086
  H      5.967976    0.952567   -0.942444
  H      6.547184    1.788331   -2.368849
  C      6.006283   -1.615917   -1.899301
  H      7.642360   -0.318000   -2.402059
  H      6.414855   -0.403433   -3.642587
  C      6.608718   -2.917014   -2.435655
  H      6.190324   -1.561115   -0.820948
  H      4.919250   -1.651245   -2.016586
  H      7.066975   -2.374258   -4.475514
  H      6.887808   -4.089747   -4.215332
  H      6.135197   -3.755573   -1.915159
  H      7.671142   -2.955503   -2.172291
  O      2.851546   -0.783683   -4.956789

 Total Charge           Charge          ....    0
 Multiplicity           Mult            ....    1
 Number of Electrons    NEL             ....  144
 Basis Dimension        Dim             ....  854

ORBITAL ENERGIES
----------------

  NO   OCC          E(Eh)            E(eV)
   0   2.0000     -88.527190     -2408.9473
   1   2.0000     -24.581380      -668.8933
   2   2.0000     -18.964185      -516.0417
   3   2.0000     -18.950349      -515.6652
   4   2.0000     -14.159087      -385.2884
   5   2.0000     -14.155028      -385.1779
   6   2.0000     -10.135567      -275.8028
   7   2.0000     -10.098943      -274.8062
   8   2.0000     -10.097810      -274.7754
   9   2.0000     -10.067944      -273.9627
  10   2.0000     -10.063386      -273.8387
  11   2.0000     -10.057012      -273.6652
  12   2.0000     -10.047855      -273.4160
  13   2.0000     -10.041163      -273.2339
  14   2.0000     -10.036398      -273.1043
  15   2.0000     -10.029621      -272.9199
  16   2.0000      -9.963633      -271.1243
  17   2.0000      -8.070440      -219.6078
  18   2.0000      -6.102537      -166.0585
  19   2.0000      -6.095029      -165.8542
  20   2.0000      -6.094832      -165.8488
  21   2.0000      -1.463730       -39.8301
  22   2.0000      -1.216701       -33.1081
  23   2.0000      -1.118249       -30.4291
  24   2.0000      -1.049877       -28.5686
  25   2.0000      -0.961802       -26.1720
  26   2.0000      -0.955533       -26.0014
  27   2.0000      -0.918053       -24.9815
  28   2.0000      -0.888747       -24.1840
  29   2.0000      -0.862538       -23.4709
  30   2.0000      -0.835254       -22.7284
  31   2.0000      -0.811540       -22.0831
  32   2.0000      -0.780900       -21.2494
  33   2.0000      -0.750189       -20.4137
  34   2.0000      -0.726886       -19.7796
  35   2.0000      -0.717761       -19.5313
  36   2.0000      -0.700141       -19.0518
  37   2.0000      -0.691805       -18.8250
  38   2.0000      -0.668549       -18.1921
  39   2.0000      -0.667394       -18.1607
  40   2.0000      -0.650472       -17.7002
  41   2.0000      -0.633049       -17.2262
  42   2.0000      -0.608013       -16.5449
  43   2.0000      -0.598896       -16.2968
  44   2.0000      -0.592657       -16.1270
  45   2.0000      -0.580157       -15.7869
  46   2.0000      -0.568397       -15.4669
  47   2.0000      -0.557546       -15.1716
  48   2.0000      -0.555857       -15.1256
  49   2.0000      -0.552923       -15.0458
  50   2.0000      -0.531225       -14.4554
  51   2.0000      -0.523895       -14.2559
  52   2.0000      -0.522828       -14.2269
  53   2.0000      -0.510586       -13.8938
  54   2.0000      -0.495738       -13.4897
  55   2.0000      -0.486743       -13.2449
  56   2.0000      -0.484144       -13.1742
  57   2.0000      -0.471189       -12.8217
  58   2.0000      -0.470453       -12.8017
  59   2.0000      -0.455020       -12.3817
  60   2.0000      -0.451309       -12.2808
  61   2.0000      -0.442977       -12.0540
  62   2.0000      -0.437289       -11.8992
  63   2.0000      -0.422093       -11.4857
  64   2.0000      -0.420334       -11.4379
  65   2.0000      -0.413221       -11.2443
  66   2.0000      -0.405414       -11.0319
  67   2.0000      -0.396355       -10.7854
  68   2.0000      -0.389338       -10.5944
  69   2.0000      -0.373650       -10.1675
  70   2.0000      -0.353821        -9.6279
  71   2.0000      -0.239875        -6.5273
  72   0.0000       0.028859         0.7853
  73   0.0000       0.043834         1.1928
  74   0.0000       0.051414         1.3991
  75   0.0000       0.055499         1.5102
  76   0.0000       0.067399         1.8340

MULLIKEN ATOMIC CHARGES
-----------------------
   0 C :   -1.481926
   1 C :   -0.731277
   2 C :   -0.922147
   3 C :   -1.007059
   4 H :    0.461063
   5 H :    0.470382
   6 S :    1.232813
   7 C :    0.605713
   8 N :   -0.320264
   9 N :   -0.360368
  10 H :    0.199423
  11 H :    0.128602
  12 H :    0.714990
  13 H :    0.175005
  14 H :    0.118403
  15 F :   -0.277146
  16 O :   -0.541633
  17 C :   -0.898071
  18 H :    0.424412
  19 H :    0.511639
  20 C :   -0.977026
  21 C :   -0.303300
  22 H :    0.321322
  23 H :    0.398984
  24 H :    0.418762
  25 H :    0.426486
  26 C :   -0.599754
  27 H :    0.431680
  28 H :    0.491138
  29 C :   -0.844986
  30 H :    0.367314
  31 H :    0.380010
  32 C :   -0.954969
  33 H :    0.412754
  34 H :    0.387680
  35 H :    0.457922
  36 H :    0.432446
  37 H :    0.409499
  38 H :    0.418248
  39 O :   -0.576763
Sum of atomic charges:    0.0000000

LOEWDIN ATOMIC CHARGES
----------------------
   0 C :   -0.229411
   1 C :   -0.148484
   2 C :   -0.234028
   3 C :   -0.231004
   4 H :    0.128775
   5 H :    0.112967
   6 S :    0.604365
   7 C :   -0.529043
   8 N :    0.127451
   9 N :    0.135605
  10 H :    0.094740
  11 H :    0.094327
  12 H :    0.003751
  13 H :    0.051652
  14 H :    0.103470
  15 F :   -0.069599
  16 O :   -0.235163
  17 C :   -0.217153
  18 H :    0.112244
  19 H :    0.109790
  20 C :   -0.229476
  21 C :   -0.228479
  22 H :    0.137822
  23 H :    0.091017
  24 H :    0.128740
  25 H :    0.119449
  26 C :   -0.224047
  27 H :    0.112543
  28 H :    0.108003
  29 C :   -0.228952
  30 H :    0.121209
  31 H :    0.107025
  32 C :   -0.223180
  33 H :    0.120726
  34 H :    0.107631
  35 H :    0.114591
  36 H :    0.119267
  37 H :    0.115013
  38 H :    0.115868
  39 O :   -0.270025

  Mayer bond orders larger than 0.100000
B(  0-C ,  1-C ) :   0.3014 B(  0-C ,  7-C ) :   0.1222 B(  0-C , 17-C ) :   0.4680
B(  0-C , 18-H ) :   0.9488 B(  0-C , 19-H ) :   0.7966 B(  1-C ,  7-C ) :   0.9791
B(  1-C , 12-H ) :   0.1891 B(  1-C , 17-C ) :  -0.1301 B(  1-C , 19-H ) :  -0.1154
B(  1-C , 31-H ) :  -0.1247 B(  1-C , 39-O ) :   0.2954 B(  2-C ,  3-C ) :   0.6271
B(  2-C , 20-C ) :   0.1924 B(  2-C , 21-C ) :   0.2238 B(  2-C , 24-H ) :   0.9302
B(  2-C , 25-H ) :   0.8990 B(  3-C ,  4-H ) :   0.8049 B(  3-C ,  5-H ) :   0.9215
B(  3-C ,  6-S ) :   1.0056 B(  3-C , 16-O ) :   0.1218 B(  6-S , 15-F ) :   0.8750
B(  6-S , 16-O ) :   1.5573 B(  6-S , 39-O ) :   1.6064 B(  7-C ,  8-N ) :   0.8199
B(  7-C ,  9-N ) :   0.9186 B(  7-C , 12-H ) :   0.3522 B(  7-C , 26-C ) :   0.1099
B(  8-N , 12-H ) :   0.1158 B(  8-N , 13-H ) :   0.9542 B(  8-N , 14-H ) :   1.0998
B(  9-N , 10-H ) :   0.9784 B(  9-N , 11-H ) :   1.0727 B(  9-N , 17-C ) :   0.1377
B( 12-H , 39-O ) :  -0.4713 B( 17-C , 26-C ) :   0.6472 B( 17-C , 27-H ) :   0.9157
B( 17-C , 28-H ) :   0.8271 B( 20-C , 21-C ) :   0.3171 B( 20-C , 32-C ) :   0.6639
B( 20-C , 35-H ) :   0.9248 B( 20-C , 36-H ) :   0.8684 B( 21-C , 22-H ) :   0.9431
B( 21-C , 23-H ) :   1.0311 B( 21-C , 29-C ) :   0.1356 B( 21-C , 39-O ) :   0.1504
B( 22-H , 23-H ) :   0.2154 B( 23-H , 39-O ) :  -0.1866 B( 26-C , 29-C ) :   0.1732
B( 26-C , 30-H ) :   0.9781 B( 26-C , 31-H ) :   1.0196 B( 26-C , 34-H ) :  -0.1432
B( 29-C , 32-C ) :   0.6432 B( 29-C , 33-H ) :   0.9023 B( 29-C , 34-H ) :   1.0268
B( 32-C , 37-H ) :   0.9423 B( 32-C , 38-H ) :   0.9508

FINAL SINGLE POINT ENERGY     -1189.147690000792

DIPOLE MOMENT
-------------
                                X             Y             Z
Electronic contribution:    -16.31984       4.80342     -21.38607
Nuclear contribution   :     17.24138      -5.45913      20.34076
                        -----------------------------------------
Total Dipole Moment    :      0.92154      -0.65571      -1.04531
                        -----------------------------------------
Magnitude (a.u.)       :      1.54009
Magnitude (Debye)      :      3.91459

Rotational constants in cm-1:     0.014201     0.012275     0.007453
Rotational constants in MHz :   425.728191   368.008875   223.435232

                             ****ORCA TERMINATED NORMALLY****
TOTAL RUN TIME: 0 days 0 hours 14 minutes 51 seconds 770 msec
