                         Program Version 5.0.0 -  RELEASE  -
|  1> !LC-BLYP RIJCOSX def2-TZVPD def2/J TightSCF xyzfile
|  2>
|  3> *xyzfile 0 1 D2.xyz
|  4>
|  5> %MaxCore 64000
|  6>
|  7> %pal nprocs 4
|  8> end
|  9>
| 10> %scf
| 11>   MaxIter 150
| 12> end
| 13>
| 14>
| 15>                          ****END OF INPUT****

CARTESIAN COORDINATES (ANGSTROEM)
---------------------------------
  C      4.490588    1.155899   -2.469290
  N      4.305394    1.222762   -3.908317
  C      4.906458   -3.102816   -5.954844
  C      3.511771   -2.806215   -6.492283
  H      2.736044   -3.373445   -5.973736
  H      3.444904   -3.040831   -7.555281
  S      3.004618   -1.096206   -6.389259
  C      4.631918    2.246365   -4.670958
  C      4.541686    2.143990   -5.987139
  N      5.084086    3.393584   -4.118545
  H      4.920675    3.570501   -3.135870
  H      5.254652    4.197390   -4.706956
  H      3.824530    0.449113   -4.350926
  H      4.343373    1.249318   -6.416646
  H      4.676712    2.956624   -6.574113
  F      4.128856   -0.329647   -6.953717
  O      1.781285   -1.000779   -7.136399
  C      5.942129    0.939500   -2.036893
  H      3.864305    0.328532   -2.136611
  H      4.076233    2.049994   -1.989010
  C      6.462677   -3.117775   -3.944671
  C      5.024977   -3.025679   -4.437625
  H      4.423321   -3.818693   -3.977648
  H      4.579350   -2.087131   -4.108727
  H      5.201533   -4.100207   -6.296905
  H      5.605922   -2.397822   -6.413368
  C      6.559957   -0.356290   -2.559086
  H      5.967976    0.952567   -0.942444
  H      6.547184    1.788331   -2.368849
  C      6.006283   -1.615917   -1.899301
  H      7.642360   -0.318000   -2.402059
  H      6.414855   -0.403433   -3.642587
  C      6.608718   -2.917014   -2.435655
  H      6.190324   -1.561115   -0.820948
  H      4.919250   -1.651245   -2.016586
  H      7.066975   -2.374258   -4.475514
  H      6.887808   -4.089747   -4.215332
  H      6.135197   -3.755573   -1.915159
  H      7.671142   -2.955503   -2.172291
  O      2.851546   -0.783683   -4.956789

 Total Charge           Charge          ....    0
 Multiplicity           Mult            ....    1
 Number of Electrons    NEL             ....  144
 Basis Dimension        Dim             ....  854

ORBITAL ENERGIES
----------------

  NO   OCC          E(Eh)            E(eV)
   0   2.0000     -88.530027     -2409.0245
   1   2.0000     -24.567135      -668.5057
   2   2.0000     -18.964081      -516.0389
   3   2.0000     -18.960933      -515.9532
   4   2.0000     -14.157377      -385.2418
   5   2.0000     -14.141760      -384.8168
   6   2.0000     -10.136991      -275.8415
   7   2.0000     -10.102833      -274.9121
   8   2.0000     -10.101786      -274.8836
   9   2.0000     -10.092274      -274.6247
  10   2.0000     -10.074793      -274.1490
  11   2.0000     -10.070274      -274.0261
  12   2.0000     -10.066188      -273.9149
  13   2.0000     -10.061189      -273.7789
  14   2.0000     -10.057561      -273.6802
  15   2.0000     -10.057347      -273.6743
  16   2.0000      -9.963008      -271.1072
  17   2.0000      -8.072875      -219.6741
  18   2.0000      -6.104721      -166.1179
  19   2.0000      -6.097879      -165.9317
  20   2.0000      -6.097313      -165.9163
  21   2.0000      -1.451398       -39.4946
  22   2.0000      -1.218833       -33.1661
  23   2.0000      -1.124313       -30.5941
  24   2.0000      -1.053729       -28.6734
  25   2.0000      -0.969281       -26.3755
  26   2.0000      -0.959585       -26.1116
  27   2.0000      -0.925194       -25.1758
  28   2.0000      -0.895110       -24.3572
  29   2.0000      -0.859595       -23.3908
  30   2.0000      -0.836525       -22.7630
  31   2.0000      -0.809306       -22.0223
  32   2.0000      -0.787994       -21.4424
  33   2.0000      -0.757002       -20.5991
  34   2.0000      -0.735178       -20.0052
  35   2.0000      -0.710771       -19.3411
  36   2.0000      -0.701143       -19.0791
  37   2.0000      -0.689847       -18.7717
  38   2.0000      -0.688062       -18.7231
  39   2.0000      -0.665153       -18.0997
  40   2.0000      -0.660006       -17.9597
  41   2.0000      -0.624251       -16.9867
  42   2.0000      -0.609465       -16.5844
  43   2.0000      -0.598918       -16.2974
  44   2.0000      -0.590313       -16.0632
  45   2.0000      -0.586500       -15.9595
  46   2.0000      -0.574537       -15.6340
  47   2.0000      -0.568586       -15.4720
  48   2.0000      -0.564648       -15.3649
  49   2.0000      -0.545192       -14.8354
  50   2.0000      -0.542001       -14.7486
  51   2.0000      -0.536375       -14.5955
  52   2.0000      -0.526525       -14.3275
  53   2.0000      -0.504624       -13.7315
  54   2.0000      -0.497203       -13.5296
  55   2.0000      -0.496580       -13.5126
  56   2.0000      -0.484035       -13.1713
  57   2.0000      -0.477163       -12.9843
  58   2.0000      -0.470339       -12.7986
  59   2.0000      -0.464062       -12.6278
  60   2.0000      -0.458080       -12.4650
  61   2.0000      -0.451644       -12.2899
  62   2.0000      -0.442931       -12.0528
  63   2.0000      -0.441419       -12.0116
  64   2.0000      -0.433041       -11.7836
  65   2.0000      -0.426423       -11.6036
  66   2.0000      -0.422641       -11.5006
  67   2.0000      -0.411564       -11.1992
  68   2.0000      -0.409102       -11.1322
  69   2.0000      -0.405020       -11.0212
  70   2.0000      -0.337477        -9.1832
  71   2.0000      -0.244378        -6.6499
  72   0.0000       0.031526         0.8579
  73   0.0000       0.045771         1.2455
  74   0.0000       0.052953         1.4409
  75   0.0000       0.055501         1.5103
  76   0.0000       0.066119         1.7992

MULLIKEN ATOMIC CHARGES
-----------------------
   0 C :   -1.207189
   1 N :   -0.094868
   2 C :   -0.924688
   3 C :   -1.030135
   4 H :    0.455878
   5 H :    0.487360
   6 S :    1.196756
   7 C :    1.073930
   8 C :   -1.502708
   9 N :   -0.379238
  10 H :    0.185662
  11 H :    0.176260
  12 H :    0.017649
  13 H :    0.389214
  14 H :    0.233552
  15 F :   -0.160102
  16 O :   -0.542541
  17 C :   -0.811341
  18 H :    0.475069
  19 H :    0.490462
  20 C :   -0.970164
  21 C :   -0.356454
  22 H :    0.331686
  23 H :    0.411524
  24 H :    0.420824
  25 H :    0.425912
  26 C :   -0.556935
  27 H :    0.470939
  28 H :    0.519173
  29 C :   -0.847772
  30 H :    0.367821
  31 H :    0.352864
  32 C :   -0.953637
  33 H :    0.409922
  34 H :    0.402320
  35 H :    0.451883
  36 H :    0.437307
  37 H :    0.409510
  38 H :    0.422690
  39 O :   -0.678397
Sum of atomic charges:    0.0000000

LOEWDIN ATOMIC CHARGES
----------------------
   0 C :   -0.200093
   1 N :    0.035279
   2 C :   -0.232819
   3 C :   -0.230573
   4 H :    0.128001
   5 H :    0.114638
   6 S :    0.608757
   7 C :   -0.545702
   8 C :    0.001849
   9 N :    0.131034
  10 H :    0.087061
  11 H :    0.106535
  12 H :    0.055613
  13 H :   -0.030566
  14 H :    0.016312
  15 F :   -0.075267
  16 O :   -0.230368
  17 C :   -0.203457
  18 H :    0.120722
  19 H :    0.115525
  20 C :   -0.228221
  21 C :   -0.230080
  22 H :    0.137977
  23 H :    0.087649
  24 H :    0.129338
  25 H :    0.121200
  26 C :   -0.221661
  27 H :    0.116870
  28 H :    0.108871
  29 C :   -0.230817
  30 H :    0.123667
  31 H :    0.109704
  32 C :   -0.221544
  33 H :    0.121337
  34 H :    0.106049
  35 H :    0.115599
  36 H :    0.120639
  37 H :    0.116111
  38 H :    0.117066
  39 O :   -0.272233

  Mayer bond orders larger than 0.100000
B(  0-C ,  1-N ) :   0.7555 B(  0-C ,  7-C ) :  -0.1466 B(  0-C ,  9-N ) :   0.1219
B(  0-C , 12-H ) :  -0.2020 B(  0-C , 17-C ) :   0.4988 B(  0-C , 18-H ) :   0.7554
B(  0-C , 19-H ) :   0.7955 B(  1-N ,  7-C ) :   0.9063 B(  1-N , 12-H ) :   1.0889
B(  1-N , 39-O ) :  -0.1355 B(  2-C ,  3-C ) :   0.6399 B(  2-C , 20-C ) :   0.1987
B(  2-C , 21-C ) :   0.2271 B(  2-C , 24-H ) :   0.9185 B(  2-C , 25-H ) :   0.9115
B(  3-C ,  4-H ) :   0.8129 B(  3-C ,  5-H ) :   0.9062 B(  3-C ,  6-S ) :   1.0059
B(  3-C , 16-O ) :   0.1199 B(  6-S , 15-F ) :   0.9331 B(  6-S , 16-O ) :   1.5597
B(  6-S , 39-O ) :   1.6068 B(  7-C ,  8-C ) :   0.4940 B(  7-C ,  9-N ) :   0.8454
B(  7-C , 12-H ) :  -0.3163 B(  7-C , 13-H ) :  -0.1357 B(  7-C , 14-H ) :  -0.2101
B(  8-C , 12-H ) :   0.1394 B(  8-C , 13-H ) :   0.9961 B(  8-C , 14-H ) :   1.1927
B(  8-C , 15-F ) :   0.1380 B(  9-N , 10-H ) :   1.0108 B(  9-N , 11-H ) :   1.0167
B( 13-H , 15-F ) :  -0.2211 B( 17-C , 26-C ) :   0.7062 B( 17-C , 27-H ) :   0.9145
B( 17-C , 28-H ) :   0.7765 B( 20-C , 21-C ) :   0.3089 B( 20-C , 32-C ) :   0.6722
B( 20-C , 35-H ) :   0.9316 B( 20-C , 36-H ) :   0.8634 B( 21-C , 22-H ) :   0.9355
B( 21-C , 23-H ) :   1.0493 B( 21-C , 29-C ) :   0.1395 B( 21-C , 39-O ) :   0.1508
B( 22-H , 23-H ) :   0.2073 B( 23-H , 39-O ) :  -0.2220 B( 26-C , 29-C ) :   0.1583
B( 26-C , 30-H ) :   0.9644 B( 26-C , 31-H ) :   0.9695 B( 26-C , 34-H ) :  -0.1334
B( 29-C , 32-C ) :   0.6712 B( 29-C , 33-H ) :   0.9059 B( 29-C , 34-H ) :   1.0132
B( 32-C , 37-H ) :   0.9368 B( 32-C , 38-H ) :   0.9411

FINAL SINGLE POINT ENERGY     -1189.152766289744

DIPOLE MOMENT
-------------
                                X             Y             Z
Electronic contribution:    -16.37203       3.93037     -19.58494
Nuclear contribution   :     17.27667      -5.32157      20.03034
                        -----------------------------------------
Total Dipole Moment    :      0.90464      -1.39119       0.44539
                        -----------------------------------------
Magnitude (a.u.)       :      1.71819
Magnitude (Debye)      :      4.36728

Rotational constants in cm-1:     0.014355     0.012269     0.007481
Rotational constants in MHz :   430.360270   367.823451   224.273399

                             ****ORCA TERMINATED NORMALLY****
TOTAL RUN TIME: 0 days 0 hours 13 minutes 15 seconds 557 msec
