                         Program Version 5.0.0 -  RELEASE  -
|  1> !LC-BLYP RIJCOSX def2-TZVPD def2/J TightSCF xyzfile
|  2>
|  3> *xyzfile 0 1 D3.xyz
|  4>
|  5> %MaxCore 64000
|  6>
|  7> %pal nprocs 4
|  8> end
|  9>
| 10> %scf
| 11>   MaxIter 150
| 12> end
| 13>
| 14>
| 15>                          ****END OF INPUT****

CARTESIAN COORDINATES (ANGSTROEM)
---------------------------------
  C      4.490588    1.155899   -2.469290
  N      4.305394    1.222762   -3.908317
  C      4.906458   -3.102816   -5.954844
  C      3.511771   -2.806215   -6.492283
  H      2.736044   -3.373445   -5.973736
  H      3.444904   -3.040831   -7.555281
  S      3.004618   -1.096206   -6.389259
  C      4.631918    2.246365   -4.670958
  N      4.541686    2.143990   -5.987139
  C      5.084086    3.393584   -4.118545
  H      4.920675    3.570501   -3.135870
  H      5.254652    4.197390   -4.706956
  H      3.824530    0.449113   -4.350926
  H      4.343373    1.249318   -6.416646
  H      4.676712    2.956624   -6.574113
  F      4.128856   -0.329647   -6.953717
  O      1.781285   -1.000779   -7.136399
  C      5.942129    0.939500   -2.036893
  H      3.864305    0.328532   -2.136611
  H      4.076233    2.049994   -1.989010
  C      6.462677   -3.117775   -3.944671
  C      5.024977   -3.025679   -4.437625
  H      4.423321   -3.818693   -3.977648
  H      4.579350   -2.087131   -4.108727
  H      5.201533   -4.100207   -6.296905
  H      5.605922   -2.397822   -6.413368
  C      6.559957   -0.356290   -2.559086
  H      5.967976    0.952567   -0.942444
  H      6.547184    1.788331   -2.368849
  C      6.006283   -1.615917   -1.899301
  H      7.642360   -0.318000   -2.402059
  H      6.414855   -0.403433   -3.642587
  C      6.608718   -2.917014   -2.435655
  H      6.190324   -1.561115   -0.820948
  H      4.919250   -1.651245   -2.016586
  H      7.066975   -2.374258   -4.475514
  H      6.887808   -4.089747   -4.215332
  H      6.135197   -3.755573   -1.915159
  H      7.671142   -2.955503   -2.172291
  O      2.851546   -0.783683   -4.956789

 Total Charge           Charge          ....    0
 Multiplicity           Mult            ....    1
 Number of Electrons    NEL             ....  144
 Basis Dimension        Dim             ....  854

ORBITAL ENERGIES
----------------

  NO   OCC          E(Eh)            E(eV)
   0   2.0000     -88.545807     -2409.4539
   1   2.0000     -24.595874      -669.2878
   2   2.0000     -18.980158      -516.4764
   3   2.0000     -18.975603      -516.3524
   4   2.0000     -14.156052      -385.2058
   5   2.0000     -14.143799      -384.8723
   6   2.0000     -10.149143      -276.1722
   7   2.0000     -10.110478      -275.1201
   8   2.0000     -10.102580      -274.9052
   9   2.0000     -10.083683      -274.3910
  10   2.0000     -10.080237      -274.2972
  11   2.0000     -10.073295      -274.1083
  12   2.0000     -10.066496      -273.9233
  13   2.0000     -10.059082      -273.7215
  14   2.0000     -10.053101      -273.5588
  15   2.0000     -10.047485      -273.4060
  16   2.0000      -9.964841      -271.1571
  17   2.0000      -8.089027      -220.1136
  18   2.0000      -6.121142      -166.5647
  19   2.0000      -6.113810      -166.3652
  20   2.0000      -6.113244      -166.3498
  21   2.0000      -1.478667       -40.2366
  22   2.0000      -1.235282       -33.6137
  23   2.0000      -1.139465       -31.0064
  24   2.0000      -1.056239       -28.7417
  25   2.0000      -0.975773       -26.5521
  26   2.0000      -0.969318       -26.3765
  27   2.0000      -0.927706       -25.2442
  28   2.0000      -0.892692       -24.2914
  29   2.0000      -0.865783       -23.5592
  30   2.0000      -0.837154       -22.7801
  31   2.0000      -0.808938       -22.0123
  32   2.0000      -0.797858       -21.7108
  33   2.0000      -0.767729       -20.8910
  34   2.0000      -0.741922       -20.1887
  35   2.0000      -0.726069       -19.7573
  36   2.0000      -0.715080       -19.4583
  37   2.0000      -0.703524       -19.1439
  38   2.0000      -0.687552       -18.7092
  39   2.0000      -0.670245       -18.2383
  40   2.0000      -0.647417       -17.6171
  41   2.0000      -0.633256       -17.2318
  42   2.0000      -0.625872       -17.0308
  43   2.0000      -0.609141       -16.5756
  44   2.0000      -0.603707       -16.4277
  45   2.0000      -0.588370       -16.0104
  46   2.0000      -0.581738       -15.8299
  47   2.0000      -0.573702       -15.6112
  48   2.0000      -0.561773       -15.2866
  49   2.0000      -0.551584       -15.0094
  50   2.0000      -0.541790       -14.7429
  51   2.0000      -0.538519       -14.6538
  52   2.0000      -0.526132       -14.3168
  53   2.0000      -0.513006       -13.9596
  54   2.0000      -0.499002       -13.5785
  55   2.0000      -0.491947       -13.3865
  56   2.0000      -0.490109       -13.3365
  57   2.0000      -0.481276       -13.0962
  58   2.0000      -0.471156       -12.8208
  59   2.0000      -0.469251       -12.7690
  60   2.0000      -0.460816       -12.5394
  61   2.0000      -0.453160       -12.3311
  62   2.0000      -0.450770       -12.2661
  63   2.0000      -0.443758       -12.0753
  64   2.0000      -0.435701       -11.8560
  65   2.0000      -0.432078       -11.7574
  66   2.0000      -0.426571       -11.6076
  67   2.0000      -0.410874       -11.1804
  68   2.0000      -0.408325       -11.1111
  69   2.0000      -0.399864       -10.8809
  70   2.0000      -0.331344        -9.0163
  71   2.0000      -0.243494        -6.6258
  72   0.0000       0.021800         0.5932
  73   0.0000       0.038288         1.0419
  74   0.0000       0.047232         1.2852
  75   0.0000       0.053957         1.4682
  76   0.0000       0.062641         1.7045

MULLIKEN ATOMIC CHARGES
-----------------------
   0 C :   -1.180325
   1 N :   -0.155067
   2 C :   -0.918596
   3 C :   -1.002861
   4 H :    0.466218
   5 H :    0.481107
   6 S :    1.174855
   7 C :    0.883350
   8 N :   -0.278258
   9 C :   -1.342033
  10 H :    0.297794
  11 H :    0.385225
  12 H :    0.077442
  13 H :    0.230677
  14 H :    0.127285
  15 F :   -0.288626
  16 O :   -0.530773
  17 C :   -0.886246
  18 H :    0.475337
  19 H :    0.498172
  20 C :   -0.965829
  21 C :   -0.356861
  22 H :    0.334505
  23 H :    0.415973
  24 H :    0.418307
  25 H :    0.422903
  26 C :   -0.508379
  27 H :    0.463492
  28 H :    0.530997
  29 C :   -0.832814
  30 H :    0.368756
  31 H :    0.303317
  32 C :   -0.968833
  33 H :    0.412683
  34 H :    0.388373
  35 H :    0.455435
  36 H :    0.436877
  37 H :    0.408226
  38 H :    0.420836
  39 O :   -0.662640
Sum of atomic charges:   -0.0000000

LOEWDIN ATOMIC CHARGES
----------------------
   0 C :   -0.196645
   1 N :    0.032270
   2 C :   -0.232752
   3 C :   -0.228227
   4 H :    0.130104
   5 H :    0.115364
   6 S :    0.609935
   7 C :   -0.556219
   8 N :    0.134939
   9 C :   -0.001690
  10 H :    0.000774
  11 H :    0.004909
  12 H :    0.051422
  13 H :    0.045672
  14 H :    0.116646
  15 F :   -0.069755
  16 O :   -0.226142
  17 C :   -0.199001
  18 H :    0.119396
  19 H :    0.120473
  20 C :   -0.228312
  21 C :   -0.229875
  22 H :    0.138588
  23 H :    0.087749
  24 H :    0.130500
  25 H :    0.120336
  26 C :   -0.222987
  27 H :    0.118499
  28 H :    0.108463
  29 C :   -0.231243
  30 H :    0.123513
  31 H :    0.106667
  32 C :   -0.221648
  33 H :    0.121789
  34 H :    0.105406
  35 H :    0.115197
  36 H :    0.120629
  37 H :    0.115912
  38 H :    0.117373
  39 O :   -0.268029

  Mayer bond orders larger than 0.100000
B(  0-C ,  1-N ) :   0.7705 B(  0-C ,  9-C ) :   0.1514 B(  0-C , 12-H ) :  -0.2564
B(  0-C , 17-C ) :   0.5614 B(  0-C , 18-H ) :   0.7316 B(  0-C , 19-H ) :   0.8101
B(  1-N ,  7-C ) :   0.9488 B(  1-N , 12-H ) :   1.0735 B(  1-N , 17-C ) :   0.1008
B(  1-N , 39-O ) :  -0.1340 B(  2-C ,  3-C ) :   0.6355 B(  2-C , 20-C ) :   0.1948
B(  2-C , 21-C ) :   0.2108 B(  2-C , 24-H ) :   0.9230 B(  2-C , 25-H ) :   0.9161
B(  3-C ,  4-H ) :   0.8002 B(  3-C ,  5-H ) :   0.9112 B(  3-C ,  6-S ) :   0.9959
B(  3-C , 16-O ) :   0.1178 B(  6-S , 15-F ) :   0.8896 B(  6-S , 16-O ) :   1.5809
B(  6-S , 39-O ) :   1.6396 B(  7-C ,  8-N ) :   0.7911 B(  7-C ,  9-C ) :   0.7513
B(  7-C , 11-H ) :  -0.1334 B(  7-C , 12-H ) :  -0.3396 B(  8-N , 13-H ) :   0.9164
B(  8-N , 14-H ) :   1.0669 B(  9-C , 10-H ) :   1.0813 B(  9-C , 11-H ) :   1.0089
B( 12-H , 39-O ) :   0.1146 B( 17-C , 26-C ) :   0.6835 B( 17-C , 27-H ) :   0.8913
B( 17-C , 28-H ) :   0.8070 B( 20-C , 21-C ) :   0.3094 B( 20-C , 32-C ) :   0.6723
B( 20-C , 35-H ) :   0.9276 B( 20-C , 36-H ) :   0.8632 B( 21-C , 22-H ) :   0.9415
B( 21-C , 23-H ) :   1.0403 B( 21-C , 29-C ) :   0.1391 B( 21-C , 39-O ) :   0.1513
B( 22-H , 23-H ) :   0.2045 B( 23-H , 39-O ) :  -0.2259 B( 26-C , 29-C ) :   0.1709
B( 26-C , 30-H ) :   0.9596 B( 26-C , 31-H ) :   1.0074 B( 26-C , 34-H ) :  -0.1355
B( 29-C , 32-C ) :   0.6546 B( 29-C , 33-H ) :   0.9038 B( 29-C , 34-H ) :   1.0278
B( 32-C , 37-H ) :   0.9432 B( 32-C , 38-H ) :   0.9448

FINAL SINGLE POINT ENERGY     -1189.154610074608

DIPOLE MOMENT
-------------
                                X             Y             Z
Electronic contribution:    -16.87348       2.65897     -21.29846
Nuclear contribution   :     17.35766      -5.13497      20.30937
                        -----------------------------------------
Total Dipole Moment    :      0.48418      -2.47600      -0.98910
                        -----------------------------------------
Magnitude (a.u.)       :      2.70986
Magnitude (Debye)      :      6.88792

Rotational constants in cm-1:     0.014431     0.012329     0.007535
Rotational constants in MHz :   432.628327   369.619539   225.898827

                             ****ORCA TERMINATED NORMALLY****
TOTAL RUN TIME: 0 days 0 hours 13 minutes 18 seconds 357 msec
