                         Program Version 5.0.0 -  RELEASE  -
|  1> !LC-BLYP RIJCOSX def2-TZVPD def2/J TightSCF xyzfile
|  2>
|  3> *xyzfile 0 1 D4.xyz
|  4>
|  5> %MaxCore 64000
|  6>
|  7> %pal nprocs 4
|  8> end
|  9>
| 10> %scf
| 11>   MaxIter 150
| 12> end
| 13>
| 14>
| 15>                          ****END OF INPUT****

CARTESIAN COORDINATES (ANGSTROEM)
---------------------------------
  C      4.490588    1.155899   -2.469290
  C      4.305394    1.222762   -3.908317
  C      4.906458   -3.102816   -5.954844
  C      3.511771   -2.806215   -6.492283
  H      2.736044   -3.373445   -5.973736
  H      3.444904   -3.040831   -7.555281
  S      3.004618   -1.096206   -6.389259
  C      4.631918    2.246365   -4.670958
  N      4.541686    2.143990   -5.987139
  N      5.084086    3.393584   -4.118545
  H      4.920675    3.570501   -3.135870
  H      5.254652    4.197390   -4.706956
  H      3.824530    0.449113   -4.350926
  H      4.343373    1.249318   -6.416646
  H      4.676712    2.956624   -6.574113
  O      4.128856   -0.329647   -6.953717
  F      1.781285   -1.000779   -7.136399
  C      5.942129    0.939500   -2.036893
  H      3.864305    0.328532   -2.136611
  H      4.076233    2.049994   -1.989010
  C      6.462677   -3.117775   -3.944671
  C      5.024977   -3.025679   -4.437625
  H      4.423321   -3.818693   -3.977648
  H      4.579350   -2.087131   -4.108727
  H      5.201533   -4.100207   -6.296905
  H      5.605922   -2.397822   -6.413368
  C      6.559957   -0.356290   -2.559086
  H      5.967976    0.952567   -0.942444
  H      6.547184    1.788331   -2.368849
  C      6.006283   -1.615917   -1.899301
  H      7.642360   -0.318000   -2.402059
  H      6.414855   -0.403433   -3.642587
  C      6.608718   -2.917014   -2.435655
  H      6.190324   -1.561115   -0.820948
  H      4.919250   -1.651245   -2.016586
  H      7.066975   -2.374258   -4.475514
  H      6.887808   -4.089747   -4.215332
  H      6.135197   -3.755573   -1.915159
  H      7.671142   -2.955503   -2.172291
  O      2.851546   -0.783683   -4.956789

 Total Charge           Charge          ....    0
 Multiplicity           Mult            ....    1
 Number of Electrons    NEL             ....  144
 Basis Dimension        Dim             ....  854

ORBITAL ENERGIES
----------------

  NO   OCC          E(Eh)            E(eV)
   0   2.0000     -88.535914     -2409.1847
   1   2.0000     -24.592469      -669.1951
   2   2.0000     -18.965089      -516.0663
   3   2.0000     -18.955770      -515.8127
   4   2.0000     -14.147012      -384.9598
   5   2.0000     -14.127254      -384.4221
   6   2.0000     -10.139633      -275.9134
   7   2.0000     -10.096504      -274.7398
   8   2.0000     -10.083254      -274.3793
   9   2.0000     -10.064510      -273.8693
  10   2.0000     -10.058822      -273.7145
  11   2.0000     -10.052589      -273.5448
  12   2.0000     -10.042550      -273.2717
  13   2.0000     -10.033678      -273.0303
  14   2.0000     -10.028481      -272.8889
  15   2.0000     -10.021021      -272.6859
  16   2.0000      -9.950633      -270.7705
  17   2.0000      -8.078907      -219.8382
  18   2.0000      -6.110559      -166.2768
  19   2.0000      -6.103904      -166.0957
  20   2.0000      -6.103369      -166.0811
  21   2.0000      -1.484018       -40.3822
  22   2.0000      -1.214305       -33.0429
  23   2.0000      -1.114904       -30.3381
  24   2.0000      -1.032165       -28.0866
  25   2.0000      -0.955374       -25.9970
  26   2.0000      -0.941298       -25.6140
  27   2.0000      -0.914616       -24.8880
  28   2.0000      -0.884465       -24.0675
  29   2.0000      -0.863172       -23.4881
  30   2.0000      -0.832388       -22.6504
  31   2.0000      -0.807011       -21.9599
  32   2.0000      -0.773424       -21.0459
  33   2.0000      -0.745194       -20.2778
  34   2.0000      -0.723326       -19.6827
  35   2.0000      -0.711393       -19.3580
  36   2.0000      -0.697493       -18.9797
  37   2.0000      -0.692578       -18.8460
  38   2.0000      -0.677868       -18.4457
  39   2.0000      -0.657587       -17.8939
  40   2.0000      -0.642912       -17.4945
  41   2.0000      -0.624706       -16.9991
  42   2.0000      -0.610453       -16.6113
  43   2.0000      -0.602106       -16.3841
  44   2.0000      -0.584409       -15.9026
  45   2.0000      -0.574982       -15.6460
  46   2.0000      -0.570651       -15.5282
  47   2.0000      -0.558738       -15.2040
  48   2.0000      -0.551702       -15.0126
  49   2.0000      -0.534403       -14.5418
  50   2.0000      -0.526357       -14.3229
  51   2.0000      -0.516849       -14.0642
  52   2.0000      -0.515171       -14.0185
  53   2.0000      -0.509884       -13.8747
  54   2.0000      -0.485008       -13.1977
  55   2.0000      -0.481476       -13.1016
  56   2.0000      -0.476538       -12.9673
  57   2.0000      -0.466981       -12.7072
  58   2.0000      -0.458764       -12.4836
  59   2.0000      -0.449842       -12.2408
  60   2.0000      -0.444814       -12.1040
  61   2.0000      -0.434983       -11.8365
  62   2.0000      -0.428295       -11.6545
  63   2.0000      -0.420092       -11.4313
  64   2.0000      -0.416224       -11.3260
  65   2.0000      -0.413296       -11.2464
  66   2.0000      -0.399568       -10.8728
  67   2.0000      -0.390619       -10.6293
  68   2.0000      -0.381991       -10.3945
  69   2.0000      -0.366977        -9.9859
  70   2.0000      -0.336281        -9.1507
  71   2.0000      -0.225435        -6.1344
  72   0.0000       0.022342         0.6080
  73   0.0000       0.046047         1.2530
  74   0.0000       0.046501         1.2654
  75   0.0000       0.058007         1.5784
  76   0.0000       0.068312         1.8589

MULLIKEN ATOMIC CHARGES
-----------------------
   0 C :   -1.467940
   1 C :   -0.645341
   2 C :   -0.930045
   3 C :   -1.099104
   4 H :    0.490708
   5 H :    0.521056
   6 S :    1.264406
   7 C :    0.470497
   8 N :   -0.288307
   9 N :   -0.355854
  10 H :    0.196337
  11 H :    0.129882
  12 H :    0.737130
  13 H :    0.177352
  14 H :    0.116251
  15 O :   -0.753217
  16 F :   -0.065723
  17 C :   -0.895752
  18 H :    0.421488
  19 H :    0.506397
  20 C :   -0.999220
  21 C :   -0.326814
  22 H :    0.322480
  23 H :    0.377149
  24 H :    0.417222
  25 H :    0.458561
  26 C :   -0.610019
  27 H :    0.430504
  28 H :    0.492672
  29 C :   -0.844667
  30 H :    0.364233
  31 H :    0.395623
  32 C :   -0.947845
  33 H :    0.413309
  34 H :    0.385095
  35 H :    0.465344
  36 H :    0.437549
  37 H :    0.407335
  38 H :    0.418556
  39 O :   -0.587290
Sum of atomic charges:   -0.0000000

LOEWDIN ATOMIC CHARGES
----------------------
   0 C :   -0.234096
   1 C :   -0.149087
   2 C :   -0.224544
   3 C :   -0.238448
   4 H :    0.119385
   5 H :    0.111460
   6 S :    0.632031
   7 C :   -0.530601
   8 N :    0.124728
   9 N :    0.132593
  10 H :    0.092084
  11 H :    0.092554
  12 H :    0.006240
  13 H :    0.024540
  14 H :    0.098650
  15 O :   -0.267501
  16 F :   -0.012500
  17 C :   -0.218219
  18 H :    0.110191
  19 H :    0.107586
  20 C :   -0.227882
  21 C :   -0.225554
  22 H :    0.136128
  23 H :    0.092961
  24 H :    0.130600
  25 H :    0.123468
  26 C :   -0.223411
  27 H :    0.111217
  28 H :    0.107948
  29 C :   -0.229874
  30 H :    0.120744
  31 H :    0.109360
  32 C :   -0.223870
  33 H :    0.120032
  34 H :    0.106887
  35 H :    0.116572
  36 H :    0.118898
  37 H :    0.114118
  38 H :    0.115638
  39 O :   -0.271026

  Mayer bond orders larger than 0.100000
B(  0-C ,  1-C ) :   0.2283 B(  0-C ,  7-C ) :   0.1289 B(  0-C , 17-C ) :   0.4594
B(  0-C , 18-H ) :   0.9525 B(  0-C , 19-H ) :   0.8110 B(  1-C ,  7-C ) :   1.2562
B(  1-C , 12-H ) :   0.2040 B(  1-C , 17-C ) :  -0.1508 B(  1-C , 19-H ) :  -0.1116
B(  1-C , 31-H ) :  -0.1144 B(  1-C , 39-O ) :   0.2971 B(  2-C ,  3-C ) :   0.7488
B(  2-C , 20-C ) :   0.1989 B(  2-C , 21-C ) :   0.3012 B(  2-C , 24-H ) :   0.9256
B(  2-C , 25-H ) :   0.8345 B(  3-C ,  4-H ) :   0.7865 B(  3-C ,  5-H ) :   0.8070
B(  3-C ,  6-S ) :   0.9762 B(  6-S , 15-O ) :   1.4639 B(  6-S , 16-F ) :   0.9026
B(  6-S , 39-O ) :   1.6448 B(  7-C ,  8-N ) :   0.8454 B(  7-C ,  9-N ) :   0.9365
B(  7-C , 12-H ) :   0.3005 B(  7-C , 26-C ) :   0.1125 B(  8-N , 13-H ) :   0.9400
B(  8-N , 14-H ) :   1.0978 B(  9-N , 10-H ) :   0.9797 B(  9-N , 11-H ) :   1.0699
B(  9-N , 17-C ) :   0.1389 B( 12-H , 39-O ) :  -0.5426 B( 15-O , 39-O ) :   0.1284
B( 17-C , 26-C ) :   0.6428 B( 17-C , 27-H ) :   0.9183 B( 17-C , 28-H ) :   0.8228
B( 20-C , 21-C ) :   0.3226 B( 20-C , 32-C ) :   0.6604 B( 20-C , 35-H ) :   0.9172
B( 20-C , 36-H ) :   0.8618 B( 21-C , 22-H ) :   0.9424 B( 21-C , 23-H ) :   1.0292
B( 21-C , 29-C ) :   0.1326 B( 21-C , 39-O ) :   0.1503 B( 22-H , 23-H ) :   0.2048
B( 23-H , 39-O ) :  -0.1698 B( 26-C , 29-C ) :   0.1627 B( 26-C , 30-H ) :   0.9788
B( 26-C , 31-H ) :   1.0029 B( 26-C , 34-H ) :  -0.1425 B( 29-C , 32-C ) :   0.6385
B( 29-C , 33-H ) :   0.9017 B( 29-C , 34-H ) :   1.0294 B( 32-C , 37-H ) :   0.9445
B( 32-C , 38-H ) :   0.9501

FINAL SINGLE POINT ENERGY     -1189.143303634266

DIPOLE MOMENT
-------------
                                X             Y             Z
Electronic contribution:    -20.59719       3.45947     -21.96111
Nuclear contribution   :     19.99734      -4.67125      20.55522
                        -----------------------------------------
Total Dipole Moment    :     -0.59985      -1.21178      -1.40589
                        -----------------------------------------
Magnitude (a.u.)       :      1.95058
Magnitude (Debye)      :      4.95798

Rotational constants in cm-1:     0.014213     0.012058     0.007367
Rotational constants in MHz :   426.102180   361.491761   220.844824

                             ****ORCA TERMINATED NORMALLY****
TOTAL RUN TIME: 0 days 0 hours 14 minutes 26 seconds 96 msec
