                         Program Version 5.0.0 -  RELEASE  -
|  1> !LC-BLYP RIJCOSX def2-TZVPD def2/J TightSCF xyzfile
|  2>
|  3> *xyzfile 0 1 D5.xyz
|  4>
|  5> %MaxCore 64000
|  6>
|  7> %pal nprocs 4
|  8> end
|  9>
| 10> %scf
| 11>   MaxIter 150
| 12> end
| 13>
| 14>
| 15>                          ****END OF INPUT****

CARTESIAN COORDINATES (ANGSTROEM)
---------------------------------
  C      4.490588    1.155899   -2.469290
  N      4.305394    1.222762   -3.908317
  C      4.906458   -3.102816   -5.954844
  C      3.511771   -2.806215   -6.492283
  H      2.736044   -3.373445   -5.973736
  H      3.444904   -3.040831   -7.555281
  S      3.004618   -1.096206   -6.389259
  C      4.631918    2.246365   -4.670958
  C      4.541686    2.143990   -5.987139
  N      5.084086    3.393584   -4.118545
  H      4.920675    3.570501   -3.135870
  H      5.254652    4.197390   -4.706956
  H      3.824530    0.449113   -4.350926
  H      4.343373    1.249318   -6.416646
  H      4.676712    2.956624   -6.574113
  O      4.128856   -0.329647   -6.953717
  F      1.781285   -1.000779   -7.136399
  C      5.942129    0.939500   -2.036893
  H      3.864305    0.328532   -2.136611
  H      4.076233    2.049994   -1.989010
  C      6.462677   -3.117775   -3.944671
  C      5.024977   -3.025679   -4.437625
  H      4.423321   -3.818693   -3.977648
  H      4.579350   -2.087131   -4.108727
  H      5.201533   -4.100207   -6.296905
  H      5.605922   -2.397822   -6.413368
  C      6.559957   -0.356290   -2.559086
  H      5.967976    0.952567   -0.942444
  H      6.547184    1.788331   -2.368849
  C      6.006283   -1.615917   -1.899301
  H      7.642360   -0.318000   -2.402059
  H      6.414855   -0.403433   -3.642587
  C      6.608718   -2.917014   -2.435655
  H      6.190324   -1.561115   -0.820948
  H      4.919250   -1.651245   -2.016586
  H      7.066975   -2.374258   -4.475514
  H      6.887808   -4.089747   -4.215332
  H      6.135197   -3.755573   -1.915159
  H      7.671142   -2.955503   -2.172291
  O      2.851546   -0.783683   -4.956789

 Total Charge           Charge          ....    0
 Multiplicity           Mult            ....    1
 Number of Electrons    NEL             ....  144
 Basis Dimension        Dim             ....  854

ORBITAL ENERGIES
----------------

  NO   OCC          E(Eh)            E(eV)
   0   2.0000     -88.535127     -2409.1633
   1   2.0000     -24.591208      -669.1608
   2   2.0000     -18.963898      -516.0339
   3   2.0000     -18.953526      -515.7517
   4   2.0000     -14.143812      -384.8727
   5   2.0000     -14.129571      -384.4852
   6   2.0000     -10.139908      -275.9209
   7   2.0000     -10.098790      -274.8020
   8   2.0000     -10.084839      -274.4224
   9   2.0000     -10.083903      -274.3970
  10   2.0000     -10.070971      -274.0451
  11   2.0000     -10.065528      -273.8969
  12   2.0000     -10.061676      -273.7921
  13   2.0000     -10.055887      -273.6346
  14   2.0000     -10.049992      -273.4742
  15   2.0000     -10.049770      -273.4681
  16   2.0000      -9.938833      -270.4494
  17   2.0000      -8.078056      -219.8151
  18   2.0000      -6.109710      -166.2536
  19   2.0000      -6.103046      -166.0723
  20   2.0000      -6.102531      -166.0583
  21   2.0000      -1.482531       -40.3417
  22   2.0000      -1.213065       -33.0092
  23   2.0000      -1.113488       -30.2995
  24   2.0000      -1.040274       -28.3073
  25   2.0000      -0.957542       -26.0560
  26   2.0000      -0.956293       -26.0221
  27   2.0000      -0.921064       -25.0634
  28   2.0000      -0.891505       -24.2591
  29   2.0000      -0.860855       -23.4251
  30   2.0000      -0.835252       -22.7284
  31   2.0000      -0.808232       -21.9931
  32   2.0000      -0.778457       -21.1829
  33   2.0000      -0.752051       -20.4643
  34   2.0000      -0.731276       -19.8990
  35   2.0000      -0.710670       -19.3383
  36   2.0000      -0.700220       -19.0540
  37   2.0000      -0.697326       -18.9752
  38   2.0000      -0.685341       -18.6491
  39   2.0000      -0.666650       -18.1405
  40   2.0000      -0.655609       -17.8400
  41   2.0000      -0.620805       -16.8930
  42   2.0000      -0.612921       -16.6784
  43   2.0000      -0.597085       -16.2475
  44   2.0000      -0.586219       -15.9518
  45   2.0000      -0.580405       -15.7936
  46   2.0000      -0.569401       -15.4942
  47   2.0000      -0.565494       -15.3879
  48   2.0000      -0.553034       -15.0488
  49   2.0000      -0.545810       -14.8522
  50   2.0000      -0.536024       -14.5860
  51   2.0000      -0.527398       -14.3512
  52   2.0000      -0.520357       -14.1596
  53   2.0000      -0.499980       -13.6051
  54   2.0000      -0.491603       -13.3772
  55   2.0000      -0.488663       -13.2972
  56   2.0000      -0.477973       -13.0063
  57   2.0000      -0.473235       -12.8774
  58   2.0000      -0.460164       -12.5217
  59   2.0000      -0.457203       -12.4411
  60   2.0000      -0.453849       -12.3499
  61   2.0000      -0.447037       -12.1645
  62   2.0000      -0.436399       -11.8750
  63   2.0000      -0.431182       -11.7331
  64   2.0000      -0.424306       -11.5460
  65   2.0000      -0.416697       -11.3389
  66   2.0000      -0.407196       -11.0804
  67   2.0000      -0.404526       -11.0077
  68   2.0000      -0.398878       -10.8540
  69   2.0000      -0.388352       -10.5676
  70   2.0000      -0.325229        -8.8499
  71   2.0000      -0.226284        -6.1575
  72   0.0000       0.023326         0.6347
  73   0.0000       0.046035         1.2527
  74   0.0000       0.048406         1.3172
  75   0.0000       0.058211         1.5840
  76   0.0000       0.066027         1.7967

MULLIKEN ATOMIC CHARGES
-----------------------
   0 C :   -1.202284
   1 N :   -0.104957
   2 C :   -0.934126
   3 C :   -1.123412
   4 H :    0.485069
   5 H :    0.534355
   6 S :    1.198741
   7 C :    1.009191
   8 C :   -1.432723
   9 N :   -0.379808
  10 H :    0.181220
  11 H :    0.175932
  12 H :    0.063542
  13 H :    0.396690
  14 H :    0.224897
  15 O :   -0.616705
  16 F :   -0.065024
  17 C :   -0.817948
  18 H :    0.465562
  19 H :    0.489905
  20 C :   -0.994370
  21 C :   -0.380798
  22 H :    0.330425
  23 H :    0.393960
  24 H :    0.419627
  25 H :    0.461326
  26 C :   -0.570054
  27 H :    0.470640
  28 H :    0.523890
  29 C :   -0.847042
  30 H :    0.365439
  31 H :    0.368887
  32 C :   -0.949056
  33 H :    0.410536
  34 H :    0.399269
  35 H :    0.457154
  36 H :    0.442988
  37 H :    0.410558
  38 H :    0.422526
  39 O :   -0.684021
Sum of atomic charges:   -0.0000000

LOEWDIN ATOMIC CHARGES
----------------------
   0 C :   -0.203575
   1 N :    0.036178
   2 C :   -0.223737
   3 C :   -0.239543
   4 H :    0.117922
   5 H :    0.112772
   6 S :    0.631283
   7 C :   -0.549534
   8 C :    0.000352
   9 N :    0.124192
  10 H :    0.083429
  11 H :    0.104001
  12 H :    0.058808
  13 H :   -0.050486
  14 H :    0.014209
  15 O :   -0.268176
  16 F :   -0.009347
  17 C :   -0.204181
  18 H :    0.118875
  19 H :    0.113832
  20 C :   -0.226743
  21 C :   -0.227172
  22 H :    0.136276
  23 H :    0.089678
  24 H :    0.131105
  25 H :    0.124796
  26 C :   -0.221005
  27 H :    0.115640
  28 H :    0.108856
  29 C :   -0.231726
  30 H :    0.123230
  31 H :    0.111905
  32 C :   -0.222255
  33 H :    0.120643
  34 H :    0.105327
  35 H :    0.117453
  36 H :    0.120250
  37 H :    0.115232
  38 H :    0.116807
  39 O :   -0.275570

  Mayer bond orders larger than 0.100000
B(  0-C ,  1-N ) :   0.7450 B(  0-C ,  7-C ) :  -0.1517 B(  0-C ,  9-N ) :   0.1248
B(  0-C , 12-H ) :  -0.1956 B(  0-C , 17-C ) :   0.5001 B(  0-C , 18-H ) :   0.7632
B(  0-C , 19-H ) :   0.8004 B(  1-N ,  7-C ) :   0.9115 B(  1-N , 12-H ) :   1.0750
B(  1-N , 39-O ) :  -0.1286 B(  2-C ,  3-C ) :   0.7569 B(  2-C , 20-C ) :   0.2065
B(  2-C , 21-C ) :   0.3083 B(  2-C , 24-H ) :   0.9144 B(  2-C , 25-H ) :   0.8431
B(  3-C ,  4-H ) :   0.7904 B(  3-C ,  5-H ) :   0.7963 B(  3-C ,  6-S ) :   0.9731
B(  6-S , 15-O ) :   1.5602 B(  6-S , 16-F ) :   0.9132 B(  6-S , 39-O ) :   1.6320
B(  7-C ,  8-C ) :   0.4922 B(  7-C ,  9-N ) :   0.8361 B(  7-C , 12-H ) :  -0.2978
B(  7-C , 13-H ) :  -0.1319 B(  7-C , 14-H ) :  -0.2467 B(  8-C , 12-H ) :   0.1318
B(  8-C , 13-H ) :   1.0770 B(  8-C , 14-H ) :   1.2438 B(  8-C , 15-O ) :   0.1199
B(  9-N , 10-H ) :   1.0162 B(  9-N , 11-H ) :   1.0187 B( 13-H , 15-O ) :  -0.3301
B( 15-O , 39-O ) :   0.1469 B( 17-C , 26-C ) :   0.7029 B( 17-C , 27-H ) :   0.9195
B( 17-C , 28-H ) :   0.7714 B( 20-C , 21-C ) :   0.3100 B( 20-C , 32-C ) :   0.6686
B( 20-C , 35-H ) :   0.9283 B( 20-C , 36-H ) :   0.8556 B( 21-C , 22-H ) :   0.9385
B( 21-C , 23-H ) :   1.0466 B( 21-C , 29-C ) :   0.1378 B( 21-C , 39-O ) :   0.1576
B( 22-H , 23-H ) :   0.1949 B( 23-H , 39-O ) :  -0.2096 B( 26-C , 29-C ) :   0.1462
B( 26-C , 30-H ) :   0.9653 B( 26-C , 31-H ) :   0.9539 B( 26-C , 34-H ) :  -0.1336
B( 29-C , 32-C ) :   0.6647 B( 29-C , 33-H ) :   0.9057 B( 29-C , 34-H ) :   1.0167
B( 32-C , 37-H ) :   0.9355 B( 32-C , 38-H ) :   0.9417

FINAL SINGLE POINT ENERGY     -1189.134453004321

DIPOLE MOMENT
-------------
                                X             Y             Z
Electronic contribution:    -20.62484       2.61182     -20.18009
Nuclear contribution   :     20.03262      -4.53368      20.24480
                        -----------------------------------------
Total Dipole Moment    :     -0.59221      -1.92186       0.06471
                        -----------------------------------------
Magnitude (a.u.)       :      2.01208
Magnitude (Debye)      :      5.11430

Rotational constants in cm-1:     0.014367     0.012055     0.007393
Rotational constants in MHz :   430.711297   361.391195   221.649333

                             ****ORCA TERMINATED NORMALLY****
TOTAL RUN TIME: 0 days 0 hours 14 minutes 22 seconds 920 msec
