                         Program Version 5.0.0 -  RELEASE  -
|  1> !LC-BLYP RIJCOSX def2-TZVPD def2/J TightSCF xyzfile
|  2>
|  3> *xyzfile 0 1 D6.xyz
|  4>
|  5> %MaxCore 64000
|  6>
|  7> %pal nprocs 4
|  8> end
|  9>
| 10> %scf
| 11>   MaxIter 150
| 12> end
| 13>
| 14>
| 15>                          ****END OF INPUT****

CARTESIAN COORDINATES (ANGSTROEM)
---------------------------------
  C      4.490588    1.155899   -2.469290
  N      4.305394    1.222762   -3.908317
  C      4.906458   -3.102816   -5.954844
  C      3.511771   -2.806215   -6.492283
  H      2.736044   -3.373445   -5.973736
  H      3.444904   -3.040831   -7.555281
  S      3.004618   -1.096206   -6.389259
  C      4.631918    2.246365   -4.670958
  N      4.541686    2.143990   -5.987139
  C      5.084086    3.393584   -4.118545
  H      4.920675    3.570501   -3.135870
  H      5.254652    4.197390   -4.706956
  H      3.824530    0.449113   -4.350926
  H      4.343373    1.249318   -6.416646
  H      4.676712    2.956624   -6.574113
  O      4.128856   -0.329647   -6.953717
  F      1.781285   -1.000779   -7.136399
  C      5.942129    0.939500   -2.036893
  H      3.864305    0.328532   -2.136611
  H      4.076233    2.049994   -1.989010
  C      6.462677   -3.117775   -3.944671
  C      5.024977   -3.025679   -4.437625
  H      4.423321   -3.818693   -3.977648
  H      4.579350   -2.087131   -4.108727
  H      5.201533   -4.100207   -6.296905
  H      5.605922   -2.397822   -6.413368
  C      6.559957   -0.356290   -2.559086
  H      5.967976    0.952567   -0.942444
  H      6.547184    1.788331   -2.368849
  C      6.006283   -1.615917   -1.899301
  H      7.642360   -0.318000   -2.402059
  H      6.414855   -0.403433   -3.642587
  C      6.608718   -2.917014   -2.435655
  H      6.190324   -1.561115   -0.820948
  H      4.919250   -1.651245   -2.016586
  H      7.066975   -2.374258   -4.475514
  H      6.887808   -4.089747   -4.215332
  H      6.135197   -3.755573   -1.915159
  H      7.671142   -2.955503   -2.172291
  O      2.851546   -0.783683   -4.956789

 Total Charge           Charge          ....    0
 Multiplicity           Mult            ....    1
 Number of Electrons    NEL             ....  144
 Basis Dimension        Dim             ....  854

ORBITAL ENERGIES
----------------

  NO   OCC          E(Eh)            E(eV)
   0   2.0000     -88.554664     -2409.6949
   1   2.0000     -24.608176      -669.6225
   2   2.0000     -18.980378      -516.4823
   3   2.0000     -18.979909      -516.4696
   4   2.0000     -14.132618      -384.5681
   5   2.0000     -14.127584      -384.4311
   6   2.0000     -10.153706      -276.2964
   7   2.0000     -10.108482      -275.0658
   8   2.0000     -10.087424      -274.4928
   9   2.0000     -10.077139      -274.2129
  10   2.0000     -10.075719      -274.1742
  11   2.0000     -10.069035      -273.9924
  12   2.0000     -10.062378      -273.8112
  13   2.0000     -10.054114      -273.5864
  14   2.0000     -10.045989      -273.3653
  15   2.0000     -10.039996      -273.2022
  16   2.0000      -9.950736      -270.7733
  17   2.0000      -8.097643      -220.3481
  18   2.0000      -6.129218      -166.7845
  19   2.0000      -6.122841      -166.6110
  20   2.0000      -6.121995      -166.5880
  21   2.0000      -1.499652       -40.8076
  22   2.0000      -1.233584       -33.5675
  23   2.0000      -1.134768       -30.8786
  24   2.0000      -1.039513       -28.2866
  25   2.0000      -0.968785       -26.3620
  26   2.0000      -0.957112       -26.0443
  27   2.0000      -0.924906       -25.1680
  28   2.0000      -0.892289       -24.2804
  29   2.0000      -0.864789       -23.5321
  30   2.0000      -0.836513       -22.7627
  31   2.0000      -0.800648       -21.7867
  32   2.0000      -0.786331       -21.3972
  33   2.0000      -0.764841       -20.8124
  34   2.0000      -0.739310       -20.1176
  35   2.0000      -0.727605       -19.7992
  36   2.0000      -0.711355       -19.3569
  37   2.0000      -0.698859       -19.0169
  38   2.0000      -0.695527       -18.9263
  39   2.0000      -0.663972       -18.0676
  40   2.0000      -0.643089       -17.4994
  41   2.0000      -0.629559       -17.1312
  42   2.0000      -0.624446       -16.9920
  43   2.0000      -0.609434       -16.5835
  44   2.0000      -0.601438       -16.3659
  45   2.0000      -0.584957       -15.9175
  46   2.0000      -0.580357       -15.7923
  47   2.0000      -0.566190       -15.4068
  48   2.0000      -0.555820       -15.1246
  49   2.0000      -0.542559       -14.7638
  50   2.0000      -0.534789       -14.5524
  51   2.0000      -0.533086       -14.5060
  52   2.0000      -0.523206       -14.2372
  53   2.0000      -0.507369       -13.8062
  54   2.0000      -0.493572       -13.4308
  55   2.0000      -0.487614       -13.2686
  56   2.0000      -0.484302       -13.1785
  57   2.0000      -0.473097       -12.8736
  58   2.0000      -0.465808       -12.6753
  59   2.0000      -0.460717       -12.5367
  60   2.0000      -0.452981       -12.3262
  61   2.0000      -0.447316       -12.1721
  62   2.0000      -0.440994       -12.0001
  63   2.0000      -0.435964       -11.8632
  64   2.0000      -0.430700       -11.7199
  65   2.0000      -0.428206       -11.6521
  66   2.0000      -0.419313       -11.4101
  67   2.0000      -0.405214       -11.0264
  68   2.0000      -0.402102       -10.9417
  69   2.0000      -0.393433       -10.7059
  70   2.0000      -0.314260        -8.5515
  71   2.0000      -0.229249        -6.2382
  72   0.0000       0.014690         0.3997
  73   0.0000       0.038903         1.0586
  74   0.0000       0.040248         1.0952
  75   0.0000       0.055032         1.4975
  76   0.0000       0.065565         1.7841

MULLIKEN ATOMIC CHARGES
-----------------------
   0 C :   -1.181840
   1 N :   -0.168272
   2 C :   -0.926387
   3 C :   -1.100199
   4 H :    0.495184
   5 H :    0.529542
   6 S :    1.215088
   7 C :    0.818343
   8 N :   -0.250610
   9 C :   -1.334668
  10 H :    0.291873
  11 H :    0.386299
  12 H :    0.129338
  13 H :    0.233936
  14 H :    0.125695
  15 O :   -0.744004
  16 F :   -0.065705
  17 C :   -0.895439
  18 H :    0.465176
  19 H :    0.503128
  20 C :   -0.987627
  21 C :   -0.385971
  22 H :    0.337200
  23 H :    0.394993
  24 H :    0.418208
  25 H :    0.458055
  26 C :   -0.517231
  27 H :    0.462217
  28 H :    0.536730
  29 C :   -0.832926
  30 H :    0.364219
  31 H :    0.316727
  32 C :   -0.958882
  33 H :    0.412534
  34 H :    0.386076
  35 H :    0.462632
  36 H :    0.440202
  37 H :    0.406678
  38 H :    0.420878
  39 O :   -0.661192
Sum of atomic charges:   -0.0000000

LOEWDIN ATOMIC CHARGES
----------------------
   0 C :   -0.199736
   1 N :    0.035237
   2 C :   -0.222960
   3 C :   -0.235405
   4 H :    0.120714
   5 H :    0.113918
   6 S :    0.637743
   7 C :   -0.558117
   8 N :    0.131789
   9 C :   -0.009331
  10 H :   -0.003644
  11 H :    0.001886
  12 H :    0.054795
  13 H :    0.019318
  14 H :    0.112306
  15 O :   -0.265842
  16 F :   -0.005880
  17 C :   -0.199677
  18 H :    0.117523
  19 H :    0.118907
  20 C :   -0.226696
  21 C :   -0.226860
  22 H :    0.136951
  23 H :    0.089807
  24 H :    0.132512
  25 H :    0.124410
  26 C :   -0.222151
  27 H :    0.117377
  28 H :    0.108307
  29 C :   -0.232164
  30 H :    0.123173
  31 H :    0.109129
  32 C :   -0.222262
  33 H :    0.121146
  34 H :    0.104646
  35 H :    0.117180
  36 H :    0.120296
  37 H :    0.115053
  38 H :    0.117188
  39 O :   -0.270584

  Mayer bond orders larger than 0.100000
B(  0-C ,  1-N ) :   0.7594 B(  0-C ,  9-C ) :   0.1597 B(  0-C , 12-H ) :  -0.2455
B(  0-C , 17-C ) :   0.5684 B(  0-C , 18-H ) :   0.7422 B(  0-C , 19-H ) :   0.8064
B(  1-N ,  7-C ) :   0.9629 B(  1-N , 12-H ) :   1.0485 B(  1-N , 17-C ) :   0.1078
B(  1-N , 39-O ) :  -0.1256 B(  2-C ,  3-C ) :   0.7597 B(  2-C , 20-C ) :   0.2021
B(  2-C , 21-C ) :   0.2872 B(  2-C , 24-H ) :   0.9167 B(  2-C , 25-H ) :   0.8482
B(  3-C ,  4-H ) :   0.7808 B(  3-C ,  5-H ) :   0.8008 B(  3-C ,  6-S ) :   0.9681
B(  6-S , 15-O ) :   1.4801 B(  6-S , 16-F ) :   0.9220 B(  6-S , 39-O ) :   1.6640
B(  7-C ,  8-N ) :   0.8313 B(  7-C ,  9-C ) :   0.7760 B(  7-C , 11-H ) :  -0.1241
B(  7-C , 12-H ) :  -0.3035 B(  8-N , 13-H ) :   0.9044 B(  8-N , 14-H ) :   1.0674
B(  9-C , 10-H ) :   1.0935 B(  9-C , 11-H ) :   1.0039 B( 15-O , 39-O ) :   0.1198
B( 17-C , 26-C ) :   0.6803 B( 17-C , 27-H ) :   0.8949 B( 17-C , 28-H ) :   0.8025
B( 20-C , 21-C ) :   0.3184 B( 20-C , 32-C ) :   0.6643 B( 20-C , 35-H ) :   0.9204
B( 20-C , 36-H ) :   0.8596 B( 21-C , 22-H ) :   0.9390 B( 21-C , 23-H ) :   1.0393
B( 21-C , 29-C ) :   0.1375 B( 21-C , 39-O ) :   0.1535 B( 22-H , 23-H ) :   0.1949
B( 23-H , 39-O ) :  -0.2086 B( 26-C , 29-C ) :   0.1589 B( 26-C , 30-H ) :   0.9641
B( 26-C , 31-H ) :   0.9921 B( 26-C , 34-H ) :  -0.1352 B( 29-C , 32-C ) :   0.6488
B( 29-C , 33-H ) :   0.9053 B( 29-C , 34-H ) :   1.0297 B( 32-C , 37-H ) :   0.9453
B( 32-C , 38-H ) :   0.9447

FINAL SINGLE POINT ENERGY     -1189.149162505495

DIPOLE MOMENT
-------------
                                X             Y             Z
Electronic contribution:    -21.14950       1.26960     -21.86867
Nuclear contribution   :     20.11362      -4.34709      20.52383
                        -----------------------------------------
Total Dipole Moment    :     -1.03588      -3.07749      -1.34484
                        -----------------------------------------
Magnitude (a.u.)       :      3.51462
Magnitude (Debye)      :      8.93347

Rotational constants in cm-1:     0.014449     0.012108     0.007447
Rotational constants in MHz :   433.168496   362.988632   223.260798

                             ****ORCA TERMINATED NORMALLY****
TOTAL RUN TIME: 0 days 0 hours 15 minutes 6 seconds 448 msec
