                         Program Version 5.0.0 -  RELEASE  -
|  1> !LC-BLYP RIJCOSX def2-TZVPD def2/J TightSCF xyzfile
|  2>
|  3> *xyzfile 0 1 D7.xyz
|  4>
|  5> %MaxCore 64000
|  6>
|  7> %pal nprocs 4
|  8> end
|  9>
| 10> %scf
| 11>   MaxIter 150
| 12> end
| 13>
| 14>
| 15>                          ****END OF INPUT****

CARTESIAN COORDINATES (ANGSTROEM)
---------------------------------
  C      4.490588    1.155899   -2.469290
  C      4.305394    1.222762   -3.908317
  C      4.906458   -3.102816   -5.954844
  C      3.511771   -2.806215   -6.492283
  H      2.736044   -3.373445   -5.973736
  H      3.444904   -3.040831   -7.555281
  S      3.004618   -1.096206   -6.389259
  C      4.631918    2.246365   -4.670958
  N      4.541686    2.143990   -5.987139
  N      5.084086    3.393584   -4.118545
  H      4.920675    3.570501   -3.135870
  H      5.254652    4.197390   -4.706956
  H      3.824530    0.449113   -4.350926
  H      4.343373    1.249318   -6.416646
  H      4.676712    2.956624   -6.574113
  O      4.128856   -0.329647   -6.953717
  O      1.781285   -1.000779   -7.136399
  C      5.942129    0.939500   -2.036893
  H      3.864305    0.328532   -2.136611
  H      4.076233    2.049994   -1.989010
  C      6.462677   -3.117775   -3.944671
  C      5.024977   -3.025679   -4.437625
  H      4.423321   -3.818693   -3.977648
  H      4.579350   -2.087131   -4.108727
  H      5.201533   -4.100207   -6.296905
  H      5.605922   -2.397822   -6.413368
  C      6.559957   -0.356290   -2.559086
  H      5.967976    0.952567   -0.942444
  H      6.547184    1.788331   -2.368849
  C      6.006283   -1.615917   -1.899301
  H      7.642360   -0.318000   -2.402059
  H      6.414855   -0.403433   -3.642587
  C      6.608718   -2.917014   -2.435655
  H      6.190324   -1.561115   -0.820948
  H      4.919250   -1.651245   -2.016586
  H      7.066975   -2.374258   -4.475514
  H      6.887808   -4.089747   -4.215332
  H      6.135197   -3.755573   -1.915159
  H      7.671142   -2.955503   -2.172291
  F      2.851546   -0.783683   -4.956789

 Total Charge           Charge          ....    0
 Multiplicity           Mult            ....    1
 Number of Electrons    NEL             ....  144
 Basis Dimension        Dim             ....  854

ORBITAL ENERGIES
----------------

  NO   OCC          E(Eh)            E(eV)
   0   2.0000     -88.529873     -2409.0203
   1   2.0000     -24.566935      -668.5003
   2   2.0000     -18.965338      -516.0731
   3   2.0000     -18.961067      -515.9569
   4   2.0000     -14.160071      -385.3151
   5   2.0000     -14.137413      -384.6986
   6   2.0000     -10.135950      -275.8132
   7   2.0000     -10.100749      -274.8553
   8   2.0000     -10.095641      -274.7164
   9   2.0000     -10.076987      -274.2088
  10   2.0000     -10.067120      -273.9402
  11   2.0000     -10.060924      -273.7717
  12   2.0000     -10.052975      -273.5554
  13   2.0000     -10.044240      -273.3177
  14   2.0000     -10.039967      -273.2014
  15   2.0000     -10.036520      -273.1076
  16   2.0000      -9.973461      -271.3917
  17   2.0000      -8.072833      -219.6730
  18   2.0000      -6.104663      -166.1163
  19   2.0000      -6.097830      -165.9304
  20   2.0000      -6.097244      -165.9144
  21   2.0000      -1.451144       -39.4876
  22   2.0000      -1.219491       -33.1840
  23   2.0000      -1.125273       -30.6202
  24   2.0000      -1.045286       -28.4437
  25   2.0000      -0.957700       -26.0603
  26   2.0000      -0.952518       -25.9193
  27   2.0000      -0.921425       -25.0732
  28   2.0000      -0.892273       -24.2800
  29   2.0000      -0.865861       -23.5613
  30   2.0000      -0.828878       -22.5549
  31   2.0000      -0.816058       -22.2061
  32   2.0000      -0.779283       -21.2054
  33   2.0000      -0.753140       -20.4940
  34   2.0000      -0.733472       -19.9588
  35   2.0000      -0.701583       -19.0910
  36   2.0000      -0.695332       -18.9209
  37   2.0000      -0.687470       -18.7070
  38   2.0000      -0.681990       -18.5579
  39   2.0000      -0.658684       -17.9237
  40   2.0000      -0.653601       -17.7854
  41   2.0000      -0.630683       -17.1618
  42   2.0000      -0.607846       -16.5403
  43   2.0000      -0.594277       -16.1711
  44   2.0000      -0.591842       -16.1048
  45   2.0000      -0.584241       -15.8980
  46   2.0000      -0.580403       -15.7936
  47   2.0000      -0.565350       -15.3840
  48   2.0000      -0.554727       -15.0949
  49   2.0000      -0.544819       -14.8253
  50   2.0000      -0.533654       -14.5215
  51   2.0000      -0.528390       -14.3782
  52   2.0000      -0.526450       -14.3254
  53   2.0000      -0.509613       -13.8673
  54   2.0000      -0.498525       -13.5656
  55   2.0000      -0.487940       -13.2775
  56   2.0000      -0.478895       -13.0314
  57   2.0000      -0.472943       -12.8694
  58   2.0000      -0.469691       -12.7810
  59   2.0000      -0.456124       -12.4118
  60   2.0000      -0.448273       -12.1981
  61   2.0000      -0.442662       -12.0454
  62   2.0000      -0.437569       -11.9069
  63   2.0000      -0.431577       -11.7438
  64   2.0000      -0.426774       -11.6131
  65   2.0000      -0.424886       -11.5617
  66   2.0000      -0.417771       -11.3681
  67   2.0000      -0.401796       -10.9334
  68   2.0000      -0.395413       -10.7597
  69   2.0000      -0.389999       -10.6124
  70   2.0000      -0.347469        -9.4551
  71   2.0000      -0.242405        -6.5962
  72   0.0000       0.033169         0.9026
  73   0.0000       0.046566         1.2671
  74   0.0000       0.051447         1.3999
  75   0.0000       0.055509         1.5105
  76   0.0000       0.067655         1.8410

MULLIKEN ATOMIC CHARGES
-----------------------
   0 C :   -1.474991
   1 C :   -0.732970
   2 C :   -0.853070
   3 C :   -1.057617
   4 H :    0.451624
   5 H :    0.483305
   6 S :    1.323084
   7 C :    0.561953
   8 N :   -0.288588
   9 N :   -0.351385
  10 H :    0.198755
  11 H :    0.137138
  12 H :    0.680007
  13 H :    0.183581
  14 H :    0.123307
  15 O :   -0.747568
  16 O :   -0.539733
  17 C :   -0.891223
  18 H :    0.448781
  19 H :    0.499426
  20 C :   -1.008881
  21 C :   -0.308227
  22 H :    0.330602
  23 H :    0.310862
  24 H :    0.428056
  25 H :    0.454578
  26 C :   -0.612556
  27 H :    0.434341
  28 H :    0.496233
  29 C :   -0.847628
  30 H :    0.361684
  31 H :    0.402842
  32 C :   -0.943255
  33 H :    0.410253
  34 H :    0.382751
  35 H :    0.462067
  36 H :    0.437391
  37 H :    0.408712
  38 H :    0.420075
  39 F :   -0.173717
Sum of atomic charges:   -0.0000000

LOEWDIN ATOMIC CHARGES
----------------------
   0 C :   -0.237222
   1 C :   -0.151448
   2 C :   -0.234138
   3 C :   -0.231868
   4 H :    0.119782
   5 H :    0.122009
   6 S :    0.609460
   7 C :   -0.526021
   8 N :    0.130214
   9 N :    0.138787
  10 H :    0.094485
  11 H :    0.096936
  12 H :    0.024041
  13 H :    0.025971
  14 H :    0.103694
  15 O :   -0.267695
  16 O :   -0.233859
  17 C :   -0.217039
  18 H :    0.108700
  19 H :    0.109145
  20 C :   -0.226004
  21 C :   -0.229294
  22 H :    0.136154
  23 H :    0.091586
  24 H :    0.129703
  25 H :    0.121863
  26 C :   -0.223444
  27 H :    0.112660
  28 H :    0.109175
  29 C :   -0.230949
  30 H :    0.122197
  31 H :    0.108795
  32 C :   -0.223018
  33 H :    0.120951
  34 H :    0.104266
  35 H :    0.117405
  36 H :    0.121109
  37 H :    0.114865
  38 H :    0.116747
  39 F :   -0.078700

  Mayer bond orders larger than 0.100000
B(  0-C ,  1-C ) :   0.1359 B(  0-C ,  7-C ) :   0.1475 B(  0-C , 17-C ) :   0.4732
B(  0-C , 18-H ) :   0.9110 B(  0-C , 19-H ) :   0.8483 B(  1-C ,  7-C ) :   1.2415
B(  1-C , 17-C ) :  -0.1498 B(  1-C , 19-H ) :  -0.1255 B(  1-C , 31-H ) :  -0.1130
B(  1-C , 39-F ) :   0.4128 B(  2-C ,  3-C ) :   0.6472 B(  2-C , 20-C ) :   0.2014
B(  2-C , 21-C ) :   0.2849 B(  2-C , 23-H ) :  -0.1097 B(  2-C , 24-H ) :   0.9109
B(  2-C , 25-H ) :   0.8680 B(  3-C ,  4-H ) :   0.8488 B(  3-C ,  5-H ) :   0.8612
B(  3-C ,  6-S ) :   1.0054 B(  3-C , 16-O ) :   0.1383 B(  6-S , 15-O ) :   1.3879
B(  6-S , 16-O ) :   1.4841 B(  6-S , 39-F ) :   1.0201 B(  7-C ,  8-N ) :   0.8076
B(  7-C ,  9-N ) :   0.9518 B(  7-C , 12-H ) :   0.3225 B(  7-C , 26-C ) :   0.1114
B(  8-N , 12-H ) :   0.1326 B(  8-N , 13-H ) :   0.9393 B(  8-N , 14-H ) :   1.0857
B(  9-N , 10-H ) :   0.9775 B(  9-N , 11-H ) :   1.0636 B(  9-N , 17-C ) :   0.1321
B( 12-H , 15-O ) :   0.1726 B( 12-H , 39-F ) :  -0.5472 B( 17-C , 26-C ) :   0.6535
B( 17-C , 27-H ) :   0.9140 B( 17-C , 28-H ) :   0.8196 B( 20-C , 21-C ) :   0.3622
B( 20-C , 32-C ) :   0.6575 B( 20-C , 35-H ) :   0.9169 B( 20-C , 36-H ) :   0.8620
B( 21-C , 22-H ) :   0.9426 B( 21-C , 23-H ) :   1.0253 B( 21-C , 29-C ) :   0.1319
B( 21-C , 39-F ) :   0.1175 B( 22-H , 23-H ) :   0.2012 B( 23-H , 39-F ) :  -0.1266
B( 26-C , 29-C ) :   0.1526 B( 26-C , 30-H ) :   0.9801 B( 26-C , 31-H ) :   1.0006
B( 26-C , 34-H ) :  -0.1482 B( 29-C , 31-H ) :  -0.1015 B( 29-C , 32-C ) :   0.6467
B( 29-C , 33-H ) :   0.9065 B( 29-C , 34-H ) :   1.0320 B( 32-C , 37-H ) :   0.9465
B( 32-C , 38-H ) :   0.9467

FINAL SINGLE POINT ENERGY     -1189.161930198048

DIPOLE MOMENT
-------------
                                X             Y             Z
Electronic contribution:    -18.41696       3.99955     -17.97909
Nuclear contribution   :     18.74089      -4.92611      17.99644
                        -----------------------------------------
Total Dipole Moment    :      0.32393      -0.92656       0.01735
                        -----------------------------------------
Magnitude (a.u.)       :      0.98171
Magnitude (Debye)      :      2.49530

Rotational constants in cm-1:     0.014210     0.012324     0.007480
Rotational constants in MHz :   425.991442   369.455467   224.259162

                             ****ORCA TERMINATED NORMALLY****
TOTAL RUN TIME: 0 days 0 hours 14 minutes 25 seconds 715 msec
