                         Program Version 5.0.0 -  RELEASE  -
|  1> !LC-BLYP RIJCOSX def2-TZVPD def2/J TightSCF xyzfile
|  2>
|  3> *xyzfile 0 1 D8.xyz
|  4>
|  5> %MaxCore 64000
|  6>
|  7> %pal nprocs 4
|  8> end
|  9>
| 10> %scf
| 11>   MaxIter 150
| 12> end
| 13>
| 14>
| 15>                          ****END OF INPUT****

CARTESIAN COORDINATES (ANGSTROEM)
---------------------------------
  C      4.490588    1.155899   -2.469290
  N      4.305394    1.222762   -3.908317
  C      4.906458   -3.102816   -5.954844
  C      3.511771   -2.806215   -6.492283
  H      2.736044   -3.373445   -5.973736
  H      3.444904   -3.040831   -7.555281
  S      3.004618   -1.096206   -6.389259
  C      4.631918    2.246365   -4.670958
  C      4.541686    2.143990   -5.987139
  N      5.084086    3.393584   -4.118545
  H      4.920675    3.570501   -3.135870
  H      5.254652    4.197390   -4.706956
  H      3.824530    0.449113   -4.350926
  H      4.343373    1.249318   -6.416646
  H      4.676712    2.956624   -6.574113
  O      4.128856   -0.329647   -6.953717
  O      1.781285   -1.000779   -7.136399
  C      5.942129    0.939500   -2.036893
  H      3.864305    0.328532   -2.136611
  H      4.076233    2.049994   -1.989010
  C      6.462677   -3.117775   -3.944671
  C      5.024977   -3.025679   -4.437625
  H      4.423321   -3.818693   -3.977648
  H      4.579350   -2.087131   -4.108727
  H      5.201533   -4.100207   -6.296905
  H      5.605922   -2.397822   -6.413368
  C      6.559957   -0.356290   -2.559086
  H      5.967976    0.952567   -0.942444
  H      6.547184    1.788331   -2.368849
  C      6.006283   -1.615917   -1.899301
  H      7.642360   -0.318000   -2.402059
  H      6.414855   -0.403433   -3.642587
  C      6.608718   -2.917014   -2.435655
  H      6.190324   -1.561115   -0.820948
  H      4.919250   -1.651245   -2.016586
  H      7.066975   -2.374258   -4.475514
  H      6.887808   -4.089747   -4.215332
  H      6.135197   -3.755573   -1.915159
  H      7.671142   -2.955503   -2.172291
  F      2.851546   -0.783683   -4.956789

 Total Charge           Charge          ....    0
 Multiplicity           Mult            ....    1
 Number of Electrons    NEL             ....  144
 Basis Dimension        Dim             ....  854

ORBITAL ENERGIES
----------------

  NO   OCC          E(Eh)            E(eV)
   0   2.0000     -88.524828     -2408.8830
   1   2.0000     -24.578476      -668.8143
   2   2.0000     -18.961866      -515.9786
   3   2.0000     -18.948293      -515.6093
   4   2.0000     -14.155117      -385.1803
   5   2.0000     -14.154609      -385.1665
   6   2.0000     -10.135083      -275.7896
   7   2.0000     -10.100874      -274.8588
   8   2.0000     -10.097477      -274.7663
   9   2.0000     -10.097344      -274.7627
  10   2.0000     -10.083861      -274.3958
  11   2.0000     -10.074121      -274.1308
  12   2.0000     -10.070394      -274.0293
  13   2.0000     -10.066898      -273.9342
  14   2.0000     -10.062165      -273.8054
  15   2.0000     -10.061206      -273.7793
  16   2.0000      -9.949785      -270.7474
  17   2.0000      -8.068109      -219.5444
  18   2.0000      -6.100209      -165.9951
  19   2.0000      -6.092729      -165.7916
  20   2.0000      -6.092440      -165.7837
  21   2.0000      -1.460905       -39.7532
  22   2.0000      -1.214246       -33.0413
  23   2.0000      -1.116626       -30.3849
  24   2.0000      -1.057734       -28.7824
  25   2.0000      -0.972206       -26.4551
  26   2.0000      -0.959041       -26.0968
  27   2.0000      -0.928213       -25.2580
  28   2.0000      -0.898992       -24.4628
  29   2.0000      -0.863015       -23.4838
  30   2.0000      -0.838940       -22.8287
  31   2.0000      -0.817856       -22.2550
  32   2.0000      -0.784709       -21.3530
  33   2.0000      -0.761394       -20.7186
  34   2.0000      -0.741731       -20.1835
  35   2.0000      -0.718363       -19.5477
  36   2.0000      -0.706395       -19.2220
  37   2.0000      -0.695806       -18.9338
  38   2.0000      -0.679039       -18.4776
  39   2.0000      -0.666958       -18.1489
  40   2.0000      -0.663092       -18.0436
  41   2.0000      -0.624615       -16.9966
  42   2.0000      -0.611369       -16.6362
  43   2.0000      -0.598127       -16.2759
  44   2.0000      -0.590262       -16.0618
  45   2.0000      -0.588844       -16.0233
  46   2.0000      -0.577844       -15.7239
  47   2.0000      -0.571252       -15.5445
  48   2.0000      -0.565264       -15.3816
  49   2.0000      -0.549239       -14.9456
  50   2.0000      -0.546445       -14.8695
  51   2.0000      -0.536700       -14.6043
  52   2.0000      -0.520601       -14.1663
  53   2.0000      -0.509354       -13.8602
  54   2.0000      -0.497369       -13.5341
  55   2.0000      -0.493009       -13.4154
  56   2.0000      -0.487629       -13.2691
  57   2.0000      -0.480081       -13.0637
  58   2.0000      -0.471297       -12.8246
  59   2.0000      -0.465735       -12.6733
  60   2.0000      -0.463678       -12.6173
  61   2.0000      -0.448591       -12.2068
  62   2.0000      -0.446227       -12.1425
  63   2.0000      -0.439006       -11.9459
  64   2.0000      -0.436117       -11.8674
  65   2.0000      -0.422475       -11.4961
  66   2.0000      -0.418975       -11.4009
  67   2.0000      -0.415810       -11.3148
  68   2.0000      -0.410128       -11.1601
  69   2.0000      -0.392962       -10.6930
  70   2.0000      -0.341498        -9.2926
  71   2.0000      -0.239127        -6.5070
  72   0.0000       0.030470         0.8291
  73   0.0000       0.043574         1.1857
  74   0.0000       0.051238         1.3942
  75   0.0000       0.054609         1.4860
  76   0.0000       0.065531         1.7832

MULLIKEN ATOMIC CHARGES
-----------------------
   0 C :   -1.204755
   1 N :   -0.145885
   2 C :   -0.835352
   3 C :   -1.072415
   4 H :    0.446227
   5 H :    0.485087
   6 S :    1.220959
   7 C :    1.043495
   8 C :   -1.522345
   9 N :   -0.380529
  10 H :    0.182236
  11 H :    0.179846
  12 H :    0.072992
  13 H :    0.457774
  14 H :    0.229949
  15 O :   -0.606645
  16 O :   -0.539597
  17 C :   -0.819708
  18 H :    0.485310
  19 H :    0.488920
  20 C :   -1.012910
  21 C :   -0.345964
  22 H :    0.341303
  23 H :    0.291522
  24 H :    0.428911
  25 H :    0.455284
  26 C :   -0.567096
  27 H :    0.473722
  28 H :    0.528552
  29 C :   -0.846919
  30 H :    0.364359
  31 H :    0.374328
  32 C :   -0.944455
  33 H :    0.408707
  34 H :    0.393572
  35 H :    0.455356
  36 H :    0.444120
  37 H :    0.413760
  38 H :    0.423602
  39 F :   -0.245316
Sum of atomic charges:    0.0000000

LOEWDIN ATOMIC CHARGES
----------------------
   0 C :   -0.203873
   1 N :    0.033988
   2 C :   -0.233722
   3 C :   -0.233958
   4 H :    0.117954
   5 H :    0.122764
   6 S :    0.602594
   7 C :   -0.548367
   8 C :    0.009019
   9 N :    0.125850
  10 H :    0.084466
  11 H :    0.106688
  12 H :    0.081641
  13 H :   -0.047640
  14 H :    0.020265
  15 O :   -0.269384
  16 O :   -0.232610
  17 C :   -0.202452
  18 H :    0.117588
  19 H :    0.115906
  20 C :   -0.224775
  21 C :   -0.230801
  22 H :    0.136363
  23 H :    0.088382
  24 H :    0.130086
  25 H :    0.123060
  26 C :   -0.220884
  27 H :    0.117293
  28 H :    0.110387
  29 C :   -0.232912
  30 H :    0.124837
  31 H :    0.111352
  32 C :   -0.221349
  33 H :    0.121615
  34 H :    0.102509
  35 H :    0.118316
  36 H :    0.122565
  37 H :    0.116027
  38 H :    0.117973
  39 F :   -0.076764

  Mayer bond orders larger than 0.100000
B(  0-C ,  1-N ) :   0.7330 B(  0-C ,  7-C ) :  -0.1644 B(  0-C ,  9-N ) :   0.1316
B(  0-C , 12-H ) :  -0.1817 B(  0-C , 17-C ) :   0.5278 B(  0-C , 18-H ) :   0.7314
B(  0-C , 19-H ) :   0.8096 B(  1-N ,  7-C ) :   0.9412 B(  1-N , 12-H ) :   1.0809
B(  2-C ,  3-C ) :   0.6465 B(  2-C , 20-C ) :   0.2119 B(  2-C , 21-C ) :   0.2897
B(  2-C , 23-H ) :  -0.1048 B(  2-C , 24-H ) :   0.9012 B(  2-C , 25-H ) :   0.8739
B(  3-C ,  4-H ) :   0.8537 B(  3-C ,  5-H ) :   0.8593 B(  3-C ,  6-S ) :   1.0226
B(  3-C , 16-O ) :   0.1247 B(  6-S , 15-O ) :   1.4902 B(  6-S , 16-O ) :   1.5076
B(  6-S , 39-F ) :   1.0225 B(  7-C ,  8-C ) :   0.3606 B(  7-C ,  9-N ) :   0.8391
B(  7-C , 12-H ) :  -0.2680 B(  7-C , 13-H ) :  -0.1438 B(  7-C , 14-H ) :  -0.2540
B(  8-C , 12-H ) :   0.1544 B(  8-C , 13-H ) :   1.0644 B(  8-C , 14-H ) :   1.2356
B(  8-C , 15-O ) :   0.1329 B(  9-N , 10-H ) :   1.0151 B(  9-N , 11-H ) :   1.0146
B( 13-H , 15-O ) :  -0.3550 B( 17-C , 26-C ) :   0.7178 B( 17-C , 27-H ) :   0.9148
B( 17-C , 28-H ) :   0.7671 B( 20-C , 21-C ) :   0.3490 B( 20-C , 32-C ) :   0.6675
B( 20-C , 35-H ) :   0.9240 B( 20-C , 36-H ) :   0.8551 B( 21-C , 22-H ) :   0.9449
B( 21-C , 23-H ) :   1.0518 B( 21-C , 29-C ) :   0.1362 B( 21-C , 39-F ) :   0.1108
B( 22-H , 23-H ) :   0.1851 B( 23-H , 39-F ) :  -0.1334 B( 26-C , 29-C ) :   0.1276
B( 26-C , 30-H ) :   0.9617 B( 26-C , 31-H ) :   0.9606 B( 26-C , 34-H ) :  -0.1401
B( 29-C , 32-C ) :   0.6734 B( 29-C , 33-H ) :   0.9072 B( 29-C , 34-H ) :   1.0237
B( 32-C , 37-H ) :   0.9343 B( 32-C , 38-H ) :   0.9388

FINAL SINGLE POINT ENERGY     -1189.139028716307

DIPOLE MOMENT
-------------
                                X             Y             Z
Electronic contribution:    -18.44230       3.14778     -16.17059
Nuclear contribution   :     18.77618      -4.78855      17.68602
                        -----------------------------------------
Total Dipole Moment    :      0.33388      -1.64077       1.51543
                        -----------------------------------------
Magnitude (a.u.)       :      2.25835
Magnitude (Debye)      :      5.74026

Rotational constants in cm-1:     0.014368     0.012319     0.007509
Rotational constants in MHz :   430.738566   369.302170   225.105103

                             ****ORCA TERMINATED NORMALLY****
TOTAL RUN TIME: 0 days 0 hours 14 minutes 30 seconds 964 msec
