                         Program Version 5.0.0 -  RELEASE  -
|  1> !LC-BLYP RIJCOSX def2-TZVPD def2/J TightSCF xyzfile
|  2>
|  3> *xyzfile 0 1 D9.xyz
|  4>
|  5> %MaxCore 64000
|  6>
|  7> %pal nprocs 4
|  8> end
|  9>
| 10> %scf
| 11>   MaxIter 150
| 12> end
| 13>
| 14>
| 15>                          ****END OF INPUT****

CARTESIAN COORDINATES (ANGSTROEM)
---------------------------------
  C      4.490588    1.155899   -2.469290
  N      4.305394    1.222762   -3.908317
  C      4.906458   -3.102816   -5.954844
  C      3.511771   -2.806215   -6.492283
  H      2.736044   -3.373445   -5.973736
  H      3.444904   -3.040831   -7.555281
  S      3.004618   -1.096206   -6.389259
  C      4.631918    2.246365   -4.670958
  N      4.541686    2.143990   -5.987139
  C      5.084086    3.393584   -4.118545
  H      4.920675    3.570501   -3.135870
  H      5.254652    4.197390   -4.706956
  H      3.824530    0.449113   -4.350926
  H      4.343373    1.249318   -6.416646
  H      4.676712    2.956624   -6.574113
  O      4.128856   -0.329647   -6.953717
  O      1.781285   -1.000779   -7.136399
  C      5.942129    0.939500   -2.036893
  H      3.864305    0.328532   -2.136611
  H      4.076233    2.049994   -1.989010
  C      6.462677   -3.117775   -3.944671
  C      5.024977   -3.025679   -4.437625
  H      4.423321   -3.818693   -3.977648
  H      4.579350   -2.087131   -4.108727
  H      5.201533   -4.100207   -6.296905
  H      5.605922   -2.397822   -6.413368
  C      6.559957   -0.356290   -2.559086
  H      5.967976    0.952567   -0.942444
  H      6.547184    1.788331   -2.368849
  C      6.006283   -1.615917   -1.899301
  H      7.642360   -0.318000   -2.402059
  H      6.414855   -0.403433   -3.642587
  C      6.608718   -2.917014   -2.435655
  H      6.190324   -1.561115   -0.820948
  H      4.919250   -1.651245   -2.016586
  H      7.066975   -2.374258   -4.475514
  H      6.887808   -4.089747   -4.215332
  H      6.135197   -3.755573   -1.915159
  H      7.671142   -2.955503   -2.172291
  F      2.851546   -0.783683   -4.956789

 Total Charge           Charge          ....    0
 Multiplicity           Mult            ....    1
 Number of Electrons    NEL             ....  144
 Basis Dimension        Dim             ....  854

ORBITAL ENERGIES
----------------

  NO   OCC          E(Eh)            E(eV)
   0   2.0000     -88.544689     -2409.4235
   1   2.0000     -24.593205      -669.2151
   2   2.0000     -18.979384      -516.4553
   3   2.0000     -18.975346      -516.3454
   4   2.0000     -14.159050      -385.2873
   5   2.0000     -14.136267      -384.6674
   6   2.0000     -10.148524      -276.1554
   7   2.0000     -10.106945      -275.0239
   8   2.0000     -10.101351      -274.8717
   9   2.0000     -10.093164      -274.6490
  10   2.0000     -10.089791      -274.5572
  11   2.0000     -10.077518      -274.2232
  12   2.0000     -10.071074      -274.0479
  13   2.0000     -10.065195      -273.8879
  14   2.0000     -10.057437      -273.6768
  15   2.0000     -10.052814      -273.5510
  16   2.0000      -9.963734      -271.1270
  17   2.0000      -8.087943      -220.0841
  18   2.0000      -6.120009      -166.5339
  19   2.0000      -6.112759      -166.3366
  20   2.0000      -6.112156      -166.3202
  21   2.0000      -1.476056       -40.1655
  22   2.0000      -1.234466       -33.5915
  23   2.0000      -1.139438       -31.0057
  24   2.0000      -1.057414       -28.7737
  25   2.0000      -0.972374       -26.4596
  26   2.0000      -0.968525       -26.3549
  27   2.0000      -0.931113       -25.3369
  28   2.0000      -0.897189       -24.4138
  29   2.0000      -0.864954       -23.5366
  30   2.0000      -0.842722       -22.9316
  31   2.0000      -0.809768       -22.0349
  32   2.0000      -0.797431       -21.6992
  33   2.0000      -0.772864       -21.0307
  34   2.0000      -0.750199       -20.4139
  35   2.0000      -0.721234       -19.6258
  36   2.0000      -0.712082       -19.3767
  37   2.0000      -0.705972       -19.2105
  38   2.0000      -0.686942       -18.6926
  39   2.0000      -0.673054       -18.3147
  40   2.0000      -0.643581       -17.5127
  41   2.0000      -0.632776       -17.2187
  42   2.0000      -0.622840       -16.9483
  43   2.0000      -0.614680       -16.7263
  44   2.0000      -0.600883       -16.3509
  45   2.0000      -0.599000       -16.2996
  46   2.0000      -0.580592       -15.7987
  47   2.0000      -0.578617       -15.7450
  48   2.0000      -0.559747       -15.2315
  49   2.0000      -0.555901       -15.1268
  50   2.0000      -0.544244       -14.8096
  51   2.0000      -0.541402       -14.7323
  52   2.0000      -0.524239       -14.2653
  53   2.0000      -0.515026       -14.0146
  54   2.0000      -0.501793       -13.6545
  55   2.0000      -0.494601       -13.4588
  56   2.0000      -0.487190       -13.2571
  57   2.0000      -0.479893       -13.0586
  58   2.0000      -0.472690       -12.8626
  59   2.0000      -0.466014       -12.6809
  60   2.0000      -0.461709       -12.5637
  61   2.0000      -0.456463       -12.4210
  62   2.0000      -0.450530       -12.2596
  63   2.0000      -0.445583       -12.1249
  64   2.0000      -0.442550       -12.0424
  65   2.0000      -0.436947       -11.8899
  66   2.0000      -0.433133       -11.7861
  67   2.0000      -0.417003       -11.3472
  68   2.0000      -0.414265       -11.2727
  69   2.0000      -0.405699       -11.0396
  70   2.0000      -0.330206        -8.9854
  71   2.0000      -0.242752        -6.6056
  72   0.0000       0.024162         0.6575
  73   0.0000       0.038719         1.0536
  74   0.0000       0.047205         1.2845
  75   0.0000       0.053449         1.4544
  76   0.0000       0.063823         1.7367

MULLIKEN ATOMIC CHARGES
-----------------------
   0 C :   -1.178890
   1 N :   -0.197342
   2 C :   -0.835965
   3 C :   -1.052503
   4 H :    0.456455
   5 H :    0.486173
   6 S :    1.241253
   7 C :    0.822646
   8 N :   -0.240215
   9 C :   -1.341610
  10 H :    0.295724
  11 H :    0.386873
  12 H :    0.140019
  13 H :    0.231025
  14 H :    0.133263
  15 O :   -0.741841
  16 O :   -0.531135
  17 C :   -0.890449
  18 H :    0.477491
  19 H :    0.503294
  20 C :   -1.002598
  21 C :   -0.342572
  22 H :    0.348360
  23 H :    0.287641
  24 H :    0.425901
  25 H :    0.454033
  26 C :   -0.517552
  27 H :    0.464197
  28 H :    0.538833
  29 C :   -0.834935
  30 H :    0.364034
  31 H :    0.322183
  32 C :   -0.953931
  33 H :    0.410985
  34 H :    0.382071
  35 H :    0.459953
  36 H :    0.441772
  37 H :    0.408160
  38 H :    0.422197
  39 F :   -0.242999
Sum of atomic charges:   -0.0000000

LOEWDIN ATOMIC CHARGES
----------------------
   0 C :   -0.199882
   1 N :    0.033651
   2 C :   -0.233034
   3 C :   -0.230039
   4 H :    0.120670
   5 H :    0.124032
   6 S :    0.609609
   7 C :   -0.556644
   8 N :    0.134901
   9 C :   -0.002746
  10 H :   -0.000972
  11 H :    0.006628
  12 H :    0.077137
  13 H :    0.020296
  14 H :    0.115946
  15 O :   -0.266513
  16 O :   -0.226762
  17 C :   -0.197889
  18 H :    0.116377
  19 H :    0.120925
  20 C :   -0.224769
  21 C :   -0.230592
  22 H :    0.137027
  23 H :    0.088334
  24 H :    0.131400
  25 H :    0.122678
  26 C :   -0.221895
  27 H :    0.119030
  28 H :    0.109953
  29 C :   -0.233289
  30 H :    0.124798
  31 H :    0.108670
  32 C :   -0.221351
  33 H :    0.122105
  34 H :    0.101906
  35 H :    0.118034
  36 H :    0.122601
  37 H :    0.115861
  38 H :    0.118336
  39 F :   -0.074528

  Mayer bond orders larger than 0.100000
B(  0-C ,  1-N ) :   0.7542 B(  0-C ,  9-C ) :   0.1606 B(  0-C , 12-H ) :  -0.2315
B(  0-C , 17-C ) :   0.5957 B(  0-C , 18-H ) :   0.7201 B(  0-C , 19-H ) :   0.8106
B(  1-N ,  7-C ) :   0.9799 B(  1-N , 12-H ) :   1.0562 B(  1-N , 17-C ) :   0.1070
B(  2-C ,  3-C ) :   0.6515 B(  2-C , 20-C ) :   0.2055 B(  2-C , 21-C ) :   0.2699
B(  2-C , 23-H ) :  -0.1045 B(  2-C , 24-H ) :   0.9075 B(  2-C , 25-H ) :   0.8769
B(  3-C ,  4-H ) :   0.8434 B(  3-C ,  5-H ) :   0.8597 B(  3-C ,  6-S ) :   1.0051
B(  3-C , 16-O ) :   0.1290 B(  6-S , 15-O ) :   1.4345 B(  6-S , 16-O ) :   1.5261
B(  6-S , 39-F ) :   1.0449 B(  7-C ,  8-N ) :   0.8175 B(  7-C ,  9-C ) :   0.7848
B(  7-C , 11-H ) :  -0.1263 B(  7-C , 12-H ) :  -0.2826 B(  7-C , 13-H ) :  -0.1019
B(  8-N , 13-H ) :   0.9094 B(  8-N , 14-H ) :   1.0550 B(  9-C , 10-H ) :   1.0906
B(  9-C , 11-H ) :   1.0000 B( 17-C , 26-C ) :   0.6947 B( 17-C , 27-H ) :   0.8913
B( 17-C , 28-H ) :   0.8029 B( 20-C , 21-C ) :   0.3576 B( 20-C , 32-C ) :   0.6654
B( 20-C , 35-H ) :   0.9171 B( 20-C , 36-H ) :   0.8578 B( 21-C , 22-H ) :   0.9425
B( 21-C , 23-H ) :   1.0457 B( 21-C , 29-C ) :   0.1364 B( 21-C , 39-F ) :   0.1033
B( 22-H , 23-H ) :   0.1872 B( 23-H , 39-F ) :  -0.1312 B( 26-C , 29-C ) :   0.1401
B( 26-C , 30-H ) :   0.9596 B( 26-C , 31-H ) :   0.9995 B( 26-C , 34-H ) :  -0.1411
B( 29-C , 32-C ) :   0.6577 B( 29-C , 33-H ) :   0.9064 B( 29-C , 34-H ) :   1.0349
B( 32-C , 37-H ) :   0.9464 B( 32-C , 38-H ) :   0.9411

FINAL SINGLE POINT ENERGY     -1189.155888009066

DIPOLE MOMENT
-------------
                                X             Y             Z
Electronic contribution:    -18.95456       1.82962     -17.82000
Nuclear contribution   :     18.85717      -4.60195      17.96505
                        -----------------------------------------
Total Dipole Moment    :     -0.09739      -2.77233       0.14505
                        -----------------------------------------
Magnitude (a.u.)       :      2.77783
Magnitude (Debye)      :      7.06069

Rotational constants in cm-1:     0.014436     0.012382     0.007563
Rotational constants in MHz :   432.785702   371.214592   226.743759

                             ****ORCA TERMINATED NORMALLY****
TOTAL RUN TIME: 0 days 0 hours 14 minutes 15 seconds 74 msec
