                         Program Version 5.0.0 -  RELEASE  -
|  1> !LC-PBE RIJCOSX def2-SVP def2/J TightSCF
|  2> *xyz -1 1
|  3> C         -2.79070       -0.78527        5.70281
|  4> C         -2.45380        0.05510        6.94145
|  5> C         -2.07842        1.48042        6.56410
|  6> H         -1.62558       -0.38216        7.49891
|  7> H         -3.32527        0.08775        7.59917
|  8> O         -0.90125        1.85816        6.82810
|  9> O         -2.93658        2.17731        5.96415
| 10> H         -1.94052       -0.82114        5.05412
| 11> H         -3.61590       -0.34261        5.18514
| 12> H         -3.05063       -1.77815        6.00536
| 13> *
| 14> %MaxCore 64000
| 15>
| 16> %pal nprocs 4
| 17> end
| 18>
| 19> %scf
| 20>   MaxIter 150
| 21> end
| 22>
| 23>
| 24>                          ****END OF INPUT****

CARTESIAN COORDINATES (ANGSTROEM)
---------------------------------
  C     -2.790700   -0.785270    5.702810
  C     -2.453800    0.055100    6.941450
  C     -2.078420    1.480420    6.564100
  H     -1.625580   -0.382160    7.498910
  H     -3.325270    0.087750    7.599170
  O     -0.901250    1.858160    6.828100
  O     -2.936580    2.177310    5.964150
  H     -1.940520   -0.821140    5.054120
  H     -3.615900   -0.342610    5.185140
  H     -3.050630   -1.778150    6.005360

 Total Charge           Charge          ....   -1
 Multiplicity           Mult            ....    1
 Number of Electrons    NEL             ....   40
 Basis Dimension        Dim             ....   95

ORBITAL ENERGIES
----------------

  NO   OCC          E(Eh)            E(eV)
   0   2.0000     -18.685011      -508.4450
   1   2.0000     -18.682826      -508.3855
   2   2.0000      -9.984699      -271.6975
   3   2.0000      -9.958526      -270.9853
   4   2.0000      -9.938279      -270.4343
   5   2.0000      -0.943431       -25.6721
   6   2.0000      -0.837766       -22.7968
   7   2.0000      -0.767023       -20.8718
   8   2.0000      -0.622899       -16.9500
   9   2.0000      -0.454715       -12.3734
  10   2.0000      -0.428775       -11.6676
  11   2.0000      -0.381589       -10.3836
  12   2.0000      -0.355440        -9.6720
  13   2.0000      -0.335696        -9.1347
  14   2.0000      -0.326007        -8.8711
  15   2.0000      -0.288721        -7.8565
  16   2.0000      -0.278422        -7.5762
  17   2.0000      -0.142862        -3.8875
  18   2.0000      -0.140402        -3.8205
  19   2.0000      -0.127419        -3.4673
  20   0.0000       0.305485         8.3127
  21   0.0000       0.357941         9.7401
  22   0.0000       0.372227        10.1288
  23   0.0000       0.374166        10.1816
  24   0.0000       0.383853        10.4452

MULLIKEN ATOMIC CHARGES
-----------------------
   0 C :   -0.126134
   1 C :   -0.117716
   2 C :    0.009298
   3 H :    0.007783
   4 H :    0.014197
   5 O :   -0.437932
   6 O :   -0.436772
   7 H :    0.037295
   8 H :    0.047425
   9 H :    0.002556
Sum of atomic charges:   -1.0000000

LOEWDIN ATOMIC CHARGES
----------------------
   0 C :   -0.094659
   1 C :   -0.116866
   2 C :   -0.057182
   3 H :    0.012501
   4 H :    0.017562
   5 O :   -0.410093
   6 O :   -0.408098
   7 H :    0.024178
   8 H :    0.026270
   9 H :    0.006388

  Mayer bond orders larger than 0.100000
B(  0-C ,  1-C ) :   1.0718 B(  0-C ,  7-H ) :   0.9779 B(  0-C ,  8-H ) :   0.9687
B(  0-C ,  9-H ) :   0.9786 B(  1-C ,  2-C ) :   0.9186 B(  1-C ,  3-H ) :   0.9568
B(  1-C ,  4-H ) :   0.9531 B(  2-C ,  5-O ) :   1.8838 B(  2-C ,  6-O ) :   1.8591
B(  5-O ,  6-O ) :   0.1070

FINAL SINGLE POINT ENERGY      -266.831783712981

DIPOLE MOMENT
-------------
                                X             Y             Z
Electronic contribution:      1.65904       5.62034       0.65606
Nuclear contribution   :     -2.24498      -7.51881      -0.57245
                        -----------------------------------------
Total Dipole Moment    :     -0.58594      -1.89847       0.08361
                        -----------------------------------------
Magnitude (a.u.)       :      1.98859
Magnitude (Debye)      :      5.05460

Rotational constants in cm-1:     0.305589     0.135336     0.107479
Rotational constants in MHz :  9161.317320  4057.276612  3222.126231

                             ****ORCA TERMINATED NORMALLY****
TOTAL RUN TIME: 0 days 0 hours 0 minutes 12 seconds 713 msec
