                         Program Version 5.0.0 -  RELEASE  -
|  1> !LC-PBE RIJCOSX def2-SVP def2/J TightSCF
|  2> *xyz 1 1
|  3> C         -0.69912        3.48945        3.75516
|  4> H         -0.96672        4.34901        3.14049
|  5> N         -1.08067        3.79296        5.15686
|  6> C          0.77696        3.13839        3.61741
|  7> H         -1.33146        2.65651        3.44632
|  8> H         -0.87449        4.76274        5.42734
|  9> H         -0.68079        3.13476        5.83900
| 10> H         -2.05755        3.53169        5.34620
| 11> H          0.99957        2.92898        2.59199
| 12> H          0.99576        2.27685        4.21303
| 13> H          1.37223        3.96279        3.95046
| 14> *
| 15> %MaxCore 64000
| 16>
| 17> %pal nprocs 4
| 18> end
| 19>
| 20> %scf
| 21>   MaxIter 150
| 22> end
| 23>
| 24>
| 25>                          ****END OF INPUT****

CARTESIAN COORDINATES (ANGSTROEM)
---------------------------------
  C     -0.699120    3.489450    3.755160
  H     -0.966720    4.349010    3.140490
  N     -1.080670    3.792960    5.156860
  C      0.776960    3.138390    3.617410
  H     -1.331460    2.656510    3.446320
  H     -0.874490    4.762740    5.427340
  H     -0.680790    3.134760    5.839000
  H     -2.057550    3.531690    5.346200
  H      0.999570    2.928980    2.591990
  H      0.995760    2.276850    4.213030
  H      1.372230    3.962790    3.950460

 Total Charge           Charge          ....    1
 Multiplicity           Mult            ....    1
 Number of Electrons    NEL             ....   26
 Basis Dimension        Dim             ....   82

ORBITAL ENERGIES
----------------

  NO   OCC          E(Eh)            E(eV)
   0   2.0000     -14.567928      -396.4135
   1   2.0000     -10.380484      -282.4673
   2   2.0000     -10.298681      -280.2414
   3   2.0000      -1.386610       -37.7316
   4   2.0000      -1.135743       -30.9051
   5   2.0000      -1.004941       -27.3458
   6   2.0000      -0.967037       -26.3144
   7   2.0000      -0.917213       -24.9586
   8   2.0000      -0.843660       -22.9571
   9   2.0000      -0.785637       -21.3783
  10   2.0000      -0.716509       -19.4972
  11   2.0000      -0.700381       -19.0583
  12   2.0000      -0.679651       -18.4942
  13   0.0000      -0.088042        -2.3957
  14   0.0000      -0.028366        -0.7719
  15   0.0000      -0.025462        -0.6929
  16   0.0000       0.006307         0.1716
  17   0.0000       0.047650         1.2966

MULLIKEN ATOMIC CHARGES
-----------------------
   0 C :   -0.136282
   1 H :    0.152539
   2 N :   -0.073015
   3 C :   -0.160975
   4 H :    0.143572
   5 H :    0.253980
   6 H :    0.231763
   7 H :    0.239718
   8 H :    0.140855
   9 H :    0.102410
  10 H :    0.105435
Sum of atomic charges:    1.0000000

LOEWDIN ATOMIC CHARGES
----------------------
   0 C :    0.022293
   1 H :    0.068678
   2 N :    0.270691
   3 C :   -0.076499
   4 H :    0.065296
   5 H :    0.157599
   6 H :    0.154827
   7 H :    0.159778
   8 H :    0.074778
   9 H :    0.050515
  10 H :    0.052045

  Mayer bond orders larger than 0.100000
B(  0-C ,  1-H ) :   0.9508 B(  0-C ,  2-N ) :   0.9026 B(  0-C ,  3-C ) :   1.0703
B(  0-C ,  4-H ) :   0.9546 B(  2-N ,  5-H ) :   0.9209 B(  2-N ,  6-H ) :   0.9233
B(  2-N ,  7-H ) :   0.9247 B(  3-C ,  8-H ) :   0.9581 B(  3-C ,  9-H ) :   0.9678
B(  3-C , 10-H ) :   0.9704

FINAL SINGLE POINT ENERGY      -134.979988513439

DIPOLE MOMENT
-------------
                                X             Y             Z
Electronic contribution:     -1.38021       0.58603       1.16851
Nuclear contribution   :      0.33986      -0.24565       0.10678
                        -----------------------------------------
Total Dipole Moment    :     -1.04036       0.34037       1.27529
                        -----------------------------------------
Magnitude (a.u.)       :      1.68065
Magnitude (Debye)      :      4.27186

Rotational constants in cm-1:     1.016237     0.277523     0.247812
Rotational constants in MHz : 30466.024354  8319.937961  7429.230177

                             ****ORCA TERMINATED NORMALLY****
TOTAL RUN TIME: 0 days 0 hours 0 minutes 9 seconds 517 msec
