                         Program Version 5.0.0 -  RELEASE  -
|  1> !LC-PBE RIJCOSX def2-SVP def2/J TightSCF
|  2> *xyz 0 1
|  3> C         -2.79070       -0.78527        5.70281
|  4> C         -2.45380        0.05510        6.94145
|  5> C         -2.07842        1.48042        6.56410
|  6> H         -1.62558       -0.38216        7.49891
|  7> H         -3.32527        0.08775        7.59917
|  8> F         -0.90125        1.85816        6.82810
|  9> O         -2.93658        2.17731        5.96415
| 10> H         -1.94052       -0.82114        5.05412
| 11> H         -3.61590       -0.34261        5.18514
| 12> H         -3.05063       -1.77815        6.00536
| 13> *
| 14> %MaxCore 64000
| 15>
| 16> %pal nprocs 4
| 17> end
| 18>
| 19> %scf
| 20>   MaxIter 150
| 21> end
| 22>
| 23>
| 24>                          ****END OF INPUT****

CARTESIAN COORDINATES (ANGSTROEM)
---------------------------------
  C     -2.790700   -0.785270    5.702810
  C     -2.453800    0.055100    6.941450
  C     -2.078420    1.480420    6.564100
  H     -1.625580   -0.382160    7.498910
  H     -3.325270    0.087750    7.599170
  F     -0.901250    1.858160    6.828100
  O     -2.936580    2.177310    5.964150
  H     -1.940520   -0.821140    5.054120
  H     -3.615900   -0.342610    5.185140
  H     -3.050630   -1.778150    6.005360

 Total Charge           Charge          ....    0
 Multiplicity           Mult            ....    1
 Number of Electrons    NEL             ....   40
 Basis Dimension        Dim             ....   95

ORBITAL ENERGIES
----------------

  NO   OCC          E(Eh)            E(eV)
   0   2.0000     -24.561206      -668.3444
   1   2.0000     -18.988926      -516.7150
   2   2.0000     -10.305547      -280.4282
   3   2.0000     -10.157231      -276.3923
   4   2.0000     -10.132483      -275.7189
   5   2.0000      -1.449615       -39.4460
   6   2.0000      -1.181897       -32.1610
   7   2.0000      -0.973733       -26.4966
   8   2.0000      -0.845221       -22.9996
   9   2.0000      -0.786582       -21.4040
  10   2.0000      -0.698023       -18.9942
  11   2.0000      -0.680883       -18.5278
  12   2.0000      -0.651114       -17.7177
  13   2.0000      -0.608396       -16.5553
  14   2.0000      -0.572527       -15.5793
  15   2.0000      -0.536080       -14.5875
  16   2.0000      -0.512850       -13.9554
  17   2.0000      -0.505690       -13.7605
  18   2.0000      -0.476495       -12.9661
  19   2.0000      -0.424399       -11.5485
  20   0.0000       0.076233         2.0744
  21   0.0000       0.154327         4.1995
  22   0.0000       0.198487         5.4011
  23   0.0000       0.202086         5.4990
  24   0.0000       0.222726         6.0607

MULLIKEN ATOMIC CHARGES
-----------------------
   0 C :   -0.139087
   1 C :   -0.199504
   2 C :    0.222248
   3 H :    0.080663
   4 H :    0.113164
   5 F :   -0.066054
   6 O :   -0.251154
   7 H :    0.071512
   8 H :    0.092474
   9 H :    0.075738
Sum of atomic charges:   -0.0000000

LOEWDIN ATOMIC CHARGES
----------------------
   0 C :   -0.072135
   1 C :   -0.100169
   2 C :    0.099790
   3 H :    0.041881
   4 H :    0.063722
   5 F :    0.042709
   6 O :   -0.199317
   7 H :    0.038207
   8 H :    0.044872
   9 H :    0.040439

  Mayer bond orders larger than 0.100000
B(  0-C ,  1-C ) :   1.0653 B(  0-C ,  7-H ) :   0.9786 B(  0-C ,  8-H ) :   0.9703
B(  0-C ,  9-H ) :   0.9755 B(  1-C ,  2-C ) :   0.9823 B(  1-C ,  3-H ) :   0.9496
B(  1-C ,  4-H ) :   0.9409 B(  2-C ,  5-F ) :   1.2216 B(  2-C ,  6-O ) :   2.0978

FINAL SINGLE POINT ENERGY      -291.359930750356

DIPOLE MOMENT
-------------
                                X             Y             Z
Electronic contribution:      3.97239       7.45270       1.49310
Nuclear contribution   :     -3.69486      -8.49563      -1.04945
                        -----------------------------------------
Total Dipole Moment    :      0.27753      -1.04293       0.44365
                        -----------------------------------------
Magnitude (a.u.)       :      1.16685
Magnitude (Debye)      :      2.96590

Rotational constants in cm-1:     0.293725     0.129218     0.102393
Rotational constants in MHz :  8805.653529  3873.869810  3069.666716

                             ****ORCA TERMINATED NORMALLY****
TOTAL RUN TIME: 0 days 0 hours 0 minutes 12 seconds 209 msec
