                         Program Version 5.0.0 -  RELEASE  -
|  1> !LC-PBE RIJCOSX def2-SVP def2/J TightSCF
|  2> *xyz 0 1
|  3> C         -0.69912        3.48945        3.75516
|  4> H         -0.96672        4.34901        3.14049
|  5> C         -1.08067        3.79296        5.15686
|  6> C          0.77696        3.13839        3.61741
|  7> H         -1.33146        2.65651        3.44632
|  8> H         -0.87449        4.76274        5.42734
|  9> H         -0.68079        3.13476        5.83900
| 10> H         -2.05755        3.53169        5.34620
| 11> H          0.99957        2.92898        2.59199
| 12> H          0.99576        2.27685        4.21303
| 13> H          1.37223        3.96279        3.95046
| 14> *
| 15> %MaxCore 64000
| 16>
| 17> %pal nprocs 4
| 18> end
| 19>
| 20> %scf
| 21>   MaxIter 150
| 22> end
| 23>
| 24>
| 25>                          ****END OF INPUT****

CARTESIAN COORDINATES (ANGSTROEM)
---------------------------------
  C     -0.699120    3.489450    3.755160
  H     -0.966720    4.349010    3.140490
  C     -1.080670    3.792960    5.156860
  C      0.776960    3.138390    3.617410
  H     -1.331460    2.656510    3.446320
  H     -0.874490    4.762740    5.427340
  H     -0.680790    3.134760    5.839000
  H     -2.057550    3.531690    5.346200
  H      0.999570    2.928980    2.591990
  H      0.995760    2.276850    4.213030
  H      1.372230    3.962790    3.950460

 Total Charge           Charge          ....    0
 Multiplicity           Mult            ....    1
 Number of Electrons    NEL             ....   26
 Basis Dimension        Dim             ....   82

ORBITAL ENERGIES
----------------

  NO   OCC          E(Eh)            E(eV)
   0   2.0000     -10.111912      -275.1591
   1   2.0000     -10.102715      -274.9088
   2   2.0000     -10.085802      -274.4486
   3   2.0000      -0.963677       -26.2230
   4   2.0000      -0.854104       -23.2414
   5   2.0000      -0.741492       -20.1770
   6   2.0000      -0.618396       -16.8274
   7   2.0000      -0.582690       -15.8558
   8   2.0000      -0.537560       -14.6278
   9   2.0000      -0.531550       -14.4642
  10   2.0000      -0.469048       -12.7634
  11   2.0000      -0.454307       -12.3623
  12   2.0000      -0.453122       -12.3301
  13   0.0000       0.155609         4.2343
  14   0.0000       0.203809         5.5459
  15   0.0000       0.208541         5.6747
  16   0.0000       0.209827         5.7097
  17   0.0000       0.241152         6.5621

MULLIKEN ATOMIC CHARGES
-----------------------
   0 C :   -0.192248
   1 H :    0.060542
   2 C :   -0.073177
   3 C :   -0.125776
   4 H :    0.055955
   5 H :    0.049958
   6 H :    0.024509
   7 H :    0.030545
   8 H :    0.058050
   9 H :    0.055346
  10 H :    0.056296
Sum of atomic charges:    0.0000000

LOEWDIN ATOMIC CHARGES
----------------------
   0 C :   -0.069430
   1 H :    0.033213
   2 C :   -0.086560
   3 C :   -0.088095
   4 H :    0.032485
   5 H :    0.025578
   6 H :    0.027031
   7 H :    0.030200
   8 H :    0.032112
   9 H :    0.031489
  10 H :    0.031978

  Mayer bond orders larger than 0.100000
B(  0-C ,  1-H ) :   0.9672 B(  0-C ,  2-C ) :   1.0733 B(  0-C ,  3-C ) :   1.0731
B(  0-C ,  4-H ) :   0.9697 B(  2-C ,  5-H ) :   0.9771 B(  2-C ,  6-H ) :   0.9692
B(  2-C ,  7-H ) :   0.9698 B(  3-C ,  8-H ) :   0.9776 B(  3-C ,  9-H ) :   0.9775
B(  3-C , 10-H ) :   0.9794

FINAL SINGLE POINT ENERGY      -118.603866407118

DIPOLE MOMENT
-------------
                                X             Y             Z
Electronic contribution:     -0.13910       0.11399      -0.38715
Nuclear contribution   :      0.10024      -0.14218       0.41628
                        -----------------------------------------
Total Dipole Moment    :     -0.03886      -0.02820       0.02913
                        -----------------------------------------
Magnitude (a.u.)       :      0.05615
Magnitude (Debye)      :      0.14273

Rotational constants in cm-1:     1.024179     0.291605     0.259489
Rotational constants in MHz : 30704.103454  8742.106283  7779.285909

                             ****ORCA TERMINATED NORMALLY****
TOTAL RUN TIME: 0 days 0 hours 0 minutes 9 seconds 606 msec
