                         Program Version 5.0.0 -  RELEASE  -
|  1> !LC-PBE RIJCOSX def2-SVP def2/J TightSCF
|  2> *xyz 0 1
|  3> C         -2.79070       -0.78527        5.70281
|  4> C         -2.45380        0.05510        6.94145
|  5> C         -2.07842        1.48042        6.56410
|  6> H         -1.62558       -0.38216        7.49891
|  7> H         -3.32527        0.08775        7.59917
|  8> O         -0.90125        1.85816        6.82810
|  9> F         -2.93658        2.17731        5.96415
| 10> H         -1.94052       -0.82114        5.05412
| 11> H         -3.61590       -0.34261        5.18514
| 12> H         -3.05063       -1.77815        6.00536
| 13> *
| 14> %MaxCore 64000
| 15>
| 16> %pal nprocs 4
| 17> end
| 18>
| 19> %scf
| 20>   MaxIter 150
| 21> end
| 22>
| 23>
| 24>                          ****END OF INPUT****

CARTESIAN COORDINATES (ANGSTROEM)
---------------------------------
  C     -2.790700   -0.785270    5.702810
  C     -2.453800    0.055100    6.941450
  C     -2.078420    1.480420    6.564100
  H     -1.625580   -0.382160    7.498910
  H     -3.325270    0.087750    7.599170
  O     -0.901250    1.858160    6.828100
  F     -2.936580    2.177310    5.964150
  H     -1.940520   -0.821140    5.054120
  H     -3.615900   -0.342610    5.185140
  H     -3.050630   -1.778150    6.005360

 Total Charge           Charge          ....    0
 Multiplicity           Mult            ....    1
 Number of Electrons    NEL             ....   40
 Basis Dimension        Dim             ....   95

ORBITAL ENERGIES
----------------

  NO   OCC          E(Eh)            E(eV)
   0   2.0000     -24.565072      -668.4496
   1   2.0000     -18.986529      -516.6497
   2   2.0000     -10.305007      -280.4135
   3   2.0000     -10.156517      -276.3729
   4   2.0000     -10.136597      -275.8308
   5   2.0000      -1.455234       -39.5989
   6   2.0000      -1.176696       -32.0195
   7   2.0000      -0.977094       -26.5881
   8   2.0000      -0.842382       -22.9224
   9   2.0000      -0.793914       -21.6035
  10   2.0000      -0.702472       -19.1152
  11   2.0000      -0.687977       -18.7208
  12   2.0000      -0.644281       -17.5318
  13   2.0000      -0.608187       -16.5496
  14   2.0000      -0.573973       -15.6186
  15   2.0000      -0.539122       -14.6703
  16   2.0000      -0.516690       -14.0598
  17   2.0000      -0.507947       -13.8219
  18   2.0000      -0.477534       -12.9944
  19   2.0000      -0.417871       -11.3708
  20   0.0000       0.079754         2.1702
  21   0.0000       0.150493         4.0951
  22   0.0000       0.195677         5.3246
  23   0.0000       0.204258         5.5582
  24   0.0000       0.225531         6.1370

MULLIKEN ATOMIC CHARGES
-----------------------
   0 C :   -0.158503
   1 C :   -0.192321
   2 C :    0.221408
   3 H :    0.107441
   4 H :    0.095571
   5 O :   -0.253138
   6 F :   -0.061263
   7 H :    0.082836
   8 H :    0.076838
   9 H :    0.081131
Sum of atomic charges:    0.0000000

LOEWDIN ATOMIC CHARGES
----------------------
   0 C :   -0.080372
   1 C :   -0.095977
   2 C :    0.097248
   3 H :    0.058334
   4 H :    0.052510
   5 O :   -0.202921
   6 F :    0.049737
   7 H :    0.041143
   8 H :    0.037490
   9 H :    0.042809

  Mayer bond orders larger than 0.100000
B(  0-C ,  1-C ) :   1.0507 B(  0-C ,  7-H ) :   0.9765 B(  0-C ,  8-H ) :   0.9748
B(  0-C ,  9-H ) :   0.9745 B(  1-C ,  2-C ) :   0.9922 B(  1-C ,  3-H ) :   0.9556
B(  1-C ,  4-H ) :   0.9416 B(  2-C ,  5-O ) :   2.1072 B(  2-C ,  6-F ) :   1.2170

FINAL SINGLE POINT ENERGY      -291.357178060030

DIPOLE MOMENT
-------------
                                X             Y             Z
Electronic contribution:      0.58826       7.97116       0.05247
Nuclear contribution   :     -1.47571      -8.84360      -0.10748
                        -----------------------------------------
Total Dipole Moment    :     -0.88745      -0.87244      -0.05501
                        -----------------------------------------
Magnitude (a.u.)       :      1.24569
Magnitude (Debye)      :      3.16629

Rotational constants in cm-1:     0.283081     0.133379     0.103386
Rotational constants in MHz :  8486.545774  3998.599544  3099.448040

                             ****ORCA TERMINATED NORMALLY****
TOTAL RUN TIME: 0 days 0 hours 0 minutes 11 seconds 829 msec
