                         Program Version 5.0.0 -  RELEASE  -
|  1> !LC-PBE RIJCOSX def2-TZVP def2/J TightSCF xyzfile
|  2>
|  3> *xyzfile 0 1 D1.xyz
|  4>
|  5> %MaxCore 64000
|  6>
|  7> %pal nprocs 18
|  8> end
|  9>
| 10> %scf
| 11>   MaxIter 150
| 12> end
| 13>
| 14>
| 15>                          ****END OF INPUT****

CARTESIAN COORDINATES (ANGSTROEM)
---------------------------------
  C     -0.699123    3.489451    3.755163
  H     -0.966716    4.349013    3.140491
  C     -1.080669    3.792957    5.156857
  C      0.776956    3.138391    3.617408
  H     -1.331455    2.656510    3.446323
  H      1.371398    3.888342    4.149744
  H      1.046926    3.232057    2.561331
  C      1.118917    1.731170    4.115155
  H      2.200573    1.654226    4.254882
  C      0.659466    0.635182    3.153306
  H      0.677024    1.576674    5.103150
  H      1.312288    0.638870    2.274207
  H     -0.339563    0.868049    2.772876
  C      0.639957   -0.771175    3.755619
  C     -0.341821   -0.965537    4.915046
  H      1.648266   -1.028665    4.097015
  H      0.398568   -1.482386    2.958453
  H     -0.279892   -2.005646    5.252547
  C     -1.789164   -0.639231    4.557496
  H     -0.032380   -0.352918    5.765118
  H     -2.107151   -1.270102    3.719619
  H     -1.856352    0.391636    4.197604
  C     -2.790700   -0.785275    5.702812
  H     -2.867308   -1.835651    6.001675
  H     -3.774554   -0.486577    5.334807
  C     -2.453797    0.055101    6.941445
  C     -2.078419    1.480421    6.564098
  H     -1.625584   -0.382163    7.498914
  H     -3.325274    0.087746    7.599175
  H     -0.874488    4.762737    5.427344
  H     -0.680793    3.134762    5.839000
  H     -2.057550    3.531691    5.346197
  F     -0.901252    1.858156    6.828104
  O     -2.936582    2.177309    5.964151

 Total Charge           Charge          ....    0
 Multiplicity           Mult            ....    1
 Number of Electrons    NEL             ....  104
 Basis Dimension        Dim             ....  529

ORBITAL ENERGIES
----------------

  NO   OCC          E(Eh)            E(eV)
   0   2.0000     -24.570159      -668.5880
   1   2.0000     -18.991924      -516.7965
   2   2.0000     -10.313368      -280.6410
   3   2.0000     -10.151832      -276.2454
   4   2.0000     -10.133476      -275.7459
   5   2.0000     -10.118127      -275.3282
   6   2.0000     -10.115060      -275.2448
   7   2.0000     -10.109674      -275.0982
   8   2.0000     -10.102253      -274.8963
   9   2.0000     -10.099346      -274.8172
  10   2.0000     -10.091980      -274.6167
  11   2.0000     -10.082071      -274.3471
  12   2.0000     -10.025803      -272.8160
  13   2.0000      -1.490138       -40.5487
  14   2.0000      -1.213662       -33.0254
  15   2.0000      -1.016148       -27.6508
  16   2.0000      -0.990746       -26.9596
  17   2.0000      -0.957244       -26.0479
  18   2.0000      -0.925401       -25.1814
  19   2.0000      -0.879352       -23.9284
  20   2.0000      -0.851996       -23.1840
  21   2.0000      -0.820421       -22.3248
  22   2.0000      -0.790861       -21.5204
  23   2.0000      -0.770273       -20.9602
  24   2.0000      -0.725476       -19.7412
  25   2.0000      -0.720742       -19.6124
  26   2.0000      -0.711588       -19.3633
  27   2.0000      -0.692207       -18.8359
  28   2.0000      -0.671680       -18.2773
  29   2.0000      -0.629346       -17.1254
  30   2.0000      -0.625333       -17.0162
  31   2.0000      -0.606762       -16.5108
  32   2.0000      -0.604745       -16.4559
  33   2.0000      -0.580001       -15.7826
  34   2.0000      -0.571950       -15.5635
  35   2.0000      -0.554605       -15.0916
  36   2.0000      -0.547181       -14.8896
  37   2.0000      -0.536982       -14.6120
  38   2.0000      -0.526486       -14.3264
  39   2.0000      -0.516118       -14.0443
  40   2.0000      -0.501731       -13.6528
  41   2.0000      -0.494261       -13.4495
  42   2.0000      -0.482935       -13.1413
  43   2.0000      -0.473684       -12.8896
  44   2.0000      -0.469099       -12.7648
  45   2.0000      -0.455761       -12.4019
  46   2.0000      -0.451147       -12.2763
  47   2.0000      -0.437802       -11.9132
  48   2.0000      -0.433880       -11.8065
  49   2.0000      -0.422023       -11.4838
  50   2.0000      -0.420399       -11.4396
  51   2.0000      -0.393984       -10.7209
  52   0.0000       0.054461         1.4819
  53   0.0000       0.112485         3.0609
  54   0.0000       0.129849         3.5334
  55   0.0000       0.132679         3.6104
  56   0.0000       0.141163         3.8412

MULLIKEN ATOMIC CHARGES
-----------------------
   0 C :   -0.292711
   1 H :    0.134917
   2 C :   -0.512309
   3 C :   -0.242457
   4 H :    0.137412
   5 H :    0.145666
   6 H :    0.134736
   7 C :   -0.294673
   8 H :    0.148324
   9 C :   -0.363248
  10 H :    0.126259
  11 H :    0.156325
  12 H :    0.173760
  13 C :   -0.239350
  14 C :   -0.352135
  15 H :    0.149346
  16 H :    0.151877
  17 H :    0.156539
  18 C :   -0.368711
  19 H :    0.166022
  20 H :    0.164072
  21 H :    0.173513
  22 C :   -0.253988
  23 H :    0.158479
  24 H :    0.175203
  25 C :   -0.359689
  26 C :    0.346739
  27 H :    0.191602
  28 H :    0.191006
  29 H :    0.144228
  30 H :    0.134814
  31 H :    0.203759
  32 F :   -0.078449
  33 O :   -0.306880
Sum of atomic charges:   -0.0000000

LOEWDIN ATOMIC CHARGES
----------------------
   0 C :   -0.319428
   1 H :    0.140999
   2 C :   -0.352407
   3 C :   -0.284976
   4 H :    0.137942
   5 H :    0.144053
   6 H :    0.141962
   7 C :   -0.282070
   8 H :    0.142880
   9 C :   -0.287852
  10 H :    0.138139
  11 H :    0.145038
  12 H :    0.143105
  13 C :   -0.285201
  14 C :   -0.287809
  15 H :    0.145468
  16 H :    0.145372
  17 H :    0.145712
  18 C :   -0.285373
  19 H :    0.139504
  20 H :    0.149999
  21 H :    0.148674
  22 C :   -0.271470
  23 H :    0.149094
  24 H :    0.154902
  25 C :   -0.247818
  26 C :   -0.486359
  27 H :    0.152889
  28 H :    0.167002
  29 H :    0.107777
  30 H :    0.104943
  31 H :    0.116657
  32 F :    0.337462
  33 O :    0.091189

  Mayer bond orders larger than 0.100000
B(  0-C ,  1-H ) :   0.9858 B(  0-C ,  2-C ) :   0.8772 B(  0-C ,  3-C ) :   0.9221
B(  0-C ,  4-H ) :   1.0180 B(  2-C , 29-H ) :   0.9697 B(  2-C , 30-H ) :   0.9908
B(  2-C , 31-H ) :   0.9635 B(  3-C ,  5-H ) :   0.9785 B(  3-C ,  6-H ) :   0.9817
B(  3-C ,  7-C ) :   0.9564 B(  7-C ,  8-H ) :   0.9764 B(  7-C ,  9-C ) :   0.8910
B(  7-C , 10-H ) :   0.9991 B(  9-C , 11-H ) :   0.9752 B(  9-C , 12-H ) :   0.9947
B(  9-C , 13-C ) :   0.9281 B( 13-C , 14-C ) :   0.9520 B( 13-C , 15-H ) :   0.9876
B( 13-C , 16-H ) :   0.9869 B( 14-C , 17-H ) :   0.9756 B( 14-C , 18-C ) :   0.8748
B( 14-C , 19-H ) :   0.9863 B( 18-C , 20-H ) :   0.9703 B( 18-C , 21-H ) :   0.9757
B( 18-C , 22-C ) :   0.9590 B( 22-C , 23-H ) :   0.9779 B( 22-C , 24-H ) :   0.9748
B( 22-C , 25-C ) :   0.9166 B( 25-C , 26-C ) :   0.9464 B( 25-C , 27-H ) :   0.9751
B( 25-C , 28-H ) :   0.9529 B( 26-C , 32-F ) :   1.1505 B( 26-C , 33-O ) :   2.0108

FINAL SINGLE POINT ENERGY      -605.136890718941

DIPOLE MOMENT
-------------
                                X             Y             Z
Electronic contribution:     -5.46239       2.43833      10.85341
Nuclear contribution   :      5.54676      -3.70047     -10.28793
                        -----------------------------------------
Total Dipole Moment    :      0.08437      -1.26214       0.56548
                        -----------------------------------------
Magnitude (a.u.)       :      1.38560
Magnitude (Debye)      :      3.52190

Rotational constants in cm-1:     0.028503     0.023389     0.015214
Rotational constants in MHz :   854.502405   701.197575   456.108322

                             ****ORCA TERMINATED NORMALLY****
TOTAL RUN TIME: 0 days 0 hours 1 minutes 20 seconds 146 msec
