                         Program Version 5.0.0 -  RELEASE  -
|  1> !BLYP D3BJ RIJCOSX def2-SVPD def2/J TightSCF
|  2> *xyz -1 1
|  3> C         -7.33044       -2.67899       -3.20681
|  4> S         -6.01966       -2.92697       -4.41913
|  5> O         -5.64583       -1.58838       -4.91931
|  6> O         -4.88196       -3.50370       -3.66724
|  7> O         -6.54927       -3.80515       -5.42507
|  8> C         -6.28692       -0.73588       -1.89353
|  9> C         -7.46900       -1.24615       -2.71383
| 10> H         -7.60191       -0.60135       -3.58533
| 11> H         -8.38979       -1.17344       -2.12692
| 12> H         -7.11825       -3.37982       -2.39805
| 13> H         -8.24184       -3.00474       -3.70651
| 14> H         -5.39124       -0.81034       -2.47415
| 15> H         -6.18709       -1.32597       -1.00655
| 16> H         -6.45393        0.28631       -1.62495
| 17> *
| 18> %MaxCore 64000
| 19>
| 20> %pal nprocs 8
| 21> end
| 22>
| 23> %scf
| 24>   MaxIter 150
| 25> end
| 26>
| 27>
| 28>                          ****END OF INPUT****

CARTESIAN COORDINATES (ANGSTROEM)
---------------------------------
  C     -7.330440   -2.678990   -3.206810
  S     -6.019660   -2.926970   -4.419130
  O     -5.645830   -1.588380   -4.919310
  O     -4.881960   -3.503700   -3.667240
  O     -6.549270   -3.805150   -5.425070
  C     -6.286920   -0.735880   -1.893530
  C     -7.469000   -1.246150   -2.713830
  H     -7.601910   -0.601350   -3.585330
  H     -8.389790   -1.173440   -2.126920
  H     -7.118250   -3.379820   -2.398050
  H     -8.241840   -3.004740   -3.706510
  H     -5.391240   -0.810340   -2.474150
  H     -6.187090   -1.325970   -1.006550
  H     -6.453930    0.286310   -1.624950

 Total Charge           Charge          ....   -1
 Multiplicity           Mult            ....    1
 Number of Electrons    NEL             ....   66
 Basis Dimension        Dim             ....  212

ORBITAL ENERGIES
----------------

  NO   OCC          E(Eh)            E(eV)
   0   2.0000     -88.129790     -2398.1335
   1   2.0000     -18.575409      -505.4626
   2   2.0000     -18.566039      -505.2076
   3   2.0000     -18.561860      -505.0939
   4   2.0000      -9.791744      -266.4469
   5   2.0000      -9.785338      -266.2726
   6   2.0000      -9.776797      -266.0402
   7   2.0000      -7.666463      -208.6151
   8   2.0000      -5.701583      -155.1480
   9   2.0000      -5.701498      -155.1456
  10   2.0000      -5.700697      -155.1238
  11   2.0000      -0.832718       -22.6594
  12   2.0000      -0.697756       -18.9869
  13   2.0000      -0.675811       -18.3898
  14   2.0000      -0.574130       -15.6229
  15   2.0000      -0.490824       -13.3560
  16   2.0000      -0.403013       -10.9665
  17   2.0000      -0.321447        -8.7470
  18   2.0000      -0.275348        -7.4926
  19   2.0000      -0.269745        -7.3401
  20   2.0000      -0.239652        -6.5213
  21   2.0000      -0.228399        -6.2151
  22   2.0000      -0.206714        -5.6250
  23   2.0000      -0.199912        -5.4399
  24   2.0000      -0.178480        -4.8567
  25   2.0000      -0.172050        -4.6817
  26   2.0000      -0.162212        -4.4140
  27   2.0000      -0.100150        -2.7252
  28   2.0000      -0.097099        -2.6422
  29   2.0000      -0.069725        -1.8973
  30   2.0000      -0.062036        -1.6881
  31   2.0000      -0.052042        -1.4161
  32   2.0000      -0.017183        -0.4676
  33   0.0000       0.119281         3.2458
  34   0.0000       0.145001         3.9457
  35   0.0000       0.152207         4.1418
  36   0.0000       0.162835         4.4310
  37   0.0000       0.180607         4.9146

MULLIKEN ATOMIC CHARGES
-----------------------
   0 C :    0.326802
   1 S :    1.128629
   2 O :   -0.793565
   3 O :   -0.753344
   4 O :   -0.726423
   5 C :    1.175038
   6 C :    0.114197
   7 H :   -0.109007
   8 H :   -0.388956
   9 H :   -0.174121
  10 H :   -0.208905
  11 H :   -0.226920
  12 H :   -0.141723
  13 H :   -0.221701
Sum of atomic charges:   -1.0000000

LOEWDIN ATOMIC CHARGES
----------------------
   0 C :   -0.078723
   1 S :    0.829026
   2 O :   -0.560256
   3 O :   -0.578290
   4 O :   -0.553382
   5 C :    0.136610
   6 C :   -0.093507
   7 H :    0.008566
   8 H :   -0.001088
   9 H :   -0.002533
  10 H :   -0.010474
  11 H :   -0.030562
  12 H :   -0.028319
  13 H :   -0.037068

  Mayer bond orders larger than 0.100000
B(  0-C ,  1-S ) :   0.8447 B(  0-C ,  2-O ) :   0.1102 B(  0-C ,  4-O ) :   0.1041
B(  0-C ,  6-C ) :   1.2132 B(  0-C ,  7-H ) :   0.1787 B(  0-C ,  8-H ) :   0.1767
B(  0-C ,  9-H ) :   0.8523 B(  0-C , 10-H ) :   0.8542 B(  1-S ,  2-O ) :   1.2857
B(  1-S ,  3-O ) :   1.2941 B(  1-S ,  4-O ) :   1.3951 B(  5-C ,  6-C ) :   1.2558
B(  5-C ,  7-H ) :   0.1096 B(  5-C , 11-H ) :   0.7081 B(  5-C , 12-H ) :   0.6644
B(  5-C , 13-H ) :   0.6297 B(  6-C ,  7-H ) :   0.7848 B(  6-C ,  8-H ) :   0.7786
B(  6-C ,  9-H ) :   0.1303 B(  6-C , 10-H ) :   0.1537 B(  6-C , 11-H ) :   0.2691
B(  6-C , 12-H ) :   0.2741 B(  6-C , 13-H ) :   0.2886

Dispersion correction           -0.027967176
FINAL SINGLE POINT ENERGY      -741.976840521049

DIPOLE MOMENT
-------------
                                X             Y             Z
Electronic contribution:      3.84439      -5.85462      -7.96767
Nuclear contribution   :     -5.28952       6.71955       9.52938
                        -----------------------------------------
Total Dipole Moment    :     -1.44513       0.86493       1.56170
                        -----------------------------------------
Magnitude (a.u.)       :      2.29683
Magnitude (Debye)      :      5.83807

Rotational constants in cm-1:     0.135789     0.055302     0.052251
Rotational constants in MHz :  4070.851802  1657.908940  1566.458563

                             ****ORCA TERMINATED NORMALLY****
TOTAL RUN TIME: 0 days 0 hours 0 minutes 6 seconds 96 msec
