                         Program Version 5.0.0 -  RELEASE  -
|  1> !BLYP D3BJ RIJCOSX def2-SVPD def2/J TightSCF
|  2> *xyz 1 1
|  3> C         -2.16038       -1.36949       -3.46710
|  4> N         -3.03011       -1.91086       -4.54107
|  5> C         -2.04772        0.14658       -3.51177
|  6> H         -3.47744       -2.79151       -4.25710
|  7> H         -2.53801       -2.01786       -5.43808
|  8> H         -3.89159       -1.37604       -4.71437
|  9> H         -1.18444       -1.84400       -3.56639
| 10> H         -2.59819       -1.70838       -2.52848
| 11> C         -3.32876        0.87504       -3.10367
| 12> H         -1.74003        0.45234       -4.51713
| 13> H         -1.23261        0.43494       -2.84221
| 14> H         -4.12483        0.59148       -3.76000
| 15> H         -3.17368        1.93185       -3.16688
| 16> H         -3.58415        0.61151       -2.09857
| 17> *
| 18> %MaxCore 64000
| 19>
| 20> %pal nprocs 8
| 21> end
| 22>
| 23> %scf
| 24>   MaxIter 150
| 25> end
| 26>
| 27>
| 28>                          ****END OF INPUT****

CARTESIAN COORDINATES (ANGSTROEM)
---------------------------------
  C     -2.160380   -1.369490   -3.467100
  N     -3.030110   -1.910860   -4.541070
  C     -2.047720    0.146580   -3.511770
  H     -3.477440   -2.791510   -4.257100
  H     -2.538010   -2.017860   -5.438080
  H     -3.891590   -1.376040   -4.714370
  H     -1.184440   -1.844000   -3.566390
  H     -2.598190   -1.708380   -2.528480
  C     -3.328760    0.875040   -3.103670
  H     -1.740030    0.452340   -4.517130
  H     -1.232610    0.434940   -2.842210
  H     -4.124830    0.591480   -3.760000
  H     -3.173680    1.931850   -3.166880
  H     -3.584150    0.611510   -2.098570

 Total Charge           Charge          ....    1
 Multiplicity           Mult            ....    1
 Number of Electrons    NEL             ....   34
 Basis Dimension        Dim             ....  160

ORBITAL ENERGIES
----------------

  NO   OCC          E(Eh)            E(eV)
   0   2.0000     -14.352690      -390.5565
   1   2.0000     -10.168761      -276.7060
   2   2.0000     -10.100548      -274.8499
   3   2.0000     -10.068908      -273.9889
   4   2.0000      -1.118035       -30.4233
   5   2.0000      -0.891900       -24.2698
   6   2.0000      -0.810415       -22.0525
   7   2.0000      -0.750941       -20.4341
   8   2.0000      -0.724282       -19.7087
   9   2.0000      -0.704414       -19.1681
  10   2.0000      -0.640590       -17.4313
  11   2.0000      -0.580727       -15.8024
  12   2.0000      -0.557630       -15.1739
  13   2.0000      -0.536896       -14.6097
  14   2.0000      -0.482024       -13.1165
  15   2.0000      -0.476375       -12.9628
  16   2.0000      -0.469453       -12.7745
  17   0.0000      -0.217356        -5.9145
  18   0.0000      -0.163941        -4.4610
  19   0.0000      -0.161719        -4.4006
  20   0.0000      -0.137923        -3.7531
  21   0.0000      -0.113441        -3.0869

MULLIKEN ATOMIC CHARGES
-----------------------
   0 C :    0.921709
   1 N :   -0.738463
   2 C :    0.011206
   3 H :    0.328025
   4 H :    0.397845
   5 H :    0.279427
   6 H :   -0.261831
   7 H :   -0.150453
   8 C :    1.159405
   9 H :   -0.172769
  10 H :   -0.169607
  11 H :   -0.350444
  12 H :   -0.165040
  13 H :   -0.089010
Sum of atomic charges:    1.0000000

LOEWDIN ATOMIC CHARGES
----------------------
   0 C :    0.092360
   1 N :    0.341315
   2 C :   -0.034488
   3 H :    0.102768
   4 H :    0.110253
   5 H :    0.084449
   6 H :    0.049602
   7 H :    0.049021
   8 C :    0.165922
   9 H :    0.031097
  10 H :    0.042630
  11 H :   -0.032622
  12 H :    0.002439
  13 H :   -0.004745

  Mayer bond orders larger than 0.100000
B(  0-C ,  1-N ) :   0.7095 B(  0-C ,  2-C ) :   1.2118 B(  0-C ,  6-H ) :   0.7656
B(  0-C ,  7-H ) :   0.7854 B(  0-C , 10-H ) :   0.1517 B(  1-N ,  3-H ) :   0.7367
B(  1-N ,  4-H ) :   0.6785 B(  1-N ,  5-H ) :   0.8171 B(  1-N ,  6-H ) :   0.1655
B(  1-N ,  7-H ) :   0.1115 B(  2-C ,  6-H ) :   0.1138 B(  2-C ,  8-C ) :   1.2974
B(  2-C ,  9-H ) :   0.8489 B(  2-C , 10-H ) :   0.8181 B(  2-C , 11-H ) :   0.2422
B(  2-C , 12-H ) :   0.2664 B(  2-C , 13-H ) :   0.2344 B(  8-C , 11-H ) :   0.6910
B(  8-C , 12-H ) :   0.6826 B(  8-C , 13-H ) :   0.6846 B( 11-H , 13-H ) :   0.1216

Dispersion correction           -0.018750250
FINAL SINGLE POINT ENERGY      -174.636263000131

DIPOLE MOMENT
-------------
                                X             Y             Z
Electronic contribution:      0.33573      -2.10571      -1.07588
Nuclear contribution   :     -0.76147       0.35838       0.01319
                        -----------------------------------------
Total Dipole Moment    :     -0.42574      -1.74732      -1.06269
                        -----------------------------------------
Magnitude (a.u.)       :      2.08895
Magnitude (Debye)      :      5.30968

Rotational constants in cm-1:     0.457188     0.153451     0.133348
Rotational constants in MHz : 13706.154863  4600.337483  3997.673747

                             ****ORCA TERMINATED NORMALLY****
TOTAL RUN TIME: 0 days 0 hours 0 minutes 3 seconds 697 msec
