                         Program Version 5.0.0 -  RELEASE  -
|  1> !BLYP D3BJ RIJCOSX def2-SVPD def2/J TightSCF
|  2> *xyz 0 1
|  3> C         -7.33044       -2.67899       -3.20681
|  4> S         -6.01966       -2.92697       -4.41913
|  5> F         -5.64583       -1.58838       -4.91931
|  6> O         -4.88196       -3.50370       -3.66724
|  7> O         -6.54927       -3.80515       -5.42507
|  8> C         -6.28692       -0.73588       -1.89353
|  9> C         -7.46900       -1.24615       -2.71383
| 10> H         -7.60191       -0.60135       -3.58533
| 11> H         -8.38979       -1.17344       -2.12692
| 12> H         -7.11825       -3.37982       -2.39805
| 13> H         -8.24184       -3.00474       -3.70651
| 14> H         -5.39124       -0.81034       -2.47415
| 15> H         -6.18709       -1.32597       -1.00655
| 16> H         -6.45393        0.28631       -1.62495
| 17> *
| 18> %MaxCore 64000
| 19>
| 20> %pal nprocs 8
| 21> end
| 22>
| 23> %scf
| 24>   MaxIter 150
| 25> end
| 26>
| 27>
| 28>                          ****END OF INPUT****

CARTESIAN COORDINATES (ANGSTROEM)
---------------------------------
  C     -7.330440   -2.678990   -3.206810
  S     -6.019660   -2.926970   -4.419130
  F     -5.645830   -1.588380   -4.919310
  O     -4.881960   -3.503700   -3.667240
  O     -6.549270   -3.805150   -5.425070
  C     -6.286920   -0.735880   -1.893530
  C     -7.469000   -1.246150   -2.713830
  H     -7.601910   -0.601350   -3.585330
  H     -8.389790   -1.173440   -2.126920
  H     -7.118250   -3.379820   -2.398050
  H     -8.241840   -3.004740   -3.706510
  H     -5.391240   -0.810340   -2.474150
  H     -6.187090   -1.325970   -1.006550
  H     -6.453930    0.286310   -1.624950

 Total Charge           Charge          ....    0
 Multiplicity           Mult            ....    1
 Number of Electrons    NEL             ....   66
 Basis Dimension        Dim             ....  212

ORBITAL ENERGIES
----------------

  NO   OCC          E(Eh)            E(eV)
   0   2.0000     -88.379292     -2404.9228
   1   2.0000     -24.402368      -664.0222
   2   2.0000     -18.804484      -511.6960
   3   2.0000     -18.789865      -511.2982
   4   2.0000      -9.982245      -271.6307
   5   2.0000      -9.957885      -270.9678
   6   2.0000      -9.929486      -270.1950
   7   2.0000      -7.916999      -215.4325
   8   2.0000      -5.956323      -162.0798
   9   2.0000      -5.949982      -161.9072
  10   2.0000      -5.948269      -161.8606
  11   2.0000      -1.236724       -33.6530
  12   2.0000      -1.013600       -27.5815
  13   2.0000      -0.914357       -24.8809
  14   2.0000      -0.755614       -20.5613
  15   2.0000      -0.676273       -18.4023
  16   2.0000      -0.631119       -17.1736
  17   2.0000      -0.571350       -15.5472
  18   2.0000      -0.520704       -14.1691
  19   2.0000      -0.500244       -13.6123
  20   2.0000      -0.479617       -13.0510
  21   2.0000      -0.441394       -12.0109
  22   2.0000      -0.429170       -11.6783
  23   2.0000      -0.411216       -11.1898
  24   2.0000      -0.396138       -10.7795
  25   2.0000      -0.386096       -10.5062
  26   2.0000      -0.346393        -9.4258
  27   2.0000      -0.339733        -9.2446
  28   2.0000      -0.334622        -9.1055
  29   2.0000      -0.325837        -8.8665
  30   2.0000      -0.286998        -7.8096
  31   2.0000      -0.273728        -7.4485
  32   2.0000      -0.260152        -7.0791
  33   0.0000      -0.035029        -0.9532
  34   0.0000       0.001606         0.0437
  35   0.0000       0.014420         0.3924
  36   0.0000       0.017111         0.4656
  37   0.0000       0.017754         0.4831

MULLIKEN ATOMIC CHARGES
-----------------------
   0 C :    0.353489
   1 S :    1.269645
   2 F :   -0.395197
   3 O :   -0.615562
   4 O :   -0.584874
   5 C :    1.210057
   6 C :    0.132586
   7 H :   -0.128025
   8 H :   -0.350227
   9 H :   -0.137902
  10 H :   -0.172211
  11 H :   -0.264226
  12 H :   -0.121680
  13 H :   -0.195872
Sum of atomic charges:    0.0000000

LOEWDIN ATOMIC CHARGES
----------------------
   0 C :   -0.033946
   1 S :    1.083302
   2 F :   -0.259599
   3 O :   -0.463645
   4 O :   -0.438737
   5 C :    0.155416
   6 C :   -0.076231
   7 H :    0.018312
   8 H :    0.026235
   9 H :    0.028093
  10 H :    0.015384
  11 H :   -0.029175
  12 H :   -0.010344
  13 H :   -0.015064

  Mayer bond orders larger than 0.100000
B(  0-C ,  1-S ) :   0.9167 B(  0-C ,  6-C ) :   1.2168 B(  0-C ,  7-H ) :   0.1573
B(  0-C ,  8-H ) :   0.1642 B(  0-C ,  9-H ) :   0.8569 B(  0-C , 10-H ) :   0.8582
B(  1-S ,  2-F ) :   0.6815 B(  1-S ,  3-O ) :   1.5075 B(  1-S ,  4-O ) :   1.5964
B(  3-O ,  4-O ) :   0.1062 B(  5-C ,  6-C ) :   1.2833 B(  5-C , 11-H ) :   0.6972
B(  5-C , 12-H ) :   0.6689 B(  5-C , 13-H ) :   0.6323 B(  6-C ,  7-H ) :   0.7912
B(  6-C ,  8-H ) :   0.7771 B(  6-C ,  9-H ) :   0.1221 B(  6-C , 10-H ) :   0.1468
B(  6-C , 11-H ) :   0.2616 B(  6-C , 12-H ) :   0.2691 B(  6-C , 13-H ) :   0.2787

Dispersion correction           -0.026779357
FINAL SINGLE POINT ENERGY      -766.480658137644

DIPOLE MOMENT
-------------
                                X             Y             Z
Electronic contribution:      4.82067      -4.60513      -9.83189
Nuclear contribution   :     -5.93570       5.78812      10.65621
                        -----------------------------------------
Total Dipole Moment    :     -1.11502       1.18299       0.82431
                        -----------------------------------------
Magnitude (a.u.)       :      1.82270
Magnitude (Debye)      :      4.63293

Rotational constants in cm-1:     0.129417     0.054385     0.051980
Rotational constants in MHz :  3879.823072  1630.427453  1558.324762

                             ****ORCA TERMINATED NORMALLY****
TOTAL RUN TIME: 0 days 0 hours 0 minutes 5 seconds 912 msec
