                         Program Version 5.0.0 -  RELEASE  -
|  1> !BLYP D3BJ RIJCOSX def2-SVPD def2/J TightSCF
|  2> *xyz 0 1
|  3> C         -2.16038       -1.36949       -3.46710
|  4> C         -3.03011       -1.91086       -4.54107
|  5> C         -2.04772        0.14658       -3.51177
|  6> H         -3.47744       -2.79151       -4.25710
|  7> H         -2.53801       -2.01786       -5.43808
|  8> H         -3.89159       -1.37604       -4.71437
|  9> H         -1.18444       -1.84400       -3.56639
| 10> H         -2.59819       -1.70838       -2.52848
| 11> C         -3.32876        0.87504       -3.10367
| 12> H         -1.74003        0.45234       -4.51713
| 13> H         -1.23261        0.43494       -2.84221
| 14> H         -4.12483        0.59148       -3.76000
| 15> H         -3.17368        1.93185       -3.16688
| 16> H         -3.58415        0.61151       -2.09857
| 17> *
| 18> %MaxCore 64000
| 19>
| 20> %pal nprocs 8
| 21> end
| 22>
| 23> %scf
| 24>   MaxIter 150
| 25> end
| 26>
| 27>
| 28>                          ****END OF INPUT****

CARTESIAN COORDINATES (ANGSTROEM)
---------------------------------
  C     -2.160380   -1.369490   -3.467100
  C     -3.030110   -1.910860   -4.541070
  C     -2.047720    0.146580   -3.511770
  H     -3.477440   -2.791510   -4.257100
  H     -2.538010   -2.017860   -5.438080
  H     -3.891590   -1.376040   -4.714370
  H     -1.184440   -1.844000   -3.566390
  H     -2.598190   -1.708380   -2.528480
  C     -3.328760    0.875040   -3.103670
  H     -1.740030    0.452340   -4.517130
  H     -1.232610    0.434940   -2.842210
  H     -4.124830    0.591480   -3.760000
  H     -3.173680    1.931850   -3.166880
  H     -3.584150    0.611510   -2.098570

 Total Charge           Charge          ....    0
 Multiplicity           Mult            ....    1
 Number of Electrons    NEL             ....   34
 Basis Dimension        Dim             ....  160

ORBITAL ENERGIES
----------------

  NO   OCC          E(Eh)            E(eV)
   0   2.0000      -9.911428      -269.7037
   1   2.0000      -9.908007      -269.6106
   2   2.0000      -9.902991      -269.4741
   3   2.0000      -9.885402      -268.9955
   4   2.0000      -0.715042       -19.4573
   5   2.0000      -0.648121       -17.6363
   6   2.0000      -0.571030       -15.5385
   7   2.0000      -0.501641       -13.6503
   8   2.0000      -0.412617       -11.2279
   9   2.0000      -0.405801       -11.0424
  10   2.0000      -0.377303       -10.2669
  11   2.0000      -0.340676        -9.2703
  12   2.0000      -0.330431        -8.9915
  13   2.0000      -0.318344        -8.6626
  14   2.0000      -0.280312        -7.6277
  15   2.0000      -0.278885        -7.5888
  16   2.0000      -0.276017        -7.5108
  17   0.0000       0.007775         0.2116
  18   0.0000       0.033213         0.9038
  19   0.0000       0.034647         0.9428
  20   0.0000       0.041688         1.1344
  21   0.0000       0.074935         2.0391

MULLIKEN ATOMIC CHARGES
-----------------------
   0 C :    0.099577
   1 C :    1.493736
   2 C :    0.018432
   3 H :   -0.309709
   4 H :   -0.226721
   5 H :   -0.672782
   6 H :   -0.305818
   7 H :   -0.149336
   8 C :    1.153032
   9 H :   -0.234841
  10 H :   -0.236373
  11 H :   -0.366524
  12 H :   -0.182694
  13 H :   -0.079977
Sum of atomic charges:   -0.0000000

LOEWDIN ATOMIC CHARGES
----------------------
   0 C :   -0.064309
   1 C :    0.133122
   2 C :   -0.070172
   3 H :   -0.038473
   4 H :   -0.029625
   5 H :   -0.051127
   6 H :    0.017240
   7 H :    0.017915
   8 C :    0.139590
   9 H :    0.018389
  10 H :    0.010060
  11 H :   -0.036267
  12 H :   -0.024836
  13 H :   -0.021506

  Mayer bond orders larger than 0.100000
B(  0-C ,  1-C ) :   1.2173 B(  0-C ,  2-C ) :   1.2368 B(  0-C ,  3-H ) :   0.2742
B(  0-C ,  4-H ) :   0.2760 B(  0-C ,  5-H ) :   0.3027 B(  0-C ,  6-H ) :   0.8048
B(  0-C ,  7-H ) :   0.7692 B(  0-C ,  9-H ) :   0.1681 B(  0-C , 10-H ) :   0.1502
B(  1-C ,  3-H ) :   0.3950 B(  1-C ,  4-H ) :   0.5653 B(  1-C ,  5-H ) :   0.2596
B(  1-C ,  6-H ) :   0.1296 B(  1-C ,  7-H ) :   0.1710 B(  2-C ,  6-H ) :   0.1395
B(  2-C ,  8-C ) :   1.2635 B(  2-C ,  9-H ) :   0.8174 B(  2-C , 10-H ) :   0.8099
B(  2-C , 11-H ) :   0.2638 B(  2-C , 12-H ) :   0.2704 B(  2-C , 13-H ) :   0.2763
B(  3-H ,  5-H ) :   0.3444 B(  4-H ,  5-H ) :   0.1352 B(  5-H , 11-H ) :   0.1071
B(  8-C ,  9-H ) :   0.1075 B(  8-C , 10-H ) :   0.1006 B(  8-C , 11-H ) :   0.7080
B(  8-C , 12-H ) :   0.6496 B(  8-C , 13-H ) :   0.6726

Dispersion correction           -0.018877520
FINAL SINGLE POINT ENERGY      -158.224847877960

DIPOLE MOMENT
-------------
                                X             Y             Z
Electronic contribution:      0.86850       0.03345       0.25297
Nuclear contribution   :     -0.87438      -0.05339      -0.25605
                        -----------------------------------------
Total Dipole Moment    :     -0.00588      -0.01994      -0.00308
                        -----------------------------------------
Magnitude (a.u.)       :      0.02101
Magnitude (Debye)      :      0.05341

Rotational constants in cm-1:     0.464420     0.160323     0.139078
Rotational constants in MHz : 13922.972952  4806.377145  4169.443621

                             ****ORCA TERMINATED NORMALLY****
TOTAL RUN TIME: 0 days 0 hours 0 minutes 3 seconds 409 msec
