                         Program Version 5.0.0 -  RELEASE  -
|  1> !BLYP D3BJ RIJCOSX def2-SVPD def2/J TightSCF
|  2> *xyz 0 1
|  3> C         -7.33044       -2.67899       -3.20681
|  4> S         -6.01966       -2.92697       -4.41913
|  5> O         -5.64583       -1.58838       -4.91931
|  6> F         -4.88196       -3.50370       -3.66724
|  7> O         -6.54927       -3.80515       -5.42507
|  8> C         -6.28692       -0.73588       -1.89353
|  9> C         -7.46900       -1.24615       -2.71383
| 10> H         -7.60191       -0.60135       -3.58533
| 11> H         -8.38979       -1.17344       -2.12692
| 12> H         -7.11825       -3.37982       -2.39805
| 13> H         -8.24184       -3.00474       -3.70651
| 14> H         -5.39124       -0.81034       -2.47415
| 15> H         -6.18709       -1.32597       -1.00655
| 16> H         -6.45393        0.28631       -1.62495
| 17> *
| 18> %MaxCore 64000
| 19>
| 20> %pal nprocs 8
| 21> end
| 22>
| 23> %scf
| 24>   MaxIter 150
| 25> end
| 26>
| 27>
| 28>                          ****END OF INPUT****

CARTESIAN COORDINATES (ANGSTROEM)
---------------------------------
  C     -7.330440   -2.678990   -3.206810
  S     -6.019660   -2.926970   -4.419130
  O     -5.645830   -1.588380   -4.919310
  F     -4.881960   -3.503700   -3.667240
  O     -6.549270   -3.805150   -5.425070
  C     -6.286920   -0.735880   -1.893530
  C     -7.469000   -1.246150   -2.713830
  H     -7.601910   -0.601350   -3.585330
  H     -8.389790   -1.173440   -2.126920
  H     -7.118250   -3.379820   -2.398050
  H     -8.241840   -3.004740   -3.706510
  H     -5.391240   -0.810340   -2.474150
  H     -6.187090   -1.325970   -1.006550
  H     -6.453930    0.286310   -1.624950

 Total Charge           Charge          ....    0
 Multiplicity           Mult            ....    1
 Number of Electrons    NEL             ....   66
 Basis Dimension        Dim             ....  212

ORBITAL ENERGIES
----------------

  NO   OCC          E(Eh)            E(eV)
   0   2.0000     -88.379716     -2404.9343
   1   2.0000     -24.399308      -663.9389
   2   2.0000     -18.804862      -511.7063
   3   2.0000     -18.793684      -511.4021
   4   2.0000      -9.982781      -271.6453
   5   2.0000      -9.950017      -270.7537
   6   2.0000      -9.923475      -270.0315
   7   2.0000      -7.917435      -215.4443
   8   2.0000      -5.956664      -162.0891
   9   2.0000      -5.950431      -161.9195
  10   2.0000      -5.948786      -161.8747
  11   2.0000      -1.232821       -33.5468
  12   2.0000      -1.014949       -27.6182
  13   2.0000      -0.918498       -24.9936
  14   2.0000      -0.750862       -20.4320
  15   2.0000      -0.675438       -18.3796
  16   2.0000      -0.628191       -17.0940
  17   2.0000      -0.566326       -15.4105
  18   2.0000      -0.508200       -13.8288
  19   2.0000      -0.496374       -13.5070
  20   2.0000      -0.488621       -13.2961
  21   2.0000      -0.440965       -11.9993
  22   2.0000      -0.432953       -11.7813
  23   2.0000      -0.401879       -10.9357
  24   2.0000      -0.394301       -10.7295
  25   2.0000      -0.386792       -10.5251
  26   2.0000      -0.342029        -9.3071
  27   2.0000      -0.338112        -9.2005
  28   2.0000      -0.325372        -8.8538
  29   2.0000      -0.321235        -8.7413
  30   2.0000      -0.286389        -7.7930
  31   2.0000      -0.280926        -7.6444
  32   2.0000      -0.263498        -7.1702
  33   0.0000      -0.024696        -0.6720
  34   0.0000      -0.008419        -0.2291
  35   0.0000       0.009601         0.2612
  36   0.0000       0.018104         0.4926
  37   0.0000       0.026356         0.7172

MULLIKEN ATOMIC CHARGES
-----------------------
   0 C :    0.306607
   1 S :    1.293088
   2 O :   -0.661570
   3 F :   -0.364954
   4 O :   -0.584365
   5 C :    1.190574
   6 C :    0.171289
   7 H :   -0.096873
   8 H :   -0.360983
   9 H :   -0.126639
  10 H :   -0.176302
  11 H :   -0.264914
  12 H :   -0.126077
  13 H :   -0.198885
Sum of atomic charges:   -0.0000000

LOEWDIN ATOMIC CHARGES
----------------------
   0 C :   -0.039203
   1 S :    1.088217
   2 O :   -0.452839
   3 F :   -0.263915
   4 O :   -0.438967
   5 C :    0.153472
   6 C :   -0.068743
   7 H :    0.023560
   8 H :    0.026619
   9 H :    0.015462
  10 H :    0.019695
  11 H :   -0.031554
  12 H :   -0.017430
  13 H :   -0.014374

  Mayer bond orders larger than 0.100000
B(  0-C ,  1-S ) :   0.9044 B(  0-C ,  6-C ) :   1.2455 B(  0-C ,  7-H ) :   0.1754
B(  0-C ,  8-H ) :   0.1812 B(  0-C ,  9-H ) :   0.8451 B(  0-C , 10-H ) :   0.8602
B(  1-S ,  2-O ) :   1.5028 B(  1-S ,  3-F ) :   0.6762 B(  1-S ,  4-O ) :   1.6015
B(  2-O ,  4-O ) :   0.1047 B(  5-C ,  6-C ) :   1.2744 B(  5-C ,  7-H ) :   0.1090
B(  5-C , 11-H ) :   0.7031 B(  5-C , 12-H ) :   0.6715 B(  5-C , 13-H ) :   0.6377
B(  6-C ,  7-H ) :   0.7888 B(  6-C ,  8-H ) :   0.7571 B(  6-C ,  9-H ) :   0.1319
B(  6-C , 10-H ) :   0.1357 B(  6-C , 11-H ) :   0.2567 B(  6-C , 12-H ) :   0.2678
B(  6-C , 13-H ) :   0.2776

Dispersion correction           -0.026913276
FINAL SINGLE POINT ENERGY      -766.484282105641

DIPOLE MOMENT
-------------
                                X             Y             Z
Electronic contribution:      6.14811      -7.84695      -7.77016
Nuclear contribution   :     -6.75719       7.84793       9.30968
                        -----------------------------------------
Total Dipole Moment    :     -0.60908       0.00099       1.53951
                        -----------------------------------------
Magnitude (a.u.)       :      1.65562
Magnitude (Debye)      :      4.20826

Rotational constants in cm-1:     0.129104     0.054499     0.051192
Rotational constants in MHz :  3870.429564  1633.827608  1534.709243

                             ****ORCA TERMINATED NORMALLY****
TOTAL RUN TIME: 0 days 0 hours 0 minutes 5 seconds 571 msec
