                         Program Version 5.0.0 -  RELEASE  -
|  1> !BLYP D3BJ RIJCOSX def2-SVPD def2/J TightSCF
|  2> *xyz 0 1
|  3> C         -7.33044       -2.67899       -3.20681
|  4> S         -6.01966       -2.92697       -4.41913
|  5> O         -5.64583       -1.58838       -4.91931
|  6> O         -4.88196       -3.50370       -3.66724
|  7> F         -6.54927       -3.80515       -5.42507
|  8> C         -6.28692       -0.73588       -1.89353
|  9> C         -7.46900       -1.24615       -2.71383
| 10> H         -7.60191       -0.60135       -3.58533
| 11> H         -8.38979       -1.17344       -2.12692
| 12> H         -7.11825       -3.37982       -2.39805
| 13> H         -8.24184       -3.00474       -3.70651
| 14> H         -5.39124       -0.81034       -2.47415
| 15> H         -6.18709       -1.32597       -1.00655
| 16> H         -6.45393        0.28631       -1.62495
| 17> *
| 18> %MaxCore 64000
| 19>
| 20> %pal nprocs 8
| 21> end
| 22>
| 23> %scf
| 24>   MaxIter 150
| 25> end
| 26>
| 27>
| 28>                          ****END OF INPUT****

CARTESIAN COORDINATES (ANGSTROEM)
---------------------------------
  C     -7.330440   -2.678990   -3.206810
  S     -6.019660   -2.926970   -4.419130
  O     -5.645830   -1.588380   -4.919310
  O     -4.881960   -3.503700   -3.667240
  F     -6.549270   -3.805150   -5.425070
  C     -6.286920   -0.735880   -1.893530
  C     -7.469000   -1.246150   -2.713830
  H     -7.601910   -0.601350   -3.585330
  H     -8.389790   -1.173440   -2.126920
  H     -7.118250   -3.379820   -2.398050
  H     -8.241840   -3.004740   -3.706510
  H     -5.391240   -0.810340   -2.474150
  H     -6.187090   -1.325970   -1.006550
  H     -6.453930    0.286310   -1.624950

 Total Charge           Charge          ....    0
 Multiplicity           Mult            ....    1
 Number of Electrons    NEL             ....   66
 Basis Dimension        Dim             ....  212

ORBITAL ENERGIES
----------------

  NO   OCC          E(Eh)            E(eV)
   0   2.0000     -88.382127     -2404.9999
   1   2.0000     -24.420467      -664.5147
   2   2.0000     -18.794724      -511.4304
   3   2.0000     -18.791459      -511.3416
   4   2.0000      -9.983452      -271.6635
   5   2.0000      -9.949737      -270.7461
   6   2.0000      -9.916208      -269.8337
   7   2.0000      -7.919852      -215.5101
   8   2.0000      -5.959257      -162.1596
   9   2.0000      -5.952682      -161.9807
  10   2.0000      -5.951007      -161.9351
  11   2.0000      -1.269041       -34.5324
  12   2.0000      -1.000737       -27.2314
  13   2.0000      -0.901989       -24.5444
  14   2.0000      -0.749833       -20.4040
  15   2.0000      -0.681345       -18.5404
  16   2.0000      -0.636989       -17.3334
  17   2.0000      -0.568461       -15.4686
  18   2.0000      -0.522961       -14.2305
  19   2.0000      -0.518025       -14.0962
  20   2.0000      -0.493187       -13.4203
  21   2.0000      -0.437091       -11.8938
  22   2.0000      -0.432805       -11.7772
  23   2.0000      -0.406669       -11.0660
  24   2.0000      -0.390228       -10.6187
  25   2.0000      -0.374690       -10.1958
  26   2.0000      -0.336145        -9.1470
  27   2.0000      -0.330913        -9.0046
  28   2.0000      -0.323839        -8.8121
  29   2.0000      -0.313137        -8.5209
  30   2.0000      -0.280673        -7.6375
  31   2.0000      -0.272778        -7.4227
  32   2.0000      -0.251192        -6.8353
  33   0.0000      -0.026975        -0.7340
  34   0.0000      -0.011196        -0.3047
  35   0.0000       0.010645         0.2897
  36   0.0000       0.019652         0.5348
  37   0.0000       0.022529         0.6130

MULLIKEN ATOMIC CHARGES
-----------------------
   0 C :    0.309841
   1 S :    1.331974
   2 O :   -0.654221
   3 O :   -0.607896
   4 F :   -0.377533
   5 C :    1.201861
   6 C :    0.129890
   7 H :   -0.096788
   8 H :   -0.360666
   9 H :   -0.134824
  10 H :   -0.165334
  11 H :   -0.249744
  12 H :   -0.127702
  13 H :   -0.198858
Sum of atomic charges:    0.0000000

LOEWDIN ATOMIC CHARGES
----------------------
   0 C :   -0.044727
   1 S :    1.093107
   2 O :   -0.454554
   3 O :   -0.462348
   4 F :   -0.245472
   5 C :    0.158890
   6 C :   -0.065525
   7 H :    0.020841
   8 H :    0.026778
   9 H :    0.020659
  10 H :    0.007605
  11 H :   -0.025518
  12 H :   -0.014342
  13 H :   -0.015393

  Mayer bond orders larger than 0.100000
B(  0-C ,  1-S ) :   0.8922 B(  0-C ,  2-O ) :   0.1064 B(  0-C ,  6-C ) :   1.2539
B(  0-C ,  7-H ) :   0.1714 B(  0-C ,  8-H ) :   0.1726 B(  0-C ,  9-H ) :   0.8735
B(  0-C , 10-H ) :   0.8110 B(  1-S ,  2-O ) :   1.4788 B(  1-S ,  3-O ) :   1.4974
B(  1-S ,  4-F ) :   0.7398 B(  5-C ,  6-C ) :   1.2778 B(  5-C ,  7-H ) :   0.1072
B(  5-C , 11-H ) :   0.7088 B(  5-C , 12-H ) :   0.6633 B(  5-C , 13-H ) :   0.6318
B(  6-C ,  7-H ) :   0.7877 B(  6-C ,  8-H ) :   0.7662 B(  6-C ,  9-H ) :   0.1237
B(  6-C , 10-H ) :   0.1617 B(  6-C , 11-H ) :   0.2580 B(  6-C , 12-H ) :   0.2696
B(  6-C , 13-H ) :   0.2798

Dispersion correction           -0.027037032
FINAL SINGLE POINT ENERGY      -766.466364036180

DIPOLE MOMENT
-------------
                                X             Y             Z
Electronic contribution:      3.33214      -8.36635     -10.76953
Nuclear contribution   :     -4.96410       8.17213      11.20012
                        -----------------------------------------
Total Dipole Moment    :     -1.63196      -0.19422       0.43059
                        -----------------------------------------
Magnitude (a.u.)       :      1.69895
Magnitude (Debye)      :      4.31839

Rotational constants in cm-1:     0.133784     0.053405     0.050278
Rotational constants in MHz :  4010.731548  1601.045142  1507.298018

                             ****ORCA TERMINATED NORMALLY****
TOTAL RUN TIME: 0 days 0 hours 0 minutes 5 seconds 916 msec
