                         Program Version 5.0.0 -  RELEASE  -
|  1> !wB97X-D3 RIJCOSX def2-TZVPD def2/J TightSCF
|  2> *xyz -1 1
|  3> C         -5.57236       -5.80780       -0.81644
|  4> S         -6.90318       -4.61903       -0.52846
|  5> O         -8.11485       -5.25093       -0.95701
|  6> O         -6.53271       -3.42684       -1.31485
|  7> O         -6.86563       -4.29496        0.91412
|  8> H         -5.55376       -6.07856       -1.85145
|  9> H         -5.73990       -6.68165       -0.22212
| 10> H         -4.63562       -5.36690       -0.54622
| 11> *
| 12> %MaxCore 64000
| 13>
| 14> %pal nprocs 18
| 15> end
| 16>
| 17> %scf
| 18>   MaxIter 150
| 19> end
| 20>
| 21>                          ****END OF INPUT****

CARTESIAN COORDINATES (ANGSTROEM)
---------------------------------
  C     -5.572360   -5.807800   -0.816440
  S     -6.903180   -4.619030   -0.528460
  O     -8.114850   -5.250930   -0.957010
  O     -6.532710   -3.426840   -1.314850
  O     -6.865630   -4.294960    0.914120
  H     -5.553760   -6.078560   -1.851450
  H     -5.739900   -6.681650   -0.222120
  H     -4.635620   -5.366900   -0.546220

 Total Charge           Charge          ....   -1
 Multiplicity           Mult            ....    1
 Number of Electrons    NEL             ....   50
 Basis Dimension        Dim             ....  230

ORBITAL ENERGIES
----------------

  NO   OCC          E(Eh)            E(eV)
   0   2.0000     -88.936775     -2420.0927
   1   2.0000     -19.012906      -517.3675
   2   2.0000     -19.000322      -517.0250
   3   2.0000     -18.999343      -516.9984
   4   2.0000     -10.127212      -275.5755
   5   2.0000      -7.998985      -217.6635
   6   2.0000      -5.953471      -162.0022
   7   2.0000      -5.951950      -161.9608
   8   2.0000      -5.951678      -161.9534
   9   2.0000      -1.036359       -28.2008
  10   2.0000      -0.903469       -24.5846
  11   2.0000      -0.880528       -23.9604
  12   2.0000      -0.697461       -18.9789
  13   2.0000      -0.494100       -13.4451
  14   2.0000      -0.398226       -10.8363
  15   2.0000      -0.389297       -10.5933
  16   2.0000      -0.388124       -10.5614
  17   2.0000      -0.343915        -9.3584
  18   2.0000      -0.342085        -9.3086
  19   2.0000      -0.246357        -6.7037
  20   2.0000      -0.246318        -6.7027
  21   2.0000      -0.209784        -5.7085
  22   2.0000      -0.200908        -5.4670
  23   2.0000      -0.194307        -5.2874
  24   2.0000      -0.155162        -4.2222
  25   0.0000       0.176747         4.8095
  26   0.0000       0.188942         5.1414
  27   0.0000       0.189044         5.1441
  28   0.0000       0.200211         5.4480
  29   0.0000       0.238870         6.5000

MULLIKEN ATOMIC CHARGES
-----------------------
   0 C :   -0.893899
   1 S :    1.187495
   2 O :   -0.677172
   3 O :   -0.713013
   4 O :   -0.712105
   5 H :    0.270499
   6 H :    0.271755
   7 H :    0.266439
Sum of atomic charges:   -1.0000000

LOEWDIN ATOMIC CHARGES
----------------------
   0 C :   -0.188929
   1 S :    0.329086
   2 O :   -0.393522
   3 O :   -0.429373
   4 O :   -0.429842
   5 H :    0.037412
   6 H :    0.036904
   7 H :    0.038264

  Mayer bond orders larger than 0.100000
B(  0-C ,  1-S ) :   0.8090 B(  0-C ,  2-O ) :   0.1224 B(  0-C ,  3-O ) :   0.1231
B(  0-C ,  4-O ) :   0.1232 B(  0-C ,  5-H ) :   0.9512 B(  0-C ,  6-H ) :   0.9504
B(  0-C ,  7-H ) :   0.9567 B(  1-S ,  2-O ) :   1.5628 B(  1-S ,  3-O ) :   1.5173
B(  1-S ,  4-O ) :   1.5143

Dispersion correction           -0.001521546
FINAL SINGLE POINT ENERGY      -663.904854888149

DIPOLE MOMENT
-------------
                                X             Y             Z
Electronic contribution:     -3.25139       2.73534       0.63527
Nuclear contribution   :      4.23639      -3.86101      -0.94151
                        -----------------------------------------
Total Dipole Moment    :      0.98500      -1.12567      -0.30624
                        -----------------------------------------
Magnitude (a.u.)       :      1.52680
Magnitude (Debye)      :      3.88082

Rotational constants in cm-1:     0.172406     0.155169     0.153146
Rotational constants in MHz :  5168.590738  4651.861875  4591.214998

                             ****ORCA TERMINATED NORMALLY****
TOTAL RUN TIME: 0 days 0 hours 0 minutes 17 seconds 148 msec
