                         Program Version 5.0.0 -  RELEASE  -
|  1> !wB97X-D3 RIJCOSX def2-TZVPD def2/J TightSCF
|  2> *xyz 1 1
|  3> C         -4.38262       -1.67089        1.21620
|  4> N         -5.76354       -1.91517        0.70501
|  5> H         -5.84081       -2.11520       -0.30065
|  6> H         -6.40882       -1.14866        0.93612
|  7> H         -6.17478       -2.79061        1.05143
|  8> H         -4.01369       -0.74796        0.81997
|  9> H         -3.74223       -2.47168        0.91037
| 10> H         -4.40201       -1.61791        2.28471
| 11> *
| 12> %MaxCore 64000
| 13>
| 14> %pal nprocs 18
| 15> end
| 16>
| 17> %scf
| 18>   MaxIter 150
| 19> end
| 20>
| 21>                          ****END OF INPUT****

CARTESIAN COORDINATES (ANGSTROEM)
---------------------------------
  C     -4.382620   -1.670890    1.216200
  N     -5.763540   -1.915170    0.705010
  H     -5.840810   -2.115200   -0.300650
  H     -6.408820   -1.148660    0.936120
  H     -6.174780   -2.790610    1.051430
  H     -4.013690   -0.747960    0.819970
  H     -3.742230   -2.471680    0.910370
  H     -4.402010   -1.617910    2.284710

 Total Charge           Charge          ....    1
 Multiplicity           Mult            ....    1
 Number of Electrons    NEL             ....   18
 Basis Dimension        Dim             ....  128

ORBITAL ENERGIES
----------------

  NO   OCC          E(Eh)            E(eV)
   0   2.0000     -14.771171      -401.9440
   1   2.0000     -10.531870      -286.5868
   2   2.0000      -1.341951       -36.5163
   3   2.0000      -1.056551       -28.7502
   4   2.0000      -0.916293       -24.9336
   5   2.0000      -0.892067       -24.2744
   6   2.0000      -0.817262       -22.2388
   7   2.0000      -0.725355       -19.7379
   8   2.0000      -0.722012       -19.6469
   9   0.0000      -0.131356        -3.5744
  10   0.0000      -0.071336        -1.9411
  11   0.0000      -0.061869        -1.6835
  12   0.0000      -0.061403        -1.6709
  13   0.0000      -0.018451        -0.5021

MULLIKEN ATOMIC CHARGES
-----------------------
   0 C :   -0.786485
   1 N :   -0.376533
   2 H :    0.373001
   3 H :    0.377446
   4 H :    0.379102
   5 H :    0.343045
   6 H :    0.345041
   7 H :    0.345383
Sum of atomic charges:    1.0000000

LOEWDIN ATOMIC CHARGES
----------------------
   0 C :   -0.000906
   1 N :    0.145189
   2 H :    0.181312
   3 H :    0.182621
   4 H :    0.179154
   5 H :    0.103937
   6 H :    0.104063
   7 H :    0.104630

  Mayer bond orders larger than 0.100000
B(  0-C ,  1-N ) :   0.9211 B(  0-C ,  5-H ) :   0.8907 B(  0-C ,  6-H ) :   0.8857
B(  0-C ,  7-H ) :   0.8872 B(  1-N ,  2-H ) :   0.8601 B(  1-N ,  3-H ) :   0.8516
B(  1-N ,  4-H ) :   0.8531

Dispersion correction           -0.000533427
FINAL SINGLE POINT ENERGY       -96.224691342118

DIPOLE MOMENT
-------------
                                X             Y             Z
Electronic contribution:     -0.95814      -0.13325      -0.35304
Nuclear contribution   :      0.12888      -0.05969       0.04130
                        -----------------------------------------
Total Dipole Moment    :     -0.82926      -0.19295      -0.31175
                        -----------------------------------------
Magnitude (a.u.)       :      0.90669
Magnitude (Debye)      :      2.30463

Rotational constants in cm-1:     2.932748     0.676653     0.669753
Rotational constants in MHz : 87921.559023 20285.538082 20078.692306

                             ****ORCA TERMINATED NORMALLY****
TOTAL RUN TIME: 0 days 0 hours 0 minutes 6 seconds 247 msec
