                         Program Version 5.0.0 -  RELEASE  -
|  1> !wB97X-D3 RIJCOSX def2-TZVPD def2/J TightSCF
|  2> *xyz 0 1
|  3> C         -5.57236       -5.80780       -0.81644
|  4> S         -6.90318       -4.61903       -0.52846
|  5> F         -8.11485       -5.25093       -0.95701
|  6> O         -6.53271       -3.42684       -1.31485
|  7> O         -6.86563       -4.29496        0.91412
|  8> H         -5.55376       -6.07856       -1.85145
|  9> H         -5.73990       -6.68165       -0.22212
| 10> H         -4.63562       -5.36690       -0.54622
| 11> *
| 12> %MaxCore 64000
| 13>
| 14> %pal nprocs 18
| 15> end
| 16>
| 17> %scf
| 18>   MaxIter 150
| 19> end
| 20>
| 21>                          ****END OF INPUT****

CARTESIAN COORDINATES (ANGSTROEM)
---------------------------------
  C     -5.572360   -5.807800   -0.816440
  S     -6.903180   -4.619030   -0.528460
  F     -8.114850   -5.250930   -0.957010
  O     -6.532710   -3.426840   -1.314850
  O     -6.865630   -4.294960    0.914120
  H     -5.553760   -6.078560   -1.851450
  H     -5.739900   -6.681650   -0.222120
  H     -4.635620   -5.366900   -0.546220

 Total Charge           Charge          ....    0
 Multiplicity           Mult            ....    1
 Number of Electrons    NEL             ....   50
 Basis Dimension        Dim             ....  230

ORBITAL ENERGIES
----------------

  NO   OCC          E(Eh)            E(eV)
   0   2.0000     -89.205873     -2427.4152
   1   2.0000     -24.917973      -678.0525
   2   2.0000     -19.239710      -523.5391
   3   2.0000     -19.238699      -523.5116
   4   2.0000     -10.336617      -281.2736
   5   2.0000      -8.268409      -224.9949
   6   2.0000      -6.225833      -169.4135
   7   2.0000      -6.219666      -169.2457
   8   2.0000      -6.218940      -169.2260
   9   2.0000      -1.514693       -41.2169
  10   2.0000      -1.213713       -33.0268
  11   2.0000      -1.115003       -30.3408
  12   2.0000      -0.919565       -25.0226
  13   2.0000      -0.834896       -22.7187
  14   2.0000      -0.716640       -19.5008
  15   2.0000      -0.703499       -19.1432
  16   2.0000      -0.664021       -18.0689
  17   2.0000      -0.580610       -15.7992
  18   2.0000      -0.574783       -15.6406
  19   2.0000      -0.567097       -15.4315
  20   2.0000      -0.533555       -14.5188
  21   2.0000      -0.482140       -13.1197
  22   2.0000      -0.429704       -11.6928
  23   2.0000      -0.424959       -11.5637
  24   2.0000      -0.399763       -10.8781
  25   0.0000       0.046867         1.2753
  26   0.0000       0.062009         1.6873
  27   0.0000       0.069469         1.8903
  28   0.0000       0.073742         2.0066
  29   0.0000       0.105061         2.8589

MULLIKEN ATOMIC CHARGES
-----------------------
   0 C :   -0.915920
   1 S :    1.208877
   2 F :   -0.117775
   3 O :   -0.580034
   4 O :   -0.579461
   5 H :    0.336371
   6 H :    0.336350
   7 H :    0.311592
Sum of atomic charges:    0.0000000

LOEWDIN ATOMIC CHARGES
----------------------
   0 C :   -0.117290
   1 S :    0.586331
   2 F :   -0.047247
   3 O :   -0.308606
   4 O :   -0.308433
   5 H :    0.061457
   6 H :    0.061213
   7 H :    0.072576

  Mayer bond orders larger than 0.100000
B(  0-C ,  1-S ) :   0.8161 B(  0-C ,  3-O ) :   0.1056 B(  0-C ,  4-O ) :   0.1059
B(  0-C ,  5-H ) :   0.9001 B(  0-C ,  6-H ) :   0.9016 B(  0-C ,  7-H ) :   0.9274
B(  1-S ,  2-F ) :   1.0230 B(  1-S ,  3-O ) :   1.6726 B(  1-S ,  4-O ) :   1.6702

Dispersion correction           -0.001530103
FINAL SINGLE POINT ENERGY      -688.416573941269

DIPOLE MOMENT
-------------
                                X             Y             Z
Electronic contribution:     -5.24874       1.62249      -0.09386
Nuclear contribution   :      5.53040      -3.27628      -0.52239
                        -----------------------------------------
Total Dipole Moment    :      0.28166      -1.65379      -0.61626
                        -----------------------------------------
Magnitude (a.u.)       :      1.78721
Magnitude (Debye)      :      4.54274

Rotational constants in cm-1:     0.163239     0.153903     0.144751
Rotational constants in MHz :  4893.777363  4613.882823  4339.513182

                             ****ORCA TERMINATED NORMALLY****
TOTAL RUN TIME: 0 days 0 hours 0 minutes 12 seconds 657 msec
