                         Program Version 5.0.0 -  RELEASE  -
|  1> !wB97X-D3 RIJCOSX def2-TZVPD def2/J TightSCF
|  2> *xyz 0 1
|  3> C         -4.38262       -1.67089        1.21620
|  4> C         -5.76354       -1.91517        0.70501
|  5> H         -5.84081       -2.11520       -0.30065
|  6> H         -6.40882       -1.14866        0.93612
|  7> H         -6.17478       -2.79061        1.05143
|  8> H         -4.01369       -0.74796        0.81997
|  9> H         -3.74223       -2.47168        0.91037
| 10> H         -4.40201       -1.61791        2.28471
| 11> *
| 12> %MaxCore 64000
| 13>
| 14> %pal nprocs 18
| 15> end
| 16>
| 17> %scf
| 18>   MaxIter 150
| 19> end
| 20>
| 21>                          ****END OF INPUT****

CARTESIAN COORDINATES (ANGSTROEM)
---------------------------------
  C     -4.382620   -1.670890    1.216200
  C     -5.763540   -1.915170    0.705010
  H     -5.840810   -2.115200   -0.300650
  H     -6.408820   -1.148660    0.936120
  H     -6.174780   -2.790610    1.051430
  H     -4.013690   -0.747960    0.819970
  H     -3.742230   -2.471680    0.910370
  H     -4.402010   -1.617910    2.284710

 Total Charge           Charge          ....    0
 Multiplicity           Mult            ....    1
 Number of Electrons    NEL             ....   18
 Basis Dimension        Dim             ....  128

ORBITAL ENERGIES
----------------

  NO   OCC          E(Eh)            E(eV)
   0   2.0000     -10.250453      -278.9290
   1   2.0000     -10.233864      -278.4776
   2   2.0000      -0.882872       -24.0242
   3   2.0000      -0.738755       -20.1025
   4   2.0000      -0.551512       -15.0074
   5   2.0000      -0.538000       -14.6397
   6   2.0000      -0.470176       -12.7941
   7   2.0000      -0.444862       -12.1053
   8   2.0000      -0.431349       -11.7376
   9   0.0000       0.078343         2.1318
  10   0.0000       0.098319         2.6754
  11   0.0000       0.143123         3.8946
  12   0.0000       0.146306         3.9812
  13   0.0000       0.170159         4.6303

MULLIKEN ATOMIC CHARGES
-----------------------
   0 C :   -0.756721
   1 C :   -1.084866
   2 H :    0.357364
   3 H :    0.328044
   4 H :    0.346910
   5 H :    0.265498
   6 H :    0.276565
   7 H :    0.267205
Sum of atomic charges:   -0.0000000

LOEWDIN ATOMIC CHARGES
----------------------
   0 C :   -0.154163
   1 C :   -0.171423
   2 H :    0.046449
   3 H :    0.048450
   4 H :    0.045239
   5 H :    0.061275
   6 H :    0.061998
   7 H :    0.062175

  Mayer bond orders larger than 0.100000
B(  0-C ,  1-C ) :   0.5845 B(  0-C ,  5-H ) :   0.9722 B(  0-C ,  6-H ) :   0.9667
B(  0-C ,  7-H ) :   0.9771 B(  1-C ,  2-H ) :   0.9231 B(  1-C ,  3-H ) :   0.9326
B(  1-C ,  4-H ) :   0.9423

Dispersion correction           -0.000522348
FINAL SINGLE POINT ENERGY       -79.821562188448

DIPOLE MOMENT
-------------
                                X             Y             Z
Electronic contribution:      0.07831       0.07516       0.03207
Nuclear contribution   :     -0.10782      -0.10031      -0.04623
                        -----------------------------------------
Total Dipole Moment    :     -0.02951      -0.02515      -0.01416
                        -----------------------------------------
Magnitude (a.u.)       :      0.04127
Magnitude (Debye)      :      0.10491

Rotational constants in cm-1:     2.932831     0.705715     0.698218
Rotational constants in MHz : 87924.050302 21156.813368 20932.044240

                             ****ORCA TERMINATED NORMALLY****
TOTAL RUN TIME: 0 days 0 hours 0 minutes 5 seconds 908 msec
