                         Program Version 5.0.0 -  RELEASE  -
|  1> !wB97X-D3 RIJCOSX def2-TZVPD def2/J TightSCF
|  2> *xyz 0 1
|  3> C         -5.57236       -5.80780       -0.81644
|  4> S         -6.90318       -4.61903       -0.52846
|  5> O         -8.11485       -5.25093       -0.95701
|  6> F         -6.53271       -3.42684       -1.31485
|  7> O         -6.86563       -4.29496        0.91412
|  8> H         -5.55376       -6.07856       -1.85145
|  9> H         -5.73990       -6.68165       -0.22212
| 10> H         -4.63562       -5.36690       -0.54622
| 11> *
| 12> %MaxCore 64000
| 13>
| 14> %pal nprocs 18
| 15> end
| 16>
| 17> %scf
| 18>   MaxIter 150
| 19> end
| 20>
| 21>                          ****END OF INPUT****

CARTESIAN COORDINATES (ANGSTROEM)
---------------------------------
  C     -5.572360   -5.807800   -0.816440
  S     -6.903180   -4.619030   -0.528460
  O     -8.114850   -5.250930   -0.957010
  F     -6.532710   -3.426840   -1.314850
  O     -6.865630   -4.294960    0.914120
  H     -5.553760   -6.078560   -1.851450
  H     -5.739900   -6.681650   -0.222120
  H     -4.635620   -5.366900   -0.546220

 Total Charge           Charge          ....    0
 Multiplicity           Mult            ....    1
 Number of Electrons    NEL             ....   50
 Basis Dimension        Dim             ....  230

ORBITAL ENERGIES
----------------

  NO   OCC          E(Eh)            E(eV)
   0   2.0000     -89.203374     -2427.3472
   1   2.0000     -24.895909      -677.4521
   2   2.0000     -19.252048      -523.8749
   3   2.0000     -19.239081      -523.5220
   4   2.0000     -10.335885      -281.2537
   5   2.0000      -8.265956      -224.9281
   6   2.0000      -6.223400      -169.3473
   7   2.0000      -6.217396      -169.1840
   8   2.0000      -6.216408      -169.1571
   9   2.0000      -1.478218       -40.2244
  10   2.0000      -1.230334       -33.4791
  11   2.0000      -1.130216       -30.7547
  12   2.0000      -0.917414       -24.9641
  13   2.0000      -0.816636       -22.2218
  14   2.0000      -0.697851       -18.9895
  15   2.0000      -0.677714       -18.4415
  16   2.0000      -0.660175       -17.9643
  17   2.0000      -0.581115       -15.8129
  18   2.0000      -0.578419       -15.7396
  19   2.0000      -0.566272       -15.4090
  20   2.0000      -0.540958       -14.7202
  21   2.0000      -0.491056       -13.3623
  22   2.0000      -0.442430       -12.0391
  23   2.0000      -0.429015       -11.6741
  24   2.0000      -0.412255       -11.2180
  25   0.0000       0.048931         1.3315
  26   0.0000       0.063421         1.7258
  27   0.0000       0.070231         1.9111
  28   0.0000       0.072981         1.9859
  29   0.0000       0.104735         2.8500

MULLIKEN ATOMIC CHARGES
-----------------------
   0 C :   -0.916763
   1 S :    1.228399
   2 O :   -0.556127
   3 F :   -0.153785
   4 O :   -0.587428
   5 H :    0.335748
   6 H :    0.318649
   7 H :    0.331307
Sum of atomic charges:   -0.0000000

LOEWDIN ATOMIC CHARGES
----------------------
   0 C :   -0.116107
   1 S :    0.587762
   2 O :   -0.275578
   3 F :   -0.082171
   4 O :   -0.309248
   5 H :    0.061692
   6 H :    0.071709
   7 H :    0.061941

  Mayer bond orders larger than 0.100000
B(  0-C ,  1-S ) :   0.8117 B(  0-C ,  2-O ) :   0.1062 B(  0-C ,  4-O ) :   0.1060
B(  0-C ,  5-H ) :   0.9017 B(  0-C ,  6-H ) :   0.9209 B(  0-C ,  7-H ) :   0.9054
B(  1-S ,  2-O ) :   1.7164 B(  1-S ,  3-F ) :   0.9734 B(  1-S ,  4-O ) :   1.6612

Dispersion correction           -0.001529238
FINAL SINGLE POINT ENERGY      -688.434358753640

DIPOLE MOMENT
-------------
                                X             Y             Z
Electronic contribution:     -2.60037       4.67997      -0.70750
Nuclear contribution   :      3.94974      -5.09866      -0.16489
                        -----------------------------------------
Total Dipole Moment    :      1.34937      -0.41870      -0.87239
                        -----------------------------------------
Magnitude (a.u.)       :      1.66047
Magnitude (Debye)      :      4.22058

Rotational constants in cm-1:     0.163657     0.151977     0.145976
Rotational constants in MHz :  4906.325390  4556.144033  4376.262759

                             ****ORCA TERMINATED NORMALLY****
TOTAL RUN TIME: 0 days 0 hours 0 minutes 12 seconds 711 msec
