                         Program Version 5.0.0 -  RELEASE  -
|  1> !wB97X-D3 RIJCOSX def2-TZVPD def2/J TightSCF
|  2> *xyz 0 1
|  3> C         -5.57236       -5.80780       -0.81644
|  4> S         -6.90318       -4.61903       -0.52846
|  5> O         -8.11485       -5.25093       -0.95701
|  6> O         -6.53271       -3.42684       -1.31485
|  7> F         -6.86563       -4.29496        0.91412
|  8> H         -5.55376       -6.07856       -1.85145
|  9> H         -5.73990       -6.68165       -0.22212
| 10> H         -4.63562       -5.36690       -0.54622
| 11> *
| 12> %MaxCore 64000
| 13>
| 14> %pal nprocs 18
| 15> end
| 16>
| 17> %scf
| 18>   MaxIter 150
| 19> end
| 20>
| 21>                          ****END OF INPUT****

CARTESIAN COORDINATES (ANGSTROEM)
---------------------------------
  C     -5.572360   -5.807800   -0.816440
  S     -6.903180   -4.619030   -0.528460
  O     -8.114850   -5.250930   -0.957010
  O     -6.532710   -3.426840   -1.314850
  F     -6.865630   -4.294960    0.914120
  H     -5.553760   -6.078560   -1.851450
  H     -5.739900   -6.681650   -0.222120
  H     -4.635620   -5.366900   -0.546220

 Total Charge           Charge          ....    0
 Multiplicity           Mult            ....    1
 Number of Electrons    NEL             ....   50
 Basis Dimension        Dim             ....  230

ORBITAL ENERGIES
----------------

  NO   OCC          E(Eh)            E(eV)
   0   2.0000     -89.203085     -2427.3394
   1   2.0000     -24.895741      -677.4476
   2   2.0000     -19.252129      -523.8771
   3   2.0000     -19.238176      -523.4974
   4   2.0000     -10.335860      -281.2530
   5   2.0000      -8.265703      -224.9212
   6   2.0000      -6.223104      -169.3393
   7   2.0000      -6.217183      -169.1781
   8   2.0000      -6.216137      -169.1497
   9   2.0000      -1.476390       -40.1746
  10   2.0000      -1.231060       -33.4988
  11   2.0000      -1.130987       -30.7757
  12   2.0000      -0.916666       -24.9438
  13   2.0000      -0.816289       -22.2124
  14   2.0000      -0.697128       -18.9698
  15   2.0000      -0.676488       -18.4082
  16   2.0000      -0.659630       -17.9494
  17   2.0000      -0.580835       -15.8053
  18   2.0000      -0.578210       -15.7339
  19   2.0000      -0.567192       -15.4341
  20   2.0000      -0.541068       -14.7232
  21   2.0000      -0.491155       -13.3650
  22   2.0000      -0.442453       -12.0398
  23   2.0000      -0.428418       -11.6579
  24   2.0000      -0.412349       -11.2206
  25   0.0000       0.048558         1.3213
  26   0.0000       0.063330         1.7233
  27   0.0000       0.070186         1.9098
  28   0.0000       0.072760         1.9799
  29   0.0000       0.103269         2.8101

MULLIKEN ATOMIC CHARGES
-----------------------
   0 C :   -0.916192
   1 S :    1.230536
   2 O :   -0.556714
   3 O :   -0.588240
   4 F :   -0.153948
   5 H :    0.318216
   6 H :    0.335960
   7 H :    0.330382
Sum of atomic charges:   -0.0000000

LOEWDIN ATOMIC CHARGES
----------------------
   0 C :   -0.116247
   1 S :    0.588466
   2 O :   -0.275376
   3 O :   -0.308953
   4 F :   -0.083138
   5 H :    0.072060
   6 H :    0.060957
   7 H :    0.062231

  Mayer bond orders larger than 0.100000
B(  0-C ,  1-S ) :   0.8122 B(  0-C ,  2-O ) :   0.1072 B(  0-C ,  3-O ) :   0.1050
B(  0-C ,  5-H ) :   0.9205 B(  0-C ,  6-H ) :   0.9008 B(  0-C ,  7-H ) :   0.9073
B(  1-S ,  2-O ) :   1.7167 B(  1-S ,  3-O ) :   1.6645 B(  1-S ,  4-F ) :   0.9687

Dispersion correction           -0.001528000
FINAL SINGLE POINT ENERGY      -688.433967327446

DIPOLE MOMENT
-------------
                                X             Y             Z
Electronic contribution:     -3.16061       3.21405       3.04740
Nuclear contribution   :      4.28235      -4.23136      -2.39177
                        -----------------------------------------
Total Dipole Moment    :      1.12174      -1.01731       0.65562
                        -----------------------------------------
Magnitude (a.u.)       :      1.65017
Magnitude (Debye)      :      4.19439

Rotational constants in cm-1:     0.164456     0.151338     0.145749
Rotational constants in MHz :  4930.268698  4537.002642  4369.437533

                             ****ORCA TERMINATED NORMALLY****
TOTAL RUN TIME: 0 days 0 hours 0 minutes 12 seconds 833 msec
