                         Program Version 5.0.0 -  RELEASE  -
|  1> !PBE0 D3BJ RIJCOSX def2-SVPD def2/J TightSCF
|  2> *xyz -1 1
|  3> C         -1.91658       -2.48508       -3.64367
|  4> C         -1.36353       -1.98134       -2.29361
|  5> O         -0.35039       -2.74969       -1.79601
|  6> H         -2.22622       -1.90839       -1.60204
|  7> H         -1.05135       -0.91567       -2.44333
|  8> H         -1.11522       -2.57167       -4.34739
|  9> H         -2.64227       -1.79099       -4.01314
| 10> H         -2.37564       -3.44180       -3.50640
| 11> *
| 12>
| 13> %MaxCore 64000
| 14> %pal nprocs 4
| 15> end
| 16>
| 17> %scf
| 18>   MaxIter 150
| 19> end
| 20>
| 21>
| 22>                          ****END OF INPUT****

CARTESIAN COORDINATES (ANGSTROEM)
---------------------------------
  C     -1.916580   -2.485080   -3.643670
  C     -1.363530   -1.981340   -2.293610
  O     -0.350390   -2.749690   -1.796010
  H     -2.226220   -1.908390   -1.602040
  H     -1.051350   -0.915670   -2.443330
  H     -1.115220   -2.571670   -4.347390
  H     -2.642270   -1.790990   -4.013140
  H     -2.375640   -3.441800   -3.506400

 Total Charge           Charge          ....   -1
 Multiplicity           Mult            ....    1
 Number of Electrons    NEL             ....   26
 Basis Dimension        Dim             ....  103

ORBITAL ENERGIES
----------------

  NO   OCC          E(Eh)            E(eV)
   0   2.0000     -18.884186      -513.8648
   1   2.0000     -10.046535      -273.3801
   2   2.0000     -10.023834      -272.7624
   3   2.0000      -0.696592       -18.9552
   4   2.0000      -0.540309       -14.7026
   5   2.0000      -0.383363       -10.4318
   6   2.0000      -0.262126        -7.1328
   7   2.0000      -0.240331        -6.5398
   8   2.0000      -0.186016        -5.0618
   9   2.0000      -0.167376        -4.5545
  10   2.0000      -0.126608        -3.4452
  11   2.0000       0.019027         0.5178
  12   2.0000       0.022079         0.6008
  13   0.0000       0.186135         5.0650
  14   0.0000       0.217021         5.9055
  15   0.0000       0.251086         6.8324
  16   0.0000       0.263879         7.1805
  17   0.0000       0.281696         7.6653

MULLIKEN ATOMIC CHARGES
-----------------------
   0 C :    0.107249
   1 C :    0.083272
   2 O :   -0.935390
   3 H :   -0.114711
   4 H :   -0.085122
   5 H :   -0.034584
   6 H :    0.006730
   7 H :   -0.027444
Sum of atomic charges:   -1.0000000

LOEWDIN ATOMIC CHARGES
----------------------
   0 C :    0.056601
   1 C :   -0.263051
   2 O :   -0.583581
   3 H :   -0.035020
   4 H :   -0.030435
   5 H :   -0.041732
   6 H :   -0.059591
   7 H :   -0.043191

  Mayer bond orders larger than 0.100000
B(  0-C ,  1-C ) :   1.1978 B(  0-C ,  2-O ) :   0.1848 B(  0-C ,  3-H ) :   0.1160
B(  0-C ,  4-H ) :   0.1117 B(  0-C ,  5-H ) :   0.9363 B(  0-C ,  6-H ) :   0.9222
B(  0-C ,  7-H ) :   0.9320 B(  1-C ,  2-O ) :   1.0791 B(  1-C ,  3-H ) :   1.0005
B(  1-C ,  4-H ) :   0.9926 B(  1-C ,  5-H ) :   0.1607 B(  1-C ,  6-H ) :   0.1069
B(  1-C ,  7-H ) :   0.1473

Dispersion correction           -0.003046694
FINAL SINGLE POINT ENERGY      -154.141169764478

DIPOLE MOMENT
-------------
                                X             Y             Z
Electronic contribution:      2.03269      -0.86683       1.82699
Nuclear contribution   :     -3.14382       1.30299      -2.83231
                        -----------------------------------------
Total Dipole Moment    :     -1.11114       0.43616      -1.00531
                        -----------------------------------------
Magnitude (a.u.)       :      1.56061
Magnitude (Debye)      :      3.96677

Rotational constants in cm-1:     1.288206     0.322942     0.285188
Rotational constants in MHz : 38619.437223  9681.562038  8549.712012

                             ****ORCA TERMINATED NORMALLY****
TOTAL RUN TIME: 0 days 0 hours 0 minutes 10 seconds 618 msec
