                         Program Version 5.0.0 -  RELEASE  -
|  1> !PBE0 D3BJ RIJCOSX def2-SVPD def2/J TightSCF
|  2> *xyz 1 1
|  3> C          1.64703       -2.34528       -5.02041
|  4> C          2.20996       -2.81239       -3.66571
|  5> C          2.48901       -1.66851       -2.73754
|  6> N          3.59631       -0.94761       -2.95225
|  7> N          1.66394       -1.41369       -1.77781
|  8> H          0.81164       -1.96318       -1.70275
|  9> H          1.84550       -0.63508       -1.15875
| 10> H          4.20535       -1.17600       -3.73383
| 11> H          3.81723       -0.12585       -2.40604
| 12> H          3.14311       -3.36280       -3.81152
| 13> H          1.48768       -3.45893       -3.16521
| 14> H          1.46566       -3.19589       -5.64368
| 15> H          2.35406       -1.69850       -5.49654
| 16> H          0.73014       -1.81680       -4.86253
| 17> *
| 18>
| 19> %MaxCore 64000
| 20> %pal nprocs 4
| 21> end
| 22>
| 23> %scf
| 24>   MaxIter 150
| 25> end
| 26>
| 27>
| 28>                          ****END OF INPUT****

CARTESIAN COORDINATES (ANGSTROEM)
---------------------------------
  C      1.647030   -2.345280   -5.020410
  C      2.209960   -2.812390   -3.665710
  C      2.489010   -1.668510   -2.737540
  N      3.596310   -0.947610   -2.952250
  N      1.663940   -1.413690   -1.777810
  H      0.811640   -1.963180   -1.702750
  H      1.845500   -0.635080   -1.158750
  H      4.205350   -1.176000   -3.733830
  H      3.817230   -0.125850   -2.406040
  H      3.143110   -3.362800   -3.811520
  H      1.487680   -3.458930   -3.165210
  H      1.465660   -3.195890   -5.643680
  H      2.354060   -1.698500   -5.496540
  H      0.730140   -1.816800   -4.862530

 Total Charge           Charge          ....    1
 Multiplicity           Mult            ....    1
 Number of Electrons    NEL             ....   40
 Basis Dimension        Dim             ....  172

ORBITAL ENERGIES
----------------

  NO   OCC          E(Eh)            E(eV)
   0   2.0000     -14.648629      -398.6094
   1   2.0000     -14.639491      -398.3608
   2   2.0000     -10.555994      -287.2432
   3   2.0000     -10.433234      -283.9027
   4   2.0000     -10.389374      -282.7092
   5   2.0000      -1.225931       -33.3593
   6   2.0000      -1.127887       -30.6914
   7   2.0000      -0.986522       -26.8446
   8   2.0000      -0.877357       -23.8741
   9   2.0000      -0.834733       -22.7142
  10   2.0000      -0.794801       -21.6276
  11   2.0000      -0.766972       -20.8704
  12   2.0000      -0.721649       -19.6371
  13   2.0000      -0.664634       -18.0856
  14   2.0000      -0.637249       -17.3404
  15   2.0000      -0.628799       -17.1105
  16   2.0000      -0.559030       -15.2120
  17   2.0000      -0.548685       -14.9305
  18   2.0000      -0.542864       -14.7721
  19   2.0000      -0.506885       -13.7930
  20   0.0000      -0.205756        -5.5989
  21   0.0000      -0.153121        -4.1666
  22   0.0000      -0.108331        -2.9478
  23   0.0000      -0.107362        -2.9215
  24   0.0000      -0.077192        -2.1005

MULLIKEN ATOMIC CHARGES
-----------------------
   0 C :    0.492776
   1 C :   -0.453754
   2 C :    0.902790
   3 N :   -0.084154
   4 N :   -0.047631
   5 H :    0.070408
   6 H :   -0.079967
   7 H :    0.056899
   8 H :   -0.115809
   9 H :    0.080547
  10 H :    0.068829
  11 H :    0.075270
  12 H :    0.022372
  13 H :    0.011425
Sum of atomic charges:    1.0000000

LOEWDIN ATOMIC CHARGES
----------------------
   0 C :    0.169263
   1 C :    0.007997
   2 C :   -0.043571
   3 N :    0.277812
   4 N :    0.282067
   5 H :    0.063496
   6 H :    0.055763
   7 H :    0.052972
   8 H :    0.043670
   9 H :    0.050491
  10 H :    0.038057
  11 H :    0.009481
  12 H :   -0.007522
  13 H :    0.000024

  Mayer bond orders larger than 0.100000
B(  0-C ,  1-C ) :   1.2733 B(  0-C , 11-H ) :   0.8580 B(  0-C , 12-H ) :   0.8252
B(  0-C , 13-H ) :   0.8758 B(  1-C ,  2-C ) :   1.1236 B(  1-C ,  9-H ) :   0.9187
B(  1-C , 10-H ) :   0.9160 B(  1-C , 11-H ) :   0.1232 B(  1-C , 12-H ) :   0.1654
B(  1-C , 13-H ) :   0.1408 B(  2-C ,  3-N ) :   0.9990 B(  2-C ,  4-N ) :   1.0505
B(  2-C ,  6-H ) :  -0.1692 B(  2-C ,  8-H ) :  -0.1714 B(  2-C , 10-H ) :   0.1046
B(  3-N ,  4-N ) :   0.1612 B(  3-N ,  7-H ) :   1.0890 B(  3-N ,  8-H ) :   1.2929
B(  4-N ,  5-H ) :   1.0809 B(  4-N ,  6-H ) :   1.2953 B(  5-H ,  6-H ) :  -0.1568
B(  7-H ,  8-H ) :  -0.1647

Dispersion correction           -0.008510887
FINAL SINGLE POINT ENERGY      -228.619163383266

DIPOLE MOMENT
-------------
                                X             Y             Z
Electronic contribution:      1.19488       1.65728       3.62522
Nuclear contribution   :     -0.98617      -1.03178      -2.77619
                        -----------------------------------------
Total Dipole Moment    :      0.20871       0.62550       0.84903
                        -----------------------------------------
Magnitude (a.u.)       :      1.07502
Magnitude (Debye)      :      2.73247

Rotational constants in cm-1:     0.257311     0.127495     0.099037
Rotational constants in MHz :  7713.982239  3822.189706  2969.039713

                             ****ORCA TERMINATED NORMALLY****
TOTAL RUN TIME: 0 days 0 hours 0 minutes 20 seconds 703 msec
