                         Program Version 5.0.0 -  RELEASE  -
|  1> !PBE0 D3BJ RIJCOSX def2-SVPD def2/J TightSCF xyzfile
|  2>
|  3> *xyzfile 0 1 B.xyz
|  4>
|  5> %MaxCore 64000
|  6>
|  7> %pal nprocs 4
|  8> end
|  9>
| 10> %scf
| 11>   MaxIter 150
| 12> end
| 13>
| 14>
| 15>                          ****END OF INPUT****

CARTESIAN COORDINATES (ANGSTROEM)
---------------------------------
  C      1.647032   -2.345276   -5.020411
  C      0.217628   -1.814022   -4.924389
  C      2.209964   -2.812388   -3.665708
  C     -0.811356   -2.908780   -4.607625
  C     -1.916579   -2.485081   -3.643665
  H     -2.554525   -1.712428   -4.091993
  C     -1.363531   -1.981337   -2.293608
  H     -2.553448   -3.355667   -3.458815
  O     -0.350395   -2.749689   -1.796006
  H      2.308385   -1.588704   -5.457128
  H      1.674286   -3.203478   -5.697392
  C      2.489007   -1.668510   -2.737538
  N      3.596314   -0.947608   -2.952247
  N      1.663936   -1.413685   -1.777806
  H      0.811642   -1.963178   -1.702755
  H      1.845503   -0.635078   -1.158749
  H      4.205351   -1.176003   -3.733825
  H      3.817230   -0.125845   -2.406041
  H     -1.244829   -3.280884   -5.541040
  H     -0.306331   -3.757746   -4.142734
  H     -0.036244   -1.318555   -5.865303
  H      0.175004   -1.035382   -4.158095
  H      3.143106   -3.362803   -3.811524
  H      1.487683   -3.458935   -3.165211
  H     -2.226220   -1.908386   -1.602039
  H     -1.051353   -0.915671   -2.443331

 Total Charge           Charge          ....    0
 Multiplicity           Mult            ....    1
 Number of Electrons    NEL             ....   80
 Basis Dimension        Dim             ....  331

ORBITAL ENERGIES
----------------

  NO   OCC          E(Eh)            E(eV)
   0   2.0000     -19.074718      -519.0495
   1   2.0000     -14.474801      -393.8794
   2   2.0000     -14.428327      -392.6147
   3   2.0000     -10.372775      -282.2576
   4   2.0000     -10.258946      -279.1601
   5   2.0000     -10.247551      -278.8500
   6   2.0000     -10.217429      -278.0304
   7   2.0000     -10.207425      -277.7581
   8   2.0000     -10.197802      -277.4963
   9   2.0000     -10.180345      -277.0213
  10   2.0000      -1.042263       -28.3614
  11   2.0000      -0.947513       -25.7831
  12   2.0000      -0.895223       -24.3603
  13   2.0000      -0.834253       -22.7012
  14   2.0000      -0.771556       -20.9951
  15   2.0000      -0.720863       -19.6157
  16   2.0000      -0.667726       -18.1697
  17   2.0000      -0.646954       -17.6045
  18   2.0000      -0.615696       -16.7539
  19   2.0000      -0.604463       -16.4483
  20   2.0000      -0.576929       -15.6990
  21   2.0000      -0.539012       -14.6673
  22   2.0000      -0.514252       -13.9935
  23   2.0000      -0.500349       -13.6152
  24   2.0000      -0.478823       -13.0294
  25   2.0000      -0.455348       -12.3907
  26   2.0000      -0.443826       -12.0771
  27   2.0000      -0.416550       -11.3349
  28   2.0000      -0.404288       -11.0012
  29   2.0000      -0.400306       -10.8929
  30   2.0000      -0.369606       -10.0575
  31   2.0000      -0.361282        -9.8310
  32   2.0000      -0.350801        -9.5458
  33   2.0000      -0.332232        -9.0405
  34   2.0000      -0.324363        -8.8264
  35   2.0000      -0.310961        -8.4617
  36   2.0000      -0.303010        -8.2453
  37   2.0000      -0.296005        -8.0547
  38   2.0000      -0.180991        -4.9250
  39   2.0000      -0.173544        -4.7224
  40   0.0000      -0.030581        -0.8322
  41   0.0000      -0.011012        -0.2996
  42   0.0000       0.024722         0.6727
  43   0.0000       0.045346         1.2339
  44   0.0000       0.051518         1.4019

MULLIKEN ATOMIC CHARGES
-----------------------
   0 C :    0.172803
   1 C :    0.013251
   2 C :   -0.021594
   3 C :   -0.052061
   4 C :    0.077052
   5 H :   -0.085305
   6 C :    0.420993
   7 H :    0.094874
   8 O :   -0.818564
   9 H :   -0.012417
  10 H :   -0.023718
  11 C :    0.920595
  12 N :   -0.130530
  13 N :    0.245399
  14 H :   -0.248761
  15 H :   -0.123564
  16 H :   -0.032469
  17 H :   -0.139760
  18 H :   -0.166655
  19 H :    0.107581
  20 H :   -0.117897
  21 H :    0.004009
  22 H :   -0.044410
  23 H :    0.102584
  24 H :   -0.314334
  25 H :    0.172896
Sum of atomic charges:    0.0000000

LOEWDIN ATOMIC CHARGES
----------------------
   0 C :   -0.019211
   1 C :   -0.018918
   2 C :    0.050485
   3 C :   -0.033525
   4 C :   -0.036482
   5 H :    0.016609
   6 C :   -0.086706
   7 H :    0.020058
   8 O :   -0.409093
   9 H :    0.012742
  10 H :    0.030103
  11 C :   -0.042522
  12 N :    0.232720
  13 N :    0.307314
  14 H :   -0.192417
  15 H :    0.038282
  16 H :    0.025968
  17 H :    0.019563
  18 H :    0.016690
  19 H :    0.004890
  20 H :    0.021153
  21 H :   -0.000862
  22 H :    0.031779
  23 H :    0.012521
  24 H :    0.005157
  25 H :   -0.006300

  Mayer bond orders larger than 0.100000
B(  0-C ,  1-C ) :   1.2446 B(  0-C ,  2-C ) :   1.1686 B(  0-C ,  9-H ) :   0.7651
B(  0-C , 10-H ) :   0.8885 B(  0-C , 21-H ) :   0.1363 B(  0-C , 22-H ) :   0.1015
B(  1-C ,  3-C ) :   1.1832 B(  1-C ,  9-H ) :   0.1613 B(  1-C , 10-H ) :   0.1148
B(  1-C , 18-H ) :   0.1950 B(  1-C , 20-H ) :   0.9000 B(  1-C , 21-H ) :   0.8272
B(  2-C ,  9-H ) :   0.1420 B(  2-C , 10-H ) :   0.1049 B(  2-C , 11-C ) :   1.0916
B(  2-C , 22-H ) :   0.8460 B(  2-C , 23-H ) :   0.8363 B(  3-C ,  4-C ) :   1.2625
B(  3-C ,  5-H ) :   0.1339 B(  3-C ,  7-H ) :   0.1800 B(  3-C , 18-H ) :   0.9193
B(  3-C , 19-H ) :   0.8154 B(  3-C , 20-H ) :   0.1106 B(  3-C , 21-H ) :   0.1357
B(  4-C ,  5-H ) :   0.9475 B(  4-C ,  6-C ) :   1.1423 B(  4-C ,  7-H ) :   0.7229
B(  4-C , 24-H ) :   0.1255 B(  5-H ,  6-C ) :   0.1092 B(  6-C ,  7-H ) :   0.1072
B(  6-C ,  8-O ) :   0.9038 B(  6-C , 24-H ) :   1.0822 B(  6-C , 25-H ) :   0.7826
B(  8-O , 14-H ) :   0.4476 B( 11-C , 12-N ) :   0.8469 B( 11-C , 13-N ) :   1.1196
B( 11-C , 15-H ) :  -0.2342 B( 11-C , 16-H ) :  -0.1514 B( 11-C , 17-H ) :  -0.1402
B( 11-C , 22-H ) :   0.1111 B( 11-C , 23-H ) :   0.1412 B( 12-N , 13-N ) :   0.1719
B( 12-N , 16-H ) :   1.2087 B( 12-N , 17-H ) :   1.2966 B( 13-N , 14-H ) :   0.9243
B( 13-N , 15-H ) :   1.3162 B( 14-H , 15-H ) :  -0.2095 B( 16-H , 17-H ) :  -0.1685
B( 19-H , 23-H ) :   0.1090

Dispersion correction           -0.023149150
FINAL SINGLE POINT ENERGY      -460.256042951954

DIPOLE MOMENT
-------------
                                X             Y             Z
Electronic contribution:      5.59641       0.90039       4.30281
Nuclear contribution   :     -2.25948       0.71378      -5.15247
                        -----------------------------------------
Total Dipole Moment    :      3.33693       1.61417      -0.84966
                        -----------------------------------------
Magnitude (a.u.)       :      3.80297
Magnitude (Debye)      :      9.66638

Rotational constants in cm-1:     0.063973     0.031829     0.024059
Rotational constants in MHz :  1917.874550   954.201145   721.285252

                             ****ORCA TERMINATED NORMALLY****
TOTAL RUN TIME: 0 days 0 hours 1 minutes 22 seconds 85 msec
