                         Program Version 5.0.0 -  RELEASE  -
|  1> !PBE0 D3BJ RIJCOSX def2-SVPD def2/J TightSCF
|  2> *xyz 0 1
|  3> C         -1.91658       -2.48508       -3.64367
|  4> C         -1.36353       -1.98134       -2.29361
|  5> F         -0.35039       -2.74969       -1.79601
|  6> H         -2.22622       -1.90839       -1.60204
|  7> H         -1.05135       -0.91567       -2.44333
|  8> H         -1.11522       -2.57167       -4.34739
|  9> H         -2.64227       -1.79099       -4.01314
| 10> H         -2.37564       -3.44180       -3.50640
| 11> *
| 12>
| 13> %MaxCore 64000
| 14> %pal nprocs 4
| 15> end
| 16>
| 17> %scf
| 18>   MaxIter 150
| 19> end
| 20>
| 21>
| 22>                          ****END OF INPUT****

CARTESIAN COORDINATES (ANGSTROEM)
---------------------------------
  C     -1.916580   -2.485080   -3.643670
  C     -1.363530   -1.981340   -2.293610
  F     -0.350390   -2.749690   -1.796010
  H     -2.226220   -1.908390   -1.602040
  H     -1.051350   -0.915670   -2.443330
  H     -1.115220   -2.571670   -4.347390
  H     -2.642270   -1.790990   -4.013140
  H     -2.375640   -3.441800   -3.506400

 Total Charge           Charge          ....    0
 Multiplicity           Mult            ....    1
 Number of Electrons    NEL             ....   26
 Basis Dimension        Dim             ....  103

ORBITAL ENERGIES
----------------

  NO   OCC          E(Eh)            E(eV)
   0   2.0000     -24.774457      -674.1472
   1   2.0000     -10.314855      -280.6815
   2   2.0000     -10.230118      -278.3757
   3   2.0000      -1.218842       -33.1664
   4   2.0000      -0.780906       -21.2495
   5   2.0000      -0.647414       -17.6170
   6   2.0000      -0.529390       -14.4054
   7   2.0000      -0.512865       -13.9558
   8   2.0000      -0.478562       -13.0223
   9   2.0000      -0.422128       -11.4867
  10   2.0000      -0.415937       -11.3182
  11   2.0000      -0.352009        -9.5787
  12   2.0000      -0.343755        -9.3540
  13   0.0000       0.029950         0.8150
  14   0.0000       0.061804         1.6818
  15   0.0000       0.083639         2.2759
  16   0.0000       0.089907         2.4465
  17   0.0000       0.115705         3.1485

MULLIKEN ATOMIC CHARGES
-----------------------
   0 C :    0.151338
   1 C :    0.340203
   2 F :   -0.478458
   3 H :   -0.020958
   4 H :    0.008898
   5 H :   -0.013556
   6 H :    0.017271
   7 H :   -0.004738
Sum of atomic charges:   -0.0000000

LOEWDIN ATOMIC CHARGES
----------------------
   0 C :    0.131123
   1 C :    0.063726
   2 F :   -0.220811
   3 H :    0.029744
   4 H :    0.036166
   5 H :   -0.013475
   6 H :   -0.012016
   7 H :   -0.014457

  Mayer bond orders larger than 0.100000
B(  0-C ,  1-C ) :   1.3437 B(  0-C ,  5-H ) :   0.9167 B(  0-C ,  6-H ) :   0.8826
B(  0-C ,  7-H ) :   0.9137 B(  1-C ,  2-F ) :   0.6983 B(  1-C ,  3-H ) :   0.9614
B(  1-C ,  4-H ) :   0.9527 B(  1-C ,  5-H ) :   0.1206 B(  1-C ,  6-H ) :   0.1000
B(  1-C ,  7-H ) :   0.1115

Dispersion correction           -0.002808038
FINAL SINGLE POINT ENERGY      -178.741434734754

DIPOLE MOMENT
-------------
                                X             Y             Z
Electronic contribution:      3.60565      -1.34839       3.41930
Nuclear contribution   :     -4.15401       1.70894      -3.75000
                        -----------------------------------------
Total Dipole Moment    :     -0.54837       0.36054      -0.33070
                        -----------------------------------------
Magnitude (a.u.)       :      0.73489
Magnitude (Debye)      :      1.86793

Rotational constants in cm-1:     1.266842     0.300492     0.266603
Rotational constants in MHz : 37978.968232  9008.526876  7992.551454

                             ****ORCA TERMINATED NORMALLY****
TOTAL RUN TIME: 0 days 0 hours 0 minutes 9 seconds 954 msec
