                         Program Version 5.0.0 -  RELEASE  -
|  1> !PBE0 D3BJ RIJCOSX def2-SVPD def2/J TightSCF
|  2> *xyz 0 1
|  3> C          1.64703       -2.34528       -5.02041
|  4> C          2.20996       -2.81239       -3.66571
|  5> C          2.48901       -1.66851       -2.73754
|  6> C          3.59631       -0.94761       -2.95225
|  7> N          1.66394       -1.41369       -1.77781
|  8> H          0.81164       -1.96318       -1.70275
|  9> H          1.84550       -0.63508       -1.15875
| 10> H          4.20535       -1.17600       -3.73383
| 11> H          3.81723       -0.12585       -2.40604
| 12> H          3.14311       -3.36280       -3.81152
| 13> H          1.48768       -3.45893       -3.16521
| 14> H          1.46566       -3.19589       -5.64368
| 15> H          2.35406       -1.69850       -5.49654
| 16> H          0.73014       -1.81680       -4.86253
| 17> *
| 18>
| 19> %MaxCore 64000
| 20> %pal nprocs 4
| 21> end
| 22>
| 23> %scf
| 24>   MaxIter 150
| 25> end
| 26>
| 27>
| 28>                          ****END OF INPUT****

CARTESIAN COORDINATES (ANGSTROEM)
---------------------------------
  C      1.647030   -2.345280   -5.020410
  C      2.209960   -2.812390   -3.665710
  C      2.489010   -1.668510   -2.737540
  C      3.596310   -0.947610   -2.952250
  N      1.663940   -1.413690   -1.777810
  H      0.811640   -1.963180   -1.702750
  H      1.845500   -0.635080   -1.158750
  H      4.205350   -1.176000   -3.733830
  H      3.817230   -0.125850   -2.406040
  H      3.143110   -3.362800   -3.811520
  H      1.487680   -3.458930   -3.165210
  H      1.465660   -3.195890   -5.643680
  H      2.354060   -1.698500   -5.496540
  H      0.730140   -1.816800   -4.862530

 Total Charge           Charge          ....    0
 Multiplicity           Mult            ....    1
 Number of Electrons    NEL             ....   40
 Basis Dimension        Dim             ....  172

ORBITAL ENERGIES
----------------

  NO   OCC          E(Eh)            E(eV)
   0   2.0000     -14.402168      -391.9029
   1   2.0000     -10.252553      -278.9862
   2   2.0000     -10.233366      -278.4640
   3   2.0000     -10.217342      -278.0280
   4   2.0000     -10.162086      -276.5244
   5   2.0000      -0.958514       -26.0825
   6   2.0000      -0.795821       -21.6554
   7   2.0000      -0.724050       -19.7024
   8   2.0000      -0.653404       -17.7800
   9   2.0000      -0.584382       -15.9018
  10   2.0000      -0.548084       -14.9141
  11   2.0000      -0.494749       -13.4628
  12   2.0000      -0.455605       -12.3976
  13   2.0000      -0.425384       -11.5753
  14   2.0000      -0.408013       -11.1026
  15   2.0000      -0.394109       -10.7243
  16   2.0000      -0.363070        -9.8796
  17   2.0000      -0.348647        -9.4872
  18   2.0000      -0.346395        -9.4259
  19   2.0000      -0.194708        -5.2983
  20   0.0000       0.022458         0.6111
  21   0.0000       0.047090         1.2814
  22   0.0000       0.059080         1.6077
  23   0.0000       0.064580         1.7573
  24   0.0000       0.075813         2.0630

MULLIKEN ATOMIC CHARGES
-----------------------
   0 C :    0.465370
   1 C :   -0.260911
   2 C :    0.026711
   3 C :    0.396004
   4 N :    0.054665
   5 H :   -0.075282
   6 H :   -0.127970
   7 H :   -0.114236
   8 H :   -0.441076
   9 H :    0.099365
  10 H :   -0.029351
  11 H :    0.043924
  12 H :   -0.014127
  13 H :   -0.023086
Sum of atomic charges:   -0.0000000

LOEWDIN ATOMIC CHARGES
----------------------
   0 C :    0.131761
   1 C :   -0.034419
   2 C :   -0.269317
   3 C :    0.170131
   4 N :    0.162612
   5 H :    0.009793
   6 H :    0.016959
   7 H :   -0.081391
   8 H :   -0.092883
   9 H :    0.029242
  10 H :    0.011395
  11 H :   -0.019803
  12 H :   -0.018508
  13 H :   -0.015571

  Mayer bond orders larger than 0.100000
B(  0-C ,  1-C ) :   1.2905 B(  0-C , 11-H ) :   0.8366 B(  0-C , 12-H ) :   0.8730
B(  0-C , 13-H ) :   0.8739 B(  1-C ,  2-C ) :   1.0970 B(  1-C ,  3-C ) :   0.1494
B(  1-C ,  4-N ) :   0.1037 B(  1-C ,  9-H ) :   0.8714 B(  1-C , 10-H ) :   0.8739
B(  1-C , 11-H ) :   0.1286 B(  1-C , 12-H ) :   0.1725 B(  1-C , 13-H ) :   0.1689
B(  2-C ,  3-C ) :   1.7621 B(  2-C ,  4-N ) :   1.1306 B(  2-C ,  6-H ) :  -0.1009
B(  2-C ,  7-H ) :   0.1025 B(  2-C ,  8-H ) :   0.1554 B(  2-C , 10-H ) :   0.1425
B(  3-C ,  4-N ) :   0.2392 B(  3-C ,  7-H ) :   0.8561 B(  3-C ,  8-H ) :   0.8514
B(  4-N ,  5-H ) :   1.1124 B(  4-N ,  6-H ) :   1.2630 B(  5-H ,  6-H ) :  -0.1406

Dispersion correction           -0.008866053
FINAL SINGLE POINT ENERGY      -212.169179832939

DIPOLE MOMENT
-------------
                                X             Y             Z
Electronic contribution:     -0.04570       0.66276       3.03069
Nuclear contribution   :     -0.69146      -0.83112      -2.71336
                        -----------------------------------------
Total Dipole Moment    :     -0.73717      -0.16836       0.31733
                        -----------------------------------------
Magnitude (a.u.)       :      0.82004
Magnitude (Debye)      :      2.08437

Rotational constants in cm-1:     0.270661     0.129240     0.102040
Rotational constants in MHz :  8114.202941  3874.518141  3059.074383

                             ****ORCA TERMINATED NORMALLY****
TOTAL RUN TIME: 0 days 0 hours 0 minutes 21 seconds 640 msec
