                         Program Version 5.0.0 -  RELEASE  -
|  1> !PBE0 D3BJ RIJCOSX def2-SVPD def2/J TightSCF
|  2> *xyz 0 1
|  3> C          1.64703       -2.34528       -5.02041
|  4> C          2.20996       -2.81239       -3.66571
|  5> C          2.48901       -1.66851       -2.73754
|  6> N          3.59631       -0.94761       -2.95225
|  7> C          1.66394       -1.41369       -1.77781
|  8> H          0.81164       -1.96318       -1.70275
|  9> H          1.84550       -0.63508       -1.15875
| 10> H          4.20535       -1.17600       -3.73383
| 11> H          3.81723       -0.12585       -2.40604
| 12> H          3.14311       -3.36280       -3.81152
| 13> H          1.48768       -3.45893       -3.16521
| 14> H          1.46566       -3.19589       -5.64368
| 15> H          2.35406       -1.69850       -5.49654
| 16> H          0.73014       -1.81680       -4.86253
| 17> *
| 18>
| 19> %MaxCore 64000
| 20> %pal nprocs 4
| 21> end
| 22>
| 23> %scf
| 24>   MaxIter 150
| 25> end
| 26>
| 27>
| 28>                          ****END OF INPUT****

CARTESIAN COORDINATES (ANGSTROEM)
---------------------------------
  C      1.647030   -2.345280   -5.020410
  C      2.209960   -2.812390   -3.665710
  C      2.489010   -1.668510   -2.737540
  N      3.596310   -0.947610   -2.952250
  C      1.663940   -1.413690   -1.777810
  H      0.811640   -1.963180   -1.702750
  H      1.845500   -0.635080   -1.158750
  H      4.205350   -1.176000   -3.733830
  H      3.817230   -0.125850   -2.406040
  H      3.143110   -3.362800   -3.811520
  H      1.487680   -3.458930   -3.165210
  H      1.465660   -3.195890   -5.643680
  H      2.354060   -1.698500   -5.496540
  H      0.730140   -1.816800   -4.862530

 Total Charge           Charge          ....    0
 Multiplicity           Mult            ....    1
 Number of Electrons    NEL             ....   40
 Basis Dimension        Dim             ....  172

ORBITAL ENERGIES
----------------

  NO   OCC          E(Eh)            E(eV)
   0   2.0000     -14.395617      -391.7247
   1   2.0000     -10.249573      -278.9051
   2   2.0000     -10.231737      -278.4197
   3   2.0000     -10.218473      -278.0588
   4   2.0000     -10.165071      -276.6056
   5   2.0000      -0.939552       -25.5665
   6   2.0000      -0.796079       -21.6624
   7   2.0000      -0.738297       -20.0901
   8   2.0000      -0.648613       -17.6496
   9   2.0000      -0.580526       -15.7969
  10   2.0000      -0.536117       -14.5885
  11   2.0000      -0.494744       -13.4627
  12   2.0000      -0.448409       -12.2018
  13   2.0000      -0.436620       -11.8810
  14   2.0000      -0.411150       -11.1880
  15   2.0000      -0.396861       -10.7991
  16   2.0000      -0.363107        -9.8806
  17   2.0000      -0.345749        -9.4083
  18   2.0000      -0.339561        -9.2399
  19   2.0000      -0.206318        -5.6142
  20   0.0000       0.023272         0.6333
  21   0.0000       0.049748         1.3537
  22   0.0000       0.061385         1.6704
  23   0.0000       0.066402         1.8069
  24   0.0000       0.076258         2.0751

MULLIKEN ATOMIC CHARGES
-----------------------
   0 C :    0.495288
   1 C :   -0.307941
   2 C :    0.071087
   3 N :    0.010470
   4 C :    0.285407
   5 H :   -0.058768
   6 H :   -0.327733
   7 H :   -0.100555
   8 H :   -0.177248
   9 H :   -0.009579
  10 H :    0.109521
  11 H :    0.031990
  12 H :   -0.007501
  13 H :   -0.014438
Sum of atomic charges:   -0.0000000

LOEWDIN ATOMIC CHARGES
----------------------
   0 C :    0.130062
   1 C :   -0.035262
   2 C :   -0.268884
   3 N :    0.165818
   4 C :    0.164961
   5 H :   -0.070278
   6 H :   -0.076365
   7 H :   -0.000587
   8 H :    0.002959
   9 H :    0.022261
  10 H :    0.021645
  11 H :   -0.019483
  12 H :   -0.024197
  13 H :   -0.012649

  Mayer bond orders larger than 0.100000
B(  0-C ,  1-C ) :   1.2546 B(  0-C , 11-H ) :   0.8467 B(  0-C , 12-H ) :   0.8285
B(  0-C , 13-H ) :   0.8875 B(  1-C ,  2-C ) :   1.1752 B(  1-C ,  3-N ) :   0.1020
B(  1-C ,  4-C ) :   0.1295 B(  1-C ,  9-H ) :   0.9039 B(  1-C , 10-H ) :   0.8814
B(  1-C , 11-H ) :   0.1384 B(  1-C , 12-H ) :   0.1903 B(  1-C , 13-H ) :   0.1516
B(  2-C ,  3-N ) :   1.0635 B(  2-C ,  4-C ) :   1.7646 B(  2-C ,  5-H ) :   0.1014
B(  2-C ,  6-H ) :   0.2373 B(  2-C ,  9-H ) :   0.1349 B(  2-C , 10-H ) :   0.1199
B(  3-N ,  4-C ) :   0.2415 B(  3-N ,  7-H ) :   1.1562 B(  3-N ,  8-H ) :   1.2663
B(  4-C ,  5-H ) :   0.9493 B(  4-C ,  6-H ) :   0.7217 B(  7-H ,  8-H ) :  -0.1450

Dispersion correction           -0.008857027
FINAL SINGLE POINT ENERGY      -212.172831919781

DIPOLE MOMENT
-------------
                                X             Y             Z
Electronic contribution:      1.64661       1.07802       2.00466
Nuclear contribution   :     -1.13902      -0.93906      -2.44135
                        -----------------------------------------
Total Dipole Moment    :      0.50759       0.13895      -0.43669
                        -----------------------------------------
Magnitude (a.u.)       :      0.68385
Magnitude (Debye)      :      1.73821

Rotational constants in cm-1:     0.267243     0.130607     0.102304
Rotational constants in MHz :  8011.748167  3915.504600  3066.999841

                             ****ORCA TERMINATED NORMALLY****
TOTAL RUN TIME: 0 days 0 hours 0 minutes 21 seconds 310 msec
