                         Program Version 5.0.0 -  RELEASE  -
|  1> !PBE0 D3BJ RIJCOSX def2-SVPD def2/J TightSCF xyzfile
|  2>
|  3> *xyzfile 0 1 D1.xyz
|  4>
|  5> %MaxCore 64000
|  6>
|  7> %pal nprocs 4
|  8> end
|  9>
| 10> %scf
| 11>   MaxIter 150
| 12> end
| 13>
| 14>
| 15>                          ****END OF INPUT****

CARTESIAN COORDINATES (ANGSTROEM)
---------------------------------
  C      1.647032   -2.345276   -5.020411
  C      0.217628   -1.814022   -4.924389
  C      2.209964   -2.812388   -3.665708
  C     -0.811356   -2.908780   -4.607625
  C     -1.916579   -2.485081   -3.643665
  H     -2.554525   -1.712428   -4.091993
  C     -1.363531   -1.981337   -2.293608
  H     -2.553448   -3.355667   -3.458815
  F     -0.350395   -2.749689   -1.796006
  H      2.308385   -1.588704   -5.457128
  H      1.674286   -3.203478   -5.697392
  C      2.489007   -1.668510   -2.737538
  C      3.596314   -0.947608   -2.952247
  N      1.663936   -1.413685   -1.777806
  H      0.811642   -1.963178   -1.702755
  H      1.845503   -0.635078   -1.158749
  H      4.205351   -1.176003   -3.733825
  H      3.817230   -0.125845   -2.406041
  H     -1.244829   -3.280884   -5.541040
  H     -0.306331   -3.757746   -4.142734
  H     -0.036244   -1.318555   -5.865303
  H      0.175004   -1.035382   -4.158095
  H      3.143106   -3.362803   -3.811524
  H      1.487683   -3.458935   -3.165211
  H     -2.226220   -1.908386   -1.602039
  H     -1.051353   -0.915671   -2.443331

 Total Charge           Charge          ....    0
 Multiplicity           Mult            ....    1
 Number of Electrons    NEL             ....   80
 Basis Dimension        Dim             ....  331

ORBITAL ENERGIES
----------------

  NO   OCC          E(Eh)            E(eV)
   0   2.0000     -24.821535      -675.4283
   1   2.0000     -14.366113      -390.9218
   2   2.0000     -10.333827      -281.1977
   3   2.0000     -10.252316      -278.9797
   4   2.0000     -10.236736      -278.5558
   5   2.0000     -10.236024      -278.5364
   6   2.0000     -10.227481      -278.3039
   7   2.0000     -10.224175      -278.2139
   8   2.0000     -10.219699      -278.0922
   9   2.0000     -10.146570      -276.1022
  10   2.0000      -1.274541       -34.6820
  11   2.0000      -0.936407       -25.4809
  12   2.0000      -0.839824       -22.8528
  13   2.0000      -0.797452       -21.6998
  14   2.0000      -0.752884       -20.4870
  15   2.0000      -0.708031       -19.2665
  16   2.0000      -0.682838       -18.5810
  17   2.0000      -0.628232       -17.0951
  18   2.0000      -0.606927       -16.5153
  19   2.0000      -0.592138       -16.1129
  20   2.0000      -0.554044       -15.0763
  21   2.0000      -0.546497       -14.8710
  22   2.0000      -0.529338       -14.4040
  23   2.0000      -0.502134       -13.6638
  24   2.0000      -0.481596       -13.1049
  25   2.0000      -0.474254       -12.9051
  26   2.0000      -0.455147       -12.3852
  27   2.0000      -0.434078       -11.8119
  28   2.0000      -0.432897       -11.7797
  29   2.0000      -0.403065       -10.9680
  30   2.0000      -0.383309       -10.4304
  31   2.0000      -0.376170       -10.2361
  32   2.0000      -0.374579       -10.1928
  33   2.0000      -0.368618       -10.0306
  34   2.0000      -0.351645        -9.5688
  35   2.0000      -0.344280        -9.3683
  36   2.0000      -0.333204        -9.0669
  37   2.0000      -0.322892        -8.7863
  38   2.0000      -0.320072        -8.7096
  39   2.0000      -0.177614        -4.8331
  40   0.0000       0.020743         0.5644
  41   0.0000       0.033864         0.9215
  42   0.0000       0.042970         1.1693
  43   0.0000       0.048502         1.3198
  44   0.0000       0.058899         1.6027

MULLIKEN ATOMIC CHARGES
-----------------------
   0 C :    0.095289
   1 C :   -0.015155
   2 C :    0.350148
   3 C :   -0.060449
   4 C :    0.037365
   5 H :   -0.039405
   6 C :    0.576189
   7 H :    0.071690
   8 F :   -0.530123
   9 H :    0.021337
  10 H :   -0.054416
  11 C :   -0.049422
  12 C :    0.240616
  13 N :    0.409306
  14 H :   -0.343155
  15 H :   -0.146556
  16 H :   -0.074461
  17 H :   -0.322667
  18 H :   -0.160336
  19 H :    0.107637
  20 H :   -0.108587
  21 H :    0.016317
  22 H :    0.051108
  23 H :   -0.135319
  24 H :   -0.212131
  25 H :    0.275180
Sum of atomic charges:   -0.0000000

LOEWDIN ATOMIC CHARGES
----------------------
   0 C :   -0.018314
   1 C :   -0.018896
   2 C :    0.020249
   3 C :   -0.029259
   4 C :   -0.014319
   5 H :    0.037322
   6 C :    0.147576
   7 H :    0.025862
   8 F :   -0.176994
   9 H :    0.023125
  10 H :    0.022260
  11 C :   -0.247130
  12 C :    0.162299
  13 N :    0.199285
  14 H :   -0.132630
  15 H :    0.019248
  16 H :   -0.086625
  17 H :   -0.095717
  18 H :    0.026371
  19 H :    0.008376
  20 H :    0.022492
  21 H :    0.002314
  22 H :    0.030709
  23 H :   -0.004572
  24 H :    0.039260
  25 H :    0.037709

  Mayer bond orders larger than 0.100000
B(  0-C ,  1-C ) :   1.2706 B(  0-C ,  2-C ) :   1.1998 B(  0-C ,  9-H ) :   0.7946
B(  0-C , 10-H ) :   0.9100 B(  0-C , 21-H ) :   0.1483 B(  0-C , 22-H ) :   0.1036
B(  0-C , 23-H ) :   0.1430 B(  1-C ,  3-C ) :   1.1887 B(  1-C ,  9-H ) :   0.1610
B(  1-C , 10-H ) :   0.1341 B(  1-C , 18-H ) :   0.1872 B(  1-C , 20-H ) :   0.8956
B(  1-C , 21-H ) :   0.8297 B(  2-C ,  9-H ) :   0.1559 B(  2-C , 11-C ) :   1.0132
B(  2-C , 13-N ) :   0.1308 B(  2-C , 22-H ) :   0.8018 B(  2-C , 23-H ) :   0.7311
B(  3-C ,  4-C ) :   1.2450 B(  3-C ,  5-H ) :   0.1265 B(  3-C ,  7-H ) :   0.1747
B(  3-C , 18-H ) :   0.9397 B(  3-C , 19-H ) :   0.8362 B(  3-C , 20-H ) :   0.1057
B(  3-C , 21-H ) :   0.1271 B(  4-C ,  5-H ) :   0.9212 B(  4-C ,  6-C ) :   1.2624
B(  4-C ,  7-H ) :   0.7430 B(  4-C ,  8-F ) :   0.1028 B(  4-C , 24-H ) :   0.1268
B(  6-C ,  8-F ) :   0.5412 B(  6-C , 24-H ) :   1.0303 B(  6-C , 25-H ) :   0.7619
B(  8-F , 14-H ) :   0.1566 B( 11-C , 12-C ) :   1.7762 B( 11-C , 13-N ) :   1.1170
B( 11-C , 15-H ) :  -0.1370 B( 11-C , 16-H ) :   0.1044 B( 11-C , 17-H ) :   0.1764
B( 11-C , 22-H ) :   0.1445 B( 11-C , 23-H ) :   0.1767 B( 12-C , 13-N ) :   0.2082
B( 12-C , 16-H ) :   0.8770 B( 12-C , 17-H ) :   0.7433 B( 13-N , 14-H ) :   0.8862
B( 13-N , 15-H ) :   1.2534 B( 14-H , 15-H ) :  -0.2014 B( 19-H , 23-H ) :   0.1018

Dispersion correction           -0.022934275
FINAL SINGLE POINT ENERGY      -468.192461013452

DIPOLE MOMENT
-------------
                                X             Y             Z
Electronic contribution:     -1.29878      -1.73668       6.92480
Nuclear contribution   :     -0.37390       1.73388      -6.94752
                        -----------------------------------------
Total Dipole Moment    :     -1.67268      -0.00280      -0.02272
                        -----------------------------------------
Magnitude (a.u.)       :      1.67284
Magnitude (Debye)      :      4.25202

Rotational constants in cm-1:     0.062220     0.032742     0.024374
Rotational constants in MHz :  1865.297979   981.573941   730.711364

                             ****ORCA TERMINATED NORMALLY****
TOTAL RUN TIME: 0 days 0 hours 1 minutes 26 seconds 148 msec
