                         Program Version 5.0.0 -  RELEASE  -
|  1> !PBE0 D3BJ RIJCOSX def2-SVPD def2/J TightSCF xyzfile
|  2>
|  3> *xyzfile 0 1 D2.xyz
|  4>
|  5> %MaxCore 64000
|  6>
|  7> %pal nprocs 4
|  8> end
|  9>
| 10> %scf
| 11>   MaxIter 150
| 12> end
| 13>
| 14>
| 15>                          ****END OF INPUT****

CARTESIAN COORDINATES (ANGSTROEM)
---------------------------------
  C      1.647032   -2.345276   -5.020411
  C      0.217628   -1.814022   -4.924389
  C      2.209964   -2.812388   -3.665708
  C     -0.811356   -2.908780   -4.607625
  C     -1.916579   -2.485081   -3.643665
  H     -2.554525   -1.712428   -4.091993
  C     -1.363531   -1.981337   -2.293608
  H     -2.553448   -3.355667   -3.458815
  F     -0.350395   -2.749689   -1.796006
  H      2.308385   -1.588704   -5.457128
  H      1.674286   -3.203478   -5.697392
  C      2.489007   -1.668510   -2.737538
  N      3.596314   -0.947608   -2.952247
  C      1.663936   -1.413685   -1.777806
  H      0.811642   -1.963178   -1.702755
  H      1.845503   -0.635078   -1.158749
  H      4.205351   -1.176003   -3.733825
  H      3.817230   -0.125845   -2.406041
  H     -1.244829   -3.280884   -5.541040
  H     -0.306331   -3.757746   -4.142734
  H     -0.036244   -1.318555   -5.865303
  H      0.175004   -1.035382   -4.158095
  H      3.143106   -3.362803   -3.811524
  H      1.487683   -3.458935   -3.165211
  H     -2.226220   -1.908386   -1.602039
  H     -1.051353   -0.915671   -2.443331

 Total Charge           Charge          ....    0
 Multiplicity           Mult            ....    1
 Number of Electrons    NEL             ....   80
 Basis Dimension        Dim             ....  331

ORBITAL ENERGIES
----------------

  NO   OCC          E(Eh)            E(eV)
   0   2.0000     -24.788235      -674.5222
   1   2.0000     -14.382580      -391.3699
   2   2.0000     -10.314632      -280.6754
   3   2.0000     -10.240197      -278.6499
   4   2.0000     -10.232824      -278.4493
   5   2.0000     -10.228194      -278.3233
   6   2.0000     -10.225163      -278.2408
   7   2.0000     -10.221190      -278.1327
   8   2.0000     -10.219262      -278.0803
   9   2.0000     -10.132193      -275.7110
  10   2.0000      -1.243369       -33.8338
  11   2.0000      -0.926029       -25.1985
  12   2.0000      -0.830363       -22.5953
  13   2.0000      -0.794572       -21.6214
  14   2.0000      -0.743793       -20.2396
  15   2.0000      -0.717236       -19.5170
  16   2.0000      -0.672597       -18.3023
  17   2.0000      -0.619118       -16.8471
  18   2.0000      -0.584914       -15.9163
  19   2.0000      -0.583564       -15.8796
  20   2.0000      -0.543641       -14.7932
  21   2.0000      -0.530742       -14.4422
  22   2.0000      -0.514691       -14.0054
  23   2.0000      -0.504158       -13.7188
  24   2.0000      -0.477140       -12.9836
  25   2.0000      -0.460927       -12.5425
  26   2.0000      -0.456719       -12.4280
  27   2.0000      -0.444744       -12.1021
  28   2.0000      -0.416418       -11.3313
  29   2.0000      -0.396665       -10.7938
  30   2.0000      -0.382263       -10.4019
  31   2.0000      -0.370524       -10.0825
  32   2.0000      -0.363277        -9.8853
  33   2.0000      -0.350189        -9.5291
  34   2.0000      -0.339911        -9.2494
  35   2.0000      -0.336128        -9.1465
  36   2.0000      -0.323948        -8.8151
  37   2.0000      -0.318819        -8.6755
  38   2.0000      -0.306252        -8.3335
  39   2.0000      -0.190298        -5.1783
  40   0.0000       0.028423         0.7734
  41   0.0000       0.034439         0.9371
  42   0.0000       0.042614         1.1596
  43   0.0000       0.054106         1.4723
  44   0.0000       0.065389         1.7793

MULLIKEN ATOMIC CHARGES
-----------------------
   0 C :    0.189058
   1 C :    0.012777
   2 C :    0.098991
   3 C :   -0.046655
   4 C :    0.044958
   5 H :   -0.054810
   6 C :    0.523987
   7 H :    0.063739
   8 F :   -0.585760
   9 H :    0.013832
  10 H :   -0.047106
  11 C :    0.186062
  12 N :   -0.080609
  13 C :    0.856447
  14 H :   -0.173321
  15 H :   -0.690948
  16 H :   -0.106338
  17 H :   -0.170495
  18 H :   -0.151661
  19 H :    0.090042
  20 H :   -0.117043
  21 H :    0.041161
  22 H :   -0.123957
  23 H :    0.092171
  24 H :   -0.223443
  25 H :    0.358922
Sum of atomic charges:   -0.0000000

LOEWDIN ATOMIC CHARGES
----------------------
   0 C :   -0.023323
   1 C :   -0.018655
   2 C :    0.019118
   3 C :   -0.028865
   4 C :   -0.016404
   5 H :    0.034746
   6 C :    0.146644
   7 H :    0.024243
   8 F :   -0.201409
   9 H :    0.017537
  10 H :    0.021337
  11 C :   -0.239229
  12 N :    0.162451
  13 C :    0.198323
  14 H :   -0.179203
  15 H :   -0.070359
  16 H :   -0.004967
  17 H :   -0.000063
  18 H :    0.024357
  19 H :    0.008940
  20 H :    0.020991
  21 H :    0.001234
  22 H :    0.023286
  23 H :    0.004766
  24 H :    0.036686
  25 H :    0.037817

  Mayer bond orders larger than 0.100000
B(  0-C ,  1-C ) :   1.2501 B(  0-C ,  2-C ) :   1.1364 B(  0-C ,  9-H ) :   0.7776
B(  0-C , 10-H ) :   0.8638 B(  0-C , 21-H ) :   0.1562 B(  1-C ,  3-C ) :   1.1825
B(  1-C ,  9-H ) :   0.1549 B(  1-C , 10-H ) :   0.1021 B(  1-C , 18-H ) :   0.1796
B(  1-C , 20-H ) :   0.9005 B(  1-C , 21-H ) :   0.8394 B(  2-C ,  9-H ) :   0.1370
B(  2-C , 10-H ) :   0.1366 B(  2-C , 11-C ) :   1.1628 B(  2-C , 12-N ) :   0.1498
B(  2-C , 13-C ) :   0.1145 B(  2-C , 22-H ) :   0.8857 B(  2-C , 23-H ) :   0.8466
B(  3-C ,  4-C ) :   1.2555 B(  3-C ,  5-H ) :   0.1253 B(  3-C ,  7-H ) :   0.1768
B(  3-C , 18-H ) :   0.9298 B(  3-C , 19-H ) :   0.8260 B(  3-C , 20-H ) :   0.1102
B(  3-C , 21-H ) :   0.1189 B(  4-C ,  5-H ) :   0.9113 B(  4-C ,  6-C ) :   1.2610
B(  4-C ,  7-H ) :   0.7379 B(  4-C , 24-H ) :   0.1260 B(  5-H ,  6-C ) :   0.1130
B(  6-C ,  8-F ) :   0.5605 B(  6-C , 14-H ) :   0.1100 B(  6-C , 24-H ) :   1.0539
B(  6-C , 25-H ) :   0.7127 B(  8-F , 14-H ) :   0.1503 B( 11-C , 12-N ) :   0.8711
B( 11-C , 13-C ) :   1.8559 B( 11-C , 14-H ) :   0.1488 B( 11-C , 15-H ) :   0.2061
B( 11-C , 17-H ) :  -0.1038 B( 11-C , 22-H ) :   0.2052 B( 12-N , 13-C ) :   0.3345
B( 12-N , 16-H ) :   1.1941 B( 12-N , 17-H ) :   1.3031 B( 13-C , 14-H ) :   0.6527
B( 13-C , 15-H ) :   0.6953 B( 14-H , 15-H ) :  -0.2959 B( 15-H , 21-H ) :  -0.1100
B( 16-H , 17-H ) :  -0.1500 B( 19-H , 23-H ) :   0.1138

Dispersion correction           -0.023056784
FINAL SINGLE POINT ENERGY      -468.175081616358

DIPOLE MOMENT
-------------
                                X             Y             Z
Electronic contribution:      0.41738      -1.31010       6.07389
Nuclear contribution   :     -0.73748       1.64619      -6.72655
                        -----------------------------------------
Total Dipole Moment    :     -0.32010       0.33609      -0.65267
                        -----------------------------------------
Magnitude (a.u.)       :      0.80087
Magnitude (Debye)      :      2.03565

Rotational constants in cm-1:     0.063169     0.031711     0.023958
Rotational constants in MHz :  1893.751676   950.657187   718.229932

                             ****ORCA TERMINATED NORMALLY****
TOTAL RUN TIME: 0 days 0 hours 1 minutes 22 seconds 884 msec
