                         Program Version 5.0.0 -  RELEASE  -
|  1> !wB97X-D3 RIJCOSX def2-TZVP def2/J TightSCF
|  2> *xyz -1 1
|  3> C          3.84189       -6.95161       -3.63283
|  4> S          4.31812       -6.91593       -5.36869
|  5> O          5.40615       -5.89948       -5.51297
|  6> O          3.11191       -6.44508       -6.04379
|  7> O          4.76340       -8.23942       -5.69863
|  8> H          3.06224       -7.67071       -3.49159
|  9> H          3.49217       -5.98401       -3.33897
| 10> H          4.68822       -7.22131       -3.03626
| 11> *
| 12>
| 13> %MaxCore 64000
| 14>
| 15> %pal nprocs 8
| 16> end
| 17>
| 18> %scf
| 19>   MaxIter 150
| 20> end
| 21>
| 22>
| 23>                          ****END OF INPUT****

CARTESIAN COORDINATES (ANGSTROEM)
---------------------------------
  C      3.841890   -6.951610   -3.632830
  S      4.318120   -6.915930   -5.368690
  O      5.406150   -5.899480   -5.512970
  O      3.111910   -6.445080   -6.043790
  O      4.763400   -8.239420   -5.698630
  H      3.062240   -7.670710   -3.491590
  H      3.492170   -5.984010   -3.338970
  H      4.688220   -7.221310   -3.036260

 Total Charge           Charge          ....   -1
 Multiplicity           Mult            ....    1
 Number of Electrons    NEL             ....   50
 Basis Dimension        Dim             ....  179

ORBITAL ENERGIES
----------------

  NO   OCC          E(Eh)            E(eV)
   0   2.0000     -88.930105     -2419.9112
   1   2.0000     -19.004883      -517.1492
   2   2.0000     -18.993991      -516.8528
   3   2.0000     -18.986810      -516.6574
   4   2.0000     -10.122603      -275.4500
   5   2.0000      -7.992032      -217.4743
   6   2.0000      -5.946561      -161.8141
   7   2.0000      -5.945031      -161.7725
   8   2.0000      -5.944660      -161.7624
   9   2.0000      -1.029096       -28.0031
  10   2.0000      -0.899173       -24.4677
  11   2.0000      -0.869429       -23.6584
  12   2.0000      -0.694004       -18.8848
  13   2.0000      -0.488750       -13.2996
  14   2.0000      -0.392451       -10.6791
  15   2.0000      -0.385760       -10.4971
  16   2.0000      -0.383729       -10.4418
  17   2.0000      -0.338818        -9.2197
  18   2.0000      -0.335378        -9.1261
  19   2.0000      -0.240365        -6.5407
  20   2.0000      -0.238565        -6.4917
  21   2.0000      -0.204379        -5.5614
  22   2.0000      -0.194976        -5.3056
  23   2.0000      -0.185395        -5.0449
  24   2.0000      -0.147646        -4.0176
  25   0.0000       0.276062         7.5120
  26   0.0000       0.331757         9.0276
  27   0.0000       0.334726         9.1084
  28   0.0000       0.346334         9.4242
  29   0.0000       0.417488        11.3604

MULLIKEN ATOMIC CHARGES
-----------------------
   0 C :   -0.388234
   1 S :    0.849251
   2 O :   -0.614950
   3 O :   -0.583358
   4 O :   -0.552325
   5 H :    0.094358
   6 H :    0.101434
   7 H :    0.093823
Sum of atomic charges:   -1.0000000

LOEWDIN ATOMIC CHARGES
----------------------
   0 C :   -0.460676
   1 S :    0.409441
   2 O :   -0.453118
   3 O :   -0.410082
   4 O :   -0.375695
   5 H :    0.096345
   6 H :    0.098474
   7 H :    0.095311

  Mayer bond orders larger than 0.100000
B(  0-C ,  1-S ) :   0.8710 B(  0-C ,  5-H ) :   0.9669 B(  0-C ,  6-H ) :   0.9705
B(  0-C ,  7-H ) :   0.9674 B(  1-S ,  2-O ) :   1.7403 B(  1-S ,  3-O ) :   1.7756
B(  1-S ,  4-O ) :   1.8093

Dispersion correction           -0.001521422
FINAL SINGLE POINT ENERGY      -663.898034686914

DIPOLE MOMENT
-------------
                                X             Y             Z
Electronic contribution:      1.09823      -0.06030      -4.16077
Nuclear contribution   :     -1.53523      -0.17928       5.57610
                        -----------------------------------------
Total Dipole Moment    :     -0.43701      -0.23958       1.41533
                        -----------------------------------------
Magnitude (a.u.)       :      1.50051
Magnitude (Debye)      :      3.81400

Rotational constants in cm-1:     0.172657     0.156250     0.152500
Rotational constants in MHz :  5176.120042  4684.252187  4571.835124

                             ****ORCA TERMINATED NORMALLY****
TOTAL RUN TIME: 0 days 0 hours 0 minutes 11 seconds 998 msec
