                         Program Version 5.0.0 -  RELEASE  -
|  1> !wB97X-D3 RIJCOSX def2-TZVP def2/J TightSCF
|  2> *xyz 1 1
|  3> C          5.55821       -1.99291       -6.21505
|  4> C          4.18188       -2.58967       -6.29891
|  5> N          3.14587       -1.76843       -6.48675
|  6> N          4.01910       -3.86431       -6.22743
|  7> H          4.76849       -4.59115       -5.99077
|  8> H          3.12241       -4.33339       -6.31462
|  9> H          3.28164       -0.77779       -6.56655
| 10> H          2.21255       -2.13419       -6.56225
| 11> H          5.49055       -0.92791       -6.29315
| 12> H          6.16046       -2.37160       -7.01429
| 13> H          6.00378       -2.25423       -5.27799
| 14> *
| 15>
| 16> %MaxCore 64000
| 17>
| 18> %pal nprocs 8
| 19> end
| 20>
| 21> %scf
| 22>   MaxIter 150
| 23> end
| 24>
| 25>
| 26>                          ****END OF INPUT****

CARTESIAN COORDINATES (ANGSTROEM)
---------------------------------
  C      5.558210   -1.992910   -6.215050
  C      4.181880   -2.589670   -6.298910
  N      3.145870   -1.768430   -6.486750
  N      4.019100   -3.864310   -6.227430
  H      4.768490   -4.591150   -5.990770
  H      3.122410   -4.333390   -6.314620
  H      3.281640   -0.777790   -6.566550
  H      2.212550   -2.134190   -6.562250
  H      5.490550   -0.927910   -6.293150
  H      6.160460   -2.371600   -7.014290
  H      6.003780   -2.254230   -5.277990

 Total Charge           Charge          ....    1
 Multiplicity           Mult            ....    1
 Number of Electrons    NEL             ....   32
 Basis Dimension        Dim             ....  166

ORBITAL ENERGIES
----------------

  NO   OCC          E(Eh)            E(eV)
   0   2.0000     -14.678224      -399.4148
   1   2.0000     -14.666912      -399.1070
   2   2.0000     -10.611015      -288.7404
   3   2.0000     -10.470503      -284.9169
   4   2.0000      -1.327286       -36.1173
   5   2.0000      -1.226915       -33.3860
   6   2.0000      -1.069007       -29.0891
   7   2.0000      -0.955939       -26.0124
   8   2.0000      -0.883158       -24.0319
   9   2.0000      -0.867593       -23.6084
  10   2.0000      -0.799478       -21.7549
  11   2.0000      -0.763666       -20.7804
  12   2.0000      -0.709798       -19.3146
  13   2.0000      -0.697895       -18.9907
  14   2.0000      -0.673898       -18.3377
  15   2.0000      -0.590500       -16.0683
  16   0.0000      -0.126715        -3.4481
  17   0.0000      -0.078576        -2.1382
  18   0.0000      -0.034472        -0.9380
  19   0.0000      -0.029590        -0.8052
  20   0.0000      -0.001706        -0.0464

MULLIKEN ATOMIC CHARGES
-----------------------
   0 C :   -0.337312
   1 C :    0.360056
   2 N :   -0.402619
   3 N :   -0.405170
   4 H :    0.341786
   5 H :    0.304465
   6 H :    0.313282
   7 H :    0.294864
   8 H :    0.146949
   9 H :    0.193830
  10 H :    0.189868
Sum of atomic charges:    1.0000000

LOEWDIN ATOMIC CHARGES
----------------------
   0 C :   -0.198259
   1 C :   -0.305069
   2 N :    0.100180
   3 N :    0.107388
   4 H :    0.241676
   5 H :    0.203474
   6 H :    0.202570
   7 H :    0.195505
   8 H :    0.143783
   9 H :    0.154972
  10 H :    0.153780

  Mayer bond orders larger than 0.100000
B(  0-C ,  1-C ) :   0.9817 B(  0-C ,  8-H ) :   0.9715 B(  0-C ,  9-H ) :   0.9395
B(  0-C , 10-H ) :   0.9392 B(  1-C ,  2-N ) :   1.4366 B(  1-C ,  3-N ) :   1.4792
B(  2-N ,  6-H ) :   0.8832 B(  2-N ,  7-H ) :   0.8911 B(  3-N ,  4-H ) :   0.8621
B(  3-N ,  5-H ) :   0.8837

Dispersion correction           -0.001690608
FINAL SINGLE POINT ENERGY      -189.733602668138

DIPOLE MOMENT
-------------
                                X             Y             Z
Electronic contribution:     -1.91274      -0.89676      -0.11506
Nuclear contribution   :      1.48163       0.51565       0.12876
                        -----------------------------------------
Total Dipole Moment    :     -0.43111      -0.38111       0.01370
                        -----------------------------------------
Magnitude (a.u.)       :      0.57558
Magnitude (Debye)      :      1.46300

Rotational constants in cm-1:     0.329497     0.300036     0.161709
Rotational constants in MHz :  9878.065920  8994.849253  4847.907140

                             ****ORCA TERMINATED NORMALLY****
TOTAL RUN TIME: 0 days 0 hours 0 minutes 12 seconds 92 msec
