                         Program Version 5.0.0 -  RELEASE  -
|  1> !wB97X-D3 RIJCOSX def2-TZVP def2/J TightSCF
|  2> *xyz 0 1
|  3> C          3.84189       -6.95161       -3.63283
|  4> S          4.31812       -6.91593       -5.36869
|  5> F          5.40615       -5.89948       -5.51297
|  6> O          3.11191       -6.44508       -6.04379
|  7> O          4.76340       -8.23942       -5.69863
|  8> H          3.06224       -7.67071       -3.49159
|  9> H          3.49217       -5.98401       -3.33897
| 10> H          4.68822       -7.22131       -3.03626
| 11> *
| 12>
| 13> %MaxCore 64000
| 14>
| 15> %pal nprocs 8
| 16> end
| 17>
| 18> %scf
| 19>   MaxIter 150
| 20> end
| 21>
| 22>
| 23>                          ****END OF INPUT****

CARTESIAN COORDINATES (ANGSTROEM)
---------------------------------
  C      3.841890   -6.951610   -3.632830
  S      4.318120   -6.915930   -5.368690
  F      5.406150   -5.899480   -5.512970
  O      3.111910   -6.445080   -6.043790
  O      4.763400   -8.239420   -5.698630
  H      3.062240   -7.670710   -3.491590
  H      3.492170   -5.984010   -3.338970
  H      4.688220   -7.221310   -3.036260

 Total Charge           Charge          ....    0
 Multiplicity           Mult            ....    1
 Number of Electrons    NEL             ....   50
 Basis Dimension        Dim             ....  179

ORBITAL ENERGIES
----------------

  NO   OCC          E(Eh)            E(eV)
   0   2.0000     -89.200834     -2427.2781
   1   2.0000     -24.887078      -677.2118
   2   2.0000     -19.250314      -523.8277
   3   2.0000     -19.239439      -523.5318
   4   2.0000     -10.333980      -281.2019
   5   2.0000      -8.263309      -224.8561
   6   2.0000      -6.220682      -169.2734
   7   2.0000      -6.214898      -169.1160
   8   2.0000      -6.213658      -169.0822
   9   2.0000      -1.462621       -39.7999
  10   2.0000      -1.231700       -33.5163
  11   2.0000      -1.137382       -30.9497
  12   2.0000      -0.914986       -24.8980
  13   2.0000      -0.809070       -22.0159
  14   2.0000      -0.690655       -18.7937
  15   2.0000      -0.666618       -18.1396
  16   2.0000      -0.656428       -17.8623
  17   2.0000      -0.580051       -15.7840
  18   2.0000      -0.576739       -15.6939
  19   2.0000      -0.566649       -15.4193
  20   2.0000      -0.541572       -14.7369
  21   2.0000      -0.490564       -13.3489
  22   2.0000      -0.442000       -12.0274
  23   2.0000      -0.430395       -11.7117
  24   2.0000      -0.416721       -11.3396
  25   0.0000       0.094944         2.5836
  26   0.0000       0.125692         3.4202
  27   0.0000       0.145531         3.9601
  28   0.0000       0.160759         4.3745
  29   0.0000       0.166244         4.5237

MULLIKEN ATOMIC CHARGES
-----------------------
   0 C :   -0.385986
   1 S :    0.872234
   2 F :   -0.130899
   3 O :   -0.440263
   4 O :   -0.410247
   5 H :    0.178514
   6 H :    0.161178
   7 H :    0.155469
Sum of atomic charges:    0.0000000

LOEWDIN ATOMIC CHARGES
----------------------
   0 C :   -0.395665
   1 S :    0.541252
   2 F :    0.035071
   3 O :   -0.292557
   4 O :   -0.259533
   5 H :    0.132223
   6 H :    0.120969
   7 H :    0.118240

  Mayer bond orders larger than 0.100000
B(  0-C ,  1-S ) :   0.9221 B(  0-C ,  5-H ) :   0.9465 B(  0-C ,  6-H ) :   0.9480
B(  0-C ,  7-H ) :   0.9473 B(  1-S ,  2-F ) :   1.1021 B(  1-S ,  3-O ) :   1.9118
B(  1-S ,  4-O ) :   1.9471

Dispersion correction           -0.001526478
FINAL SINGLE POINT ENERGY      -688.435892176943

DIPOLE MOMENT
-------------
                                X             Y             Z
Electronic contribution:      2.91914       1.62156      -4.32105
Nuclear contribution   :     -2.64549      -1.17311       5.81218
                        -----------------------------------------
Total Dipole Moment    :      0.27365       0.44845       1.49114
                        -----------------------------------------
Magnitude (a.u.)       :      1.58097
Magnitude (Debye)      :      4.01852

Rotational constants in cm-1:     0.165958     0.149400     0.146699
Rotational constants in MHz :  4975.281722  4478.884828  4397.931002

                             ****ORCA TERMINATED NORMALLY****
TOTAL RUN TIME: 0 days 0 hours 0 minutes 12 seconds 351 msec
