                         Program Version 5.0.0 -  RELEASE  -
|  1> !wB97X-D3 RIJCOSX def2-TZVP def2/J TightSCF
|  2> *xyz 0 1
|  3> C          5.55821       -1.99291       -6.21505
|  4> C          4.18188       -2.58967       -6.29891
|  5> C          3.14587       -1.76843       -6.48675
|  6> N          4.01910       -3.86431       -6.22743
|  7> H          4.76849       -4.59115       -5.99077
|  8> H          3.12241       -4.33339       -6.31462
|  9> H          3.28164       -0.77779       -6.56655
| 10> H          2.21255       -2.13419       -6.56225
| 11> H          5.49055       -0.92791       -6.29315
| 12> H          6.16046       -2.37160       -7.01429
| 13> H          6.00378       -2.25423       -5.27799
| 14> *
| 15>
| 16> %MaxCore 64000
| 17>
| 18> %pal nprocs 8
| 19> end
| 20>
| 21> %scf
| 22>   MaxIter 150
| 23> end
| 24>
| 25>
| 26>                          ****END OF INPUT****

CARTESIAN COORDINATES (ANGSTROEM)
---------------------------------
  C      5.558210   -1.992910   -6.215050
  C      4.181880   -2.589670   -6.298910
  C      3.145870   -1.768430   -6.486750
  N      4.019100   -3.864310   -6.227430
  H      4.768490   -4.591150   -5.990770
  H      3.122410   -4.333390   -6.314620
  H      3.281640   -0.777790   -6.566550
  H      2.212550   -2.134190   -6.562250
  H      5.490550   -0.927910   -6.293150
  H      6.160460   -2.371600   -7.014290
  H      6.003780   -2.254230   -5.277990

 Total Charge           Charge          ....    0
 Multiplicity           Mult            ....    1
 Number of Electrons    NEL             ....   32
 Basis Dimension        Dim             ....  166

ORBITAL ENERGIES
----------------

  NO   OCC          E(Eh)            E(eV)
   0   2.0000     -14.427742      -392.5988
   1   2.0000     -10.300018      -280.2777
   2   2.0000     -10.262131      -279.2468
   3   2.0000     -10.198669      -277.5199
   4   2.0000      -1.049983       -28.5715
   5   2.0000      -0.869641       -23.6641
   6   2.0000      -0.796988       -21.6872
   7   2.0000      -0.691035       -18.8040
   8   2.0000      -0.613296       -16.6886
   9   2.0000      -0.574310       -15.6278
  10   2.0000      -0.532867       -14.5000
  11   2.0000      -0.494588       -13.4584
  12   2.0000      -0.485296       -13.2056
  13   2.0000      -0.442802       -12.0492
  14   2.0000      -0.435714       -11.8564
  15   2.0000      -0.272087        -7.4039
  16   0.0000       0.106424         2.8959
  17   0.0000       0.133880         3.6430
  18   0.0000       0.153489         4.1767
  19   0.0000       0.159436         4.3385
  20   0.0000       0.187632         5.1057

MULLIKEN ATOMIC CHARGES
-----------------------
   0 C :   -0.334614
   1 C :    0.248438
   2 C :   -0.460067
   3 N :   -0.513463
   4 H :    0.253772
   5 H :    0.249094
   6 H :    0.105086
   7 H :    0.096060
   8 H :    0.121149
   9 H :    0.119390
  10 H :    0.115156
Sum of atomic charges:    0.0000000

LOEWDIN ATOMIC CHARGES
----------------------
   0 C :   -0.241356
   1 C :   -0.395326
   2 C :   -0.287694
   3 N :   -0.005196
   4 H :    0.191204
   5 H :    0.174701
   6 H :    0.097945
   7 H :    0.092905
   8 H :    0.130776
   9 H :    0.121664
  10 H :    0.120377

  Mayer bond orders larger than 0.100000
B(  0-C ,  1-C ) :   0.9421 B(  0-C ,  8-H ) :   0.9925 B(  0-C ,  9-H ) :   0.9720
B(  0-C , 10-H ) :   0.9703 B(  1-C ,  2-C ) :   1.7239 B(  1-C ,  3-N ) :   1.1858
B(  2-C ,  6-H ) :   0.9984 B(  2-C ,  7-H ) :   1.0051 B(  3-N ,  4-H ) :   0.9109
B(  3-N ,  5-H ) :   0.9172

Dispersion correction           -0.001701739
FINAL SINGLE POINT ENERGY      -173.259432775491

DIPOLE MOMENT
-------------
                                X             Y             Z
Electronic contribution:     -0.85857      -1.52134       0.04879
Nuclear contribution   :      1.24351       0.69391       0.08872
                        -----------------------------------------
Total Dipole Moment    :      0.38494      -0.82743       0.13751
                        -----------------------------------------
Magnitude (a.u.)       :      0.92289
Magnitude (Debye)      :      2.34580

Rotational constants in cm-1:     0.350694     0.303314     0.167659
Rotational constants in MHz : 10513.535482  9093.138449  5026.287342

                             ****ORCA TERMINATED NORMALLY****
TOTAL RUN TIME: 0 days 0 hours 0 minutes 12 seconds 662 msec
