                         Program Version 5.0.0 -  RELEASE  -
|  1> !wB97X-D3 RIJCOSX def2-TZVP def2/J TightSCF
|  2> *xyz 0 1
|  3> C          3.84189       -6.95161       -3.63283
|  4> S          4.31812       -6.91593       -5.36869
|  5> O          5.40615       -5.89948       -5.51297
|  6> F          3.11191       -6.44508       -6.04379
|  7> O          4.76340       -8.23942       -5.69863
|  8> H          3.06224       -7.67071       -3.49159
|  9> H          3.49217       -5.98401       -3.33897
| 10> H          4.68822       -7.22131       -3.03626
| 11> *
| 12>
| 13> %MaxCore 64000
| 14>
| 15> %pal nprocs 8
| 16> end
| 17>
| 18> %scf
| 19>   MaxIter 150
| 20> end
| 21>
| 22>
| 23>                          ****END OF INPUT****

CARTESIAN COORDINATES (ANGSTROEM)
---------------------------------
  C      3.841890   -6.951610   -3.632830
  S      4.318120   -6.915930   -5.368690
  O      5.406150   -5.899480   -5.512970
  F      3.111910   -6.445080   -6.043790
  O      4.763400   -8.239420   -5.698630
  H      3.062240   -7.670710   -3.491590
  H      3.492170   -5.984010   -3.338970
  H      4.688220   -7.221310   -3.036260

 Total Charge           Charge          ....    0
 Multiplicity           Mult            ....    1
 Number of Electrons    NEL             ....   50
 Basis Dimension        Dim             ....  179

ORBITAL ENERGIES
----------------

  NO   OCC          E(Eh)            E(eV)
   0   2.0000     -89.202703     -2427.3290
   1   2.0000     -24.901419      -677.6020
   2   2.0000     -19.250056      -523.8207
   3   2.0000     -19.232442      -523.3413
   4   2.0000     -10.334874      -281.2262
   5   2.0000      -8.265140      -224.9059
   6   2.0000      -6.222613      -169.3259
   7   2.0000      -6.216407      -169.1570
   8   2.0000      -6.215658      -169.1367
   9   2.0000      -1.489221       -40.5238
  10   2.0000      -1.225282       -33.3416
  11   2.0000      -1.119217       -30.4555
  12   2.0000      -0.919347       -25.0167
  13   2.0000      -0.821269       -22.3479
  14   2.0000      -0.702270       -19.1097
  15   2.0000      -0.685430       -18.6515
  16   2.0000      -0.660794       -17.9811
  17   2.0000      -0.580775       -15.8037
  18   2.0000      -0.577707       -15.7202
  19   2.0000      -0.564426       -15.3588
  20   2.0000      -0.536926       -14.6105
  21   2.0000      -0.487866       -13.2755
  22   2.0000      -0.439888       -11.9700
  23   2.0000      -0.422299       -11.4913
  24   2.0000      -0.404154       -10.9976
  25   0.0000       0.102400         2.7864
  26   0.0000       0.130706         3.5567
  27   0.0000       0.140391         3.8202
  28   0.0000       0.153469         4.1761
  29   0.0000       0.163948         4.4612

MULLIKEN ATOMIC CHARGES
-----------------------
   0 C :   -0.388030
   1 S :    0.867708
   2 O :   -0.464282
   3 F :   -0.108498
   4 O :   -0.404076
   5 H :    0.158694
   6 H :    0.160567
   7 H :    0.177916
Sum of atomic charges:   -0.0000000

LOEWDIN ATOMIC CHARGES
----------------------
   0 C :   -0.396557
   1 S :    0.536075
   2 O :   -0.330420
   3 F :    0.076250
   4 O :   -0.257187
   5 H :    0.119834
   6 H :    0.120530
   7 H :    0.131475

  Mayer bond orders larger than 0.100000
B(  0-C ,  1-S ) :   0.9198 B(  0-C ,  5-H ) :   0.9451 B(  0-C ,  6-H ) :   0.9476
B(  0-C ,  7-H ) :   0.9485 B(  1-S ,  2-O ) :   1.8766 B(  1-S ,  3-F ) :   1.1312
B(  1-S ,  4-O ) :   1.9497

Dispersion correction           -0.001533927
FINAL SINGLE POINT ENERGY      -688.425373561863

DIPOLE MOMENT
-------------
                                X             Y             Z
Electronic contribution:     -0.95565       0.69353      -5.22550
Nuclear contribution   :     -0.35339      -0.62802       6.34251
                        -----------------------------------------
Total Dipole Moment    :     -1.30904       0.06551       1.11701
                        -----------------------------------------
Magnitude (a.u.)       :      1.72209
Magnitude (Debye)      :      4.37721

Rotational constants in cm-1:     0.162638     0.154373     0.145390
Rotational constants in MHz :  4875.774584  4627.990015  4358.691210

                             ****ORCA TERMINATED NORMALLY****
TOTAL RUN TIME: 0 days 0 hours 0 minutes 12 seconds 352 msec
