                         Program Version 5.0.0 -  RELEASE  -
|  1> !wB97X-D3 RIJCOSX def2-TZVP def2/J TightSCF
|  2> *xyz 0 1
|  3> C          5.55821       -1.99291       -6.21505
|  4> C          4.18188       -2.58967       -6.29891
|  5> N          3.14587       -1.76843       -6.48675
|  6> C          4.01910       -3.86431       -6.22743
|  7> H          4.76849       -4.59115       -5.99077
|  8> H          3.12241       -4.33339       -6.31462
|  9> H          3.28164       -0.77779       -6.56655
| 10> H          2.21255       -2.13419       -6.56225
| 11> H          5.49055       -0.92791       -6.29315
| 12> H          6.16046       -2.37160       -7.01429
| 13> H          6.00378       -2.25423       -5.27799
| 14> *
| 15>
| 16> %MaxCore 64000
| 17>
| 18> %pal nprocs 8
| 19> end
| 20>
| 21> %scf
| 22>   MaxIter 150
| 23> end
| 24>
| 25>
| 26>                          ****END OF INPUT****

CARTESIAN COORDINATES (ANGSTROEM)
---------------------------------
  C      5.558210   -1.992910   -6.215050
  C      4.181880   -2.589670   -6.298910
  N      3.145870   -1.768430   -6.486750
  C      4.019100   -3.864310   -6.227430
  H      4.768490   -4.591150   -5.990770
  H      3.122410   -4.333390   -6.314620
  H      3.281640   -0.777790   -6.566550
  H      2.212550   -2.134190   -6.562250
  H      5.490550   -0.927910   -6.293150
  H      6.160460   -2.371600   -7.014290
  H      6.003780   -2.254230   -5.277990

 Total Charge           Charge          ....    0
 Multiplicity           Mult            ....    1
 Number of Electrons    NEL             ....   32
 Basis Dimension        Dim             ....  166

ORBITAL ENERGIES
----------------

  NO   OCC          E(Eh)            E(eV)
   0   2.0000     -14.416400      -392.2902
   1   2.0000     -10.296880      -280.1924
   2   2.0000     -10.262819      -279.2655
   3   2.0000     -10.204682      -277.6835
   4   2.0000      -1.040005       -28.3000
   5   2.0000      -0.873147       -23.7595
   6   2.0000      -0.803233       -21.8571
   7   2.0000      -0.673450       -18.3255
   8   2.0000      -0.626373       -17.0445
   9   2.0000      -0.578666       -15.7463
  10   2.0000      -0.530439       -14.4340
  11   2.0000      -0.491944       -13.3865
  12   2.0000      -0.489172       -13.3110
  13   2.0000      -0.438742       -11.9388
  14   2.0000      -0.430217       -11.7068
  15   2.0000      -0.279243        -7.5986
  16   0.0000       0.113418         3.0863
  17   0.0000       0.130850         3.5606
  18   0.0000       0.155811         4.2398
  19   0.0000       0.162779         4.4294
  20   0.0000       0.197819         5.3829

MULLIKEN ATOMIC CHARGES
-----------------------
   0 C :   -0.320499
   1 C :    0.224937
   2 N :   -0.505835
   3 C :   -0.437348
   4 H :    0.108293
   5 H :    0.097486
   6 H :    0.235766
   7 H :    0.240591
   8 H :    0.089305
   9 H :    0.134448
  10 H :    0.132856
Sum of atomic charges:    0.0000000

LOEWDIN ATOMIC CHARGES
----------------------
   0 C :   -0.239339
   1 C :   -0.382971
   2 N :   -0.015635
   3 C :   -0.287416
   4 H :    0.119401
   5 H :    0.099090
   6 H :    0.161669
   7 H :    0.169217
   8 H :    0.115404
   9 H :    0.130346
  10 H :    0.130235

  Mayer bond orders larger than 0.100000
B(  0-C ,  1-C ) :   0.9197 B(  0-C ,  8-H ) :   0.9916 B(  0-C ,  9-H ) :   0.9730
B(  0-C , 10-H ) :   0.9793 B(  1-C ,  2-N ) :   1.1475 B(  1-C ,  3-C ) :   1.7882
B(  2-N ,  6-H ) :   0.9256 B(  2-N ,  7-H ) :   0.9216 B(  3-C ,  4-H ) :   0.9937
B(  3-C ,  5-H ) :   0.9960

Dispersion correction           -0.001688502
FINAL SINGLE POINT ENERGY      -173.268578309908

DIPOLE MOMENT
-------------
                                X             Y             Z
Electronic contribution:     -1.62855       0.46297      -0.21320
Nuclear contribution   :      1.43935       0.22387       0.14687
                        -----------------------------------------
Total Dipole Moment    :     -0.18920       0.68684      -0.06633
                        -----------------------------------------
Magnitude (a.u.)       :      0.71551
Magnitude (Debye)      :      1.81867

Rotational constants in cm-1:     0.350137     0.303099     0.167465
Rotational constants in MHz : 10496.847516  9086.685989  5020.487860

                             ****ORCA TERMINATED NORMALLY****
TOTAL RUN TIME: 0 days 0 hours 0 minutes 11 seconds 866 msec
