                         Program Version 5.0.0 -  RELEASE  -
|  1> !wB97X-D3 RIJCOSX def2-TZVP def2/J TightSCF
|  2> *xyz 0 1
|  3> C          3.84189       -6.95161       -3.63283
|  4> S          4.31812       -6.91593       -5.36869
|  5> O          5.40615       -5.89948       -5.51297
|  6> O          3.11191       -6.44508       -6.04379
|  7> F          4.76340       -8.23942       -5.69863
|  8> H          3.06224       -7.67071       -3.49159
|  9> H          3.49217       -5.98401       -3.33897
| 10> H          4.68822       -7.22131       -3.03626
| 11> *
| 12>
| 13> %MaxCore 64000
| 14>
| 15> %pal nprocs 8
| 16> end
| 17>
| 18> %scf
| 19>   MaxIter 150
| 20> end
| 21>
| 22>
| 23>                          ****END OF INPUT****

CARTESIAN COORDINATES (ANGSTROEM)
---------------------------------
  C      3.841890   -6.951610   -3.632830
  S      4.318120   -6.915930   -5.368690
  O      5.406150   -5.899480   -5.512970
  O      3.111910   -6.445080   -6.043790
  F      4.763400   -8.239420   -5.698630
  H      3.062240   -7.670710   -3.491590
  H      3.492170   -5.984010   -3.338970
  H      4.688220   -7.221310   -3.036260

 Total Charge           Charge          ....    0
 Multiplicity           Mult            ....    1
 Number of Electrons    NEL             ....   50
 Basis Dimension        Dim             ....  179

ORBITAL ENERGIES
----------------

  NO   OCC          E(Eh)            E(eV)
   0   2.0000     -89.203969     -2427.3634
   1   2.0000     -24.916245      -678.0055
   2   2.0000     -19.239666      -523.5379
   3   2.0000     -19.232933      -523.3547
   4   2.0000     -10.335083      -281.2319
   5   2.0000      -8.266400      -224.9402
   6   2.0000      -6.223792      -169.3580
   7   2.0000      -6.217654      -169.1910
   8   2.0000      -6.216909      -169.1707
   9   2.0000      -1.511996       -41.1435
  10   2.0000      -1.213249       -33.0142
  11   2.0000      -1.111341       -30.2411
  12   2.0000      -0.919247       -25.0140
  13   2.0000      -0.833310       -22.6755
  14   2.0000      -0.714610       -19.4455
  15   2.0000      -0.701521       -19.0894
  16   2.0000      -0.662549       -18.0289
  17   2.0000      -0.580216       -15.7885
  18   2.0000      -0.574076       -15.6214
  19   2.0000      -0.566018       -15.4021
  20   2.0000      -0.531637       -14.4666
  21   2.0000      -0.480690       -13.0802
  22   2.0000      -0.428913       -11.6713
  23   2.0000      -0.420862       -11.4522
  24   2.0000      -0.397134       -10.8066
  25   0.0000       0.098998         2.6939
  26   0.0000       0.130322         3.5463
  27   0.0000       0.138660         3.7731
  28   0.0000       0.149793         4.0761
  29   0.0000       0.166850         4.5402

MULLIKEN ATOMIC CHARGES
-----------------------
   0 C :   -0.385360
   1 S :    0.864840
   2 O :   -0.458943
   3 O :   -0.429007
   4 F :   -0.088102
   5 H :    0.157753
   6 H :    0.182135
   7 H :    0.156683
Sum of atomic charges:    0.0000000

LOEWDIN ATOMIC CHARGES
----------------------
   0 C :   -0.396672
   1 S :    0.532181
   2 O :   -0.327671
   3 O :   -0.287584
   4 F :    0.107976
   5 H :    0.119702
   6 H :    0.133465
   7 H :    0.118602

  Mayer bond orders larger than 0.100000
B(  0-C ,  1-S ) :   0.9211 B(  0-C ,  5-H ) :   0.9452 B(  0-C ,  6-H ) :   0.9482
B(  0-C ,  7-H ) :   0.9467 B(  1-S ,  2-O ) :   1.8774 B(  1-S ,  3-O ) :   1.9146
B(  1-S ,  4-F ) :   1.1578

Dispersion correction           -0.001530844
FINAL SINGLE POINT ENERGY      -688.412799694919

DIPOLE MOMENT
-------------
                                X             Y             Z
Electronic contribution:      1.82372      -2.31428      -4.64204
Nuclear contribution   :     -2.00334       1.16464       5.99767
                        -----------------------------------------
Total Dipole Moment    :     -0.17962      -1.14964       1.35563
                        -----------------------------------------
Magnitude (a.u.)       :      1.78653
Magnitude (Debye)      :      4.54099

Rotational constants in cm-1:     0.163678     0.154408     0.144413
Rotational constants in MHz :  4906.945035  4629.020676  4329.393152

                             ****ORCA TERMINATED NORMALLY****
TOTAL RUN TIME: 0 days 0 hours 0 minutes 12 seconds 626 msec
