                         Program Version 5.0.0 -  RELEASE  -
|  1> !BLYP D3BJ RIJCOSX def2-SVPD def2/J TightSCF
|  2> *xyz -1 1
|  3> C          2.49670       -1.84416       -5.73570
|  4> O          2.45973       -0.50920       -5.50576
|  5> H          2.07863       -2.36209       -4.89793
|  6> H          3.51118       -2.15388       -5.87645
|  7> H          1.92949       -2.07059       -6.61428
|  8> *
|  9>
| 10> %MaxCore 64000
| 11>
| 12> %pal nprocs 4
| 13> end
| 14>
| 15> %scf
| 16>   MaxIter 150
| 17> end
| 18>
| 19>
| 20>                          ****END OF INPUT****

CARTESIAN COORDINATES (ANGSTROEM)
---------------------------------
  C      2.496700   -1.844160   -5.735700
  O      2.459730   -0.509200   -5.505760
  H      2.078630   -2.362090   -4.897930
  H      3.511180   -2.153880   -5.876450
  H      1.929490   -2.070590   -6.614280

 Total Charge           Charge          ....   -1
 Multiplicity           Mult            ....    1
 Number of Electrons    NEL             ....   18
 Basis Dimension        Dim             ....   67

ORBITAL ENERGIES
----------------

  NO   OCC          E(Eh)            E(eV)
   0   2.0000     -18.443208      -501.8652
   1   2.0000      -9.710011      -264.2228
   2   2.0000      -0.568835       -15.4788
   3   2.0000      -0.321262        -8.7420
   4   2.0000      -0.146606        -3.9893
   5   2.0000      -0.146604        -3.9893
   6   2.0000      -0.053192        -1.4474
   7   2.0000       0.093782         2.5520
   8   2.0000       0.093783         2.5520
   9   0.0000       0.181765         4.9461
  10   0.0000       0.249825         6.7981
  11   0.0000       0.249827         6.7981
  12   0.0000       0.257986         7.0202
  13   0.0000       0.295833         8.0500

MULLIKEN ATOMIC CHARGES
-----------------------
   0 C :    1.156525
   1 O :   -0.972144
   2 H :   -0.394800
   3 H :   -0.394780
   4 H :   -0.394800
Sum of atomic charges:   -1.0000000

LOEWDIN ATOMIC CHARGES
----------------------
   0 C :   -0.122957
   1 O :   -0.609309
   2 H :   -0.089246
   3 H :   -0.089243
   4 H :   -0.089245

  Mayer bond orders larger than 0.100000
B(  0-C ,  1-O ) :   1.1833 B(  0-C ,  2-H ) :   0.8292 B(  0-C ,  3-H ) :   0.8292
B(  0-C ,  4-H ) :   0.8292

Dispersion correction           -0.003033204
FINAL SINGLE POINT ENERGY      -114.984691809854

DIPOLE MOMENT
-------------
                                X             Y             Z
Electronic contribution:     -0.05250       1.89545       0.32649
Nuclear contribution   :      0.07809      -2.81948      -0.48564
                        -----------------------------------------
Total Dipole Moment    :      0.02559      -0.92403      -0.15915
                        -----------------------------------------
Magnitude (a.u.)       :      0.93798
Magnitude (Debye)      :      2.38416

Rotational constants in cm-1:     5.477724     0.956378     0.956377
Rotational constants in MHz : 164218.041992 28671.483536 28671.460928

                             ****ORCA TERMINATED NORMALLY****
TOTAL RUN TIME: 0 days 0 hours 0 minutes 2 seconds 295 msec
