                         Program Version 5.0.0 -  RELEASE  -
|  1> !BLYP D3BJ RIJCOSX def2-SVPD def2/J TightSCF
|  2> *xyz 1 1
|  3> C          4.99986       -1.59613       -5.92488
|  4> N          5.28156       -1.97413       -4.53576
|  5> C          4.79250       -1.36132       -3.45730
|  6> N          3.93990       -0.37492       -3.55736
|  7> N          5.25986       -1.75422       -2.23913
|  8> H          5.92282       -2.52145       -2.18672
|  9> H          4.65468       -1.64040       -1.44202
| 10> H          5.70914       -2.87560       -4.38702
| 11> H          3.33010       -0.31764       -4.36125
| 12> H          3.69849        0.11447       -2.70833
| 13> H          5.52133       -2.25562       -6.58673
| 14> H          5.32493       -0.59081       -6.09388
| 15> H          3.94785       -1.66624       -6.10727
| 16> *
| 17>
| 18> %MaxCore 64000
| 19>
| 20> %pal nprocs 4
| 21> end
| 22>
| 23> %scf
| 24>   MaxIter 150
| 25> end
| 26>
| 27>
| 28>                          ****END OF INPUT****

CARTESIAN COORDINATES (ANGSTROEM)
---------------------------------
  C      4.999860   -1.596130   -5.924880
  N      5.281560   -1.974130   -4.535760
  C      4.792500   -1.361320   -3.457300
  N      3.939900   -0.374920   -3.557360
  N      5.259860   -1.754220   -2.239130
  H      5.922820   -2.521450   -2.186720
  H      4.654680   -1.640400   -1.442020
  H      5.709140   -2.875600   -4.387020
  H      3.330100   -0.317640   -4.361250
  H      3.698490    0.114470   -2.708330
  H      5.521330   -2.255620   -6.586730
  H      5.324930   -0.590810   -6.093880
  H      3.947850   -1.666240   -6.107270

 Total Charge           Charge          ....    1
 Multiplicity           Mult            ....    1
 Number of Electrons    NEL             ....   40
 Basis Dimension        Dim             ....  164

ORBITAL ENERGIES
----------------

  NO   OCC          E(Eh)            E(eV)
   0   2.0000     -14.256157      -387.9298
   1   2.0000     -14.253344      -387.8532
   2   2.0000     -14.246006      -387.6535
   3   2.0000     -10.252605      -278.9876
   4   2.0000     -10.129732      -275.6440
   5   2.0000      -1.119303       -30.4578
   6   2.0000      -1.018062       -27.7029
   7   2.0000      -1.002682       -27.2844
   8   2.0000      -0.830567       -22.6009
   9   2.0000      -0.766014       -20.8443
  10   2.0000      -0.733377       -19.9562
  11   2.0000      -0.693474       -18.8704
  12   2.0000      -0.650810       -17.7094
  13   2.0000      -0.644546       -17.5390
  14   2.0000      -0.602781       -16.4025
  15   2.0000      -0.584218       -15.8974
  16   2.0000      -0.542782       -14.7699
  17   2.0000      -0.533468       -14.5164
  18   2.0000      -0.441131       -12.0038
  19   2.0000      -0.418404       -11.3854
  20   0.0000      -0.211423        -5.7531
  21   0.0000      -0.180942        -4.9237
  22   0.0000      -0.146941        -3.9985
  23   0.0000      -0.138001        -3.7552
  24   0.0000      -0.120774        -3.2864

MULLIKEN ATOMIC CHARGES
-----------------------
   0 C :    1.472147
   1 N :   -0.332101
   2 C :    0.824744
   3 N :    0.280986
   4 N :    0.211551
   5 H :   -0.103612
   6 H :   -0.105933
   7 H :   -0.275769
   8 H :   -0.082639
   9 H :   -0.148892
  10 H :   -0.484891
  11 H :   -0.119547
  12 H :   -0.136043
Sum of atomic charges:    1.0000000

LOEWDIN ATOMIC CHARGES
----------------------
   0 C :    0.264500
   1 N :    0.043602
   2 C :   -0.068456
   3 N :    0.303767
   4 N :    0.283185
   5 H :    0.028286
   6 H :    0.022283
   7 H :    0.046661
   8 H :    0.030840
   9 H :    0.040293
  10 H :    0.007433
  11 H :    0.004773
  12 H :   -0.007167

  Mayer bond orders larger than 0.100000
B(  0-C ,  1-N ) :   1.0061 B(  0-C ,  7-H ) :  -0.1247 B(  0-C , 10-H ) :   0.6839
B(  0-C , 11-H ) :   0.7410 B(  0-C , 12-H ) :   0.7618 B(  1-N ,  2-C ) :   1.1198
B(  1-N ,  3-N ) :   0.2564 B(  1-N ,  4-N ) :   0.2109 B(  1-N ,  7-H ) :   1.2177
B(  1-N , 10-H ) :   0.2121 B(  1-N , 11-H ) :   0.1826 B(  1-N , 12-H ) :   0.1551
B(  2-C ,  3-N ) :   1.1690 B(  2-C ,  4-N ) :   0.9649 B(  2-C ,  5-H ) :  -0.1106
B(  2-C ,  7-H ) :  -0.1956 B(  2-C ,  8-H ) :  -0.1236 B(  2-C ,  9-H ) :  -0.1042
B(  3-N ,  4-N ) :   0.1571 B(  3-N ,  8-H ) :   1.1324 B(  3-N ,  9-H ) :   1.1672
B(  4-N ,  5-H ) :   1.0913 B(  4-N ,  6-H ) :   1.1513 B(  5-H ,  6-H ) :  -0.1396
B(  8-H ,  9-H ) :  -0.1924

Dispersion correction           -0.018465992
FINAL SINGLE POINT ENERGY      -244.836317110794

DIPOLE MOMENT
-------------
                                X             Y             Z
Electronic contribution:      0.18647       0.12357       2.66204
Nuclear contribution   :     -0.59263      -0.40751      -2.24260
                        -----------------------------------------
Total Dipole Moment    :     -0.40616      -0.28394       0.41944
                        -----------------------------------------
Magnitude (a.u.)       :      0.64925
Magnitude (Debye)      :      1.65026

Rotational constants in cm-1:     0.316984     0.131419     0.095004
Rotational constants in MHz :  9502.926758  3939.829875  2848.138998

                             ****ORCA TERMINATED NORMALLY****
TOTAL RUN TIME: 0 days 0 hours 0 minutes 6 seconds 40 msec
