                         Program Version 5.0.0 -  RELEASE  -
|  1> !BLYP D3BJ RIJCOSX def2-SVPD def2/J TightSCF
|  2> *xyz 0 1
|  3> C          2.49670       -1.84416       -5.73570
|  4> F          2.45973       -0.50920       -5.50576
|  5> H          2.07863       -2.36209       -4.89793
|  6> H          3.51118       -2.15388       -5.87645
|  7> H          1.92949       -2.07059       -6.61428
|  8> *
|  9>
| 10> %MaxCore 64000
| 11>
| 12> %pal nprocs 4
| 13> end
| 14>
| 15> %scf
| 16>   MaxIter 150
| 17> end
| 18>
| 19>
| 20>                          ****END OF INPUT****

CARTESIAN COORDINATES (ANGSTROEM)
---------------------------------
  C      2.496700   -1.844160   -5.735700
  F      2.459730   -0.509200   -5.505760
  H      2.078630   -2.362090   -4.897930
  H      3.511180   -2.153880   -5.876450
  H      1.929490   -2.070590   -6.614280

 Total Charge           Charge          ....    0
 Multiplicity           Mult            ....    1
 Number of Electrons    NEL             ....   18
 Basis Dimension        Dim             ....   67

ORBITAL ENERGIES
----------------

  NO   OCC          E(Eh)            E(eV)
   0   2.0000     -24.291486      -661.0049
   1   2.0000      -9.992825      -271.9186
   2   2.0000      -1.082750       -29.4631
   3   2.0000      -0.627738       -17.0816
   4   2.0000      -0.446201       -12.1417
   5   2.0000      -0.434181       -11.8147
   6   2.0000      -0.434179       -11.8146
   7   2.0000      -0.295653        -8.0451
   8   2.0000      -0.295651        -8.0451
   9   0.0000       0.006765         0.1841
  10   0.0000       0.036699         0.9986
  11   0.0000       0.078643         2.1400
  12   0.0000       0.078643         2.1400
  13   0.0000       0.125531         3.4159

MULLIKEN ATOMIC CHARGES
-----------------------
   0 C :    1.214692
   1 F :   -0.435291
   2 H :   -0.259806
   3 H :   -0.259788
   4 H :   -0.259807
Sum of atomic charges:   -0.0000000

LOEWDIN ATOMIC CHARGES
----------------------
   0 C :    0.257490
   1 F :   -0.224149
   2 H :   -0.011116
   3 H :   -0.011112
   4 H :   -0.011114

  Mayer bond orders larger than 0.100000
B(  0-C ,  1-F ) :   0.9123 B(  0-C ,  2-H ) :   0.8674 B(  0-C ,  3-H ) :   0.8674
B(  0-C ,  4-H ) :   0.8674

Dispersion correction           -0.002648458
FINAL SINGLE POINT ENERGY      -139.610091409837

DIPOLE MOMENT
-------------
                                X             Y             Z
Electronic contribution:     -0.08064       2.91147       0.50149
Nuclear contribution   :      0.09898      -3.57380      -0.61557
                        -----------------------------------------
Total Dipole Moment    :      0.01834      -0.66233      -0.11408
                        -----------------------------------------
Magnitude (a.u.)       :      0.67233
Magnitude (Debye)      :      1.70893

Rotational constants in cm-1:     5.477724     0.890368     0.890367
Rotational constants in MHz : 164218.041992 26692.553985 26692.534390

                             ****ORCA TERMINATED NORMALLY****
TOTAL RUN TIME: 0 days 0 hours 0 minutes 2 seconds 266 msec
