                         Program Version 5.0.0 -  RELEASE  -
|  1> !BLYP D3BJ RIJCOSX def2-SVPD def2/J TightSCF
|  2> *xyz 0 1
|  3> C          4.99986       -1.59613       -5.92488
|  4> C          5.28156       -1.97413       -4.53576
|  5> C          4.79250       -1.36132       -3.45730
|  6> N          3.93990       -0.37492       -3.55736
|  7> N          5.25986       -1.75422       -2.23913
|  8> H          5.92282       -2.52145       -2.18672
|  9> H          4.65468       -1.64040       -1.44202
| 10> H          5.70914       -2.87560       -4.38702
| 11> H          3.33010       -0.31764       -4.36125
| 12> H          3.69849        0.11447       -2.70833
| 13> H          5.52133       -2.25562       -6.58673
| 14> H          5.32493       -0.59081       -6.09388
| 15> H          3.94785       -1.66624       -6.10727
| 16> *
| 17>
| 18> %MaxCore 64000
| 19>
| 20> %pal nprocs 4
| 21> end
| 22>
| 23> %scf
| 24>   MaxIter 150
| 25> end
| 26>
| 27>
| 28>                          ****END OF INPUT****

CARTESIAN COORDINATES (ANGSTROEM)
---------------------------------
  C      4.999860   -1.596130   -5.924880
  C      5.281560   -1.974130   -4.535760
  C      4.792500   -1.361320   -3.457300
  N      3.939900   -0.374920   -3.557360
  N      5.259860   -1.754220   -2.239130
  H      5.922820   -2.521450   -2.186720
  H      4.654680   -1.640400   -1.442020
  H      5.709140   -2.875600   -4.387020
  H      3.330100   -0.317640   -4.361250
  H      3.698490    0.114470   -2.708330
  H      5.521330   -2.255620   -6.586730
  H      5.324930   -0.590810   -6.093880
  H      3.947850   -1.666240   -6.107270

 Total Charge           Charge          ....    0
 Multiplicity           Mult            ....    1
 Number of Electrons    NEL             ....   40
 Basis Dimension        Dim             ....  164

ORBITAL ENERGIES
----------------

  NO   OCC          E(Eh)            E(eV)
   0   2.0000     -14.029549      -381.7634
   1   2.0000     -14.019048      -381.4777
   2   2.0000      -9.957050      -270.9451
   3   2.0000      -9.888590      -269.0822
   4   2.0000      -9.848444      -267.9898
   5   2.0000      -0.863870       -23.5071
   6   2.0000      -0.778824       -21.1929
   7   2.0000      -0.665606       -18.1121
   8   2.0000      -0.580373       -15.7927
   9   2.0000      -0.521781       -14.1984
  10   2.0000      -0.487343       -13.2613
  11   2.0000      -0.445826       -12.1315
  12   2.0000      -0.426203       -11.5976
  13   2.0000      -0.377648       -10.2763
  14   2.0000      -0.354942        -9.6585
  15   2.0000      -0.323577        -8.8050
  16   2.0000      -0.310760        -8.4562
  17   2.0000      -0.291828        -7.9411
  18   2.0000      -0.219423        -5.9708
  19   2.0000      -0.127016        -3.4563
  20   0.0000      -0.006292        -0.1712
  21   0.0000       0.021639         0.5888
  22   0.0000       0.035238         0.9589
  23   0.0000       0.043727         1.1899
  24   0.0000       0.061185         1.6649

MULLIKEN ATOMIC CHARGES
-----------------------
   0 C :    1.182696
   1 C :   -0.619882
   2 C :    0.649840
   3 N :    0.373387
   4 N :    0.243055
   5 H :   -0.111290
   6 H :   -0.196104
   7 H :   -0.578680
   8 H :   -0.132550
   9 H :   -0.307958
  10 H :   -0.238672
  11 H :   -0.097367
  12 H :   -0.166475
Sum of atomic charges:    0.0000000

LOEWDIN ATOMIC CHARGES
----------------------
   0 C :    0.099673
   1 C :   -0.049270
   2 C :   -0.249233
   3 N :    0.220302
   4 N :    0.200103
   5 H :   -0.008577
   6 H :   -0.034614
   7 H :   -0.068165
   8 H :   -0.004797
   9 H :   -0.012235
  10 H :   -0.026152
  11 H :   -0.027565
  12 H :   -0.039469

  Mayer bond orders larger than 0.100000
B(  0-C ,  1-C ) :   1.2254 B(  0-C ,  7-H ) :   0.2120 B(  0-C , 10-H ) :   0.6153
B(  0-C , 11-H ) :   0.5470 B(  0-C , 12-H ) :   0.6646 B(  1-C ,  2-C ) :   1.3138
B(  1-C ,  3-N ) :   0.3568 B(  1-C ,  4-N ) :   0.3756 B(  1-C ,  7-H ) :   0.8711
B(  1-C , 10-H ) :   0.3827 B(  1-C , 11-H ) :   0.4087 B(  1-C , 12-H ) :   0.2602
B(  2-C ,  3-N ) :   1.1540 B(  2-C ,  4-N ) :   0.9057 B(  3-N ,  8-H ) :   1.1104
B(  3-N ,  9-H ) :   1.2118 B(  4-N ,  5-H ) :   1.0828 B(  4-N ,  6-H ) :   1.1150
B(  5-H ,  6-H ) :  -0.1211 B(  7-H , 10-H ) :  -0.1468 B(  8-H ,  9-H ) :  -0.1779
B( 10-H , 11-H ) :   0.1135

Dispersion correction           -0.019420855
FINAL SINGLE POINT ENERGY      -228.361457190390

DIPOLE MOMENT
-------------
                                X             Y             Z
Electronic contribution:     -0.11650       0.60157       3.06565
Nuclear contribution   :     -0.50372      -0.52081      -2.36443
                        -----------------------------------------
Total Dipole Moment    :     -0.62022       0.08075       0.70123
                        -----------------------------------------
Magnitude (a.u.)       :      0.93963
Magnitude (Debye)      :      2.38835

Rotational constants in cm-1:     0.322219     0.132365     0.095965
Rotational constants in MHz :  9659.878542  3968.206057  2876.950547

                             ****ORCA TERMINATED NORMALLY****
TOTAL RUN TIME: 0 days 0 hours 0 minutes 6 seconds 838 msec
