                         Program Version 5.0.0 -  RELEASE  -
|  1> !BLYP D3BJ RIJCOSX def2-SVPD def2/J TightSCF
|  2> *xyz 0 1
|  3> C          4.99986       -1.59613       -5.92488
|  4> N          5.28156       -1.97413       -4.53576
|  5> C          4.79250       -1.36132       -3.45730
|  6> C          3.93990       -0.37492       -3.55736
|  7> N          5.25986       -1.75422       -2.23913
|  8> H          5.92282       -2.52145       -2.18672
|  9> H          4.65468       -1.64040       -1.44202
| 10> H          5.70914       -2.87560       -4.38702
| 11> H          3.33010       -0.31764       -4.36125
| 12> H          3.69849        0.11447       -2.70833
| 13> H          5.52133       -2.25562       -6.58673
| 14> H          5.32493       -0.59081       -6.09388
| 15> H          3.94785       -1.66624       -6.10727
| 16> *
| 17>
| 18> %MaxCore 64000
| 19>
| 20> %pal nprocs 4
| 21> end
| 22>
| 23> %scf
| 24>   MaxIter 150
| 25> end
| 26>
| 27>
| 28>                          ****END OF INPUT****

CARTESIAN COORDINATES (ANGSTROEM)
---------------------------------
  C      4.999860   -1.596130   -5.924880
  N      5.281560   -1.974130   -4.535760
  C      4.792500   -1.361320   -3.457300
  C      3.939900   -0.374920   -3.557360
  N      5.259860   -1.754220   -2.239130
  H      5.922820   -2.521450   -2.186720
  H      4.654680   -1.640400   -1.442020
  H      5.709140   -2.875600   -4.387020
  H      3.330100   -0.317640   -4.361250
  H      3.698490    0.114470   -2.708330
  H      5.521330   -2.255620   -6.586730
  H      5.324930   -0.590810   -6.093880
  H      3.947850   -1.666240   -6.107270

 Total Charge           Charge          ....    0
 Multiplicity           Mult            ....    1
 Number of Electrons    NEL             ....   40
 Basis Dimension        Dim             ....  164

ORBITAL ENERGIES
----------------

  NO   OCC          E(Eh)            E(eV)
   0   2.0000     -14.027008      -381.6943
   1   2.0000     -14.021508      -381.5446
   2   2.0000      -9.960607      -271.0419
   3   2.0000      -9.947918      -270.6966
   4   2.0000      -9.839172      -267.7375
   5   2.0000      -0.863791       -23.5050
   6   2.0000      -0.785463       -21.3735
   7   2.0000      -0.644580       -17.5399
   8   2.0000      -0.619819       -16.8661
   9   2.0000      -0.504668       -13.7327
  10   2.0000      -0.485994       -13.2246
  11   2.0000      -0.456560       -12.4236
  12   2.0000      -0.404818       -11.0157
  13   2.0000      -0.386243       -10.5102
  14   2.0000      -0.367397        -9.9974
  15   2.0000      -0.337287        -9.1781
  16   2.0000      -0.334166        -9.0931
  17   2.0000      -0.305021        -8.3000
  18   2.0000      -0.205994        -5.6054
  19   2.0000      -0.139477        -3.7954
  20   0.0000      -0.006104        -0.1661
  21   0.0000       0.017735         0.4826
  22   0.0000       0.032600         0.8871
  23   0.0000       0.044406         1.2084
  24   0.0000       0.062747         1.7074

MULLIKEN ATOMIC CHARGES
-----------------------
   0 C :    1.455036
   1 N :   -0.310944
   2 C :    0.439791
   3 C :    0.556171
   4 N :    0.283156
   5 H :   -0.245987
   6 H :   -0.119808
   7 H :   -0.413104
   8 H :   -0.320641
   9 H :   -0.535496
  10 H :   -0.576258
  11 H :   -0.131060
  12 H :   -0.080855
Sum of atomic charges:    0.0000000

LOEWDIN ATOMIC CHARGES
----------------------
   0 C :    0.215082
   1 N :   -0.025762
   2 C :   -0.255352
   3 C :    0.168086
   4 N :    0.206096
   5 H :   -0.025021
   6 H :   -0.013594
   7 H :    0.001725
   8 H :   -0.106830
   9 H :   -0.101230
  10 H :   -0.022077
  11 H :   -0.015663
  12 H :   -0.025460

  Mayer bond orders larger than 0.100000
B(  0-C ,  1-N ) :   0.9871 B(  0-C ,  7-H ) :  -0.1306 B(  0-C , 10-H ) :   0.6850
B(  0-C , 11-H ) :   0.7433 B(  0-C , 12-H ) :   0.7726 B(  1-N ,  2-C ) :   1.0981
B(  1-N ,  3-C ) :   0.4035 B(  1-N ,  4-N ) :   0.1500 B(  1-N ,  7-H ) :   1.2731
B(  1-N , 10-H ) :   0.2009 B(  1-N , 11-H ) :   0.1853 B(  1-N , 12-H ) :   0.1400
B(  2-C ,  3-C ) :   1.5225 B(  2-C ,  4-N ) :   0.9885 B(  2-C ,  7-H ) :  -0.1952
B(  2-C ,  8-H ) :   0.2520 B(  2-C ,  9-H ) :   0.3106 B(  3-C ,  4-N ) :   0.2849
B(  3-C ,  8-H ) :   0.6400 B(  3-C ,  9-H ) :   0.5968 B(  4-N ,  5-H ) :   1.0869
B(  4-N ,  6-H ) :   1.1114 B(  5-H ,  6-H ) :  -0.1289 B(  8-H ,  9-H ) :   0.1289

Dispersion correction           -0.019361789
FINAL SINGLE POINT ENERGY      -228.352897627100

DIPOLE MOMENT
-------------
                                X             Y             Z
Electronic contribution:      1.11277      -0.84563       2.11738
Nuclear contribution   :     -0.77547      -0.19690      -2.16626
                        -----------------------------------------
Total Dipole Moment    :      0.33730      -1.04253      -0.04887
                        -----------------------------------------
Magnitude (a.u.)       :      1.09683
Magnitude (Debye)      :      2.78792

Rotational constants in cm-1:     0.340409     0.131955     0.097296
Rotational constants in MHz : 10205.195281  3955.909122  2916.861706

                             ****ORCA TERMINATED NORMALLY****
TOTAL RUN TIME: 0 days 0 hours 0 minutes 6 seconds 544 msec
