                         Program Version 5.0.0 -  RELEASE  -
|  1> !BLYP D3BJ RIJCOSX def2-SVPD def2/J TightSCF
|  2> *xyz 0 1
|  3> C          4.99986       -1.59613       -5.92488
|  4> N          5.28156       -1.97413       -4.53576
|  5> C          4.79250       -1.36132       -3.45730
|  6> N          3.93990       -0.37492       -3.55736
|  7> C          5.25986       -1.75422       -2.23913
|  8> H          5.92282       -2.52145       -2.18672
|  9> H          4.65468       -1.64040       -1.44202
| 10> H          5.70914       -2.87560       -4.38702
| 11> H          3.33010       -0.31764       -4.36125
| 12> H          3.69849        0.11447       -2.70833
| 13> H          5.52133       -2.25562       -6.58673
| 14> H          5.32493       -0.59081       -6.09388
| 15> H          3.94785       -1.66624       -6.10727
| 16> *
| 17>
| 18> %MaxCore 64000
| 19>
| 20> %pal nprocs 4
| 21> end
| 22>
| 23> %scf
| 24>   MaxIter 150
| 25> end
| 26>
| 27>
| 28>                          ****END OF INPUT****

CARTESIAN COORDINATES (ANGSTROEM)
---------------------------------
  C      4.999860   -1.596130   -5.924880
  N      5.281560   -1.974130   -4.535760
  C      4.792500   -1.361320   -3.457300
  N      3.939900   -0.374920   -3.557360
  C      5.259860   -1.754220   -2.239130
  H      5.922820   -2.521450   -2.186720
  H      4.654680   -1.640400   -1.442020
  H      5.709140   -2.875600   -4.387020
  H      3.330100   -0.317640   -4.361250
  H      3.698490    0.114470   -2.708330
  H      5.521330   -2.255620   -6.586730
  H      5.324930   -0.590810   -6.093880
  H      3.947850   -1.666240   -6.107270

 Total Charge           Charge          ....    0
 Multiplicity           Mult            ....    1
 Number of Electrons    NEL             ....   40
 Basis Dimension        Dim             ....  164

ORBITAL ENERGIES
----------------

  NO   OCC          E(Eh)            E(eV)
   0   2.0000     -14.029253      -381.7554
   1   2.0000     -14.025721      -381.6593
   2   2.0000      -9.963800      -271.1288
   3   2.0000      -9.956031      -270.9174
   4   2.0000      -9.833495      -267.5830
   5   2.0000      -0.873187       -23.7606
   6   2.0000      -0.796070       -21.6622
   7   2.0000      -0.658471       -17.9179
   8   2.0000      -0.587108       -15.9760
   9   2.0000      -0.540525       -14.7084
  10   2.0000      -0.486701       -13.2438
  11   2.0000      -0.442330       -12.0364
  12   2.0000      -0.427776       -11.6404
  13   2.0000      -0.399714       -10.8768
  14   2.0000      -0.359332        -9.7779
  15   2.0000      -0.339831        -9.2473
  16   2.0000      -0.331790        -9.0285
  17   2.0000      -0.302876        -8.2417
  18   2.0000      -0.213487        -5.8093
  19   2.0000      -0.124763        -3.3950
  20   0.0000      -0.009331        -0.2539
  21   0.0000       0.022999         0.6258
  22   0.0000       0.027182         0.7397
  23   0.0000       0.037866         1.0304
  24   0.0000       0.062215         1.6930

MULLIKEN ATOMIC CHARGES
-----------------------
   0 C :    1.501977
   1 N :   -0.255426
   2 C :    0.297393
   3 N :    0.339701
   4 C :    0.702253
   5 H :   -0.410859
   6 H :   -0.604374
   7 H :   -0.327289
   8 H :   -0.165919
   9 H :   -0.151069
  10 H :   -0.549855
  11 H :   -0.174536
  12 H :   -0.201996
Sum of atomic charges:    0.0000000

LOEWDIN ATOMIC CHARGES
----------------------
   0 C :    0.209515
   1 N :   -0.012984
   2 C :   -0.254968
   3 N :    0.217693
   4 C :    0.154321
   5 H :   -0.118679
   6 H :   -0.125954
   7 H :    0.018445
   8 H :   -0.016670
   9 H :    0.006001
  10 H :   -0.020229
  11 H :   -0.022212
  12 H :   -0.034280

  Mayer bond orders larger than 0.100000
B(  0-C ,  1-N ) :   0.9885 B(  0-C ,  7-H ) :  -0.1442 B(  0-C , 10-H ) :   0.6521
B(  0-C , 11-H ) :   0.7480 B(  0-C , 12-H ) :   0.7542 B(  1-N ,  2-C ) :   1.1524
B(  1-N ,  3-N ) :   0.1983 B(  1-N ,  4-C ) :   0.2429 B(  1-N ,  7-H ) :   1.1827
B(  1-N , 10-H ) :   0.2138 B(  1-N , 11-H ) :   0.1721 B(  1-N , 12-H ) :   0.1915
B(  2-C ,  3-N ) :   1.1764 B(  2-C ,  4-C ) :   1.5055 B(  2-C ,  5-H ) :   0.2382
B(  2-C ,  6-H ) :   0.2472 B(  2-C ,  7-H ) :  -0.1474 B(  3-N ,  4-C ) :   0.2491
B(  3-N ,  8-H ) :   1.1052 B(  3-N ,  9-H ) :   1.1556 B(  4-C ,  5-H ) :   0.6599
B(  4-C ,  6-H ) :   0.5821 B(  5-H ,  6-H ) :   0.1756 B(  8-H ,  9-H ) :  -0.1841

Dispersion correction           -0.019251163
FINAL SINGLE POINT ENERGY      -228.346680209840

DIPOLE MOMENT
-------------
                                X             Y             Z
Electronic contribution:     -0.13180       0.48317       0.79994
Nuclear contribution   :     -0.50812      -0.47627      -1.89926
                        -----------------------------------------
Total Dipole Moment    :     -0.63991       0.00690      -1.09932
                        -----------------------------------------
Magnitude (a.u.)       :      1.27202
Magnitude (Debye)      :      3.23322

Rotational constants in cm-1:     0.323645     0.137193     0.098606
Rotational constants in MHz :  9702.637007  4112.943433  2956.125886

                             ****ORCA TERMINATED NORMALLY****
TOTAL RUN TIME: 0 days 0 hours 0 minutes 6 seconds 701 msec
