                         Program Version 5.0.0 -  RELEASE  -
|  1> !BLYP D3BJ RIJCOSX def2-SVPD def2/J TightSCF xyzfile
|  2>
|  3> *xyzfile 0 1 D2.xyz
|  4>
|  5> %MaxCore 64000
|  6>
|  7> %pal nprocs 4
|  8> end
|  9>
| 10> %scf
| 11>   MaxIter 150
| 12> end
| 13>
| 14>
| 15>                          ****END OF INPUT****

CARTESIAN COORDINATES (ANGSTROEM)
---------------------------------
  C      4.999862   -1.596133   -5.924876
  N      5.281560   -1.974132   -4.535764
  C      3.766779   -2.266110   -6.511752
  C      2.496702   -1.844161   -5.735704
  H      1.626416   -2.217434   -6.308950
  H      2.481824   -2.456069   -4.793414
  F      2.459729   -0.509204   -5.505757
  C      4.792500   -1.361316   -3.457295
  C      3.939898   -0.374925   -3.557359
  N      5.259860   -1.754224   -2.239133
  H      5.922824   -2.521451   -2.186720
  H      4.654678   -1.640404   -1.442016
  H      5.709139   -2.875599   -4.387021
  H      3.330101   -0.317639   -4.361247
  H      3.698494    0.114468   -2.708333
  H      4.843333   -0.517930   -5.943019
  H      5.901695   -1.822503   -6.496467
  H      3.886191   -3.357076   -6.533604
  H      3.685602   -1.922168   -7.547128

 Total Charge           Charge          ....    0
 Multiplicity           Mult            ....    1
 Number of Electrons    NEL             ....   64
 Basis Dimension        Dim             ....  251

ORBITAL ENERGIES
----------------

  NO   OCC          E(Eh)            E(eV)
   0   2.0000     -24.306572      -661.4154
   1   2.0000     -14.022416      -381.5693
   2   2.0000     -14.014481      -381.3534
   3   2.0000     -10.003846      -272.2185
   4   2.0000      -9.954432      -270.8739
   5   2.0000      -9.950360      -270.7631
   6   2.0000      -9.932971      -270.2899
   7   2.0000      -9.813134      -267.0289
   8   2.0000      -1.105216       -30.0745
   9   2.0000      -0.860093       -23.4043
  10   2.0000      -0.783862       -21.3300
  11   2.0000      -0.700212       -19.0537
  12   2.0000      -0.630745       -17.1635
  13   2.0000      -0.616494       -16.7757
  14   2.0000      -0.545220       -14.8362
  15   2.0000      -0.505725       -13.7615
  16   2.0000      -0.489742       -13.3266
  17   2.0000      -0.461269       -12.5518
  18   2.0000      -0.458281       -12.4705
  19   2.0000      -0.440371       -11.9831
  20   2.0000      -0.426742       -11.6122
  21   2.0000      -0.406219       -11.0538
  22   2.0000      -0.373933       -10.1752
  23   2.0000      -0.357289        -9.7223
  24   2.0000      -0.338071        -9.1994
  25   2.0000      -0.329377        -8.9628
  26   2.0000      -0.315338        -8.5808
  27   2.0000      -0.297406        -8.0928
  28   2.0000      -0.289510        -7.8780
  29   2.0000      -0.256514        -6.9801
  30   2.0000      -0.202922        -5.5218
  31   2.0000      -0.128690        -3.5018
  32   0.0000      -0.008983        -0.2445
  33   0.0000       0.012950         0.3524
  34   0.0000       0.022069         0.6005
  35   0.0000       0.032363         0.8806
  36   0.0000       0.043649         1.1877

MULLIKEN ATOMIC CHARGES
-----------------------
   0 C :    0.977020
   1 N :   -0.218895
   2 C :    0.260115
   3 C :    1.036697
   4 H :   -0.569852
   5 H :    0.133221
   6 F :   -0.427936
   7 C :    0.547735
   8 C :    1.252332
   9 N :    0.242693
  10 H :   -0.214353
  11 H :   -0.081684
  12 H :   -0.408221
  13 H :   -1.089084
  14 H :   -0.502384
  15 H :    0.104984
  16 H :   -0.628130
  17 H :   -0.269514
  18 H :   -0.144744
Sum of atomic charges:   -0.0000000

LOEWDIN ATOMIC CHARGES
----------------------
   0 C :    0.062655
   1 N :    0.007386
   2 C :    0.007221
   3 C :    0.130299
   4 H :    0.022875
   5 H :    0.037223
   6 F :   -0.176083
   7 C :   -0.240013
   8 C :    0.198563
   9 N :    0.203595
  10 H :   -0.028860
  11 H :   -0.014682
  12 H :    0.006580
  13 H :   -0.197941
  14 H :   -0.090628
  15 H :    0.020602
  16 H :    0.013004
  17 H :    0.021770
  18 H :    0.016434

  Mayer bond orders larger than 0.100000
B(  0-C ,  1-N ) :   1.0149 B(  0-C ,  2-C ) :   1.1073 B(  0-C ,  7-C ) :  -0.1260
B(  0-C , 12-H ) :  -0.1997 B(  0-C , 13-H ) :   0.1056 B(  0-C , 15-H ) :   0.6330
B(  0-C , 16-H ) :   0.7542 B(  0-C , 17-H ) :   0.1491 B(  0-C , 18-H ) :   0.1502
B(  1-N ,  7-C ) :   1.0724 B(  1-N ,  8-C ) :   0.3674 B(  1-N ,  9-N ) :   0.1429
B(  1-N , 12-H ) :   1.2894 B(  1-N , 15-H ) :   0.1757 B(  1-N , 16-H ) :   0.1646
B(  2-C ,  3-C ) :   1.2015 B(  2-C ,  4-H ) :   0.1966 B(  2-C ,  5-H ) :   0.1540
B(  2-C ,  6-F ) :   0.1014 B(  2-C , 15-H ) :   0.1378 B(  2-C , 16-H ) :   0.1156
B(  2-C , 17-H ) :   0.8272 B(  2-C , 18-H ) :   0.7829 B(  3-C ,  4-H ) :   0.8139
B(  3-C ,  5-H ) :   0.7766 B(  3-C ,  6-F ) :   0.7248 B(  3-C , 13-H ) :   0.1643
B(  3-C , 18-H ) :   0.1133 B(  4-H ,  6-F ) :  -0.1013 B(  6-F , 13-H ) :   0.3744
B(  7-C ,  8-C ) :   1.6557 B(  7-C ,  9-N ) :   0.8630 B(  7-C , 12-H ) :  -0.2425
B(  7-C , 13-H ) :   0.1044 B(  7-C , 14-H ) :   0.4847 B(  8-C ,  9-N ) :   0.3898
B(  8-C , 13-H ) :  -0.2321 B(  8-C , 14-H ) :   0.4036 B(  9-N , 10-H ) :   1.0591
B(  9-N , 11-H ) :   1.0845 B(  9-N , 14-H ) :   0.2125 B( 10-H , 11-H ) :  -0.1535
B( 13-H , 14-H ) :  -0.1112 B( 13-H , 15-H ) :   0.1476 B( 15-H , 16-H ) :  -0.2531

Dispersion correction           -0.035545129
FINAL SINGLE POINT ENERGY      -406.016653080105

DIPOLE MOMENT
-------------
                                X             Y             Z
Electronic contribution:     -2.26956       2.74832      -0.13383
Nuclear contribution   :      2.43398      -4.26587      -0.19921
                        -----------------------------------------
Total Dipole Moment    :      0.16442      -1.51755      -0.33304
                        -----------------------------------------
Magnitude (a.u.)       :      1.56234
Magnitude (Debye)      :      3.97116

Rotational constants in cm-1:     0.110089     0.049944     0.039407
Rotational constants in MHz :  3300.378855  1497.273856  1181.385913

                             ****ORCA TERMINATED NORMALLY****
TOTAL RUN TIME: 0 days 0 hours 0 minutes 15 seconds 170 msec
