                         Program Version 5.0.0 -  RELEASE  -
|  1> !DLPNO-CCSD(T) aug-cc-pVTZ aug-cc-pVTZ/C TightSCF TightPNO RIJCOSX def2/J
|  2> *xyz -1 1
|  3> C         -0.10608        1.76991       -4.08984
|  4> C         -0.25875        1.00432       -5.40983
|  5> C          0.39596       -0.37070       -5.33994
|  6> H          0.23915        1.56939       -6.20125
|  7> H         -1.30936        0.88869       -5.68245
|  8> O         -0.32633       -1.39040       -5.49128
|  9> O          1.61941       -0.40073       -5.03683
| 10> H         -0.57627        2.72718       -4.17630
| 11> H          0.93321        1.90140       -3.87192
| 12> H         -0.56868        1.21534       -3.30031
| 13> *
| 14> %MaxCore 64000
| 15>
| 16> %pal nprocs 18
| 17> end
| 18>
| 19> %scf
| 20>   MaxIter 150
| 21> end
| 22>
| 23>
| 24>                          ****END OF INPUT****

CARTESIAN COORDINATES (ANGSTROEM)
---------------------------------
  C     -0.106080    1.769910   -4.089840
  C     -0.258750    1.004320   -5.409830
  C      0.395960   -0.370700   -5.339940
  H      0.239150    1.569390   -6.201250
  H     -1.309360    0.888690   -5.682450
  O     -0.326330   -1.390400   -5.491280
  O      1.619410   -0.400730   -5.036830
  H     -0.576270    2.727180   -4.176300
  H      0.933210    1.901400   -3.871920
  H     -0.568680    1.215340   -3.300310

 Total Charge           Charge          ....   -1
 Multiplicity           Mult            ....    1
 Number of Electrons    NEL             ....   40
 Basis Dimension        Dim             ....  345

ORBITAL ENERGIES
----------------

  NO   OCC          E(Eh)            E(eV)
   0   2.0000     -20.283772      -551.9495
   1   2.0000     -20.280847      -551.8699
   2   2.0000     -11.124751      -302.7199
   3   2.0000     -11.063178      -301.0444
   4   2.0000     -11.054225      -300.8008
   5   2.0000      -1.160144       -31.5691
   6   2.0000      -1.051977       -28.6257
   7   2.0000      -0.877518       -23.8785
   8   2.0000      -0.712410       -19.3856
   9   2.0000      -0.518059       -14.0971
  10   2.0000      -0.462783       -12.5930
  11   2.0000      -0.443876       -12.0785
  12   2.0000      -0.397384       -10.8134
  13   2.0000      -0.382624       -10.4117
  14   2.0000      -0.370640       -10.0856
  15   2.0000      -0.334833        -9.1113
  16   2.0000      -0.309341        -8.4176
  17   2.0000      -0.196733        -5.3534
  18   2.0000      -0.195520        -5.3204
  19   2.0000      -0.183018        -4.9802
  20   0.0000       0.117392         3.1944
  21   0.0000       0.135204         3.6791
  22   0.0000       0.137798         3.7497
  23   0.0000       0.147360         4.0099
  24   0.0000       0.157272         4.2796

MULLIKEN ATOMIC CHARGES
-----------------------
   0 C :   -0.956021
   1 C :   -0.160387
   2 C :    0.464089
   3 H :    0.236105
   4 H :    0.229055
   5 O :   -0.836093
   6 O :   -0.851797
   7 H :    0.245710
   8 H :    0.325567
   9 H :    0.303772
Sum of atomic charges:   -1.0000000

LOEWDIN ATOMIC CHARGES
----------------------
   0 C :    0.549588
   1 C :    0.170664
   2 C :   -1.210705
   3 H :   -0.184330
   4 H :   -0.195579
   5 O :    0.234852
   6 O :    0.243371
   7 H :   -0.209421
   8 H :   -0.205360
   9 H :   -0.193080

  Mayer bond orders larger than 0.100000
B(  0-C ,  1-C ) :   0.8440 B(  0-C ,  2-C ) :   0.1094 B(  0-C ,  7-H ) :   0.9875
B(  0-C ,  8-H ) :   0.9098 B(  0-C ,  9-H ) :   0.9182 B(  1-C ,  2-C ) :   0.6749
B(  1-C ,  3-H ) :   0.9524 B(  1-C ,  4-H ) :   0.9692 B(  2-C ,  5-O ) :   1.4131
B(  2-C ,  6-O ) :   1.4596

E(0)                                       ...   -266.374389001
E(0)                                       ...   -266.374389001
E(CORR)(strong-pairs)                      ...     -1.024017647
E(CORR)(weak-pairs)                        ...     -0.000897170
E(CORR)(corrected)                         ...     -1.024914818
E(TOT)                                     ...   -267.399303818
E(CCSD(T))                                 ...   -267.443139003
FINAL SINGLE POINT ENERGY      -267.443139003013

DIPOLE MOMENT
-------------
                                X             Y             Z
Electronic contribution:      1.66436      -5.12307      -1.70149
Nuclear contribution   :     -2.46071       7.20791       1.95694
                        -----------------------------------------
Total Dipole Moment    :     -0.79635       2.08485       0.25544
                        -----------------------------------------
Magnitude (a.u.)       :      2.24634
Magnitude (Debye)      :      5.70973

Rotational constants in cm-1:     0.309435     0.135317     0.107436
Rotational constants in MHz :  9276.637721  4056.700783  3220.846587

                             ****ORCA TERMINATED NORMALLY****
TOTAL RUN TIME: 0 days 0 hours 3 minutes 39 seconds 665 msec
