                         Program Version 5.0.0 -  RELEASE  -
|  1> !DLPNO-CCSD(T) aug-cc-pVTZ aug-cc-pVTZ/C TightSCF TightPNO RIJCOSX def2/J
|  2> *xyz 1 1
|  3> C          0.81607       -2.10149       -2.18655
|  4> H          1.69623       -2.36869       -1.60046
|  5> N          1.10055       -2.46749       -3.59927
|  6> C          0.51624       -0.61363       -2.03937
|  7> H         -0.02007       -2.71285       -1.84084
|  8> H          1.70061       -1.75723       -4.07838
|  9> H          0.29386       -2.35977       -4.25632
| 10> H          1.50132       -3.42848       -3.69491
| 11> H         -0.34841       -0.36504       -2.61858
| 12> H          1.35358       -0.04503       -2.38643
| 13> H          0.33317       -0.38682       -1.00984
| 14> *
| 15> %MaxCore 64000
| 16>
| 17> %pal nprocs 18
| 18> end
| 19>
| 20> %scf
| 21>   MaxIter 150
| 22> end
| 23>
| 24>
| 25>                          ****END OF INPUT****

CARTESIAN COORDINATES (ANGSTROEM)
---------------------------------
  C      0.816070   -2.101490   -2.186550
  H      1.696230   -2.368690   -1.600460
  N      1.100550   -2.467490   -3.599270
  C      0.516240   -0.613630   -2.039370
  H     -0.020070   -2.712850   -1.840840
  H      1.700610   -1.757230   -4.078380
  H      0.293860   -2.359770   -4.256320
  H      1.501320   -3.428480   -3.694910
  H     -0.348410   -0.365040   -2.618580
  H      1.353580   -0.045030   -2.386430
  H      0.333170   -0.386820   -1.009840

 Total Charge           Charge          ....    1
 Multiplicity           Mult            ....    1
 Number of Electrons    NEL             ....   26
 Basis Dimension        Dim             ....  322

ORBITAL ENERGIES
----------------

  NO   OCC          E(Eh)            E(eV)
   0   2.0000     -15.904841      -432.7927
   1   2.0000     -11.481243      -312.4205
   2   2.0000     -11.397548      -310.1430
   3   2.0000      -1.513110       -41.1738
   4   2.0000      -1.225331       -33.3429
   5   2.0000      -1.071226       -29.1495
   6   2.0000      -0.969660       -26.3858
   7   2.0000      -0.948258       -25.8034
   8   2.0000      -0.866441       -23.5771
   9   2.0000      -0.799601       -21.7582
  10   2.0000      -0.734284       -19.9809
  11   2.0000      -0.714761       -19.4496
  12   2.0000      -0.699242       -19.0274
  13   0.0000      -0.120256        -3.2723
  14   0.0000      -0.084178        -2.2906
  15   0.0000      -0.081889        -2.2283
  16   0.0000      -0.074562        -2.0289
  17   0.0000      -0.046752        -1.2722

MULLIKEN ATOMIC CHARGES
-----------------------
   0 C :   -0.311058
   1 H :    0.357195
   2 N :    0.056011
   3 C :   -0.958055
   4 H :    0.360519
   5 H :    0.165409
   6 H :    0.158249
   7 H :    0.158790
   8 H :    0.306923
   9 H :    0.329779
  10 H :    0.376239
Sum of atomic charges:    1.0000000

LOEWDIN ATOMIC CHARGES
----------------------
   0 C :    0.319648
   1 H :   -0.115115
   2 N :    1.076594
   3 C :    0.661741
   4 H :   -0.111489
   5 H :   -0.124718
   6 H :   -0.114965
   7 H :   -0.101267
   8 H :   -0.168308
   9 H :   -0.169261
  10 H :   -0.152860

  Mayer bond orders larger than 0.100000
B(  0-C ,  1-H ) :   0.8663 B(  0-C ,  2-N ) :   0.7909 B(  0-C ,  3-C ) :   0.8730
B(  0-C ,  4-H ) :   0.8673 B(  2-N ,  5-H ) :   0.9686 B(  2-N ,  6-H ) :   0.9947
B(  2-N ,  7-H ) :   1.0125 B(  3-C ,  8-H ) :   0.9382 B(  3-C ,  9-H ) :   0.9006
B(  3-C , 10-H ) :   0.8789

E(0)                                       ...   -134.665966332
E(0)                                       ...   -134.665966332
E(CORR)(strong-pairs)                      ...     -0.616951952
E(CORR)(weak-pairs)                        ...     -0.000456676
E(CORR)(corrected)                         ...     -0.617408628
E(TOT)                                     ...   -135.283374960
E(CCSD(T))                                 ...   -135.304487764
FINAL SINGLE POINT ENERGY      -135.304487764379

DIPOLE MOMENT
-------------
                                X             Y             Z
Electronic contribution:      0.42251      -1.44325      -1.08429
Nuclear contribution   :     -0.07506       0.54337      -0.16191
                        -----------------------------------------
Total Dipole Moment    :      0.34745      -0.89988      -1.24620
                        -----------------------------------------
Magnitude (a.u.)       :      1.57592
Magnitude (Debye)      :      4.00567

Rotational constants in cm-1:     0.999557     0.280801     0.246932
Rotational constants in MHz : 29965.963633  8418.199581  7402.841054

                             ****ORCA TERMINATED NORMALLY****
TOTAL RUN TIME: 0 days 0 hours 1 minutes 42 seconds 730 msec
