                         Program Version 5.0.0 -  RELEASE  -
|  1> !DLPNO-CCSD(T) aug-cc-pVTZ aug-cc-pVTZ/C TightSCF TightPNO RIJCOSX def2/J
|  2> *xyz 0 1
|  3> C         -0.10608        1.76991       -4.08984
|  4> C         -0.25875        1.00432       -5.40983
|  5> C          0.39596       -0.37070       -5.33994
|  6> H          0.23915        1.56939       -6.20125
|  7> H         -1.30936        0.88869       -5.68245
|  8> F         -0.32633       -1.39040       -5.49128
|  9> O          1.61941       -0.40073       -5.03683
| 10> H         -0.57627        2.72718       -4.17630
| 11> H          0.93321        1.90140       -3.87192
| 12> H         -0.56868        1.21534       -3.30031
| 13> *
| 14> %MaxCore 64000
| 15>
| 16> %pal nprocs 18
| 17> end
| 18>
| 19> %scf
| 20>   MaxIter 150
| 21> end
| 22>
| 23>
| 24>                          ****END OF INPUT****

CARTESIAN COORDINATES (ANGSTROEM)
---------------------------------
  C     -0.106080    1.769910   -4.089840
  C     -0.258750    1.004320   -5.409830
  C      0.395960   -0.370700   -5.339940
  H      0.239150    1.569390   -6.201250
  H     -1.309360    0.888690   -5.682450
  F     -0.326330   -1.390400   -5.491280
  O      1.619410   -0.400730   -5.036830
  H     -0.576270    2.727180   -4.176300
  H      0.933210    1.901400   -3.871920
  H     -0.568680    1.215340   -3.300310

 Total Charge           Charge          ....    0
 Multiplicity           Mult            ....    1
 Number of Electrons    NEL             ....   40
 Basis Dimension        Dim             ....  345

ORBITAL ENERGIES
----------------

  NO   OCC          E(Eh)            E(eV)
   0   2.0000     -26.376053      -717.7289
   1   2.0000     -20.561293      -559.5012
   2   2.0000     -11.430956      -311.0521
   3   2.0000     -11.263509      -306.4957
   4   2.0000     -11.231805      -305.6329
   5   2.0000      -1.727991       -47.0210
   6   2.0000      -1.370942       -37.3052
   7   2.0000      -1.077794       -29.3283
   8   2.0000      -0.939626       -25.5685
   9   2.0000      -0.872200       -23.7338
  10   2.0000      -0.771925       -21.0051
  11   2.0000      -0.764330       -20.7985
  12   2.0000      -0.712017       -19.3750
  13   2.0000      -0.638965       -17.3871
  14   2.0000      -0.614406       -16.7188
  15   2.0000      -0.557244       -15.1634
  16   2.0000      -0.540830       -14.7167
  17   2.0000      -0.528299       -14.3757
  18   2.0000      -0.485754       -13.2180
  19   2.0000      -0.465304       -12.6616
  20   0.0000       0.026198         0.7129
  21   0.0000       0.039336         1.0704
  22   0.0000       0.040686         1.1071
  23   0.0000       0.048660         1.3241
  24   0.0000       0.064327         1.7504

MULLIKEN ATOMIC CHARGES
-----------------------
   0 C :   -0.929262
   1 C :   -0.251461
   2 C :    0.615661
   3 H :    0.293666
   4 H :    0.245571
   5 F :   -0.263598
   6 O :   -0.649055
   7 H :    0.287349
   8 H :    0.336935
   9 H :    0.314193
Sum of atomic charges:   -0.0000000

LOEWDIN ATOMIC CHARGES
----------------------
   0 C :    0.594590
   1 C :    0.243353
   2 C :   -0.916187
   3 H :   -0.159465
   4 H :   -0.172284
   5 F :    0.576468
   6 O :    0.383224
   7 H :   -0.180096
   8 H :   -0.187964
   9 H :   -0.181639

  Mayer bond orders larger than 0.100000
B(  0-C ,  1-C ) :   0.8622 B(  0-C ,  7-H ) :   0.9546 B(  0-C ,  8-H ) :   0.9052
B(  0-C ,  9-H ) :   0.9101 B(  1-C ,  2-C ) :   0.7523 B(  1-C ,  3-H ) :   0.9075
B(  1-C ,  4-H ) :   0.9527 B(  2-C ,  5-F ) :   0.8380 B(  2-C ,  6-O ) :   1.7084

E(0)                                       ...   -290.926559416
E(0)                                       ...   -290.926559416
E(CORR)(strong-pairs)                      ...     -1.024960300
E(CORR)(weak-pairs)                        ...     -0.000881804
E(CORR)(corrected)                         ...     -1.025842104
E(TOT)                                     ...   -291.952401520
E(CCSD(T))                                 ...   -291.992734491
FINAL SINGLE POINT ENERGY      -291.992734491094

DIPOLE MOMENT
-------------
                                X             Y             Z
Electronic contribution:      0.72541      -8.09167      -2.59319
Nuclear contribution   :     -1.80992       8.85192       2.42184
                        -----------------------------------------
Total Dipole Moment    :     -1.08451       0.76025      -0.17135
                        -----------------------------------------
Magnitude (a.u.)       :      1.33548
Magnitude (Debye)      :      3.39452

Rotational constants in cm-1:     0.298360     0.128849     0.102271
Rotational constants in MHz :  8944.606599  3862.796179  3066.020510

                             ****ORCA TERMINATED NORMALLY****
TOTAL RUN TIME: 0 days 0 hours 3 minutes 22 seconds 518 msec
