                         Program Version 5.0.0 -  RELEASE  -
|  1> !DLPNO-CCSD(T) aug-cc-pVTZ aug-cc-pVTZ/C TightSCF TightPNO RIJCOSX def2/J
|  2> *xyz 0 1
|  3> C          0.81607       -2.10149       -2.18655
|  4> H          1.69623       -2.36869       -1.60046
|  5> C          1.10055       -2.46749       -3.59927
|  6> C          0.51624       -0.61363       -2.03937
|  7> H         -0.02007       -2.71285       -1.84084
|  8> H          1.70061       -1.75723       -4.07838
|  9> H          0.29386       -2.35977       -4.25632
| 10> H          1.50132       -3.42848       -3.69491
| 11> H         -0.34841       -0.36504       -2.61858
| 12> H          1.35358       -0.04503       -2.38643
| 13> H          0.33317       -0.38682       -1.00984
| 14> *
| 15> %MaxCore 64000
| 16>
| 17> %pal nprocs 18
| 18> end
| 19>
| 20> %scf
| 21>   MaxIter 150
| 22> end
| 23>
| 24>
| 25>                          ****END OF INPUT****

CARTESIAN COORDINATES (ANGSTROEM)
---------------------------------
  C      0.816070   -2.101490   -2.186550
  H      1.696230   -2.368690   -1.600460
  C      1.100550   -2.467490   -3.599270
  C      0.516240   -0.613630   -2.039370
  H     -0.020070   -2.712850   -1.840840
  H      1.700610   -1.757230   -4.078380
  H      0.293860   -2.359770   -4.256320
  H      1.501320   -3.428480   -3.694910
  H     -0.348410   -0.365040   -2.618580
  H      1.353580   -0.045030   -2.386430
  H      0.333170   -0.386820   -1.009840

 Total Charge           Charge          ....    0
 Multiplicity           Mult            ....    1
 Number of Electrons    NEL             ....   26
 Basis Dimension        Dim             ....  322

ORBITAL ENERGIES
----------------

  NO   OCC          E(Eh)            E(eV)
   0   2.0000     -11.210340      -305.0489
   1   2.0000     -11.200493      -304.7809
   2   2.0000     -11.185558      -304.3745
   3   2.0000      -1.064787       -28.9743
   4   2.0000      -0.937048       -25.4984
   5   2.0000      -0.807882       -21.9836
   6   2.0000      -0.627981       -17.0882
   7   2.0000      -0.610651       -16.6167
   8   2.0000      -0.569247       -15.4900
   9   2.0000      -0.527882       -14.3644
  10   2.0000      -0.483642       -13.1606
  11   2.0000      -0.475929       -12.9507
  12   2.0000      -0.462358       -12.5814
  13   0.0000       0.033049         0.8993
  14   0.0000       0.040518         1.1025
  15   0.0000       0.041623         1.1326
  16   0.0000       0.043181         1.1750
  17   0.0000       0.063564         1.7297

MULLIKEN ATOMIC CHARGES
-----------------------
   0 C :   -0.347586
   1 H :    0.245725
   2 C :   -1.070012
   3 C :   -0.956125
   4 H :    0.266710
   5 H :    0.321817
   6 H :    0.315330
   7 H :    0.316283
   8 H :    0.296627
   9 H :    0.308334
  10 H :    0.302899
Sum of atomic charges:   -0.0000000

LOEWDIN ATOMIC CHARGES
----------------------
   0 C :    0.250102
   1 H :   -0.148366
   2 C :    0.589898
   3 C :    0.598083
   4 H :   -0.144885
   5 H :   -0.206920
   6 H :   -0.200441
   7 H :   -0.187064
   8 H :   -0.180977
   9 H :   -0.183635
  10 H :   -0.185795

  Mayer bond orders larger than 0.100000
B(  0-C ,  1-H ) :   0.9645 B(  0-C ,  2-C ) :   0.7767 B(  0-C ,  3-C ) :   0.8273
B(  0-C ,  4-H ) :   0.9409 B(  2-C ,  5-H ) :   0.9177 B(  2-C ,  6-H ) :   0.9320
B(  2-C ,  7-H ) :   0.9286 B(  3-C ,  8-H ) :   0.9339 B(  3-C ,  9-H ) :   0.9217
B(  3-C , 10-H ) :   0.9516

E(0)                                       ...   -118.297745065
E(0)                                       ...   -118.297745065
E(CORR)(strong-pairs)                      ...     -0.590927733
E(CORR)(weak-pairs)                        ...     -0.000449544
E(CORR)(corrected)                         ...     -0.591377277
E(TOT)                                     ...   -118.889122342
E(CCSD(T))                                 ...   -118.909761866
FINAL SINGLE POINT ENERGY      -118.909761865583

DIPOLE MOMENT
-------------
                                X             Y             Z
Electronic contribution:     -0.01865      -0.30539       0.46318
Nuclear contribution   :      0.01737       0.30387      -0.47422
                        -----------------------------------------
Total Dipole Moment    :     -0.00128      -0.00152      -0.01103
                        -----------------------------------------
Magnitude (a.u.)       :      0.01121
Magnitude (Debye)      :      0.02849

Rotational constants in cm-1:     1.006891     0.295208     0.258491
Rotational constants in MHz : 30185.831813  8850.104914  7749.351732

                             ****ORCA TERMINATED NORMALLY****
TOTAL RUN TIME: 0 days 0 hours 2 minutes 3 seconds 697 msec
