                         Program Version 5.0.0 -  RELEASE  -
|  1> !DLPNO-CCSD(T) aug-cc-pVTZ aug-cc-pVTZ/C TightSCF TightPNO RIJCOSX def2/J
|  2> *xyz 0 1
|  3> C         -0.10608        1.76991       -4.08984
|  4> C         -0.25875        1.00432       -5.40983
|  5> C          0.39596       -0.37070       -5.33994
|  6> H          0.23915        1.56939       -6.20125
|  7> H         -1.30936        0.88869       -5.68245
|  8> O         -0.32633       -1.39040       -5.49128
|  9> F          1.61941       -0.40073       -5.03683
| 10> H         -0.57627        2.72718       -4.17630
| 11> H          0.93321        1.90140       -3.87192
| 12> H         -0.56868        1.21534       -3.30031
| 13> *
| 14> %MaxCore 64000
| 15>
| 16> %pal nprocs 18
| 17> end
| 18>
| 19> %scf
| 20>   MaxIter 150
| 21> end
| 22>
| 23>
| 24>                          ****END OF INPUT****

CARTESIAN COORDINATES (ANGSTROEM)
---------------------------------
  C     -0.106080    1.769910   -4.089840
  C     -0.258750    1.004320   -5.409830
  C      0.395960   -0.370700   -5.339940
  H      0.239150    1.569390   -6.201250
  H     -1.309360    0.888690   -5.682450
  O     -0.326330   -1.390400   -5.491280
  F      1.619410   -0.400730   -5.036830
  H     -0.576270    2.727180   -4.176300
  H      0.933210    1.901400   -3.871920
  H     -0.568680    1.215340   -3.300310

 Total Charge           Charge          ....    0
 Multiplicity           Mult            ....    1
 Number of Electrons    NEL             ....   40
 Basis Dimension        Dim             ....  345

ORBITAL ENERGIES
----------------

  NO   OCC          E(Eh)            E(eV)
   0   2.0000     -26.374349      -717.6825
   1   2.0000     -20.563413      -559.5589
   2   2.0000     -11.429788      -311.0203
   3   2.0000     -11.263425      -306.4934
   4   2.0000     -11.237337      -305.7835
   5   2.0000      -1.726382       -46.9772
   6   2.0000      -1.371578       -37.3225
   7   2.0000      -1.083052       -29.4713
   8   2.0000      -0.936284       -25.4776
   9   2.0000      -0.876141       -23.8410
  10   2.0000      -0.775317       -21.0974
  11   2.0000      -0.765414       -20.8280
  12   2.0000      -0.704143       -19.1607
  13   2.0000      -0.640510       -17.4292
  14   2.0000      -0.615060       -16.7366
  15   2.0000      -0.565957       -15.4005
  16   2.0000      -0.546047       -14.8587
  17   2.0000      -0.533220       -14.5096
  18   2.0000      -0.490571       -13.3491
  19   2.0000      -0.461183       -12.5494
  20   0.0000       0.025547         0.6952
  21   0.0000       0.038163         1.0385
  22   0.0000       0.040658         1.1064
  23   0.0000       0.048228         1.3123
  24   0.0000       0.062571         1.7026

MULLIKEN ATOMIC CHARGES
-----------------------
   0 C :   -0.956637
   1 C :   -0.254147
   2 C :    0.645867
   3 H :    0.285570
   4 H :    0.282868
   5 O :   -0.636112
   6 F :   -0.291853
   7 H :    0.284918
   8 H :    0.314651
   9 H :    0.324874
Sum of atomic charges:    0.0000000

LOEWDIN ATOMIC CHARGES
----------------------
   0 C :    0.595176
   1 C :    0.244752
   2 C :   -0.920961
   3 H :   -0.163795
   4 H :   -0.161901
   5 O :    0.376389
   6 F :    0.578159
   7 H :   -0.178868
   8 H :   -0.188437
   9 H :   -0.180515

  Mayer bond orders larger than 0.100000
B(  0-C ,  1-C ) :   0.8561 B(  0-C ,  2-C ) :   0.1176 B(  0-C ,  7-H ) :   0.9682
B(  0-C ,  8-H ) :   0.9128 B(  0-C ,  9-H ) :   0.9005 B(  1-C ,  2-C ) :   0.7754
B(  1-C ,  3-H ) :   0.9245 B(  1-C ,  4-H ) :   0.9315 B(  2-C ,  5-O ) :   1.6688
B(  2-C ,  6-F ) :   0.8468

E(0)                                       ...   -290.928558013
E(0)                                       ...   -290.928558013
E(CORR)(strong-pairs)                      ...     -1.024573643
E(CORR)(weak-pairs)                        ...     -0.000876064
E(CORR)(corrected)                         ...     -1.025449708
E(TOT)                                     ...   -291.954007721
E(CCSD(T))                                 ...   -291.994201751
FINAL SINGLE POINT ENERGY      -291.994201751220

DIPOLE MOMENT
-------------
                                X             Y             Z
Electronic contribution:      4.08644      -6.35293      -1.80064
Nuclear contribution   :     -3.93139       7.77287       1.92635
                        -----------------------------------------
Total Dipole Moment    :      0.15506       1.41994       0.12571
                        -----------------------------------------
Magnitude (a.u.)       :      1.43390
Magnitude (Debye)      :      3.64469

Rotational constants in cm-1:     0.286068     0.133630     0.103472
Rotational constants in MHz :  8576.109806  4006.118234  3102.010802

                             ****ORCA TERMINATED NORMALLY****
TOTAL RUN TIME: 0 days 0 hours 3 minutes 9 seconds 467 msec
