                         Program Version 5.0.0 -  RELEASE  -
|  1> !DLPNO-CCSD(T) aug-cc-pVTZ aug-cc-pVTZ/C TightSCF TightPNO RIJCOSX def2/J
|  2>
|  3> *xyzfile 0 1 D1.xyz
|  4>
|  5> %MaxCore 64000
|  6>
|  7> %pal nprocs 18
|  8> end
|  9>
| 10> %scf
| 11>   MaxIter 150
| 12> end
| 13>
| 14>
| 15>                          ****END OF INPUT****

CARTESIAN COORDINATES (ANGSTROEM)
---------------------------------
  C      0.816067   -2.101491   -2.186546
  H      1.696232   -2.368691   -1.600457
  C      1.100552   -2.467492   -3.599269
  C      0.516243   -0.613634   -2.039373
  H     -0.020066   -2.712849   -1.840844
  C     -0.868621   -0.193925   -2.546303
  C     -0.984801    1.284739   -2.928686
  H     -0.764939    1.904116   -2.051568
  H     -2.032613    1.478953   -3.178952
  C     -0.106085    1.769914   -4.089836
  H     -0.347744    2.822196   -4.262942
  H      0.949683    1.745875   -3.808781
  C     -0.258747    1.004323   -5.409829
  C      0.395958   -0.370696   -5.339939
  H      0.239150    1.569393   -6.201253
  H     -1.309360    0.888694   -5.682455
  H      1.700606   -1.757225   -4.078378
  H      0.293855   -2.359766   -4.256324
  H      1.501324   -3.428479   -3.694915
  F     -0.326329   -1.390398   -5.491279
  O      1.619412   -0.400726   -5.036827
  H     -1.607271   -0.412651   -1.768955
  H     -1.157234   -0.796164   -3.409254
  H      1.299044   -0.056805   -2.558982
  H      0.612393   -0.365579   -0.979171

 Total Charge           Charge          ....    0
 Multiplicity           Mult            ....    1
 Number of Electrons    NEL             ....   80
 Basis Dimension        Dim             ....  805

ORBITAL ENERGIES
----------------

  NO   OCC          E(Eh)            E(eV)
   0   2.0000     -26.381864      -717.8870
   1   2.0000     -20.564732      -559.5948
   2   2.0000     -11.439091      -311.2735
   3   2.0000     -11.264297      -306.5171
   4   2.0000     -11.240361      -305.8658
   5   2.0000     -11.227611      -305.5188
   6   2.0000     -11.218956      -305.2833
   7   2.0000     -11.203455      -304.8615
   8   2.0000     -11.192976      -304.5763
   9   2.0000     -11.137951      -303.0790
  10   2.0000      -1.741875       -47.3988
  11   2.0000      -1.386631       -37.7321
  12   2.0000      -1.108105       -30.1531
  13   2.0000      -1.069702       -29.1081
  14   2.0000      -1.010220       -27.4895
  15   2.0000      -0.960784       -26.1443
  16   2.0000      -0.908023       -24.7086
  17   2.0000      -0.870543       -23.6887
  18   2.0000      -0.825628       -22.4665
  19   2.0000      -0.783733       -21.3265
  20   2.0000      -0.768764       -20.9191
  21   2.0000      -0.763299       -20.7704
  22   2.0000      -0.726906       -19.7801
  23   2.0000      -0.652415       -17.7531
  24   2.0000      -0.634476       -17.2650
  25   2.0000      -0.606401       -16.5010
  26   2.0000      -0.603660       -16.4264
  27   2.0000      -0.590731       -16.0746
  28   2.0000      -0.576214       -15.6796
  29   2.0000      -0.559729       -15.2310
  30   2.0000      -0.539696       -14.6859
  31   2.0000      -0.515904       -14.0385
  32   2.0000      -0.507745       -13.8164
  33   2.0000      -0.495428       -13.4813
  34   2.0000      -0.477963       -13.0060
  35   2.0000      -0.474973       -12.9247
  36   2.0000      -0.458470       -12.4756
  37   2.0000      -0.443244       -12.0613
  38   2.0000      -0.433740       -11.8027
  39   2.0000      -0.408022       -11.1029
  40   0.0000       0.024556         0.6682
  41   0.0000       0.033250         0.9048
  42   0.0000       0.034830         0.9478
  43   0.0000       0.038539         1.0487
  44   0.0000       0.048209         1.3118

MULLIKEN ATOMIC CHARGES
-----------------------
   0 C :   -0.498991
   1 H :    0.224384
   2 C :   -1.166818
   3 C :   -0.363177
   4 H :    0.155541
   5 C :   -0.374159
   6 C :   -0.594855
   7 H :    0.233573
   8 H :    0.197361
   9 C :   -0.347060
  10 H :    0.342538
  11 H :    0.223778
  12 C :   -0.425741
  13 C :    1.120859
  14 H :    0.295996
  15 H :    0.258620
  16 H :    0.443240
  17 H :    0.428285
  18 H :    0.260813
  19 F :   -0.452468
  20 O :   -0.853647
  21 H :    0.460509
  22 H :    0.004136
  23 H :    0.071915
  24 H :    0.355369
Sum of atomic charges:    0.0000000

LOEWDIN ATOMIC CHARGES
----------------------
   0 C :    0.292203
   1 H :   -0.140452
   2 C :    0.567083
   3 C :    0.295551
   4 H :   -0.138464
   5 C :    0.295841
   6 C :    0.301756
   7 H :   -0.134622
   8 H :   -0.145639
   9 C :    0.289957
  10 H :   -0.138788
  11 H :   -0.162545
  12 C :    0.301332
  13 C :   -0.787674
  14 H :   -0.147140
  15 H :   -0.156219
  16 H :   -0.472323
  17 H :   -0.405723
  18 H :   -0.167057
  19 F :    0.719988
  20 O :    0.570603
  21 H :   -0.129965
  22 H :   -0.191164
  23 H :   -0.177928
  24 H :   -0.138612

  Mayer bond orders larger than 0.100000
B(  0-C ,  1-H ) :   1.0181 B(  0-C ,  2-C ) :   0.7194 B(  0-C ,  3-C ) :   0.8771
B(  0-C ,  4-H ) :   1.0579 B(  2-C , 16-H ) :   0.8251 B(  2-C , 17-H ) :   0.9934
B(  2-C , 18-H ) :   0.9977 B(  3-C ,  5-C ) :   0.7504 B(  3-C , 22-H ) :   0.1134
B(  3-C , 23-H ) :   1.1691 B(  3-C , 24-H ) :   0.8532 B(  5-C ,  6-C ) :   0.8971
B(  5-C , 21-H ) :   0.7785 B(  5-C , 22-H ) :   1.1878 B(  6-C ,  7-H ) :   0.9926
B(  6-C ,  8-H ) :   1.0146 B(  6-C ,  9-C ) :   0.7998 B(  9-C , 10-H ) :   0.8815
B(  9-C , 11-H ) :   1.0220 B(  9-C , 12-C ) :   0.9236 B( 12-C , 13-C ) :   0.8046
B( 12-C , 14-H ) :   0.9216 B( 12-C , 15-H ) :   0.9868 B( 13-C , 19-F ) :   0.6214
B( 13-C , 20-O ) :   1.3221 B( 17-H , 19-F ) :  -0.2240

E(0)                                       ...   -486.091529424
E(0)                                       ...   -486.091529424
E(CORR)(strong-pairs)                      ...     -1.976313576
E(CORR)(weak-pairs)                        ...     -0.002660893
E(CORR)(corrected)                         ...     -1.978974469
E(TOT)                                     ...   -488.070503893
E(CCSD(T))                                 ...   -488.150942236
FINAL SINGLE POINT ENERGY      -488.150942235764

DIPOLE MOMENT
-------------
                                X             Y             Z
Electronic contribution:      0.24081      -1.89828     -10.60857
Nuclear contribution   :     -1.21560       2.80077      10.24180
                        -----------------------------------------
Total Dipole Moment    :     -0.97480       0.90249      -0.36676
                        -----------------------------------------
Magnitude (a.u.)       :      1.37813
Magnitude (Debye)      :      3.50293

Rotational constants in cm-1:     0.051255     0.042531     0.028894
Rotational constants in MHz :  1536.587743  1275.050721   866.218876

                             ****ORCA TERMINATED NORMALLY****
TOTAL RUN TIME: 0 days 1 hours 51 minutes 15 seconds 268 msec
