                         Program Version 5.0.0 -  RELEASE  -
|  1> !PBE0 D3BJ RIJCOSX def2-SVPD def2/J TightSCF
|  2> *xyz -1 1
|  3> C          4.08422        1.74208       -2.11472
|  4> C          4.26524        2.50052       -0.79589
|  5> H          4.86853        3.39267       -0.98113
|  6> H          3.30764        2.82457       -0.38781
|  7> C          4.98224        1.65026        0.24742
|  8> O          4.36806        1.38927        1.31371
|  9> O          6.12892        1.23351       -0.04562
| 10> H          3.57911        2.36849       -2.81997
| 11> H          3.50424        0.85965       -1.94198
| 12> H          5.04288        1.46841       -2.50327
| 13> *
| 14> %MaxCore 64000
| 15> %pal nprocs 8
| 16> end
| 17> %scf
| 18>   MaxIter 150
| 19> end
| 20>
| 21>
| 22>                          ****END OF INPUT****

CARTESIAN COORDINATES (ANGSTROEM)
---------------------------------
  C      4.084220    1.742080   -2.114720
  C      4.265240    2.500520   -0.795890
  H      4.868530    3.392670   -0.981130
  H      3.307640    2.824570   -0.387810
  C      4.982240    1.650260    0.247420
  O      4.368060    1.389270    1.313710
  O      6.128920    1.233510   -0.045620
  H      3.579110    2.368490   -2.819970
  H      3.504240    0.859650   -1.941980
  H      5.042880    1.468410   -2.503270

 Total Charge           Charge          ....   -1
 Multiplicity           Mult            ....    1
 Number of Electrons    NEL             ....   40
 Basis Dimension        Dim             ....  146

ORBITAL ENERGIES
----------------

  NO   OCC          E(Eh)            E(eV)
   0   2.0000     -18.953230      -515.7436
   1   2.0000     -18.953163      -515.7418
   2   2.0000     -10.114861      -275.2394
   3   2.0000     -10.071050      -274.0472
   4   2.0000     -10.058705      -273.7113
   5   2.0000      -0.839391       -22.8410
   6   2.0000      -0.744167       -20.2498
   7   2.0000      -0.622697       -16.9444
   8   2.0000      -0.488598       -13.2954
   9   2.0000      -0.335218        -9.1217
  10   2.0000      -0.306382        -8.3371
  11   2.0000      -0.273057        -7.4303
  12   2.0000      -0.245831        -6.6894
  13   2.0000      -0.228006        -6.2044
  14   2.0000      -0.222965        -6.0672
  15   2.0000      -0.191874        -5.2212
  16   2.0000      -0.176377        -4.7995
  17   2.0000      -0.062202        -1.6926
  18   2.0000      -0.055061        -1.4983
  19   2.0000      -0.041404        -1.1267
  20   0.0000       0.162211         4.4140
  21   0.0000       0.195488         5.3195
  22   0.0000       0.210413         5.7256
  23   0.0000       0.226223         6.1559
  24   0.0000       0.248999         6.7756

MULLIKEN ATOMIC CHARGES
-----------------------
   0 C :    0.387195
   1 C :   -0.437820
   2 H :    0.052692
   3 H :    0.003734
   4 C :    0.604958
   5 O :   -0.769155
   6 O :   -0.790749
   7 H :   -0.031557
   8 H :   -0.030842
   9 H :    0.011545
Sum of atomic charges:   -1.0000000

LOEWDIN ATOMIC CHARGES
----------------------
   0 C :    0.096599
   1 C :   -0.045696
   2 H :    0.010255
   3 H :    0.000887
   4 C :   -0.301098
   5 O :   -0.339678
   6 O :   -0.332181
   7 H :   -0.042461
   8 H :   -0.020722
   9 H :   -0.025905

  Mayer bond orders larger than 0.100000
B(  0-C ,  1-C ) :   1.2894 B(  0-C ,  7-H ) :   0.8747 B(  0-C ,  8-H ) :   0.8879
B(  0-C ,  9-H ) :   0.8591 B(  1-C ,  2-H ) :   0.9106 B(  1-C ,  3-H ) :   0.9890
B(  1-C ,  4-C ) :   1.0338 B(  1-C ,  7-H ) :   0.1344 B(  1-C ,  8-H ) :   0.1493
B(  1-C ,  9-H ) :   0.1709 B(  3-H ,  4-C ) :   0.1627 B(  4-C ,  5-O ) :   1.3592
B(  4-C ,  6-O ) :   1.3939

Dispersion correction           -0.005468256
FINAL SINGLE POINT ENERGY      -267.362523487387

DIPOLE MOMENT
-------------
                                X             Y             Z
Electronic contribution:      2.42471      -1.45703       5.08770
Nuclear contribution   :     -3.31311       2.28398      -6.76358
                        -----------------------------------------
Total Dipole Moment    :     -0.88840       0.82696      -1.67588
                        -----------------------------------------
Magnitude (a.u.)       :      2.06923
Magnitude (Debye)      :      5.25956

Rotational constants in cm-1:     0.309287     0.135287     0.107346
Rotational constants in MHz :  9272.201029  4055.789113  3218.155789

                             ****ORCA TERMINATED NORMALLY****
TOTAL RUN TIME: 0 days 0 hours 0 minutes 14 seconds 661 msec
