                         Program Version 5.0.0 -  RELEASE  -
|  1> !PBE0 D3BJ RIJCOSX def2-SVPD def2/J TightSCF
|  2> *xyz 1 1
|  3> C          3.91385       -1.65829        3.01513
|  4> N          5.03927       -0.90115        2.49282
|  5> C          6.21038       -1.41726        2.17824
|  6> N          6.53591       -2.67712        2.55608
|  7> N          7.07675       -0.70082        1.47891
|  8> H          7.95464       -1.12155        1.20755
|  9> H          6.75616        0.10664        0.96028
| 10> H          4.84217        0.01761        2.11519
| 11> H          5.99388       -3.12692        3.28278
| 12> C          3.13916       -2.37657        1.91061
| 13> H          3.26723       -0.93940        3.52069
| 14> H          4.24720       -2.35509        3.79006
| 15> H          7.49844       -2.97548        2.46878
| 16> H          2.82969       -1.66654        1.17238
| 17> H          2.27790       -2.85264        2.33072
| 18> H          3.76754       -3.11338        1.45548
| 19> *
| 20> %MaxCore 64000
| 21> %pal nprocs 8
| 22> end
| 23> %scf
| 24>   MaxIter 150
| 25> end
| 26>
| 27>
| 28>                          ****END OF INPUT****

CARTESIAN COORDINATES (ANGSTROEM)
---------------------------------
  C      3.913850   -1.658290    3.015130
  N      5.039270   -0.901150    2.492820
  C      6.210380   -1.417260    2.178240
  N      6.535910   -2.677120    2.556080
  N      7.076750   -0.700820    1.478910
  H      7.954640   -1.121550    1.207550
  H      6.756160    0.106640    0.960280
  H      4.842170    0.017610    2.115190
  H      5.993880   -3.126920    3.282780
  C      3.139160   -2.376570    1.910610
  H      3.267230   -0.939400    3.520690
  H      4.247200   -2.355090    3.790060
  H      7.498440   -2.975480    2.468780
  H      2.829690   -1.666540    1.172380
  H      2.277900   -2.852640    2.330720
  H      3.767540   -3.113380    1.455480

 Total Charge           Charge          ....    1
 Multiplicity           Mult            ....    1
 Number of Electrons    NEL             ....   48
 Basis Dimension        Dim             ....  200

ORBITAL ENERGIES
----------------

  NO   OCC          E(Eh)            E(eV)
   0   2.0000     -14.624201      -397.9447
   1   2.0000     -14.621086      -397.8600
   2   2.0000     -14.618603      -397.7924
   3   2.0000     -10.568555      -287.5850
   4   2.0000     -10.442896      -284.1657
   5   2.0000     -10.368899      -282.1521
   6   2.0000      -1.237960       -33.6866
   7   2.0000      -1.127032       -30.6681
   8   2.0000      -1.109322       -30.1862
   9   2.0000      -0.949692       -25.8424
  10   2.0000      -0.859197       -23.3799
  11   2.0000      -0.819877       -22.3100
  12   2.0000      -0.805621       -21.9221
  13   2.0000      -0.761284       -20.7156
  14   2.0000      -0.709439       -19.3048
  15   2.0000      -0.703165       -19.1341
  16   2.0000      -0.672168       -18.2906
  17   2.0000      -0.646658       -17.5965
  18   2.0000      -0.616735       -16.7822
  19   2.0000      -0.577615       -15.7177
  20   2.0000      -0.545445       -14.8423
  21   2.0000      -0.525396       -14.2967
  22   2.0000      -0.492716       -13.4075
  23   2.0000      -0.464828       -12.6486
  24   0.0000      -0.167088        -4.5467
  25   0.0000      -0.146441        -3.9849
  26   0.0000      -0.114366        -3.1120
  27   0.0000      -0.106097        -2.8870
  28   0.0000      -0.082937        -2.2568

MULLIKEN ATOMIC CHARGES
-----------------------
   0 C :    0.227281
   1 N :   -0.493681
   2 C :    1.636029
   3 N :   -0.122065
   4 N :   -0.196626
   5 H :    0.005975
   6 H :   -0.026941
   7 H :   -0.235234
   8 H :   -0.014688
   9 C :    0.515086
  10 H :   -0.218228
  11 H :   -0.018687
  12 H :   -0.134620
  13 H :    0.011549
  14 H :    0.075075
  15 H :   -0.010223
Sum of atomic charges:    1.0000000

LOEWDIN ATOMIC CHARGES
----------------------
   0 C :    0.039861
   1 N :    0.034848
   2 C :   -0.026528
   3 N :    0.277011
   4 N :    0.257637
   5 H :    0.041103
   6 H :    0.042974
   7 H :    0.064474
   8 H :    0.015120
   9 C :    0.158455
  10 H :    0.044461
  11 H :    0.027146
  12 H :    0.036136
  13 H :   -0.003967
  14 H :    0.004714
  15 H :   -0.013446

  Mayer bond orders larger than 0.100000
B(  0-C ,  1-N ) :   0.8810 B(  0-C ,  7-H ) :  -0.1608 B(  0-C ,  9-C ) :   1.2656
B(  0-C , 10-H ) :   0.9195 B(  0-C , 11-H ) :   0.9062 B(  0-C , 13-H ) :   0.2010
B(  0-C , 14-H ) :   0.1406 B(  0-C , 15-H ) :   0.1698 B(  1-N ,  2-C ) :   0.9599
B(  1-N ,  3-N ) :   0.2119 B(  1-N ,  4-N ) :   0.2695 B(  1-N ,  7-H ) :   1.3339
B(  1-N , 10-H ) :   0.1819 B(  1-N , 11-H ) :   0.1227 B(  2-C ,  3-N ) :   0.8293
B(  2-C ,  4-N ) :   0.7319 B(  2-C ,  6-H ) :  -0.1650 B(  2-C ,  7-H ) :  -0.2574
B(  2-C ,  8-H ) :  -0.1066 B(  2-C , 12-H ) :  -0.1530 B(  3-N ,  4-N ) :   0.1574
B(  3-N ,  8-H ) :   1.0590 B(  3-N , 12-H ) :   1.2642 B(  4-N ,  5-H ) :   1.1353
B(  4-N ,  6-H ) :   1.1885 B(  5-H ,  6-H ) :  -0.1535 B(  8-H , 12-H ) :  -0.1844
B(  9-C , 13-H ) :   0.8306 B(  9-C , 14-H ) :   0.8173 B(  9-C , 15-H ) :   0.8669

Dispersion correction           -0.010474440
FINAL SINGLE POINT ENERGY      -283.893652621225

DIPOLE MOMENT
-------------
                                X             Y             Z
Electronic contribution:      4.70016       1.90851       0.07539
Nuclear contribution   :     -3.67981      -1.62355      -0.28562
                        -----------------------------------------
Total Dipole Moment    :      1.02035       0.28496      -0.21022
                        -----------------------------------------
Magnitude (a.u.)       :      1.08005
Magnitude (Debye)      :      2.74527

Rotational constants in cm-1:     0.222027     0.074735     0.065694
Rotational constants in MHz :  6656.200457  2240.503315  1969.451902

                             ****ORCA TERMINATED NORMALLY****
TOTAL RUN TIME: 0 days 0 hours 0 minutes 25 seconds 148 msec
