                         Program Version 5.0.0 -  RELEASE  -
|  1> !PBE0 D3BJ RIJCOSX def2-SVPD def2/J TightSCF xyzfile
|  2>
|  3> *xyzfile 0 1 B.xyz
|  4>
|  5> %MaxCore 64000
|  6>
|  7> %pal nprocs 4
|  8> end
|  9>
| 10> %scf
| 11>   MaxIter 150
| 12> end
| 13>
| 14>
| 15>                          ****END OF INPUT****

CARTESIAN COORDINATES (ANGSTROEM)
---------------------------------
  C      3.913853   -1.658291    3.015134
  N      5.039266   -0.901154    2.492821
  C      4.084215    1.742081   -2.114724
  C      4.265245    2.500518   -0.795890
  H      4.868534    3.392674   -0.981134
  H      3.307640    2.824571   -0.387809
  C      4.982240    1.650257    0.247422
  C      6.210384   -1.417261    2.178244
  N      6.535913   -2.677122    2.556078
  N      7.076754   -0.700820    1.478906
  H      7.954643   -1.121554    1.207554
  H      6.756161    0.106637    0.960278
  H      4.842168    0.017609    2.115191
  H      5.993876   -3.126918    3.282784
  H      7.498441   -2.975482    2.468776
  O      4.368065    1.389270    1.313706
  O      6.128919    1.233512   -0.045620
  C      3.139159   -2.376572    1.910609
  H      3.267235   -0.939401    3.520693
  H      4.247195   -2.355095    3.790065
  C      1.997274    0.430918   -1.399218
  C      3.412746    0.376886   -1.965497
  H      4.047407   -0.246590   -1.326706
  H      3.390774   -0.118719   -2.942839
  H      5.068475    1.598504   -2.565728
  H      3.503356    2.363939   -2.804565
  C      2.399946   -1.389579    1.009490
  H      2.440750   -3.087118    2.362976
  H      3.844475   -2.970462    1.318677
  C      2.070177   -1.936705   -0.372401
  H      1.481611   -1.061542    1.509912
  H      3.008628   -0.490001    0.897451
  C      1.322238   -0.935775   -1.256413
  H      1.472747   -2.850902   -0.283997
  H      3.003539   -2.234041   -0.862535
  H      1.376444    1.058920   -2.047420
  H      2.015341    0.929780   -0.426535
  H      0.316648   -0.787213   -0.848278
  H      1.185611   -1.379252   -2.248613

 Total Charge           Charge          ....    0
 Multiplicity           Mult            ....    1
 Number of Electrons    NEL             ....  126
 Basis Dimension        Dim             ....  510

ORBITAL ENERGIES
----------------

  NO   OCC          E(Eh)            E(eV)
   0   2.0000     -19.140027      -520.8266
   1   2.0000     -19.138642      -520.7889
   2   2.0000     -14.463343      -393.5676
   3   2.0000     -14.429626      -392.6501
   4   2.0000     -14.422568      -392.4580
   5   2.0000     -10.391860      -282.7769
   6   2.0000     -10.293826      -280.1092
   7   2.0000     -10.291239      -280.0389
   8   2.0000     -10.241424      -278.6833
   9   2.0000     -10.219365      -278.0831
  10   2.0000     -10.218870      -278.0696
  11   2.0000     -10.215056      -277.9658
  12   2.0000     -10.206125      -277.7228
  13   2.0000     -10.204629      -277.6821
  14   2.0000     -10.203927      -277.6630
  15   2.0000     -10.194278      -277.4004
  16   2.0000      -1.062474       -28.9114
  17   2.0000      -1.028940       -27.9989
  18   2.0000      -0.953632       -25.9496
  19   2.0000      -0.939356       -25.5612
  20   2.0000      -0.929183       -25.2844
  21   2.0000      -0.829342       -22.5676
  22   2.0000      -0.804605       -21.8944
  23   2.0000      -0.775441       -21.1008
  24   2.0000      -0.735180       -20.0053
  25   2.0000      -0.696449       -18.9513
  26   2.0000      -0.679366       -18.4865
  27   2.0000      -0.648305       -17.6413
  28   2.0000      -0.633466       -17.2375
  29   2.0000      -0.619155       -16.8481
  30   2.0000      -0.590933       -16.0801
  31   2.0000      -0.584282       -15.8991
  32   2.0000      -0.552116       -15.0238
  33   2.0000      -0.541355       -14.7310
  34   2.0000      -0.534591       -14.5470
  35   2.0000      -0.514193       -13.9919
  36   2.0000      -0.486259       -13.2318
  37   2.0000      -0.480363       -13.0714
  38   2.0000      -0.473837       -12.8938
  39   2.0000      -0.469321       -12.7709
  40   2.0000      -0.455444       -12.3933
  41   2.0000      -0.437808       -11.9134
  42   2.0000      -0.435831       -11.8596
  43   2.0000      -0.431039       -11.7292
  44   2.0000      -0.422182       -11.4881
  45   2.0000      -0.414460       -11.2780
  46   2.0000      -0.398717       -10.8496
  47   2.0000      -0.385533       -10.4909
  48   2.0000      -0.379650       -10.3308
  49   2.0000      -0.367828       -10.0091
  50   2.0000      -0.361385        -9.8338
  51   2.0000      -0.352979        -9.6051
  52   2.0000      -0.339771        -9.2456
  53   2.0000      -0.331765        -9.0278
  54   2.0000      -0.327144        -8.9020
  55   2.0000      -0.321934        -8.7603
  56   2.0000      -0.311125        -8.4661
  57   2.0000      -0.306736        -8.3467
  58   2.0000      -0.299714        -8.1556
  59   2.0000      -0.289221        -7.8701
  60   2.0000      -0.248538        -6.7631
  61   2.0000      -0.237452        -6.4614
  62   2.0000      -0.232303        -6.3213
  63   0.0000      -0.008405        -0.2287
  64   0.0000       0.002329         0.0634
  65   0.0000       0.021305         0.5797
  66   0.0000       0.038863         1.0575
  67   0.0000       0.046588         1.2677

MULLIKEN ATOMIC CHARGES
-----------------------
   0 C :    1.118373
   1 N :   -0.122862
   2 C :    0.277556
   3 C :    0.159266
   4 H :   -0.061091
   5 H :    0.193056
   6 C :    0.439985
   7 C :    1.523452
   8 N :   -0.076035
   9 N :    0.167376
  10 H :   -0.083458
  11 H :   -0.293442
  12 H :   -0.813650
  13 H :   -0.020235
  14 H :   -0.170603
  15 O :   -0.795315
  16 O :   -0.731643
  17 C :    0.167677
  18 H :   -0.217544
  19 H :   -0.191801
  20 C :   -0.249907
  21 C :   -0.284650
  22 H :    0.087668
  23 H :   -0.112381
  24 H :    0.076122
  25 H :   -0.071905
  26 C :    0.402727
  27 H :   -0.062603
  28 H :    0.025768
  29 C :   -0.130642
  30 H :    0.023569
  31 H :   -0.668739
  32 C :    0.568139
  33 H :   -0.327344
  34 H :    0.191952
  35 H :   -0.325773
  36 H :    0.272842
  37 H :    0.069008
  38 H :    0.047088
Sum of atomic charges:    0.0000000

LOEWDIN ATOMIC CHARGES
----------------------
   0 C :    0.074047
   1 N :    0.072655
   2 C :   -0.026498
   3 C :    0.031694
   4 H :    0.030316
   5 H :    0.016065
   6 C :   -0.182120
   7 C :   -0.027053
   8 N :    0.242821
   9 N :    0.280211
  10 H :    0.023614
  11 H :   -0.106936
  12 H :   -0.078052
  13 H :   -0.006572
  14 H :    0.013548
  15 O :   -0.249814
  16 O :   -0.238700
  17 C :   -0.018265
  18 H :    0.042251
  19 H :    0.008303
  20 C :   -0.035190
  21 C :   -0.034457
  22 H :    0.014096
  23 H :    0.026539
  24 H :    0.023526
  25 H :    0.020753
  26 C :   -0.029880
  27 H :    0.026978
  28 H :    0.019419
  29 C :   -0.044109
  30 H :    0.040728
  31 H :   -0.016958
  32 C :   -0.036231
  33 H :    0.022500
  34 H :    0.018978
  35 H :    0.025762
  36 H :    0.011851
  37 H :    0.022545
  38 H :    0.021636

  Mayer bond orders larger than 0.100000
B(  0-C ,  1-N ) :   0.8200 B(  0-C , 12-H ) :  -0.4138 B(  0-C , 17-C ) :   1.0776
B(  0-C , 18-H ) :   0.6924 B(  0-C , 19-H ) :   0.8248 B(  0-C , 26-C ) :   0.1072
B(  1-N ,  7-C ) :   1.0642 B(  1-N ,  8-N ) :   0.2273 B(  1-N ,  9-N ) :   0.1229
B(  1-N , 12-H ) :   1.3087 B(  1-N , 18-H ) :   0.2180 B(  1-N , 19-H ) :   0.1110
B(  2-C ,  3-C ) :   1.1999 B(  2-C ,  4-H ) :   0.1437 B(  2-C , 21-C ) :   1.2701
B(  2-C , 24-H ) :   0.7050 B(  2-C , 25-H ) :   0.8557 B(  3-C ,  4-H ) :   0.7222
B(  3-C ,  5-H ) :   0.7641 B(  3-C ,  6-C ) :   1.1602 B(  3-C , 24-H ) :   0.1174
B(  3-C , 25-H ) :   0.1311 B(  4-H ,  6-C ) :   0.2439 B(  5-H ,  6-C ) :   0.2054
B(  6-C , 15-O ) :   1.2990 B(  6-C , 16-O ) :   1.1760 B(  7-C ,  8-N ) :   0.7589
B(  7-C ,  9-N ) :   0.8611 B(  7-C , 11-H ) :  -0.2373 B(  7-C , 12-H ) :  -0.5517
B(  7-C , 14-H ) :  -0.1002 B(  8-N ,  9-N ) :   0.1519 B(  8-N , 13-H ) :   1.0626
B(  8-N , 14-H ) :   1.2475 B(  9-N , 10-H ) :   1.1836 B(  9-N , 11-H ) :   1.1366
B( 10-H , 11-H ) :  -0.2416 B( 11-H , 16-O ) :   0.1429 B( 12-H , 15-O ) :   0.2182
B( 12-H , 18-H ) :   0.1402 B( 13-H , 14-H ) :  -0.1917 B( 17-C , 19-H ) :   0.1431
B( 17-C , 26-C ) :   1.1253 B( 17-C , 27-H ) :   0.9275 B( 17-C , 28-H ) :   0.9181
B( 17-C , 30-H ) :   0.1171 B( 18-H , 19-H ) :  -0.1860 B( 20-C , 21-C ) :   1.2260
B( 20-C , 23-H ) :   0.1424 B( 20-C , 32-C ) :   1.1710 B( 20-C , 35-H ) :   1.0846
B( 20-C , 36-H ) :   0.7973 B( 20-C , 37-H ) :   0.2323 B( 20-C , 38-H ) :   0.1361
B( 21-C , 22-H ) :   0.9198 B( 21-C , 23-H ) :   0.9154 B( 21-C , 24-H ) :   0.2025
B( 21-C , 25-H ) :   0.1734 B( 21-C , 35-H ) :   0.1168 B( 26-C , 27-H ) :   0.1356
B( 26-C , 29-C ) :   1.2699 B( 26-C , 30-H ) :   0.6853 B( 26-C , 31-H ) :   0.5410
B( 26-C , 33-H ) :   0.1070 B( 26-C , 34-H ) :   0.1446 B( 27-H , 31-H ) :   0.1114
B( 29-C , 31-H ) :   0.1026 B( 29-C , 32-C ) :   1.1365 B( 29-C , 33-H ) :   1.0884
B( 29-C , 34-H ) :   0.8177 B( 29-C , 37-H ) :   0.1106 B( 29-C , 38-H ) :   0.1899
B( 30-H , 31-H ) :   0.2674 B( 32-C , 37-H ) :   0.7030 B( 32-C , 38-H ) :   0.7271

Dispersion correction           -0.039130278
FINAL SINGLE POINT ENERGY      -746.478417099593

DIPOLE MOMENT
-------------
                                X             Y             Z
Electronic contribution:     12.28054       3.29943       7.67361
Nuclear contribution   :    -11.44764      -6.21818      -6.18483
                        -----------------------------------------
Total Dipole Moment    :      0.83290      -2.91875       1.48878
                        -----------------------------------------
Magnitude (a.u.)       :      3.38072
Magnitude (Debye)      :      8.59311

Rotational constants in cm-1:     0.020281     0.013510     0.009451
Rotational constants in MHz :   608.005987   405.034308   283.324538

                             ****ORCA TERMINATED NORMALLY****
TOTAL RUN TIME: 0 days 0 hours 3 minutes 59 seconds 498 msec
