                         Program Version 5.0.0 -  RELEASE  -
|  1> !PBE0 D3BJ RIJCOSX def2-SVPD def2/J TightSCF
|  2> *xyz 0 1
|  3> C          4.08422        1.74208       -2.11472
|  4> C          4.26524        2.50052       -0.79589
|  5> H          4.86853        3.39267       -0.98113
|  6> H          3.30764        2.82457       -0.38781
|  7> C          4.98224        1.65026        0.24742
|  8> F          4.36806        1.38927        1.31371
|  9> O          6.12892        1.23351       -0.04562
| 10> H          3.57911        2.36849       -2.81997
| 11> H          3.50424        0.85965       -1.94198
| 12> H          5.04288        1.46841       -2.50327
| 13> *
| 14> %MaxCore 64000
| 15> %pal nprocs 8
| 16> end
| 17> %scf
| 18>   MaxIter 150
| 19> end
| 20>
| 21>
| 22>                          ****END OF INPUT****

CARTESIAN COORDINATES (ANGSTROEM)
---------------------------------
  C      4.084220    1.742080   -2.114720
  C      4.265240    2.500520   -0.795890
  H      4.868530    3.392670   -0.981130
  H      3.307640    2.824570   -0.387810
  C      4.982240    1.650260    0.247420
  F      4.368060    1.389270    1.313710
  O      6.128920    1.233510   -0.045620
  H      3.579110    2.368490   -2.819970
  H      3.504240    0.859650   -1.941980
  H      5.042880    1.468410   -2.503270

 Total Charge           Charge          ....    0
 Multiplicity           Mult            ....    1
 Number of Electrons    NEL             ....   40
 Basis Dimension        Dim             ....  146

ORBITAL ENERGIES
----------------

  NO   OCC          E(Eh)            E(eV)
   0   2.0000     -24.856381      -676.3765
   1   2.0000     -19.226995      -523.1931
   2   2.0000     -10.415487      -283.4198
   3   2.0000     -10.267537      -279.3939
   4   2.0000     -10.240366      -278.6545
   5   2.0000      -1.339077       -36.4381
   6   2.0000      -1.055872       -28.7317
   7   2.0000      -0.820770       -22.3343
   8   2.0000      -0.708529       -19.2801
   9   2.0000      -0.659089       -17.9347
  10   2.0000      -0.570231       -15.5168
  11   2.0000      -0.555612       -15.1190
  12   2.0000      -0.526775       -14.3343
  13   2.0000      -0.482004       -13.1160
  14   2.0000      -0.452302       -12.3078
  15   2.0000      -0.417435       -11.3590
  16   2.0000      -0.395584       -10.7644
  17   2.0000      -0.389480       -10.5983
  18   2.0000      -0.364153        -9.9091
  19   2.0000      -0.310995        -8.4626
  20   0.0000      -0.030218        -0.8223
  21   0.0000       0.021919         0.5965
  22   0.0000       0.052403         1.4259
  23   0.0000       0.063982         1.7410
  24   0.0000       0.081391         2.2148

MULLIKEN ATOMIC CHARGES
-----------------------
   0 C :    0.412665
   1 C :   -0.493828
   2 H :    0.114661
   3 H :    0.040205
   4 C :    0.876329
   5 F :   -0.406101
   6 O :   -0.569994
   7 H :    0.007776
   8 H :   -0.009017
   9 H :    0.027304
Sum of atomic charges:    0.0000000

LOEWDIN ATOMIC CHARGES
----------------------
   0 C :    0.138457
   1 C :   -0.000694
   2 H :    0.042693
   3 H :    0.024082
   4 C :   -0.000456
   5 F :   -0.040328
   6 O :   -0.139868
   7 H :   -0.010643
   8 H :   -0.006850
   9 H :   -0.006392

  Mayer bond orders larger than 0.100000
B(  0-C ,  1-C ) :   1.3203 B(  0-C ,  7-H ) :   0.8727 B(  0-C ,  8-H ) :   0.8815
B(  0-C ,  9-H ) :   0.8580 B(  1-C ,  2-H ) :   0.8916 B(  1-C ,  3-H ) :   0.9751
B(  1-C ,  4-C ) :   1.0889 B(  1-C ,  7-H ) :   0.1241 B(  1-C ,  8-H ) :   0.1368
B(  1-C ,  9-H ) :   0.1526 B(  4-C ,  5-F ) :   0.6825 B(  4-C ,  6-O ) :   1.7295

Dispersion correction           -0.005181145
FINAL SINGLE POINT ENERGY      -291.883562554688

DIPOLE MOMENT
-------------
                                X             Y             Z
Electronic contribution:      1.90954      -2.03227       8.12425
Nuclear contribution   :     -2.87511       2.61564      -8.50037
                        -----------------------------------------
Total Dipole Moment    :     -0.96556       0.58337      -0.37612
                        -----------------------------------------
Magnitude (a.u.)       :      1.18916
Magnitude (Debye)      :      3.02260

Rotational constants in cm-1:     0.297822     0.128965     0.102219
Rotational constants in MHz :  8928.481997  3866.271686  3064.463504

                             ****ORCA TERMINATED NORMALLY****
TOTAL RUN TIME: 0 days 0 hours 0 minutes 13 seconds 895 msec
