                         Program Version 5.0.0 -  RELEASE  -
|  1> !PBE0 D3BJ RIJCOSX def2-SVPD def2/J TightSCF
|  2> *xyz 0 1
|  3> C          3.91385       -1.65829        3.01513
|  4> C          5.03927       -0.90115        2.49282
|  5> C          6.21038       -1.41726        2.17824
|  6> N          6.53591       -2.67712        2.55608
|  7> N          7.07675       -0.70082        1.47891
|  8> H          7.95464       -1.12155        1.20755
|  9> H          6.75616        0.10664        0.96028
| 10> H          4.84217        0.01761        2.11519
| 11> H          5.99388       -3.12692        3.28278
| 12> C          3.13916       -2.37657        1.91061
| 13> H          3.26723       -0.93940        3.52069
| 14> H          4.24720       -2.35509        3.79006
| 15> H          7.49844       -2.97548        2.46878
| 16> H          2.82969       -1.66654        1.17238
| 17> H          2.27790       -2.85264        2.33072
| 18> H          3.76754       -3.11338        1.45548
| 19> *
| 20> %MaxCore 64000
| 21> %pal nprocs 8
| 22> end
| 23> %scf
| 24>   MaxIter 150
| 25> end
| 26>
| 27>
| 28>                          ****END OF INPUT****

CARTESIAN COORDINATES (ANGSTROEM)
---------------------------------
  C      3.913850   -1.658290    3.015130
  C      5.039270   -0.901150    2.492820
  C      6.210380   -1.417260    2.178240
  N      6.535910   -2.677120    2.556080
  N      7.076750   -0.700820    1.478910
  H      7.954640   -1.121550    1.207550
  H      6.756160    0.106640    0.960280
  H      4.842170    0.017610    2.115190
  H      5.993880   -3.126920    3.282780
  C      3.139160   -2.376570    1.910610
  H      3.267230   -0.939400    3.520690
  H      4.247200   -2.355090    3.790060
  H      7.498440   -2.975480    2.468780
  H      2.829690   -1.666540    1.172380
  H      2.277900   -2.852640    2.330720
  H      3.767540   -3.113380    1.455480

 Total Charge           Charge          ....    0
 Multiplicity           Mult            ....    1
 Number of Electrons    NEL             ....   48
 Basis Dimension        Dim             ....  200

ORBITAL ENERGIES
----------------

  NO   OCC          E(Eh)            E(eV)
   0   2.0000     -14.397172      -391.7670
   1   2.0000     -14.395304      -391.7161
   2   2.0000     -10.273863      -279.5660
   3   2.0000     -10.208681      -277.7923
   4   2.0000     -10.196378      -277.4575
   5   2.0000     -10.155213      -276.3374
   6   2.0000      -0.979009       -26.6402
   7   2.0000      -0.886619       -24.1261
   8   2.0000      -0.791475       -21.5371
   9   2.0000      -0.709680       -19.3114
  10   2.0000      -0.631586       -17.1863
  11   2.0000      -0.592799       -16.1309
  12   2.0000      -0.556836       -15.1523
  13   2.0000      -0.525026       -14.2867
  14   2.0000      -0.488520       -13.2933
  15   2.0000      -0.452387       -12.3101
  16   2.0000      -0.432853       -11.7785
  17   2.0000      -0.401865       -10.9353
  18   2.0000      -0.395801       -10.7703
  19   2.0000      -0.368021       -10.0144
  20   2.0000      -0.340614        -9.2686
  21   2.0000      -0.330604        -8.9962
  22   2.0000      -0.279630        -7.6091
  23   2.0000      -0.171461        -4.6657
  24   0.0000       0.021266         0.5787
  25   0.0000       0.048327         1.3150
  26   0.0000       0.053827         1.4647
  27   0.0000       0.067547         1.8380
  28   0.0000       0.083197         2.2639

MULLIKEN ATOMIC CHARGES
-----------------------
   0 C :   -0.305181
   1 C :   -0.466525
   2 C :    1.113088
   3 N :   -0.183248
   4 N :   -0.161705
   5 H :   -0.113872
   6 H :   -0.028498
   7 H :   -0.111386
   8 H :   -0.003579
   9 C :    0.525516
  10 H :   -0.025166
  11 H :   -0.019377
  12 H :   -0.244209
  13 H :    0.004860
  14 H :    0.036251
  15 H :   -0.016967
Sum of atomic charges:    0.0000000

LOEWDIN ATOMIC CHARGES
----------------------
   0 C :   -0.106226
   1 C :   -0.044194
   2 C :   -0.218351
   3 N :    0.196358
   4 N :    0.170282
   5 H :   -0.008170
   6 H :    0.009857
   7 H :   -0.043088
   8 H :   -0.014504
   9 C :    0.116817
  10 H :    0.016092
  11 H :    0.003375
  12 H :   -0.012680
  13 H :   -0.016811
  14 H :   -0.025791
  15 H :   -0.022966

  Mayer bond orders larger than 0.100000
B(  0-C ,  1-C ) :   1.3001 B(  0-C ,  7-H ) :   0.2866 B(  0-C ,  9-C ) :   1.2315
B(  0-C , 10-H ) :   0.8437 B(  0-C , 11-H ) :   0.9073 B(  0-C , 13-H ) :   0.2083
B(  0-C , 14-H ) :   0.1506 B(  0-C , 15-H ) :   0.1813 B(  1-C ,  2-C ) :   1.7031
B(  1-C ,  3-N ) :   0.2004 B(  1-C ,  4-N ) :   0.3485 B(  1-C ,  7-H ) :   0.8641
B(  1-C , 10-H ) :   0.2463 B(  1-C , 11-H ) :   0.1909 B(  2-C ,  3-N ) :   0.7609
B(  2-C ,  4-N ) :   0.6825 B(  2-C ,  6-H ) :  -0.1121 B(  2-C ,  7-H ) :   0.1994
B(  2-C , 12-H ) :  -0.1765 B(  3-N ,  4-N ) :   0.1227 B(  3-N ,  8-H ) :   1.0098
B(  3-N , 12-H ) :   1.3346 B(  4-N ,  5-H ) :   1.1553 B(  4-N ,  6-H ) :   1.1608
B(  5-H ,  6-H ) :  -0.1470 B(  8-H , 12-H ) :  -0.1776 B(  9-C , 13-H ) :   0.8497
B(  9-C , 14-H ) :   0.8188 B(  9-C , 15-H ) :   0.8651

Dispersion correction           -0.010896804
FINAL SINGLE POINT ENERGY      -267.434896596011

DIPOLE MOMENT
-------------
                                X             Y             Z
Electronic contribution:      4.61458       1.23463      -0.03760
Nuclear contribution   :     -3.74303      -1.46908      -0.23637
                        -----------------------------------------
Total Dipole Moment    :      0.87155      -0.23445      -0.27398
                        -----------------------------------------
Magnitude (a.u.)       :      0.94321
Magnitude (Debye)      :      2.39744

Rotational constants in cm-1:     0.225937     0.074877     0.065953
Rotational constants in MHz :  6773.424301  2244.750632  1977.214101

                             ****ORCA TERMINATED NORMALLY****
TOTAL RUN TIME: 0 days 0 hours 0 minutes 19 seconds 300 msec
