                         Program Version 5.0.0 -  RELEASE  -
|  1> !PBE0 D3BJ RIJCOSX def2-SVPD def2/J TightSCF
|  2> *xyz 0 1
|  3> C          4.08422        1.74208       -2.11472
|  4> C          4.26524        2.50052       -0.79589
|  5> H          4.86853        3.39267       -0.98113
|  6> H          3.30764        2.82457       -0.38781
|  7> C          4.98224        1.65026        0.24742
|  8> O          4.36806        1.38927        1.31371
|  9> F          6.12892        1.23351       -0.04562
| 10> H          3.57911        2.36849       -2.81997
| 11> H          3.50424        0.85965       -1.94198
| 12> H          5.04288        1.46841       -2.50327
| 13> *
| 14> %MaxCore 64000
| 15> %pal nprocs 8
| 16> end
| 17> %scf
| 18>   MaxIter 150
| 19> end
| 20>
| 21>
| 22>                          ****END OF INPUT****

CARTESIAN COORDINATES (ANGSTROEM)
---------------------------------
  C      4.084220    1.742080   -2.114720
  C      4.265240    2.500520   -0.795890
  H      4.868530    3.392670   -0.981130
  H      3.307640    2.824570   -0.387810
  C      4.982240    1.650260    0.247420
  O      4.368060    1.389270    1.313710
  F      6.128920    1.233510   -0.045620
  H      3.579110    2.368490   -2.819970
  H      3.504240    0.859650   -1.941980
  H      5.042880    1.468410   -2.503270

 Total Charge           Charge          ....    0
 Multiplicity           Mult            ....    1
 Number of Electrons    NEL             ....   40
 Basis Dimension        Dim             ....  146

ORBITAL ENERGIES
----------------

  NO   OCC          E(Eh)            E(eV)
   0   2.0000     -24.857573      -676.4090
   1   2.0000     -19.226418      -523.1774
   2   2.0000     -10.415060      -283.4082
   3   2.0000     -10.267303      -279.3875
   4   2.0000     -10.245038      -278.7817
   5   2.0000      -1.341695       -36.5094
   6   2.0000      -1.052824       -28.6488
   7   2.0000      -0.824858       -22.4455
   8   2.0000      -0.706091       -19.2137
   9   2.0000      -0.664371       -18.0784
  10   2.0000      -0.573173       -15.5968
  11   2.0000      -0.561393       -15.2763
  12   2.0000      -0.520252       -14.1568
  13   2.0000      -0.482478       -13.1289
  14   2.0000      -0.453156       -12.3310
  15   2.0000      -0.420692       -11.4476
  16   2.0000      -0.400365       -10.8945
  17   2.0000      -0.391761       -10.6604
  18   2.0000      -0.368053       -10.0152
  19   2.0000      -0.306208        -8.3323
  20   0.0000      -0.027304        -0.7430
  21   0.0000       0.019938         0.5425
  22   0.0000       0.053063         1.4439
  23   0.0000       0.062980         1.7138
  24   0.0000       0.081717         2.2236

MULLIKEN ATOMIC CHARGES
-----------------------
   0 C :    0.402799
   1 C :   -0.470628
   2 H :    0.105046
   3 H :    0.023565
   4 C :    0.902864
   5 O :   -0.558583
   6 F :   -0.425220
   7 H :    0.008838
   8 H :   -0.004549
   9 H :    0.015869
Sum of atomic charges:   -0.0000000

LOEWDIN ATOMIC CHARGES
----------------------
   0 C :    0.133343
   1 C :    0.003637
   2 H :    0.037579
   3 H :    0.036132
   4 C :   -0.004916
   5 O :   -0.142625
   6 F :   -0.036419
   7 H :   -0.010201
   8 H :   -0.005047
   9 H :   -0.011482

  Mayer bond orders larger than 0.100000
B(  0-C ,  1-C ) :   1.2924 B(  0-C ,  7-H ) :   0.8794 B(  0-C ,  8-H ) :   0.8941
B(  0-C ,  9-H ) :   0.8515 B(  1-C ,  2-H ) :   0.8893 B(  1-C ,  3-H ) :   1.0061
B(  1-C ,  4-C ) :   1.0583 B(  1-C ,  7-H ) :   0.1252 B(  1-C ,  8-H ) :   0.1313
B(  1-C ,  9-H ) :   0.1451 B(  3-H ,  4-C ) :   0.1129 B(  4-C ,  5-O ) :   1.7128
B(  4-C ,  6-F ) :   0.6649

Dispersion correction           -0.005152739
FINAL SINGLE POINT ENERGY      -291.882902798250

DIPOLE MOMENT
-------------
                                X             Y             Z
Electronic contribution:      4.83736      -2.28236       5.83402
Nuclear contribution   :     -4.79499       2.78546      -7.01827
                        -----------------------------------------
Total Dipole Moment    :      0.04237       0.50311      -1.18425
                        -----------------------------------------
Magnitude (a.u.)       :      1.28738
Magnitude (Debye)      :      3.27227

Rotational constants in cm-1:     0.286098     0.133492     0.103343
Rotational constants in MHz :  8577.003657  4001.981591  3098.148068

                             ****ORCA TERMINATED NORMALLY****
TOTAL RUN TIME: 0 days 0 hours 0 minutes 14 seconds 4 msec
