                         Program Version 5.0.0 -  RELEASE  -
|  1> !PBE0 D3BJ RIJCOSX def2-SVPD def2/J TightSCF
|  2> *xyz 0 1
|  3> C          3.91385       -1.65829        3.01513
|  4> N          5.03927       -0.90115        2.49282
|  5> C          6.21038       -1.41726        2.17824
|  6> C          6.53591       -2.67712        2.55608
|  7> N          7.07675       -0.70082        1.47891
|  8> H          7.95464       -1.12155        1.20755
|  9> H          6.75616        0.10664        0.96028
| 10> H          4.84217        0.01761        2.11519
| 11> H          5.99388       -3.12692        3.28278
| 12> C          3.13916       -2.37657        1.91061
| 13> H          3.26723       -0.93940        3.52069
| 14> H          4.24720       -2.35509        3.79006
| 15> H          7.49844       -2.97548        2.46878
| 16> H          2.82969       -1.66654        1.17238
| 17> H          2.27790       -2.85264        2.33072
| 18> H          3.76754       -3.11338        1.45548
| 19> *
| 20> %MaxCore 64000
| 21> %pal nprocs 8
| 22> end
| 23> %scf
| 24>   MaxIter 150
| 25> end
| 26>
| 27>
| 28>                          ****END OF INPUT****

CARTESIAN COORDINATES (ANGSTROEM)
---------------------------------
  C      3.913850   -1.658290    3.015130
  N      5.039270   -0.901150    2.492820
  C      6.210380   -1.417260    2.178240
  C      6.535910   -2.677120    2.556080
  N      7.076750   -0.700820    1.478910
  H      7.954640   -1.121550    1.207550
  H      6.756160    0.106640    0.960280
  H      4.842170    0.017610    2.115190
  H      5.993880   -3.126920    3.282780
  C      3.139160   -2.376570    1.910610
  H      3.267230   -0.939400    3.520690
  H      4.247200   -2.355090    3.790060
  H      7.498440   -2.975480    2.468780
  H      2.829690   -1.666540    1.172380
  H      2.277900   -2.852640    2.330720
  H      3.767540   -3.113380    1.455480

 Total Charge           Charge          ....    0
 Multiplicity           Mult            ....    1
 Number of Electrons    NEL             ....   48
 Basis Dimension        Dim             ....  200

ORBITAL ENERGIES
----------------

  NO   OCC          E(Eh)            E(eV)
   0   2.0000     -14.402382      -391.9087
   1   2.0000     -14.398580      -391.8053
   2   2.0000     -10.280196      -279.7383
   3   2.0000     -10.266568      -279.3675
   4   2.0000     -10.213932      -277.9352
   5   2.0000     -10.144555      -276.0474
   6   2.0000      -0.993263       -27.0281
   7   2.0000      -0.907556       -24.6959
   8   2.0000      -0.770733       -20.9727
   9   2.0000      -0.722224       -19.6527
  10   2.0000      -0.657356       -17.8876
  11   2.0000      -0.579729       -15.7752
  12   2.0000      -0.569170       -15.4879
  13   2.0000      -0.536086       -14.5877
  14   2.0000      -0.482502       -13.1295
  15   2.0000      -0.453631       -12.3439
  16   2.0000      -0.433697       -11.8015
  17   2.0000      -0.412321       -11.2198
  18   2.0000      -0.392002       -10.6669
  19   2.0000      -0.379386       -10.3236
  20   2.0000      -0.376439       -10.2434
  21   2.0000      -0.357247        -9.7212
  22   2.0000      -0.264917        -7.2088
  23   2.0000      -0.174734        -4.7548
  24   0.0000       0.020136         0.5479
  25   0.0000       0.044737         1.2174
  26   0.0000       0.054589         1.4854
  27   0.0000       0.060035         1.6336
  28   0.0000       0.085375         2.3232

MULLIKEN ATOMIC CHARGES
-----------------------
   0 C :    0.215377
   1 N :   -0.504609
   2 C :    0.874920
   3 C :    0.322942
   4 N :   -0.169793
   5 H :   -0.002872
   6 H :   -0.139897
   7 H :   -0.346080
   8 H :   -0.122515
   9 C :    0.514460
  10 H :   -0.262108
  11 H :    0.079089
  12 H :   -0.427515
  13 H :   -0.028519
  14 H :    0.032696
  15 H :   -0.035576
Sum of atomic charges:   -0.0000000

LOEWDIN ATOMIC CHARGES
----------------------
   0 C :    0.016452
   1 N :   -0.031785
   2 C :   -0.233917
   3 C :    0.154262
   4 N :    0.175960
   5 H :    0.010646
   6 H :   -0.005580
   7 H :    0.025165
   8 H :   -0.117614
   9 C :    0.132859
  10 H :    0.020757
  11 H :    0.017167
  12 H :   -0.104635
  13 H :   -0.020201
  14 H :   -0.018338
  15 H :   -0.021198

  Mayer bond orders larger than 0.100000
B(  0-C ,  1-N ) :   0.8472 B(  0-C ,  3-C ) :   0.1018 B(  0-C ,  7-H ) :  -0.1642
B(  0-C ,  9-C ) :   1.2211 B(  0-C , 10-H ) :   0.9672 B(  0-C , 11-H ) :   0.8724
B(  0-C , 13-H ) :   0.1939 B(  0-C , 14-H ) :   0.1504 B(  0-C , 15-H ) :   0.1790
B(  1-N ,  2-C ) :   0.8505 B(  1-N ,  3-C ) :   0.3417 B(  1-N ,  4-N ) :   0.1828
B(  1-N ,  7-H ) :   1.4173 B(  1-N , 10-H ) :   0.1601 B(  1-N , 11-H ) :   0.1037
B(  2-C ,  3-C ) :   1.7198 B(  2-C ,  4-N ) :   0.7427 B(  2-C ,  6-H ) :  -0.1095
B(  2-C ,  7-H ) :  -0.2936 B(  2-C ,  8-H ) :   0.2655 B(  2-C , 12-H ) :   0.1663
B(  3-C ,  4-N ) :   0.2282 B(  3-C ,  8-H ) :   0.6958 B(  3-C , 12-H ) :   0.8883
B(  4-N ,  5-H ) :   1.1164 B(  4-N ,  6-H ) :   1.2271 B(  5-H ,  6-H ) :  -0.1491
B(  8-H , 12-H ) :   0.1154 B(  9-C , 13-H ) :   0.8462 B(  9-C , 14-H ) :   0.8358
B(  9-C , 15-H ) :   0.8778

Dispersion correction           -0.010867221
FINAL SINGLE POINT ENERGY      -267.424516663152

DIPOLE MOMENT
-------------
                                X             Y             Z
Electronic contribution:      3.07173       2.80897      -0.20509
Nuclear contribution   :     -3.42552      -1.84584      -0.22295
                        -----------------------------------------
Total Dipole Moment    :     -0.35379       0.96313      -0.42804
                        -----------------------------------------
Magnitude (a.u.)       :      1.11176
Magnitude (Debye)      :      2.82586

Rotational constants in cm-1:     0.233526     0.075277     0.067092
Rotational constants in MHz :  7000.931279  2256.752901  2011.361214

                             ****ORCA TERMINATED NORMALLY****
TOTAL RUN TIME: 0 days 0 hours 0 minutes 20 seconds 790 msec
