                         Program Version 5.0.0 -  RELEASE  -
|  1> !PBE0 D3BJ RIJCOSX def2-SVPD def2/J TightSCF
|  2> *xyz 0 1
|  3> C          3.91385       -1.65829        3.01513
|  4> N          5.03927       -0.90115        2.49282
|  5> C          6.21038       -1.41726        2.17824
|  6> N          6.53591       -2.67712        2.55608
|  7> C          7.07675       -0.70082        1.47891
|  8> H          7.95464       -1.12155        1.20755
|  9> H          6.75616        0.10664        0.96028
| 10> H          4.84217        0.01761        2.11519
| 11> H          5.99388       -3.12692        3.28278
| 12> C          3.13916       -2.37657        1.91061
| 13> H          3.26723       -0.93940        3.52069
| 14> H          4.24720       -2.35509        3.79006
| 15> H          7.49844       -2.97548        2.46878
| 16> H          2.82969       -1.66654        1.17238
| 17> H          2.27790       -2.85264        2.33072
| 18> H          3.76754       -3.11338        1.45548
| 19> *
| 20> %MaxCore 64000
| 21> %pal nprocs 8
| 22> end
| 23> %scf
| 24>   MaxIter 150
| 25> end
| 26>
| 27>
| 28>                          ****END OF INPUT****

CARTESIAN COORDINATES (ANGSTROEM)
---------------------------------
  C      3.913850   -1.658290    3.015130
  N      5.039270   -0.901150    2.492820
  C      6.210380   -1.417260    2.178240
  N      6.535910   -2.677120    2.556080
  C      7.076750   -0.700820    1.478910
  H      7.954640   -1.121550    1.207550
  H      6.756160    0.106640    0.960280
  H      4.842170    0.017610    2.115190
  H      5.993880   -3.126920    3.282780
  C      3.139160   -2.376570    1.910610
  H      3.267230   -0.939400    3.520690
  H      4.247200   -2.355090    3.790060
  H      7.498440   -2.975480    2.468780
  H      2.829690   -1.666540    1.172380
  H      2.277900   -2.852640    2.330720
  H      3.767540   -3.113380    1.455480

 Total Charge           Charge          ....    0
 Multiplicity           Mult            ....    1
 Number of Electrons    NEL             ....   48
 Basis Dimension        Dim             ....  200

ORBITAL ENERGIES
----------------

  NO   OCC          E(Eh)            E(eV)
   0   2.0000     -14.398456      -391.8019
   1   2.0000     -14.396257      -391.7421
   2   2.0000     -10.277085      -279.6537
   3   2.0000     -10.274892      -279.5940
   4   2.0000     -10.221550      -278.1425
   5   2.0000     -10.142459      -275.9903
   6   2.0000      -0.988136       -26.8885
   7   2.0000      -0.899859       -24.4864
   8   2.0000      -0.788479       -21.4556
   9   2.0000      -0.718020       -19.5383
  10   2.0000      -0.644901       -17.5486
  11   2.0000      -0.616424       -16.7738
  12   2.0000      -0.552020       -15.0212
  13   2.0000      -0.513307       -13.9678
  14   2.0000      -0.493456       -13.4276
  15   2.0000      -0.454201       -12.3594
  16   2.0000      -0.446167       -12.1408
  17   2.0000      -0.419000       -11.4016
  18   2.0000      -0.393670       -10.7123
  19   2.0000      -0.385004       -10.4765
  20   2.0000      -0.372927       -10.1479
  21   2.0000      -0.368841       -10.0367
  22   2.0000      -0.268182        -7.2976
  23   2.0000      -0.173675        -4.7259
  24   0.0000       0.019043         0.5182
  25   0.0000       0.046916         1.2766
  26   0.0000       0.051341         1.3971
  27   0.0000       0.058236         1.5847
  28   0.0000       0.083135         2.2622

MULLIKEN ATOMIC CHARGES
-----------------------
   0 C :    0.226765
   1 N :   -0.426666
   2 C :    0.881685
   3 N :   -0.058258
   4 C :    0.242871
   5 H :   -0.271645
   6 H :   -0.213510
   7 H :   -0.293899
   8 H :   -0.121949
   9 C :    0.505793
  10 H :   -0.257103
  11 H :   -0.054115
  12 H :   -0.147879
  13 H :   -0.019792
  14 H :    0.020637
  15 H :   -0.012936
Sum of atomic charges:   -0.0000000

LOEWDIN ATOMIC CHARGES
----------------------
   0 C :    0.008878
   1 N :   -0.027427
   2 C :   -0.234012
   3 N :    0.195681
   4 C :    0.132940
   5 H :   -0.099361
   6 H :   -0.097256
   7 H :    0.039576
   8 H :   -0.029297
   9 C :    0.129874
  10 H :    0.021064
  11 H :    0.009715
  12 H :    0.005282
  13 H :   -0.015816
  14 H :   -0.019598
  15 H :   -0.020244

  Mayer bond orders larger than 0.100000
B(  0-C ,  1-N ) :   0.8863 B(  0-C ,  7-H ) :  -0.1729 B(  0-C ,  9-C ) :   1.2409
B(  0-C , 10-H ) :   0.9209 B(  0-C , 11-H ) :   0.9104 B(  0-C , 13-H ) :   0.2195
B(  0-C , 14-H ) :   0.1500 B(  0-C , 15-H ) :   0.1758 B(  1-N ,  2-C ) :   0.9744
B(  1-N ,  3-N ) :   0.1557 B(  1-N ,  4-C ) :   0.2568 B(  1-N ,  7-H ) :   1.2827
B(  1-N , 10-H ) :   0.1858 B(  1-N , 11-H ) :   0.1338 B(  2-C ,  3-N ) :   0.7933
B(  2-C ,  4-C ) :   1.5296 B(  2-C ,  5-H ) :   0.1643 B(  2-C ,  7-H ) :  -0.2130
B(  3-N ,  4-C ) :   0.1964 B(  3-N ,  8-H ) :   1.0576 B(  3-N , 12-H ) :   1.2274
B(  4-C ,  5-H ) :   0.8202 B(  4-C ,  6-H ) :   0.9052 B(  5-H ,  6-H ) :   0.1352
B(  8-H , 12-H ) :  -0.1777 B(  9-C , 13-H ) :   0.8277 B(  9-C , 14-H ) :   0.8452
B(  9-C , 15-H ) :   0.8615

Dispersion correction           -0.010806995
FINAL SINGLE POINT ENERGY      -267.424191083389

DIPOLE MOMENT
-------------
                                X             Y             Z
Electronic contribution:      2.52570       0.92322       0.95996
Nuclear contribution   :     -3.31079      -1.42658      -0.45147
                        -----------------------------------------
Total Dipole Moment    :     -0.78509      -0.50336       0.50849
                        -----------------------------------------
Magnitude (a.u.)       :      1.06221
Magnitude (Debye)      :      2.69993

Rotational constants in cm-1:     0.225507     0.077571     0.068070
Rotational constants in MHz :  6760.542142  2325.533779  2040.680522

                             ****ORCA TERMINATED NORMALLY****
TOTAL RUN TIME: 0 days 0 hours 0 minutes 20 seconds 759 msec
