                         Program Version 5.0.0 -  RELEASE  -
|  1> !PBE0 D3BJ RIJCOSX def2-SVPD def2/J TightSCF xyzfile
|  2>
|  3> *xyzfile 0 1 D1.xyz
|  4>
|  5> %MaxCore 64000
|  6>
|  7> %pal nprocs 4
|  8> end
|  9>
| 10> %scf
| 11>   MaxIter 150
| 12> end
| 13>
| 14>
| 15>                          ****END OF INPUT****

CARTESIAN COORDINATES (ANGSTROEM)
---------------------------------
  C      3.913853   -1.658291    3.015134
  C      5.039266   -0.901154    2.492821
  C      4.084215    1.742081   -2.114724
  C      4.265245    2.500518   -0.795890
  H      4.868534    3.392674   -0.981134
  H      3.307640    2.824571   -0.387809
  C      4.982240    1.650257    0.247422
  C      6.210384   -1.417261    2.178244
  N      6.535913   -2.677122    2.556078
  N      7.076754   -0.700820    1.478906
  H      7.954643   -1.121554    1.207554
  H      6.756161    0.106637    0.960278
  H      4.842168    0.017609    2.115191
  H      5.993876   -3.126918    3.282784
  H      7.498441   -2.975482    2.468776
  F      4.368065    1.389270    1.313706
  O      6.128919    1.233512   -0.045620
  C      3.139159   -2.376572    1.910609
  H      3.267235   -0.939401    3.520693
  H      4.247195   -2.355095    3.790065
  C      1.997274    0.430918   -1.399218
  C      3.412746    0.376886   -1.965497
  H      4.047407   -0.246590   -1.326706
  H      3.390774   -0.118719   -2.942839
  H      5.068475    1.598504   -2.565728
  H      3.503356    2.363939   -2.804565
  C      2.399946   -1.389579    1.009490
  H      2.440750   -3.087118    2.362976
  H      3.844475   -2.970462    1.318677
  C      2.070177   -1.936705   -0.372401
  H      1.481611   -1.061542    1.509912
  H      3.008628   -0.490001    0.897451
  C      1.322238   -0.935775   -1.256413
  H      1.472747   -2.850902   -0.283997
  H      3.003539   -2.234041   -0.862535
  H      1.376444    1.058920   -2.047420
  H      2.015341    0.929780   -0.426535
  H      0.316648   -0.787213   -0.848278
  H      1.185611   -1.379252   -2.248613

 Total Charge           Charge          ....    0
 Multiplicity           Mult            ....    1
 Number of Electrons    NEL             ....  126
 Basis Dimension        Dim             ....  510

ORBITAL ENERGIES
----------------

  NO   OCC          E(Eh)            E(eV)
   0   2.0000     -24.871146      -676.7783
   1   2.0000     -19.249496      -523.8054
   2   2.0000     -14.381526      -391.3412
   3   2.0000     -14.355601      -390.6358
   4   2.0000     -10.436208      -283.9837
   5   2.0000     -10.272374      -279.5255
   6   2.0000     -10.255037      -279.0537
   7   2.0000     -10.253091      -279.0008
   8   2.0000     -10.236959      -278.5618
   9   2.0000     -10.231736      -278.4197
  10   2.0000     -10.225312      -278.2449
  11   2.0000     -10.217501      -278.0323
  12   2.0000     -10.210957      -277.8543
  13   2.0000     -10.202488      -277.6238
  14   2.0000     -10.197518      -277.4886
  15   2.0000     -10.131646      -275.6961
  16   2.0000      -1.357196       -36.9312
  17   2.0000      -1.082929       -29.4680
  18   2.0000      -0.956270       -26.0214
  19   2.0000      -0.863534       -23.4980
  20   2.0000      -0.850952       -23.1556
  21   2.0000      -0.821542       -22.3553
  22   2.0000      -0.792712       -21.5708
  23   2.0000      -0.763765       -20.7831
  24   2.0000      -0.725865       -19.7518
  25   2.0000      -0.706516       -19.2253
  26   2.0000      -0.679272       -18.4839
  27   2.0000      -0.651547       -17.7295
  28   2.0000      -0.620231       -16.8774
  29   2.0000      -0.603674       -16.4268
  30   2.0000      -0.587854       -15.9963
  31   2.0000      -0.576704       -15.6929
  32   2.0000      -0.575099       -15.6492
  33   2.0000      -0.566054       -15.4031
  34   2.0000      -0.542076       -14.7506
  35   2.0000      -0.532358       -14.4862
  36   2.0000      -0.503935       -13.7128
  37   2.0000      -0.496170       -13.5015
  38   2.0000      -0.492473       -13.4009
  39   2.0000      -0.475212       -12.9312
  40   2.0000      -0.462201       -12.5771
  41   2.0000      -0.452998       -12.3267
  42   2.0000      -0.442978       -12.0540
  43   2.0000      -0.433099       -11.7852
  44   2.0000      -0.430100       -11.7036
  45   2.0000      -0.422986       -11.5100
  46   2.0000      -0.406649       -11.0655
  47   2.0000      -0.403058       -10.9678
  48   2.0000      -0.385409       -10.4875
  49   2.0000      -0.379964       -10.3393
  50   2.0000      -0.376120       -10.2347
  51   2.0000      -0.374499       -10.1906
  52   2.0000      -0.362019        -9.8510
  53   2.0000      -0.350849        -9.5471
  54   2.0000      -0.348400        -9.4804
  55   2.0000      -0.336301        -9.1512
  56   2.0000      -0.324906        -8.8411
  57   2.0000      -0.321262        -8.7420
  58   2.0000      -0.315844        -8.5946
  59   2.0000      -0.311063        -8.4645
  60   2.0000      -0.305007        -8.2997
  61   2.0000      -0.256298        -6.9742
  62   2.0000      -0.153726        -4.1831
  63   0.0000      -0.048987        -1.3330
  64   0.0000       0.020518         0.5583
  65   0.0000       0.034387         0.9357
  66   0.0000       0.037561         1.0221
  67   0.0000       0.040844         1.1114

MULLIKEN ATOMIC CHARGES
-----------------------
   0 C :    0.458611
   1 C :    0.016933
   2 C :    0.293245
   3 C :    0.105209
   4 H :   -0.044378
   5 H :    0.236358
   6 C :    0.670440
   7 C :    0.973299
   8 N :   -0.173878
   9 N :    0.127993
  10 H :   -0.167205
  11 H :   -0.292501
  12 H :   -0.484913
  13 H :   -0.012370
  14 H :   -0.260221
  15 F :   -0.544571
  16 O :   -0.559712
  17 C :    0.251866
  18 H :    0.067993
  19 H :   -0.165893
  20 C :   -0.244369
  21 C :   -0.259670
  22 H :    0.075418
  23 H :   -0.099100
  24 H :    0.086804
  25 H :   -0.047927
  26 C :    0.366034
  27 H :   -0.039589
  28 H :   -0.002349
  29 C :   -0.149947
  30 H :    0.104378
  31 H :   -0.760885
  32 C :    0.564739
  33 H :   -0.331805
  34 H :    0.196610
  35 H :   -0.339199
  36 H :    0.252433
  37 H :    0.072953
  38 H :    0.059166
Sum of atomic charges:   -0.0000000

LOEWDIN ATOMIC CHARGES
----------------------
   0 C :   -0.054040
   1 C :   -0.023298
   2 C :   -0.014625
   3 C :    0.057211
   4 H :    0.045869
   5 H :    0.025688
   6 C :    0.066447
   7 C :   -0.193385
   8 N :    0.195669
   9 N :    0.200819
  10 H :   -0.006750
  11 H :   -0.117954
  12 H :   -0.106484
  13 H :   -0.018364
  14 H :   -0.014662
  15 F :   -0.038813
  16 O :   -0.106084
  17 C :   -0.030982
  18 H :    0.019754
  19 H :    0.000604
  20 C :   -0.039954
  21 C :   -0.030223
  22 H :    0.018147
  23 H :    0.034824
  24 H :    0.031448
  25 H :    0.031735
  26 C :   -0.036798
  27 H :    0.018046
  28 H :    0.021681
  29 C :   -0.042699
  30 H :    0.036335
  31 H :   -0.020018
  32 C :   -0.035242
  33 H :    0.026314
  34 H :    0.020132
  35 H :    0.026461
  36 H :    0.005885
  37 H :    0.024539
  38 H :    0.022764

  Mayer bond orders larger than 0.100000
B(  0-C ,  1-C ) :   0.9703 B(  0-C , 12-H ) :   0.6080 B(  0-C , 17-C ) :   1.0352
B(  0-C , 18-H ) :   0.7243 B(  0-C , 19-H ) :   0.7106 B(  0-C , 28-H ) :   0.1118
B(  1-C ,  7-C ) :   1.8338 B(  1-C ,  8-N ) :   0.2554 B(  1-C ,  9-N ) :   0.2405
B(  1-C , 13-H ) :  -0.1195 B(  1-C , 18-H ) :   0.2639 B(  1-C , 19-H ) :   0.2753
B(  2-C ,  3-C ) :   1.1869 B(  2-C ,  4-H ) :   0.1546 B(  2-C , 21-C ) :   1.2764
B(  2-C , 24-H ) :   0.7123 B(  2-C , 25-H ) :   0.8546 B(  3-C ,  4-H ) :   0.6906
B(  3-C ,  5-H ) :   0.7649 B(  3-C ,  6-C ) :   1.2762 B(  3-C , 24-H ) :   0.1078
B(  3-C , 25-H ) :   0.1287 B(  4-H ,  6-C ) :   0.2658 B(  5-H ,  6-C ) :   0.1608
B(  6-C , 15-F ) :   0.6260 B(  6-C , 16-O ) :   1.5168 B(  7-C ,  8-N ) :   0.6949
B(  7-C ,  9-N ) :   0.7045 B(  7-C , 11-H ) :  -0.2570 B(  7-C , 12-H ) :   0.3040
B(  7-C , 14-H ) :  -0.1833 B(  8-N ,  9-N ) :   0.1032 B(  8-N , 13-H ) :   1.0169
B(  8-N , 14-H ) :   1.3358 B(  9-N , 10-H ) :   1.1893 B(  9-N , 11-H ) :   1.1842
B( 10-H , 11-H ) :  -0.2106 B( 12-H , 15-F ) :   0.1652 B( 13-H , 14-H ) :  -0.1838
B( 17-C , 26-C ) :   1.1279 B( 17-C , 27-H ) :   0.8872 B( 17-C , 28-H ) :   0.9198
B( 17-C , 30-H ) :   0.1426 B( 20-C , 21-C ) :   1.2169 B( 20-C , 23-H ) :   0.1458
B( 20-C , 32-C ) :   1.1667 B( 20-C , 35-H ) :   1.1031 B( 20-C , 36-H ) :   0.8015
B( 20-C , 37-H ) :   0.2341 B( 20-C , 38-H ) :   0.1304 B( 21-C , 22-H ) :   0.9273
B( 21-C , 23-H ) :   0.9078 B( 21-C , 24-H ) :   0.2034 B( 21-C , 25-H ) :   0.1707
B( 21-C , 35-H ) :   0.1104 B( 26-C , 27-H ) :   0.1583 B( 26-C , 28-H ) :   0.1188
B( 26-C , 29-C ) :   1.2495 B( 26-C , 30-H ) :   0.6756 B( 26-C , 31-H ) :   0.5875
B( 26-C , 33-H ) :   0.1285 B( 26-C , 34-H ) :   0.1149 B( 29-C , 32-C ) :   1.1359
B( 29-C , 33-H ) :   1.0871 B( 29-C , 34-H ) :   0.8327 B( 29-C , 37-H ) :   0.1146
B( 29-C , 38-H ) :   0.2048 B( 30-H , 31-H ) :   0.2222 B( 32-C , 37-H ) :   0.7017
B( 32-C , 38-H ) :   0.7132

Dispersion correction           -0.038993874
FINAL SINGLE POINT ENERGY      -754.331176761642

DIPOLE MOMENT
-------------
                                X             Y             Z
Electronic contribution:     11.29956       8.96792       5.89338
Nuclear contribution   :    -11.48003      -8.36271      -6.78621
                        -----------------------------------------
Total Dipole Moment    :     -0.18047       0.60521      -0.89284
                        -----------------------------------------
Magnitude (a.u.)       :      1.09362
Magnitude (Debye)      :      2.77975

Rotational constants in cm-1:     0.020055     0.013548     0.009477
Rotational constants in MHz :   601.234832   406.162779   284.104317

                             ****ORCA TERMINATED NORMALLY****
TOTAL RUN TIME: 0 days 0 hours 4 minutes 15 seconds 108 msec
