                         Program Version 5.0.0 -  RELEASE  -
|  1> !PBE0 D3BJ RIJCOSX def2-SVPD def2/J TightSCF xyzfile
|  2>
|  3> *xyzfile 0 1 D2.xyz
|  4>
|  5> %MaxCore 64000
|  6>
|  7> %pal nprocs 4
|  8> end
|  9>
| 10> %scf
| 11>   MaxIter 150
| 12> end
| 13>
| 14>
| 15>                          ****END OF INPUT****

CARTESIAN COORDINATES (ANGSTROEM)
---------------------------------
  C      3.913853   -1.658291    3.015134
  N      5.039266   -0.901154    2.492821
  C      4.084215    1.742081   -2.114724
  C      4.265245    2.500518   -0.795890
  H      4.868534    3.392674   -0.981134
  H      3.307640    2.824571   -0.387809
  C      4.982240    1.650257    0.247422
  C      6.210384   -1.417261    2.178244
  C      6.535913   -2.677122    2.556078
  N      7.076754   -0.700820    1.478906
  H      7.954643   -1.121554    1.207554
  H      6.756161    0.106637    0.960278
  H      4.842168    0.017609    2.115191
  H      5.993876   -3.126918    3.282784
  H      7.498441   -2.975482    2.468776
  F      4.368065    1.389270    1.313706
  O      6.128919    1.233512   -0.045620
  C      3.139159   -2.376572    1.910609
  H      3.267235   -0.939401    3.520693
  H      4.247195   -2.355095    3.790065
  C      1.997274    0.430918   -1.399218
  C      3.412746    0.376886   -1.965497
  H      4.047407   -0.246590   -1.326706
  H      3.390774   -0.118719   -2.942839
  H      5.068475    1.598504   -2.565728
  H      3.503356    2.363939   -2.804565
  C      2.399946   -1.389579    1.009490
  H      2.440750   -3.087118    2.362976
  H      3.844475   -2.970462    1.318677
  C      2.070177   -1.936705   -0.372401
  H      1.481611   -1.061542    1.509912
  H      3.008628   -0.490001    0.897451
  C      1.322238   -0.935775   -1.256413
  H      1.472747   -2.850902   -0.283997
  H      3.003539   -2.234041   -0.862535
  H      1.376444    1.058920   -2.047420
  H      2.015341    0.929780   -0.426535
  H      0.316648   -0.787213   -0.848278
  H      1.185611   -1.379252   -2.248613

 Total Charge           Charge          ....    0
 Multiplicity           Mult            ....    1
 Number of Electrons    NEL             ....  126
 Basis Dimension        Dim             ....  510

ORBITAL ENERGIES
----------------

  NO   OCC          E(Eh)            E(eV)
   0   2.0000     -24.898375      -677.5192
   1   2.0000     -19.264048      -524.2014
   2   2.0000     -14.378718      -391.2648
   3   2.0000     -14.356506      -390.6604
   4   2.0000     -10.450668      -284.3771
   5   2.0000     -10.283836      -279.8374
   6   2.0000     -10.262221      -279.2492
   7   2.0000     -10.257530      -279.1216
   8   2.0000     -10.253307      -279.0067
   9   2.0000     -10.246228      -278.8141
  10   2.0000     -10.241256      -278.6788
  11   2.0000     -10.234529      -278.4957
  12   2.0000     -10.228332      -278.3271
  13   2.0000     -10.226926      -278.2888
  14   2.0000     -10.217865      -278.0422
  15   2.0000     -10.124596      -275.5043
  16   2.0000      -1.382836       -37.6289
  17   2.0000      -1.097410       -29.8620
  18   2.0000      -0.970466       -26.4077
  19   2.0000      -0.882846       -24.0235
  20   2.0000      -0.861647       -23.4466
  21   2.0000      -0.830201       -22.5909
  22   2.0000      -0.795360       -21.6428
  23   2.0000      -0.761917       -20.7328
  24   2.0000      -0.734569       -19.9886
  25   2.0000      -0.710288       -19.3279
  26   2.0000      -0.697245       -18.9730
  27   2.0000      -0.671393       -18.2695
  28   2.0000      -0.636914       -17.3313
  29   2.0000      -0.616645       -16.7798
  30   2.0000      -0.608560       -16.5598
  31   2.0000      -0.598317       -16.2810
  32   2.0000      -0.583338       -15.8734
  33   2.0000      -0.566452       -15.4139
  34   2.0000      -0.549945       -14.9648
  35   2.0000      -0.530945       -14.4478
  36   2.0000      -0.513672       -13.9777
  37   2.0000      -0.503509       -13.7012
  38   2.0000      -0.503192       -13.6926
  39   2.0000      -0.484318       -13.1790
  40   2.0000      -0.470346       -12.7988
  41   2.0000      -0.463251       -12.6057
  42   2.0000      -0.451146       -12.2763
  43   2.0000      -0.444440       -12.0938
  44   2.0000      -0.434792       -11.8313
  45   2.0000      -0.424156       -11.5419
  46   2.0000      -0.418973       -11.4008
  47   2.0000      -0.406535       -11.0624
  48   2.0000      -0.396731       -10.7956
  49   2.0000      -0.392031       -10.6677
  50   2.0000      -0.383775       -10.4430
  51   2.0000      -0.376377       -10.2417
  52   2.0000      -0.373244       -10.1565
  53   2.0000      -0.363728        -9.8975
  54   2.0000      -0.356934        -9.7127
  55   2.0000      -0.351996        -9.5783
  56   2.0000      -0.342028        -9.3070
  57   2.0000      -0.331533        -9.0215
  58   2.0000      -0.330995        -9.0068
  59   2.0000      -0.328642        -8.9428
  60   2.0000      -0.324556        -8.8316
  61   2.0000      -0.240259        -6.5378
  62   2.0000      -0.154767        -4.2114
  63   0.0000      -0.063838        -1.7371
  64   0.0000       0.010574         0.2877
  65   0.0000       0.029080         0.7913
  66   0.0000       0.031836         0.8663
  67   0.0000       0.037005         1.0070

MULLIKEN ATOMIC CHARGES
-----------------------
   0 C :    1.047695
   1 N :    0.096027
   2 C :    0.285357
   3 C :    0.103714
   4 H :   -0.042973
   5 H :    0.232734
   6 C :    0.714796
   7 C :    0.797463
   8 C :    0.479780
   9 N :    0.221016
  10 H :   -0.077083
  11 H :   -0.451796
  12 H :   -1.043370
  13 H :   -0.021731
  14 H :   -0.559761
  15 F :   -0.565354
  16 O :   -0.578391
  17 C :    0.170956
  18 H :   -0.289634
  19 H :   -0.058478
  20 C :   -0.227949
  21 C :   -0.260353
  22 H :    0.069976
  23 H :   -0.099308
  24 H :    0.090853
  25 H :   -0.045282
  26 C :    0.367217
  27 H :   -0.074173
  28 H :    0.042505
  29 C :   -0.116396
  30 H :    0.022198
  31 H :   -0.684300
  32 C :    0.561989
  33 H :   -0.318921
  34 H :    0.182734
  35 H :   -0.327259
  36 H :    0.232146
  37 H :    0.069487
  38 H :    0.053872
Sum of atomic charges:   -0.0000000

LOEWDIN ATOMIC CHARGES
----------------------
   0 C :    0.063694
   1 N :    0.000689
   2 C :   -0.012559
   3 C :    0.058444
   4 H :    0.047531
   5 H :    0.025959
   6 C :    0.061989
   7 C :   -0.217449
   8 C :    0.148106
   9 N :    0.208639
  10 H :    0.011904
  11 H :   -0.127898
  12 H :   -0.056833
  13 H :   -0.123983
  14 H :   -0.108497
  15 F :   -0.031337
  16 O :   -0.102085
  17 C :   -0.014794
  18 H :    0.024823
  19 H :    0.014808
  20 C :   -0.039991
  21 C :   -0.029561
  22 H :    0.017697
  23 H :    0.036538
  24 H :    0.033007
  25 H :    0.033304
  26 C :   -0.042796
  27 H :    0.026043
  28 H :    0.022367
  29 C :   -0.039741
  30 H :    0.035725
  31 H :   -0.024328
  32 C :   -0.033358
  33 H :    0.028806
  34 H :    0.022841
  35 H :    0.027708
  36 H :    0.004629
  37 H :    0.025360
  38 H :    0.024599

  Mayer bond orders larger than 0.100000
B(  0-C ,  1-N ) :   0.8700 B(  0-C , 12-H ) :  -0.4488 B(  0-C , 17-C ) :   1.0579
B(  0-C , 18-H ) :   0.7575 B(  0-C , 19-H ) :   0.7900 B(  0-C , 26-C ) :   0.1098
B(  1-N ,  7-C ) :   0.8372 B(  1-N ,  8-C ) :   0.4144 B(  1-N , 12-H ) :   0.9634
B(  1-N , 18-H ) :   0.2052 B(  2-C ,  3-C ) :   1.1949 B(  2-C ,  4-H ) :   0.1585
B(  2-C , 21-C ) :   1.2798 B(  2-C , 24-H ) :   0.7153 B(  2-C , 25-H ) :   0.8559
B(  3-C ,  4-H ) :   0.7098 B(  3-C ,  5-H ) :   0.7638 B(  3-C ,  6-C ) :   1.2485
B(  3-C , 24-H ) :   0.1031 B(  3-C , 25-H ) :   0.1244 B(  4-H ,  6-C ) :   0.2470
B(  5-H ,  6-C ) :   0.1540 B(  6-C , 15-F ) :   0.5670 B(  6-C , 16-O ) :   1.5423
B(  7-C ,  8-C ) :   1.6282 B(  7-C ,  9-N ) :   0.8291 B(  7-C , 11-H ) :  -0.1448
B(  7-C , 12-H ) :  -0.5158 B(  7-C , 13-H ) :   0.3214 B(  7-C , 14-H ) :   0.3530
B(  8-C ,  9-N ) :   0.2550 B(  8-C , 13-H ) :   0.6295 B(  8-C , 14-H ) :   0.6819
B(  9-N , 10-H ) :   1.1596 B(  9-N , 11-H ) :   1.0754 B( 10-H , 11-H ) :  -0.2535
B( 11-H , 16-O ) :   0.1169 B( 12-H , 15-F ) :   0.2451 B( 12-H , 18-H ) :   0.1168
B( 13-H , 19-H ) :   0.1390 B( 17-C , 19-H ) :   0.1180 B( 17-C , 26-C ) :   1.1329
B( 17-C , 27-H ) :   0.9477 B( 17-C , 28-H ) :   0.9326 B( 17-C , 30-H ) :   0.1157
B( 18-H , 19-H ) :  -0.2168 B( 20-C , 21-C ) :   1.2116 B( 20-C , 23-H ) :   0.1465
B( 20-C , 32-C ) :   1.1829 B( 20-C , 35-H ) :   1.0792 B( 20-C , 36-H ) :   0.8107
B( 20-C , 37-H ) :   0.2355 B( 20-C , 38-H ) :   0.1350 B( 21-C , 22-H ) :   0.9318
B( 21-C , 23-H ) :   0.9117 B( 21-C , 24-H ) :   0.1988 B( 21-C , 25-H ) :   0.1718
B( 21-C , 35-H ) :   0.1159 B( 26-C , 27-H ) :   0.1413 B( 26-C , 29-C ) :   1.2572
B( 26-C , 30-H ) :   0.6843 B( 26-C , 31-H ) :   0.5915 B( 26-C , 33-H ) :   0.1070
B( 26-C , 34-H ) :   0.1343 B( 27-H , 31-H ) :   0.1001 B( 29-C , 31-H ) :   0.1012
B( 29-C , 32-C ) :   1.1339 B( 29-C , 33-H ) :   1.0882 B( 29-C , 34-H ) :   0.8316
B( 29-C , 37-H ) :   0.1137 B( 29-C , 38-H ) :   0.1928 B( 30-H , 31-H ) :   0.2708
B( 32-C , 37-H ) :   0.6986 B( 32-C , 38-H ) :   0.7293

Dispersion correction           -0.038794682
FINAL SINGLE POINT ENERGY      -754.326471538613

DIPOLE MOMENT
-------------
                                X             Y             Z
Electronic contribution:      9.75985      10.52906       5.53175
Nuclear contribution   :    -11.22009      -8.67117      -6.77523
                        -----------------------------------------
Total Dipole Moment    :     -1.46024       1.85789      -1.24348
                        -----------------------------------------
Magnitude (a.u.)       :      2.67027
Magnitude (Debye)      :      6.78728

Rotational constants in cm-1:     0.020086     0.013778     0.009581
Rotational constants in MHz :   602.172053   413.051122   287.243919

                             ****ORCA TERMINATED NORMALLY****
TOTAL RUN TIME: 0 days 0 hours 3 minutes 59 seconds 247 msec
