                         Program Version 5.0.0 -  RELEASE  -
|  1> !PBE0 D3BJ RIJCOSX def2-SVPD def2/J TightSCF xyzfile
|  2>
|  3> *xyzfile 0 1 D4.xyz
|  4>
|  5> %MaxCore 64000
|  6>
|  7> %pal nprocs 4
|  8> end
|  9>
| 10> %scf
| 11>   MaxIter 150
| 12> end
| 13>
| 14>
| 15>                          ****END OF INPUT****

CARTESIAN COORDINATES (ANGSTROEM)
---------------------------------
  C      3.913853   -1.658291    3.015134
  C      5.039266   -0.901154    2.492821
  C      4.084215    1.742081   -2.114724
  C      4.265245    2.500518   -0.795890
  H      4.868534    3.392674   -0.981134
  H      3.307640    2.824571   -0.387809
  C      4.982240    1.650257    0.247422
  C      6.210384   -1.417261    2.178244
  N      6.535913   -2.677122    2.556078
  N      7.076754   -0.700820    1.478906
  H      7.954643   -1.121554    1.207554
  H      6.756161    0.106637    0.960278
  H      4.842168    0.017609    2.115191
  H      5.993876   -3.126918    3.282784
  H      7.498441   -2.975482    2.468776
  O      4.368065    1.389270    1.313706
  F      6.128919    1.233512   -0.045620
  C      3.139159   -2.376572    1.910609
  H      3.267235   -0.939401    3.520693
  H      4.247195   -2.355095    3.790065
  C      1.997274    0.430918   -1.399218
  C      3.412746    0.376886   -1.965497
  H      4.047407   -0.246590   -1.326706
  H      3.390774   -0.118719   -2.942839
  H      5.068475    1.598504   -2.565728
  H      3.503356    2.363939   -2.804565
  C      2.399946   -1.389579    1.009490
  H      2.440750   -3.087118    2.362976
  H      3.844475   -2.970462    1.318677
  C      2.070177   -1.936705   -0.372401
  H      1.481611   -1.061542    1.509912
  H      3.008628   -0.490001    0.897451
  C      1.322238   -0.935775   -1.256413
  H      1.472747   -2.850902   -0.283997
  H      3.003539   -2.234041   -0.862535
  H      1.376444    1.058920   -2.047420
  H      2.015341    0.929780   -0.426535
  H      0.316648   -0.787213   -0.848278
  H      1.185611   -1.379252   -2.248613

 Total Charge           Charge          ....    0
 Multiplicity           Mult            ....    1
 Number of Electrons    NEL             ....  126
 Basis Dimension        Dim             ....  510

ORBITAL ENERGIES
----------------

  NO   OCC          E(Eh)            E(eV)
   0   2.0000     -24.884447      -677.1402
   1   2.0000     -19.239544      -523.5346
   2   2.0000     -14.380929      -391.3250
   3   2.0000     -14.371527      -391.0691
   4   2.0000     -10.430104      -283.8175
   5   2.0000     -10.270724      -279.4806
   6   2.0000     -10.255460      -279.0652
   7   2.0000     -10.252917      -278.9960
   8   2.0000     -10.238265      -278.5974
   9   2.0000     -10.227753      -278.3113
  10   2.0000     -10.221617      -278.1443
  11   2.0000     -10.212879      -277.9066
  12   2.0000     -10.201782      -277.6046
  13   2.0000     -10.197336      -277.4836
  14   2.0000     -10.191009      -277.3114
  15   2.0000     -10.122154      -275.4378
  16   2.0000      -1.370263       -37.2868
  17   2.0000      -1.071751       -29.1638
  18   2.0000      -0.960525       -26.1372
  19   2.0000      -0.870002       -23.6740
  20   2.0000      -0.851943       -23.1825
  21   2.0000      -0.817727       -22.2515
  22   2.0000      -0.788722       -21.4622
  23   2.0000      -0.759750       -20.6738
  24   2.0000      -0.728003       -19.8100
  25   2.0000      -0.705087       -19.1864
  26   2.0000      -0.684232       -18.6189
  27   2.0000      -0.648694       -17.6518
  28   2.0000      -0.619924       -16.8690
  29   2.0000      -0.607734       -16.5373
  30   2.0000      -0.596202       -16.2235
  31   2.0000      -0.586727       -15.9657
  32   2.0000      -0.567391       -15.4395
  33   2.0000      -0.555973       -15.1288
  34   2.0000      -0.547200       -14.8901
  35   2.0000      -0.528546       -14.3825
  36   2.0000      -0.500818       -13.6280
  37   2.0000      -0.496303       -13.5051
  38   2.0000      -0.493106       -13.4181
  39   2.0000      -0.473056       -12.8725
  40   2.0000      -0.464276       -12.6336
  41   2.0000      -0.452407       -12.3106
  42   2.0000      -0.442723       -12.0471
  43   2.0000      -0.427152       -11.6234
  44   2.0000      -0.422703       -11.5023
  45   2.0000      -0.416353       -11.3295
  46   2.0000      -0.408032       -11.1031
  47   2.0000      -0.399449       -10.8696
  48   2.0000      -0.392175       -10.6716
  49   2.0000      -0.386618       -10.5204
  50   2.0000      -0.375857       -10.2276
  51   2.0000      -0.373854       -10.1731
  52   2.0000      -0.354740        -9.6530
  53   2.0000      -0.346403        -9.4261
  54   2.0000      -0.344923        -9.3858
  55   2.0000      -0.340014        -9.2522
  56   2.0000      -0.320319        -8.7163
  57   2.0000      -0.314501        -8.5580
  58   2.0000      -0.309000        -8.4083
  59   2.0000      -0.304933        -8.2977
  60   2.0000      -0.277577        -7.5533
  61   2.0000      -0.262353        -7.1390
  62   2.0000      -0.151183        -4.1139
  63   0.0000      -0.042838        -1.1657
  64   0.0000       0.015354         0.4178
  65   0.0000       0.032658         0.8887
  66   0.0000       0.039145         1.0652
  67   0.0000       0.041259         1.1227

MULLIKEN ATOMIC CHARGES
-----------------------
   0 C :    0.437936
   1 C :   -0.095653
   2 C :    0.294761
   3 C :    0.144177
   4 H :   -0.032409
   5 H :    0.191583
   6 C :    0.736628
   7 C :    0.972095
   8 N :   -0.183590
   9 N :    0.164020
  10 H :   -0.170114
  11 H :   -0.268731
  12 H :   -0.382491
  13 H :   -0.017012
  14 H :   -0.261781
  15 O :   -0.667088
  16 F :   -0.506959
  17 C :    0.246961
  18 H :    0.076300
  19 H :   -0.170048
  20 C :   -0.268833
  21 C :   -0.246409
  22 H :    0.084812
  23 H :   -0.105825
  24 H :    0.049370
  25 H :   -0.050439
  26 C :    0.401003
  27 H :   -0.040646
  28 H :   -0.002332
  29 C :   -0.147237
  30 H :    0.090994
  31 H :   -0.768600
  32 C :    0.583087
  33 H :   -0.345347
  34 H :    0.195128
  35 H :   -0.344016
  36 H :    0.275355
  37 H :    0.077737
  38 H :    0.053614
Sum of atomic charges:   -0.0000000

LOEWDIN ATOMIC CHARGES
----------------------
   0 C :   -0.048847
   1 C :   -0.015275
   2 C :   -0.023473
   3 C :    0.059798
   4 H :    0.040330
   5 H :    0.035635
   6 C :    0.058278
   7 C :   -0.196947
   8 N :    0.193446
   9 N :    0.195620
  10 H :   -0.007347
  11 H :   -0.078385
  12 H :   -0.134852
  13 H :   -0.017932
  14 H :   -0.017393
  15 O :   -0.118145
  16 F :   -0.025768
  17 C :   -0.030485
  18 H :    0.022898
  19 H :   -0.000841
  20 C :   -0.035380
  21 C :   -0.031909
  22 H :    0.017097
  23 H :    0.033590
  24 H :    0.025738
  25 H :    0.031145
  26 C :   -0.032437
  27 H :    0.017087
  28 H :    0.019904
  29 C :   -0.044250
  30 H :    0.037476
  31 H :   -0.019832
  32 C :   -0.035435
  33 H :    0.025098
  34 H :    0.018134
  35 H :    0.026337
  36 H :    0.011072
  37 H :    0.024839
  38 H :    0.021411

  Mayer bond orders larger than 0.100000
B(  0-C ,  1-C ) :   1.0062 B(  0-C , 12-H ) :   0.6300 B(  0-C , 17-C ) :   1.0436
B(  0-C , 18-H ) :   0.7184 B(  0-C , 19-H ) :   0.6997 B(  0-C , 28-H ) :   0.1099
B(  1-C ,  7-C ) :   1.8648 B(  1-C ,  8-N ) :   0.2575 B(  1-C ,  9-N ) :   0.2589
B(  1-C , 12-H ) :   0.1855 B(  1-C , 13-H ) :  -0.1173 B(  1-C , 18-H ) :   0.2677
B(  1-C , 19-H ) :   0.2761 B(  2-C ,  3-C ) :   1.1857 B(  2-C ,  4-H ) :   0.1512
B(  2-C , 21-C ) :   1.2583 B(  2-C , 24-H ) :   0.7177 B(  2-C , 25-H ) :   0.8601
B(  3-C ,  4-H ) :   0.7032 B(  3-C ,  5-H ) :   0.7936 B(  3-C ,  6-C ) :   1.1927
B(  3-C , 24-H ) :   0.1027 B(  3-C , 25-H ) :   0.1286 B(  4-H ,  6-C ) :   0.2465
B(  5-H ,  6-C ) :   0.1581 B(  6-C , 15-O ) :   1.6965 B(  6-C , 16-F ) :   0.3986
B(  7-C ,  8-N ) :   0.6681 B(  7-C ,  9-N ) :   0.7022 B(  7-C , 11-H ) :  -0.2504
B(  7-C , 12-H ) :   0.2525 B(  7-C , 14-H ) :  -0.1898 B(  7-C , 19-H ) :  -0.1012
B(  8-N ,  9-N ) :   0.1010 B(  8-N , 13-H ) :   1.0215 B(  8-N , 14-H ) :   1.3432
B(  9-N , 10-H ) :   1.1972 B(  9-N , 11-H ) :   1.2068 B( 10-H , 11-H ) :  -0.1934
B( 13-H , 14-H ) :  -0.1850 B( 15-O , 16-F ) :   0.1220 B( 17-C , 26-C ) :   1.1287
B( 17-C , 27-H ) :   0.8836 B( 17-C , 28-H ) :   0.9223 B( 17-C , 30-H ) :   0.1431
B( 20-C , 21-C ) :   1.2399 B( 20-C , 23-H ) :   0.1429 B( 20-C , 32-C ) :   1.1609
B( 20-C , 35-H ) :   1.1092 B( 20-C , 36-H ) :   0.7920 B( 20-C , 37-H ) :   0.2308
B( 20-C , 38-H ) :   0.1301 B( 21-C , 22-H ) :   0.9012 B( 21-C , 23-H ) :   0.9217
B( 21-C , 24-H ) :   0.2095 B( 21-C , 25-H ) :   0.1588 B( 21-C , 35-H ) :   0.1113
B( 26-C , 27-H ) :   0.1618 B( 26-C , 28-H ) :   0.1097 B( 26-C , 29-C ) :   1.2524
B( 26-C , 30-H ) :   0.6609 B( 26-C , 31-H ) :   0.5543 B( 26-C , 33-H ) :   0.1234
B( 26-C , 34-H ) :   0.1160 B( 29-C , 32-C ) :   1.1338 B( 29-C , 33-H ) :   1.0893
B( 29-C , 34-H ) :   0.8322 B( 29-C , 37-H ) :   0.1152 B( 29-C , 38-H ) :   0.2051
B( 30-H , 31-H ) :   0.2518 B( 32-C , 37-H ) :   0.7042 B( 32-C , 38-H ) :   0.7090

Dispersion correction           -0.039117548
FINAL SINGLE POINT ENERGY      -754.318843491000

DIPOLE MOMENT
-------------
                                X             Y             Z
Electronic contribution:     14.28323       8.76546       3.67505
Nuclear contribution   :    -13.61164      -8.17416      -5.14068
                        -----------------------------------------
Total Dipole Moment    :      0.67159       0.59130      -1.46563
                        -----------------------------------------
Magnitude (a.u.)       :      1.71719
Magnitude (Debye)      :      4.36474

Rotational constants in cm-1:     0.019858     0.013613     0.009401
Rotational constants in MHz :   595.331791   408.100423   281.843625

                             ****ORCA TERMINATED NORMALLY****
TOTAL RUN TIME: 0 days 0 hours 4 minutes 19 seconds 287 msec
