                         Program Version 5.0.0 -  RELEASE  -
|  1> !LC-BLYP RIJCOSX def2-SVPD def2/J TightSCF
|  2> *xyz -1 1
|  3> C         -0.46129        2.23469       -4.98962
|  4> C          0.84888        2.66797       -4.30235
|  5> C          2.09343        1.86104       -4.65684
|  6> H          2.44481        2.04157       -5.67499
|  7> H          2.90175        2.13786       -3.98034
|  8> S          1.87964        0.07859       -4.46297
|  9> O          3.20757       -0.46611       -4.42026
| 10> O          1.07506       -0.05616       -3.26876
| 11> O          1.13166       -0.31996       -5.67903
| 12> H          0.66843        2.55943       -3.23285
| 13> H          1.03407        3.72943       -4.49708
| 14> H         -0.35183        2.31783       -6.05075
| 15> H         -1.26108        2.86600       -4.66300
| 16> H         -0.68032        1.21949       -4.73211
| 17> *
| 18>
| 19> %MaxCore 64000
| 20>
| 21> %pal nprocs 8
| 22> end
| 23>
| 24> %scf
| 25>   MaxIter 150
| 26> end
| 27>
| 28>
| 29>                          ****END OF INPUT****

CARTESIAN COORDINATES (ANGSTROEM)
---------------------------------
  C     -0.461290    2.234690   -4.989620
  C      0.848880    2.667970   -4.302350
  C      2.093430    1.861040   -4.656840
  H      2.444810    2.041570   -5.674990
  H      2.901750    2.137860   -3.980340
  S      1.879640    0.078590   -4.462970
  O      3.207570   -0.466110   -4.420260
  O      1.075060   -0.056160   -3.268760
  O      1.131660   -0.319960   -5.679030
  H      0.668430    2.559430   -3.232850
  H      1.034070    3.729430   -4.497080
  H     -0.351830    2.317830   -6.050750
  H     -1.261080    2.866000   -4.663000
  H     -0.680320    1.219490   -4.732110

 Total Charge           Charge          ....   -1
 Multiplicity           Mult            ....    1
 Number of Electrons    NEL             ....   66
 Basis Dimension        Dim             ....  212

ORBITAL ENERGIES
----------------

  NO   OCC          E(Eh)            E(eV)
   0   2.0000     -88.313213     -2403.1247
   1   2.0000     -18.745880      -510.1013
   2   2.0000     -18.743764      -510.0438
   3   2.0000     -18.730173      -509.6739
   4   2.0000      -9.953959      -270.8610
   5   2.0000      -9.947849      -270.6947
   6   2.0000      -9.931965      -270.2625
   7   2.0000      -7.861921      -213.9338
   8   2.0000      -5.896304      -160.4466
   9   2.0000      -5.896107      -160.4412
  10   2.0000      -5.895664      -160.4292
  11   2.0000      -1.038237       -28.2519
  12   2.0000      -0.894882       -24.3510
  13   2.0000      -0.869045       -23.6479
  14   2.0000      -0.758964       -20.6525
  15   2.0000      -0.669035       -18.2054
  16   2.0000      -0.572949       -15.5907
  17   2.0000      -0.487007       -13.2521
  18   2.0000      -0.442073       -12.0294
  19   2.0000      -0.424822       -11.5600
  20   2.0000      -0.403084       -10.9685
  21   2.0000      -0.387317       -10.5394
  22   2.0000      -0.368453       -10.0261
  23   2.0000      -0.355437        -9.6719
  24   2.0000      -0.324676        -8.8349
  25   2.0000      -0.315092        -8.5741
  26   2.0000      -0.295294        -8.0354
  27   2.0000      -0.261380        -7.1125
  28   2.0000      -0.258506        -7.0343
  29   2.0000      -0.224235        -6.1017
  30   2.0000      -0.213055        -5.7975
  31   2.0000      -0.201321        -5.4782
  32   2.0000      -0.170380        -4.6363
  33   0.0000       0.187077         5.0906
  34   0.0000       0.206846         5.6286
  35   0.0000       0.211532         5.7561
  36   0.0000       0.217060         5.9065
  37   0.0000       0.236933         6.4473

MULLIKEN ATOMIC CHARGES
-----------------------
   0 C :    1.029565
   1 C :   -0.088680
   2 C :    0.270932
   3 H :   -0.119671
   4 H :   -0.118294
   5 S :    1.044864
   6 O :   -0.719227
   7 O :   -0.738152
   8 O :   -0.746603
   9 H :   -0.016461
  10 H :   -0.303344
  11 H :   -0.147024
  12 H :   -0.209010
  13 H :   -0.138895
Sum of atomic charges:   -1.0000000

LOEWDIN ATOMIC CHARGES
----------------------
   0 C :    0.108473
   1 C :   -0.104802
   2 C :   -0.103427
   3 H :    0.013936
   4 H :    0.005751
   5 S :    0.804415
   6 O :   -0.550444
   7 O :   -0.548037
   8 O :   -0.570975
   9 H :    0.014732
  10 H :    0.009870
  11 H :   -0.015959
  12 H :   -0.030670
  13 H :   -0.032864

  Mayer bond orders larger than 0.100000
B(  0-C ,  1-C ) :   1.2614 B(  0-C ,  9-H ) :   0.1181 B(  0-C , 11-H ) :   0.6933
B(  0-C , 12-H ) :   0.6883 B(  0-C , 13-H ) :   0.7401 B(  1-C ,  2-C ) :   1.2466
B(  1-C ,  3-H ) :   0.1489 B(  1-C ,  4-H ) :   0.1620 B(  1-C ,  9-H ) :   0.8230
B(  1-C , 10-H ) :   0.8700 B(  1-C , 11-H ) :   0.2412 B(  1-C , 12-H ) :   0.2497
B(  1-C , 13-H ) :   0.2447 B(  2-C ,  3-H ) :   0.8912 B(  2-C ,  4-H ) :   0.8795
B(  2-C ,  5-S ) :   0.8993 B(  2-C ,  9-H ) :   0.1409 B(  2-C , 10-H ) :   0.1419
B(  5-S ,  6-O ) :   1.4533 B(  5-S ,  7-O ) :   1.3435 B(  5-S ,  8-O ) :   1.3166

FINAL SINGLE POINT ENERGY      -741.112289755301

DIPOLE MOMENT
-------------
                                X             Y             Z
Electronic contribution:      4.87756      -8.98422       1.03695
Nuclear contribution   :     -5.21326      11.14780      -1.06438
                        -----------------------------------------
Total Dipole Moment    :     -0.33570       2.16358      -0.02743
                        -----------------------------------------
Magnitude (a.u.)       :      2.18964
Magnitude (Debye)      :      5.56563

Rotational constants in cm-1:     0.135673     0.057896     0.054396
Rotational constants in MHz :  4067.361083  1735.682437  1630.763840

                             ****ORCA TERMINATED NORMALLY****
TOTAL RUN TIME: 0 days 0 hours 0 minutes 18 seconds 29 msec
