                         Program Version 5.0.0 -  RELEASE  -
|  1> !LC-BLYP RIJCOSX def2-SVPD def2/J TightSCF
|  2> *xyz 1 1
|  3> C         -0.46129        2.23469       -4.98962
|  4> C          0.84888        2.66797       -4.30235
|  5> C          2.09343        1.86104       -4.65684
|  6> C         -0.42384        2.39877       -6.47432
|  7> N         -0.95947        3.49265       -7.00740
|  8> N          0.14558        1.48689       -7.20399
|  9> H          0.56537        0.69681       -6.72386
| 10> H          0.22068        1.58177       -8.20752
| 11> H         -1.40624        4.18151       -6.40326
| 12> H         -0.93421        3.68160       -7.99947
| 13> H          0.66843        2.55943       -3.23285
| 14> H          1.03407        3.72943       -4.49708
| 15> H         -1.28888        2.82674       -4.59500
| 16> H         -0.65170        1.18634       -4.75655
| 17> H          2.29129        1.95234       -5.70442
| 18> H          1.93270        0.83176       -4.41261
| 19> H          2.92953        2.23285       -4.10223
| 20> *
| 21>
| 22> %MaxCore 64000
| 23>
| 24> %pal nprocs 8
| 25> end
| 26>
| 27> %scf
| 28>   MaxIter 150
| 29> end
| 30>
| 31>
| 32>                          ****END OF INPUT****

CARTESIAN COORDINATES (ANGSTROEM)
---------------------------------
  C     -0.461290    2.234690   -4.989620
  C      0.848880    2.667970   -4.302350
  C      2.093430    1.861040   -4.656840
  C     -0.423840    2.398770   -6.474320
  N     -0.959470    3.492650   -7.007400
  N      0.145580    1.486890   -7.203990
  H      0.565370    0.696810   -6.723860
  H      0.220680    1.581770   -8.207520
  H     -1.406240    4.181510   -6.403260
  H     -0.934210    3.681600   -7.999470
  H      0.668430    2.559430   -3.232850
  H      1.034070    3.729430   -4.497080
  H     -1.288880    2.826740   -4.595000
  H     -0.651700    1.186340   -4.756550
  H      2.291290    1.952340   -5.704420
  H      1.932700    0.831760   -4.412610
  H      2.929530    2.232850   -4.102230

 Total Charge           Charge          ....    1
 Multiplicity           Mult            ....    1
 Number of Electrons    NEL             ....   48
 Basis Dimension        Dim             ....  208

ORBITAL ENERGIES
----------------

  NO   OCC          E(Eh)            E(eV)
   0   2.0000     -14.433881      -392.7659
   1   2.0000     -14.429881      -392.6570
   2   2.0000     -10.407019      -283.1894
   3   2.0000     -10.278664      -279.6967
   4   2.0000     -10.245825      -278.8031
   5   2.0000     -10.213999      -277.9370
   6   2.0000      -1.296414       -35.2772
   7   2.0000      -1.199707       -32.6457
   8   2.0000      -1.077664       -29.3247
   9   2.0000      -0.993353       -27.0305
  10   2.0000      -0.935356       -25.4523
  11   2.0000      -0.892272       -24.2799
  12   2.0000      -0.877417       -23.8757
  13   2.0000      -0.834295       -22.7023
  14   2.0000      -0.799913       -21.7668
  15   2.0000      -0.763407       -20.7733
  16   2.0000      -0.728664       -19.8280
  17   2.0000      -0.710304       -19.3284
  18   2.0000      -0.677262       -18.4292
  19   2.0000      -0.661851       -18.0099
  20   2.0000      -0.608734       -16.5645
  21   2.0000      -0.597321       -16.2539
  22   2.0000      -0.594798       -16.1853
  23   2.0000      -0.581827       -15.8323
  24   0.0000      -0.128033        -3.4840
  25   0.0000      -0.095811        -2.6072
  26   0.0000      -0.056321        -1.5326
  27   0.0000      -0.051516        -1.4018
  28   0.0000      -0.027779        -0.7559

MULLIKEN ATOMIC CHARGES
-----------------------
   0 C :    0.216597
   1 C :   -0.154568
   2 C :    1.044175
   3 C :    0.473386
   4 N :    0.193968
   5 N :    0.280704
   6 H :    0.075280
   7 H :   -0.166062
   8 H :    0.031789
   9 H :   -0.155263
  10 H :   -0.108116
  11 H :   -0.143776
  12 H :   -0.112196
  13 H :   -0.026275
  14 H :   -0.186859
  15 H :   -0.081511
  16 H :   -0.181273
Sum of atomic charges:    1.0000000

LOEWDIN ATOMIC CHARGES
----------------------
   0 C :    0.033193
   1 C :   -0.050536
   2 C :    0.124336
   3 C :   -0.063912
   4 N :    0.291870
   5 N :    0.299525
   6 H :    0.051055
   7 H :    0.056932
   8 H :    0.055216
   9 H :    0.045034
  10 H :    0.043636
  11 H :    0.038700
  12 H :    0.044922
  13 H :    0.052209
  14 H :   -0.027339
  15 H :   -0.001896
  16 H :    0.007055

  Mayer bond orders larger than 0.100000
B(  0-C ,  1-C ) :   1.2008 B(  0-C ,  3-C ) :   1.0852 B(  0-C ,  4-N ) :   0.1382
B(  0-C ,  5-N ) :   0.1456 B(  0-C , 10-H ) :   0.1437 B(  0-C , 11-H ) :   0.1043
B(  0-C , 12-H ) :   0.8510 B(  0-C , 13-H ) :   0.7965 B(  1-C ,  2-C ) :   1.2927
B(  1-C , 10-H ) :   0.8589 B(  1-C , 11-H ) :   0.9412 B(  1-C , 12-H ) :   0.1245
B(  1-C , 13-H ) :   0.1458 B(  1-C , 14-H ) :   0.2476 B(  1-C , 15-H ) :   0.2433
B(  1-C , 16-H ) :   0.2572 B(  2-C , 10-H ) :   0.1043 B(  2-C , 11-H ) :   0.1024
B(  2-C , 14-H ) :   0.7195 B(  2-C , 15-H ) :   0.7174 B(  2-C , 16-H ) :   0.7215
B(  3-C ,  4-N ) :   1.1508 B(  3-C ,  5-N ) :   1.2489 B(  3-C ,  7-H ) :  -0.1879
B(  3-C ,  8-H ) :  -0.1016 B(  3-C ,  9-H ) :  -0.1670 B(  3-C , 12-H ) :   0.1236
B(  3-C , 13-H ) :   0.1001 B(  4-N ,  5-N ) :   0.1590 B(  4-N ,  8-H ) :   1.0991
B(  4-N ,  9-H ) :   1.2881 B(  5-N ,  6-H ) :   1.0307 B(  5-N ,  7-H ) :   1.3244
B(  6-H ,  7-H ) :  -0.2012 B(  8-H ,  9-H ) :  -0.1902 B( 14-H , 15-H ) :   0.1032

FINAL SINGLE POINT ENERGY      -267.435555896702

DIPOLE MOMENT
-------------
                                X             Y             Z
Electronic contribution:     -3.55535       0.63002      -4.30762
Nuclear contribution   :      2.80679      -0.44323       2.95915
                        -----------------------------------------
Total Dipole Moment    :     -0.74856       0.18678      -1.34847
                        -----------------------------------------
Magnitude (a.u.)       :      1.55358
Magnitude (Debye)      :      3.94888

Rotational constants in cm-1:     0.187834     0.079484     0.065778
Rotational constants in MHz :  5631.136036  2382.861517  1971.985559

                             ****ORCA TERMINATED NORMALLY****
TOTAL RUN TIME: 0 days 0 hours 0 minutes 15 seconds 139 msec
