                         Program Version 5.0.0 -  RELEASE  -
|  1> !LC-BLYP RIJCOSX def2-SVPD def2/J TightSCF xyzfile
|  2>
|  3> *xyzfile 0 1 B.xyz
|  4>
|  5> %MaxCore 64000
|  6>
|  7> %pal nprocs 4
|  8> end
|  9>
| 10> %scf
| 11>   MaxIter 150
| 12> end
| 13>
| 14>
| 15>                          ****END OF INPUT****

CARTESIAN COORDINATES (ANGSTROEM)
---------------------------------
  C     -0.461293    2.234686   -4.989619
  C      0.848883    2.667967   -4.302351
  C      2.093434    1.861037   -4.656845
  H      2.444814    2.041567   -5.674990
  H      2.901748    2.137864   -3.980338
  S      1.879644    0.078594   -4.462965
  C     -0.423841    2.398772   -6.474317
  N     -0.959467    3.492647   -7.007401
  N      0.145585    1.486891   -7.203987
  H      0.565371    0.696807   -6.723858
  H      0.220682    1.581768   -8.207520
  H     -1.406243    4.181507   -6.403261
  H     -0.934215    3.681601   -7.999468
  O      3.207574   -0.466111   -4.420259
  O      1.075064   -0.056160   -3.268758
  O      1.131661   -0.319960   -5.679031
  H      0.668432    2.559427   -3.232850
  H      1.034074    3.729426   -4.497081
  H     -1.288884    2.826737   -4.594997
  H     -0.651696    1.186343   -4.756552

 Total Charge           Charge          ....    0
 Multiplicity           Mult            ....    1
 Number of Electrons    NEL             ....   88
 Basis Dimension        Dim             ....  296

ORBITAL ENERGIES
----------------

  NO   OCC          E(Eh)            E(eV)
   0   2.0000     -88.462930     -2407.1987
   1   2.0000     -18.897979      -514.2401
   2   2.0000     -18.884441      -513.8718
   3   2.0000     -18.882447      -513.8175
   4   2.0000     -14.300797      -389.1445
   5   2.0000     -14.268020      -388.2526
   6   2.0000     -10.265114      -279.3279
   7   2.0000     -10.137969      -275.8682
   8   2.0000     -10.118650      -275.3425
   9   2.0000     -10.095731      -274.7188
  10   2.0000      -8.010938      -217.9887
  11   2.0000      -6.045901      -164.5173
  12   2.0000      -6.044916      -164.4905
  13   2.0000      -6.044430      -164.4773
  14   2.0000      -1.186690       -32.2915
  15   2.0000      -1.154718       -31.4215
  16   2.0000      -1.059875       -28.8407
  17   2.0000      -1.033938       -28.1349
  18   2.0000      -1.030700       -28.0468
  19   2.0000      -0.942277       -25.6407
  20   2.0000      -0.864576       -23.5263
  21   2.0000      -0.800309       -21.7775
  22   2.0000      -0.760591       -20.6967
  23   2.0000      -0.740970       -20.1628
  24   2.0000      -0.711742       -19.3675
  25   2.0000      -0.669579       -18.2202
  26   2.0000      -0.629456       -17.1284
  27   2.0000      -0.628197       -17.0941
  28   2.0000      -0.593052       -16.1378
  29   2.0000      -0.581622       -15.8267
  30   2.0000      -0.555046       -15.1036
  31   2.0000      -0.546163       -14.8619
  32   2.0000      -0.522492       -14.2177
  33   2.0000      -0.513121       -13.9627
  34   2.0000      -0.494409       -13.4535
  35   2.0000      -0.479656       -13.0521
  36   2.0000      -0.461024       -12.5451
  37   2.0000      -0.448067       -12.1925
  38   2.0000      -0.410566       -11.1721
  39   2.0000      -0.405552       -11.0356
  40   2.0000      -0.372379       -10.1329
  41   2.0000      -0.362545        -9.8653
  42   2.0000      -0.352356        -9.5881
  43   2.0000      -0.320937        -8.7331
  44   0.0000       0.009742         0.2651
  45   0.0000       0.016126         0.4388
  46   0.0000       0.053457         1.4546
  47   0.0000       0.072242         1.9658
  48   0.0000       0.082815         2.2535

MULLIKEN ATOMIC CHARGES
-----------------------
   0 C :    0.337941
   1 C :    0.331654
   2 C :    0.348893
   3 H :   -0.006419
   4 H :   -0.236177
   5 S :    1.150630
   6 C :    0.389722
   7 N :    0.238069
   8 N :    0.686790
   9 H :   -0.342797
  10 H :   -0.198905
  11 H :   -0.027761
  12 H :   -0.209801
  13 O :   -0.659417
  14 O :   -0.716695
  15 O :   -0.756171
  16 H :    0.076695
  17 H :   -0.288137
  18 H :   -0.162594
  19 H :    0.044480
Sum of atomic charges:    0.0000000

LOEWDIN ATOMIC CHARGES
----------------------
   0 C :    0.044217
   1 C :   -0.024628
   2 C :   -0.077997
   3 H :    0.014629
   4 H :    0.025243
   5 S :    0.885614
   6 C :   -0.057920
   7 N :    0.260253
   8 N :    0.320135
   9 H :   -0.127434
  10 H :    0.046969
  11 H :    0.036814
  12 H :    0.027299
  13 O :   -0.494973
  14 O :   -0.506359
  15 O :   -0.509417
  16 H :    0.038691
  17 H :    0.028737
  18 H :    0.036138
  19 H :    0.033988

  Mayer bond orders larger than 0.100000
B(  0-C ,  1-C ) :   1.1799 B(  0-C ,  6-C ) :   1.1199 B(  0-C ,  8-N ) :   0.1026
B(  0-C , 16-H ) :   0.1757 B(  0-C , 18-H ) :   0.7214 B(  0-C , 19-H ) :   0.7937
B(  1-C ,  2-C ) :   1.2879 B(  1-C ,  3-H ) :   0.1441 B(  1-C ,  4-H ) :   0.2168
B(  1-C , 16-H ) :   0.7685 B(  1-C , 17-H ) :   0.8125 B(  1-C , 18-H ) :   0.1674
B(  1-C , 19-H ) :   0.1587 B(  2-C ,  3-H ) :   0.8675 B(  2-C ,  4-H ) :   0.7594
B(  2-C ,  5-S ) :   0.8711 B(  2-C , 15-O ) :   0.1265 B(  2-C , 16-H ) :   0.1609
B(  2-C , 17-H ) :   0.1378 B(  4-H ,  5-S ) :   0.1126 B(  5-S , 13-O ) :   1.5045
B(  5-S , 14-O ) :   1.3979 B(  5-S , 15-O ) :   1.1929 B(  6-C ,  7-N ) :   1.0880
B(  6-C ,  8-N ) :   1.2277 B(  6-C , 10-H ) :  -0.2328 B(  6-C , 11-H ) :  -0.1315
B(  6-C , 12-H ) :  -0.1554 B(  6-C , 18-H ) :   0.1657 B(  6-C , 19-H ) :   0.1067
B(  7-N ,  8-N ) :   0.1510 B(  7-N , 11-H ) :   1.1606 B(  7-N , 12-H ) :   1.3035
B(  8-N ,  9-H ) :   1.1221 B(  8-N , 10-H ) :   1.2599 B(  9-H , 10-H ) :  -0.2347
B(  9-H , 15-O ) :   0.3009 B( 11-H , 12-H ) :  -0.1921

FINAL SINGLE POINT ENERGY      -890.028367270168

DIPOLE MOMENT
-------------
                                X             Y             Z
Electronic contribution:      3.07482      -7.54486       1.04987
Nuclear contribution   :     -5.91573      12.15027      -4.18945
                        -----------------------------------------
Total Dipole Moment    :     -2.84091       4.60541      -3.13959
                        -----------------------------------------
Magnitude (a.u.)       :      6.25600
Magnitude (Debye)      :     15.90150

Rotational constants in cm-1:     0.082044     0.024757     0.022371
Rotational constants in MHz :  2459.631375   742.181961   670.660570

                             ****ORCA TERMINATED NORMALLY****
TOTAL RUN TIME: 0 days 0 hours 1 minutes 24 seconds 272 msec
