                         Program Version 5.0.0 -  RELEASE  -
|  1> !LC-BLYP RIJCOSX def2-SVPD def2/J TightSCF
|  2> *xyz 0 1
|  3> C         -0.46129        2.23469       -4.98962
|  4> C          0.84888        2.66797       -4.30235
|  5> C          2.09343        1.86104       -4.65684
|  6> H          2.44481        2.04157       -5.67499
|  7> H          2.90175        2.13786       -3.98034
|  8> S          1.87964        0.07859       -4.46297
|  9> F          3.20757       -0.46611       -4.42026
| 10> O          1.07506       -0.05616       -3.26876
| 11> O          1.13166       -0.31996       -5.67903
| 12> H          0.66843        2.55943       -3.23285
| 13> H          1.03407        3.72943       -4.49708
| 14> H         -0.35183        2.31783       -6.05075
| 15> H         -1.26108        2.86600       -4.66300
| 16> H         -0.68032        1.21949       -4.73211
| 17> *
| 18>
| 19> %MaxCore 64000
| 20>
| 21> %pal nprocs 8
| 22> end
| 23>
| 24> %scf
| 25>   MaxIter 150
| 26> end
| 27>
| 28>
| 29>                          ****END OF INPUT****

CARTESIAN COORDINATES (ANGSTROEM)
---------------------------------
  C     -0.461290    2.234690   -4.989620
  C      0.848880    2.667970   -4.302350
  C      2.093430    1.861040   -4.656840
  H      2.444810    2.041570   -5.674990
  H      2.901750    2.137860   -3.980340
  S      1.879640    0.078590   -4.462970
  F      3.207570   -0.466110   -4.420260
  O      1.075060   -0.056160   -3.268760
  O      1.131660   -0.319960   -5.679030
  H      0.668430    2.559430   -3.232850
  H      1.034070    3.729430   -4.497080
  H     -0.351830    2.317830   -6.050750
  H     -1.261080    2.866000   -4.663000
  H     -0.680320    1.219490   -4.732110

 Total Charge           Charge          ....    0
 Multiplicity           Mult            ....    1
 Number of Electrons    NEL             ....   66
 Basis Dimension        Dim             ....  212

ORBITAL ENERGIES
----------------

  NO   OCC          E(Eh)            E(eV)
   0   2.0000     -88.568407     -2410.0689
   1   2.0000     -24.600249      -669.4068
   2   2.0000     -18.974130      -516.3123
   3   2.0000     -18.961000      -515.9550
   4   2.0000     -10.146746      -276.1070
   5   2.0000     -10.111792      -275.1559
   6   2.0000     -10.073437      -274.1122
   7   2.0000      -8.118105      -220.9049
   8   2.0000      -6.156849      -167.5364
   9   2.0000      -6.150118      -167.3532
  10   2.0000      -6.148613      -167.3123
  11   2.0000      -1.468098       -39.9490
  12   2.0000      -1.208141       -32.8752
  13   2.0000      -1.100349       -29.9420
  14   2.0000      -0.935575       -25.4583
  15   2.0000      -0.862162       -23.4606
  16   2.0000      -0.814570       -22.1656
  17   2.0000      -0.744272       -20.2527
  18   2.0000      -0.700182       -19.0529
  19   2.0000      -0.687449       -18.7064
  20   2.0000      -0.661152       -17.9909
  21   2.0000      -0.602440       -16.3932
  22   2.0000      -0.591493       -16.0953
  23   2.0000      -0.561402       -15.2765
  24   2.0000      -0.553025       -15.0486
  25   2.0000      -0.526176       -14.3180
  26   2.0000      -0.494981       -13.4691
  27   2.0000      -0.474184       -12.9032
  28   2.0000      -0.469310       -12.7706
  29   2.0000      -0.448624       -12.2077
  30   2.0000      -0.437785       -11.9127
  31   2.0000      -0.418389       -11.3849
  32   2.0000      -0.409369       -11.1395
  33   0.0000       0.045701         1.2436
  34   0.0000       0.070283         1.9125
  35   0.0000       0.077589         2.1113
  36   0.0000       0.082342         2.2406
  37   0.0000       0.104418         2.8414

MULLIKEN ATOMIC CHARGES
-----------------------
   0 C :    1.057013
   1 C :   -0.065888
   2 C :    0.231927
   3 H :   -0.069457
   4 H :   -0.068359
   5 S :    1.254964
   6 F :   -0.378505
   7 O :   -0.591874
   8 O :   -0.601828
   9 H :   -0.002969
  10 H :   -0.276279
  11 H :   -0.134879
  12 H :   -0.190844
  13 H :   -0.163021
Sum of atomic charges:   -0.0000000

LOEWDIN ATOMIC CHARGES
----------------------
   0 C :    0.130484
   1 C :   -0.075120
   2 C :   -0.067676
   3 H :    0.032828
   4 H :    0.022457
   5 S :    1.069241
   6 F :   -0.233253
   7 O :   -0.442298
   8 O :   -0.461844
   9 H :    0.028763
  10 H :    0.036741
  11 H :   -0.004221
  12 H :   -0.008908
  13 H :   -0.027194

  Mayer bond orders larger than 0.100000
B(  0-C ,  1-C ) :   1.2761 B(  0-C ,  9-H ) :   0.1143 B(  0-C , 11-H ) :   0.6956
B(  0-C , 12-H ) :   0.6915 B(  0-C , 13-H ) :   0.7378 B(  1-C ,  2-C ) :   1.2882
B(  1-C ,  3-H ) :   0.1397 B(  1-C ,  4-H ) :   0.1676 B(  1-C ,  9-H ) :   0.8200
B(  1-C , 10-H ) :   0.8665 B(  1-C , 11-H ) :   0.2350 B(  1-C , 12-H ) :   0.2420
B(  1-C , 13-H ) :   0.2324 B(  2-C ,  3-H ) :   0.8996 B(  2-C ,  4-H ) :   0.8478
B(  2-C ,  5-S ) :   0.9345 B(  2-C ,  9-H ) :   0.1385 B(  2-C , 10-H ) :   0.1438
B(  5-S ,  6-F ) :   0.7893 B(  5-S ,  7-O ) :   1.5399 B(  5-S ,  8-O ) :   1.5095

FINAL SINGLE POINT ENERGY      -765.577288329516

DIPOLE MOMENT
-------------
                                X             Y             Z
Electronic contribution:      8.10472     -11.17427       1.23159
Nuclear contribution   :     -7.07796      12.41139      -1.18012
                        -----------------------------------------
Total Dipole Moment    :      1.02676       1.23712       0.05147
                        -----------------------------------------
Magnitude (a.u.)       :      1.60852
Magnitude (Debye)      :      4.08853

Rotational constants in cm-1:     0.134396     0.055628     0.052255
Rotational constants in MHz :  4029.100214  1667.685325  1566.551712

                             ****ORCA TERMINATED NORMALLY****
TOTAL RUN TIME: 0 days 0 hours 0 minutes 17 seconds 882 msec
