                         Program Version 5.0.0 -  RELEASE  -
|  1> !LC-BLYP RIJCOSX def2-SVPD def2/J TightSCF
|  2> *xyz 0 1
|  3> C         -0.46129        2.23469       -4.98962
|  4> C          0.84888        2.66797       -4.30235
|  5> C          2.09343        1.86104       -4.65684
|  6> C         -0.42384        2.39877       -6.47432
|  7> C         -0.95947        3.49265       -7.00740
|  8> N          0.14558        1.48689       -7.20399
|  9> H          0.56537        0.69681       -6.72386
| 10> H          0.22068        1.58177       -8.20752
| 11> H         -1.40624        4.18151       -6.40326
| 12> H         -0.93421        3.68160       -7.99947
| 13> H          0.66843        2.55943       -3.23285
| 14> H          1.03407        3.72943       -4.49708
| 15> H         -1.28888        2.82674       -4.59500
| 16> H         -0.65170        1.18634       -4.75655
| 17> H          2.29129        1.95234       -5.70442
| 18> H          1.93270        0.83176       -4.41261
| 19> H          2.92953        2.23285       -4.10223
| 20> *
| 21>
| 22> %MaxCore 64000
| 23>
| 24> %pal nprocs 8
| 25> end
| 26>
| 27> %scf
| 28>   MaxIter 150
| 29> end
| 30>
| 31>
| 32>                          ****END OF INPUT****

CARTESIAN COORDINATES (ANGSTROEM)
---------------------------------
  C     -0.461290    2.234690   -4.989620
  C      0.848880    2.667970   -4.302350
  C      2.093430    1.861040   -4.656840
  C     -0.423840    2.398770   -6.474320
  C     -0.959470    3.492650   -7.007400
  N      0.145580    1.486890   -7.203990
  H      0.565370    0.696810   -6.723860
  H      0.220680    1.581770   -8.207520
  H     -1.406240    4.181510   -6.403260
  H     -0.934210    3.681600   -7.999470
  H      0.668430    2.559430   -3.232850
  H      1.034070    3.729430   -4.497080
  H     -1.288880    2.826740   -4.595000
  H     -0.651700    1.186340   -4.756550
  H      2.291290    1.952340   -5.704420
  H      1.932700    0.831760   -4.412610
  H      2.929530    2.232850   -4.102230

 Total Charge           Charge          ....    0
 Multiplicity           Mult            ....    1
 Number of Electrons    NEL             ....   48
 Basis Dimension        Dim             ....  208

ORBITAL ENERGIES
----------------

  NO   OCC          E(Eh)            E(eV)
   0   2.0000     -14.191062      -386.1584
   1   2.0000     -10.106558      -275.0134
   2   2.0000     -10.082884      -274.3692
   3   2.0000     -10.081445      -274.3301
   4   2.0000     -10.069624      -274.0084
   5   2.0000     -10.017026      -272.5771
   6   2.0000      -1.030826       -28.0502
   7   2.0000      -0.897300       -24.4168
   8   2.0000      -0.837986       -22.8028
   9   2.0000      -0.783769       -21.3274
  10   2.0000      -0.711082       -19.3495
  11   2.0000      -0.668619       -18.1941
  12   2.0000      -0.630317       -17.1518
  13   2.0000      -0.593088       -16.1387
  14   2.0000      -0.558209       -15.1896
  15   2.0000      -0.537674       -14.6308
  16   2.0000      -0.513578       -13.9752
  17   2.0000      -0.491453       -13.3731
  18   2.0000      -0.476449       -12.9648
  19   2.0000      -0.462001       -12.5717
  20   2.0000      -0.437731       -11.9113
  21   2.0000      -0.425834       -11.5875
  22   2.0000      -0.420995       -11.4559
  23   2.0000      -0.282535        -7.6882
  24   0.0000       0.070245         1.9115
  25   0.0000       0.096876         2.6361
  26   0.0000       0.099036         2.6949
  27   0.0000       0.104984         2.8568
  28   0.0000       0.127391         3.4665

MULLIKEN ATOMIC CHARGES
-----------------------
   0 C :    0.432497
   1 C :   -0.188502
   2 C :    1.022813
   3 C :   -0.210213
   4 C :    0.610546
   5 N :    0.435218
   6 H :   -0.075936
   7 H :   -0.220983
   8 H :   -0.234610
   9 H :   -0.627500
  10 H :   -0.135994
  11 H :   -0.187788
  12 H :   -0.019504
  13 H :   -0.130472
  14 H :   -0.171433
  15 H :   -0.089792
  16 H :   -0.208346
Sum of atomic charges:    0.0000000

LOEWDIN ATOMIC CHARGES
----------------------
   0 C :   -0.006664
   1 C :   -0.072508
   2 C :    0.103582
   3 C :   -0.276903
   4 C :    0.171465
   5 N :    0.185839
   6 H :    0.001351
   7 H :    0.015963
   8 H :   -0.079559
   9 H :   -0.087946
  10 H :    0.020080
  11 H :    0.029409
  12 H :    0.028697
  13 H :    0.026141
  14 H :   -0.029610
  15 H :   -0.014949
  16 H :   -0.014388

  Mayer bond orders larger than 0.100000
B(  0-C ,  1-C ) :   1.1620 B(  0-C ,  3-C ) :   1.1442 B(  0-C ,  4-C ) :   0.2197
B(  0-C ,  5-N ) :   0.1407 B(  0-C , 10-H ) :   0.1240 B(  0-C , 11-H ) :   0.1284
B(  0-C , 12-H ) :   0.7946 B(  0-C , 13-H ) :   0.6697 B(  1-C ,  2-C ) :   1.2724
B(  1-C , 10-H ) :   0.8573 B(  1-C , 11-H ) :   0.9540 B(  1-C , 12-H ) :   0.1397
B(  1-C , 13-H ) :   0.1740 B(  1-C , 14-H ) :   0.2531 B(  1-C , 15-H ) :   0.2550
B(  1-C , 16-H ) :   0.2657 B(  2-C , 10-H ) :   0.1055 B(  2-C , 14-H ) :   0.7496
B(  2-C , 15-H ) :   0.7113 B(  2-C , 16-H ) :   0.6958 B(  3-C ,  4-C ) :   1.5868
B(  3-C ,  5-N ) :   1.2594 B(  3-C ,  7-H ) :  -0.1109 B(  3-C ,  9-H ) :   0.1712
B(  3-C , 12-H ) :   0.1900 B(  3-C , 13-H ) :   0.2138 B(  4-C ,  5-N ) :   0.2933
B(  4-C ,  8-H ) :   0.9013 B(  4-C ,  9-H ) :   0.5489 B(  5-N ,  6-H ) :   1.0058
B(  5-N ,  7-H ) :   1.2721 B(  6-H ,  7-H ) :  -0.1818

FINAL SINGLE POINT ENERGY      -250.980590099822

DIPOLE MOMENT
-------------
                                X             Y             Z
Electronic contribution:     -2.08644      -0.44194      -2.62531
Nuclear contribution   :      2.52905      -0.17478       2.67366
                        -----------------------------------------
Total Dipole Moment    :      0.44261      -0.61672       0.04835
                        -----------------------------------------
Magnitude (a.u.)       :      0.76065
Magnitude (Debye)      :      1.93341

Rotational constants in cm-1:     0.190920     0.082419     0.067855
Rotational constants in MHz :  5723.626725  2470.870287  2034.242308

                             ****ORCA TERMINATED NORMALLY****
TOTAL RUN TIME: 0 days 0 hours 0 minutes 15 seconds 866 msec
