                         Program Version 5.0.0 -  RELEASE  -
|  1> !LC-BLYP RIJCOSX def2-SVPD def2/J TightSCF
|  2> *xyz 0 1
|  3> C         -0.46129        2.23469       -4.98962
|  4> C          0.84888        2.66797       -4.30235
|  5> C          2.09343        1.86104       -4.65684
|  6> H          2.44481        2.04157       -5.67499
|  7> H          2.90175        2.13786       -3.98034
|  8> S          1.87964        0.07859       -4.46297
|  9> O          3.20757       -0.46611       -4.42026
| 10> F          1.07506       -0.05616       -3.26876
| 11> O          1.13166       -0.31996       -5.67903
| 12> H          0.66843        2.55943       -3.23285
| 13> H          1.03407        3.72943       -4.49708
| 14> H         -0.35183        2.31783       -6.05075
| 15> H         -1.26108        2.86600       -4.66300
| 16> H         -0.68032        1.21949       -4.73211
| 17> *
| 18>
| 19> %MaxCore 64000
| 20>
| 21> %pal nprocs 8
| 22> end
| 23>
| 24> %scf
| 25>   MaxIter 150
| 26> end
| 27>
| 28>
| 29>                          ****END OF INPUT****

CARTESIAN COORDINATES (ANGSTROEM)
---------------------------------
  C     -0.461290    2.234690   -4.989620
  C      0.848880    2.667970   -4.302350
  C      2.093430    1.861040   -4.656840
  H      2.444810    2.041570   -5.674990
  H      2.901750    2.137860   -3.980340
  S      1.879640    0.078590   -4.462970
  O      3.207570   -0.466110   -4.420260
  F      1.075060   -0.056160   -3.268760
  O      1.131660   -0.319960   -5.679030
  H      0.668430    2.559430   -3.232850
  H      1.034070    3.729430   -4.497080
  H     -0.351830    2.317830   -6.050750
  H     -1.261080    2.866000   -4.663000
  H     -0.680320    1.219490   -4.732110

 Total Charge           Charge          ....    0
 Multiplicity           Mult            ....    1
 Number of Electrons    NEL             ....   66
 Basis Dimension        Dim             ....  212

ORBITAL ENERGIES
----------------

  NO   OCC          E(Eh)            E(eV)
   0   2.0000     -88.567337     -2410.0398
   1   2.0000     -24.595370      -669.2741
   2   2.0000     -18.976435      -516.3750
   3   2.0000     -18.959494      -515.9141
   4   2.0000     -10.146322      -276.0955
   5   2.0000     -10.118780      -275.3460
   6   2.0000     -10.085129      -274.4303
   7   2.0000      -8.116947      -220.8734
   8   2.0000      -6.155929      -167.5113
   9   2.0000      -6.148848      -167.3187
  10   2.0000      -6.147404      -167.2794
  11   2.0000      -1.459788       -39.7228
  12   2.0000      -1.210484       -32.9389
  13   2.0000      -1.102633       -30.0042
  14   2.0000      -0.942408       -25.6442
  15   2.0000      -0.858919       -23.3724
  16   2.0000      -0.817729       -22.2515
  17   2.0000      -0.746032       -20.3006
  18   2.0000      -0.702357       -19.1121
  19   2.0000      -0.694385       -18.8952
  20   2.0000      -0.649469       -17.6730
  21   2.0000      -0.601309       -16.3624
  22   2.0000      -0.590011       -16.0550
  23   2.0000      -0.570571       -15.5260
  24   2.0000      -0.550331       -14.9753
  25   2.0000      -0.537398       -14.6233
  26   2.0000      -0.498191       -13.5565
  27   2.0000      -0.488438       -13.2911
  28   2.0000      -0.479615       -13.0510
  29   2.0000      -0.459306       -12.4983
  30   2.0000      -0.434972       -11.8362
  31   2.0000      -0.420190       -11.4340
  32   2.0000      -0.408237       -11.1087
  33   0.0000       0.044758         1.2179
  34   0.0000       0.071952         1.9579
  35   0.0000       0.078262         2.1296
  36   0.0000       0.079588         2.1657
  37   0.0000       0.104683         2.8486

MULLIKEN ATOMIC CHARGES
-----------------------
   0 C :    1.081810
   1 C :   -0.051112
   2 C :    0.269022
   3 H :   -0.078446
   4 H :   -0.086149
   5 S :    1.193764
   6 O :   -0.564297
   7 F :   -0.351878
   8 O :   -0.602943
   9 H :   -0.033751
  10 H :   -0.277890
  11 H :   -0.132095
  12 H :   -0.185166
  13 H :   -0.180870
Sum of atomic charges:    0.0000000

LOEWDIN ATOMIC CHARGES
----------------------
   0 C :    0.126292
   1 C :   -0.088273
   2 C :   -0.055641
   3 H :    0.044876
   4 H :    0.026411
   5 S :    1.061273
   6 O :   -0.437032
   7 F :   -0.235229
   8 O :   -0.460539
   9 H :    0.023892
  10 H :    0.035426
  11 H :   -0.000527
  12 H :   -0.008580
  13 H :   -0.032350

  Mayer bond orders larger than 0.100000
B(  0-C ,  1-C ) :   1.2769 B(  0-C ,  9-H ) :   0.1109 B(  0-C , 11-H ) :   0.6945
B(  0-C , 12-H ) :   0.6929 B(  0-C , 13-H ) :   0.7242 B(  1-C ,  2-C ) :   1.2364
B(  1-C ,  3-H ) :   0.1431 B(  1-C ,  4-H ) :   0.1542 B(  1-C ,  9-H ) :   0.8233
B(  1-C , 10-H ) :   0.8709 B(  1-C , 11-H ) :   0.2423 B(  1-C , 12-H ) :   0.2421
B(  1-C , 13-H ) :   0.2398 B(  2-C ,  3-H ) :   0.8907 B(  2-C ,  4-H ) :   0.8925
B(  2-C ,  5-S ) :   0.9675 B(  2-C ,  9-H ) :   0.1304 B(  2-C , 10-H ) :   0.1385
B(  5-S ,  6-O ) :   1.6614 B(  5-S ,  7-F ) :   0.7417 B(  5-S ,  8-O ) :   1.5394
B( 11-H , 13-H ) :   0.1099

FINAL SINGLE POINT ENERGY      -765.580925471589

DIPOLE MOMENT
-------------
                                X             Y             Z
Electronic contribution:      4.40530     -10.40425       3.17329
Nuclear contribution   :     -4.78457      11.97051      -2.41849
                        -----------------------------------------
Total Dipole Moment    :     -0.37927       1.56626       0.75480
                        -----------------------------------------
Magnitude (a.u.)       :      1.77953
Magnitude (Debye)      :      4.52322

Rotational constants in cm-1:     0.129206     0.056639     0.054229
Rotational constants in MHz :  3873.509495  1697.990779  1625.734877

                             ****ORCA TERMINATED NORMALLY****
TOTAL RUN TIME: 0 days 0 hours 0 minutes 16 seconds 848 msec
