                         Program Version 5.0.0 -  RELEASE  -
|  1> !LC-BLYP RIJCOSX def2-SVPD def2/J TightSCF
|  2> *xyz 0 1
|  3> C         -0.46129        2.23469       -4.98962
|  4> C          0.84888        2.66797       -4.30235
|  5> C          2.09343        1.86104       -4.65684
|  6> C         -0.42384        2.39877       -6.47432
|  7> N         -0.95947        3.49265       -7.00740
|  8> C          0.14558        1.48689       -7.20399
|  9> H          0.56537        0.69681       -6.72386
| 10> H          0.22068        1.58177       -8.20752
| 11> H         -1.40624        4.18151       -6.40326
| 12> H         -0.93421        3.68160       -7.99947
| 13> H          0.66843        2.55943       -3.23285
| 14> H          1.03407        3.72943       -4.49708
| 15> H         -1.28888        2.82674       -4.59500
| 16> H         -0.65170        1.18634       -4.75655
| 17> H          2.29129        1.95234       -5.70442
| 18> H          1.93270        0.83176       -4.41261
| 19> H          2.92953        2.23285       -4.10223
| 20> *
| 21>
| 22> %MaxCore 64000
| 23>
| 24> %pal nprocs 8
| 25> end
| 26>
| 27> %scf
| 28>   MaxIter 150
| 29> end
| 30>
| 31>
| 32>                          ****END OF INPUT****

CARTESIAN COORDINATES (ANGSTROEM)
---------------------------------
  C     -0.461290    2.234690   -4.989620
  C      0.848880    2.667970   -4.302350
  C      2.093430    1.861040   -4.656840
  C     -0.423840    2.398770   -6.474320
  N     -0.959470    3.492650   -7.007400
  C      0.145580    1.486890   -7.203990
  H      0.565370    0.696810   -6.723860
  H      0.220680    1.581770   -8.207520
  H     -1.406240    4.181510   -6.403260
  H     -0.934210    3.681600   -7.999470
  H      0.668430    2.559430   -3.232850
  H      1.034070    3.729430   -4.497080
  H     -1.288880    2.826740   -4.595000
  H     -0.651700    1.186340   -4.756550
  H      2.291290    1.952340   -5.704420
  H      1.932700    0.831760   -4.412610
  H      2.929530    2.232850   -4.102230

 Total Charge           Charge          ....    0
 Multiplicity           Mult            ....    1
 Number of Electrons    NEL             ....   48
 Basis Dimension        Dim             ....  208

ORBITAL ENERGIES
----------------

  NO   OCC          E(Eh)            E(eV)
   0   2.0000     -14.187959      -386.0740
   1   2.0000     -10.104119      -274.9471
   2   2.0000     -10.082476      -274.3581
   3   2.0000     -10.080206      -274.2964
   4   2.0000     -10.059636      -273.7366
   5   2.0000     -10.016822      -272.5716
   6   2.0000      -1.018703       -27.7203
   7   2.0000      -0.897407       -24.4197
   8   2.0000      -0.833717       -22.6866
   9   2.0000      -0.790312       -21.5055
  10   2.0000      -0.700953       -19.0739
  11   2.0000      -0.667883       -18.1740
  12   2.0000      -0.623997       -16.9798
  13   2.0000      -0.585821       -15.9410
  14   2.0000      -0.557987       -15.1836
  15   2.0000      -0.541513       -14.7353
  16   2.0000      -0.497300       -13.5322
  17   2.0000      -0.493244       -13.4219
  18   2.0000      -0.476035       -12.9536
  19   2.0000      -0.464068       -12.6279
  20   2.0000      -0.432139       -11.7591
  21   2.0000      -0.423866       -11.5340
  22   2.0000      -0.415551       -11.3077
  23   2.0000      -0.287941        -7.8353
  24   0.0000       0.071205         1.9376
  25   0.0000       0.096736         2.6323
  26   0.0000       0.099110         2.6969
  27   0.0000       0.107418         2.9230
  28   0.0000       0.126321         3.4374

MULLIKEN ATOMIC CHARGES
-----------------------
   0 C :    0.425282
   1 C :   -0.170659
   2 C :    0.992345
   3 C :   -0.080620
   4 N :    0.289026
   5 C :    0.618339
   6 H :   -0.064576
   7 H :   -0.716005
   8 H :   -0.113065
   9 H :   -0.200633
  10 H :   -0.134926
  11 H :   -0.180119
  12 H :   -0.200526
  13 H :    0.011022
  14 H :   -0.139966
  15 H :   -0.093054
  16 H :   -0.241866
Sum of atomic charges:   -0.0000000

LOEWDIN ATOMIC CHARGES
----------------------
   0 C :   -0.006429
   1 C :   -0.074258
   2 C :    0.106965
   3 C :   -0.266362
   4 N :    0.181820
   5 C :    0.162918
   6 H :   -0.071877
   7 H :   -0.075737
   8 H :   -0.000967
   9 H :    0.002822
  10 H :    0.019627
  11 H :    0.025812
  12 H :    0.018896
  13 H :    0.032925
  14 H :   -0.029027
  15 H :   -0.010935
  16 H :   -0.016194

  Mayer bond orders larger than 0.100000
B(  0-C ,  1-C ) :   1.1754 B(  0-C ,  3-C ) :   1.0305 B(  0-C ,  4-N ) :   0.1478
B(  0-C ,  5-C ) :   0.2581 B(  0-C , 10-H ) :   0.1500 B(  0-C , 11-H ) :   0.1153
B(  0-C , 12-H ) :   0.7627 B(  0-C , 13-H ) :   0.7517 B(  1-C ,  2-C ) :   1.2882
B(  1-C , 10-H ) :   0.8149 B(  1-C , 11-H ) :   0.9307 B(  1-C , 12-H ) :   0.1549
B(  1-C , 13-H ) :   0.1660 B(  1-C , 14-H ) :   0.2507 B(  1-C , 15-H ) :   0.2510
B(  1-C , 16-H ) :   0.2742 B(  2-C , 10-H ) :   0.1091 B(  2-C , 14-H ) :   0.7450
B(  2-C , 15-H ) :   0.7170 B(  2-C , 16-H ) :   0.7119 B(  3-C ,  4-N ) :   1.2160
B(  3-C ,  5-C ) :   1.7821 B(  3-C ,  6-H ) :   0.2094 B(  3-C ,  7-H ) :   0.2272
B(  3-C , 12-H ) :   0.1670 B(  3-C , 13-H ) :   0.1281 B(  4-N ,  5-C ) :   0.2637
B(  4-N ,  8-H ) :   1.1160 B(  4-N ,  9-H ) :   1.2585 B(  5-C ,  6-H ) :   0.6710
B(  5-C ,  7-H ) :   0.5901 B(  6-H ,  7-H ) :  -0.1564 B(  8-H ,  9-H ) :  -0.1746
B( 14-H , 15-H ) :   0.1128

FINAL SINGLE POINT ENERGY      -250.980594764197

DIPOLE MOMENT
-------------
                                X             Y             Z
Electronic contribution:     -3.07126       1.27851      -2.48896
Nuclear contribution   :      2.79043      -0.64920       2.62716
                        -----------------------------------------
Total Dipole Moment    :     -0.28083       0.62930       0.13819
                        -----------------------------------------
Magnitude (a.u.)       :      0.70284
Magnitude (Debye)      :      1.78647

Rotational constants in cm-1:     0.196182     0.080190     0.067215
Rotational constants in MHz :  5881.393438  2404.041106  2015.067205

                             ****ORCA TERMINATED NORMALLY****
TOTAL RUN TIME: 0 days 0 hours 0 minutes 15 seconds 752 msec
