                         Program Version 5.0.0 -  RELEASE  -
|  1> !LC-BLYP RIJCOSX def2-SVPD def2/J TightSCF
|  2> *xyz 0 1
|  3> C         -0.46129        2.23469       -4.98962
|  4> C          0.84888        2.66797       -4.30235
|  5> C          2.09343        1.86104       -4.65684
|  6> H          2.44481        2.04157       -5.67499
|  7> H          2.90175        2.13786       -3.98034
|  8> S          1.87964        0.07859       -4.46297
|  9> O          3.20757       -0.46611       -4.42026
| 10> O          1.07506       -0.05616       -3.26876
| 11> F          1.13166       -0.31996       -5.67903
| 12> H          0.66843        2.55943       -3.23285
| 13> H          1.03407        3.72943       -4.49708
| 14> H         -0.35183        2.31783       -6.05075
| 15> H         -1.26108        2.86600       -4.66300
| 16> H         -0.68032        1.21949       -4.73211
| 17> *
| 18>
| 19> %MaxCore 64000
| 20>
| 21> %pal nprocs 8
| 22> end
| 23>
| 24> %scf
| 25>   MaxIter 150
| 26> end
| 27>
| 28>
| 29>                          ****END OF INPUT****

CARTESIAN COORDINATES (ANGSTROEM)
---------------------------------
  C     -0.461290    2.234690   -4.989620
  C      0.848880    2.667970   -4.302350
  C      2.093430    1.861040   -4.656840
  H      2.444810    2.041570   -5.674990
  H      2.901750    2.137860   -3.980340
  S      1.879640    0.078590   -4.462970
  O      3.207570   -0.466110   -4.420260
  O      1.075060   -0.056160   -3.268760
  F      1.131660   -0.319960   -5.679030
  H      0.668430    2.559430   -3.232850
  H      1.034070    3.729430   -4.497080
  H     -0.351830    2.317830   -6.050750
  H     -1.261080    2.866000   -4.663000
  H     -0.680320    1.219490   -4.732110

 Total Charge           Charge          ....    0
 Multiplicity           Mult            ....    1
 Number of Electrons    NEL             ....   66
 Basis Dimension        Dim             ....  212

ORBITAL ENERGIES
----------------

  NO   OCC          E(Eh)            E(eV)
   0   2.0000     -88.565918     -2410.0012
   1   2.0000     -24.576403      -668.7579
   2   2.0000     -18.976328      -516.3721
   3   2.0000     -18.972818      -516.2766
   4   2.0000     -10.145728      -276.0793
   5   2.0000     -10.113640      -275.2061
   6   2.0000     -10.087707      -274.5005
   7   2.0000      -8.115427      -220.8320
   8   2.0000      -6.154134      -167.4625
   9   2.0000      -6.147589      -167.2844
  10   2.0000      -6.146089      -167.2436
  11   2.0000      -1.429374       -38.8952
  12   2.0000      -1.218243       -33.1501
  13   2.0000      -1.121723       -30.5236
  14   2.0000      -0.939315       -25.5601
  15   2.0000      -0.855702       -23.2848
  16   2.0000      -0.806727       -21.9521
  17   2.0000      -0.744030       -20.2461
  18   2.0000      -0.678831       -18.4719
  19   2.0000      -0.672963       -18.3123
  20   2.0000      -0.655747       -17.8438
  21   2.0000      -0.608419       -16.5559
  22   2.0000      -0.585598       -15.9349
  23   2.0000      -0.565540       -15.3891
  24   2.0000      -0.556943       -15.1552
  25   2.0000      -0.539925       -14.6921
  26   2.0000      -0.504242       -13.7211
  27   2.0000      -0.486677       -13.2432
  28   2.0000      -0.475598       -12.9417
  29   2.0000      -0.456802       -12.4302
  30   2.0000      -0.443822       -12.0770
  31   2.0000      -0.428598       -11.6627
  32   2.0000      -0.424610       -11.5542
  33   0.0000       0.049999         1.3605
  34   0.0000       0.071945         1.9577
  35   0.0000       0.079106         2.1526
  36   0.0000       0.079643         2.1672
  37   0.0000       0.107530         2.9260

MULLIKEN ATOMIC CHARGES
-----------------------
   0 C :    1.049103
   1 C :   -0.020127
   2 C :    0.237746
   3 H :   -0.072929
   4 H :   -0.073468
   5 S :    1.198565
   6 O :   -0.570535
   7 O :   -0.604325
   8 F :   -0.348624
   9 H :   -0.001674
  10 H :   -0.273163
  11 H :   -0.143480
  12 H :   -0.181992
  13 H :   -0.195097
Sum of atomic charges:   -0.0000000

LOEWDIN ATOMIC CHARGES
----------------------
   0 C :    0.125921
   1 C :   -0.083596
   2 C :   -0.057916
   3 H :    0.031615
   4 H :    0.036618
   5 S :    1.058794
   6 O :   -0.437479
   7 O :   -0.440388
   8 F :   -0.253418
   9 H :    0.029605
  10 H :    0.034978
  11 H :   -0.007658
  12 H :   -0.006356
  13 H :   -0.030722

  Mayer bond orders larger than 0.100000
B(  0-C ,  1-C ) :   1.2731 B(  0-C ,  9-H ) :   0.1169 B(  0-C , 11-H ) :   0.6934
B(  0-C , 12-H ) :   0.7040 B(  0-C , 13-H ) :   0.7350 B(  1-C ,  2-C ) :   1.2764
B(  1-C ,  3-H ) :   0.1445 B(  1-C ,  4-H ) :   0.1452 B(  1-C ,  9-H ) :   0.8258
B(  1-C , 10-H ) :   0.8590 B(  1-C , 11-H ) :   0.2346 B(  1-C , 12-H ) :   0.2381
B(  1-C , 13-H ) :   0.2284 B(  2-C ,  3-H ) :   0.8970 B(  2-C ,  4-H ) :   0.8747
B(  2-C ,  5-S ) :   0.9606 B(  2-C ,  9-H ) :   0.1422 B(  2-C , 10-H ) :   0.1378
B(  5-S ,  6-O ) :   1.6594 B(  5-S ,  7-O ) :   1.5690 B(  5-S ,  8-F ) :   0.6918

FINAL SINGLE POINT ENERGY      -765.597739338391

DIPOLE MOMENT
-------------
                                X             Y             Z
Electronic contribution:      4.48762     -10.86974      -0.94238
Nuclear contribution   :     -4.84544      12.25421       0.17361
                        -----------------------------------------
Total Dipole Moment    :     -0.35782       1.38447      -0.76877
                        -----------------------------------------
Magnitude (a.u.)       :      1.62352
Magnitude (Debye)      :      4.12665

Rotational constants in cm-1:     0.128954     0.057447     0.053381
Rotational constants in MHz :  3865.954571  1722.226669  1600.330369

                             ****ORCA TERMINATED NORMALLY****
TOTAL RUN TIME: 0 days 0 hours 0 minutes 16 seconds 587 msec
