                         Program Version 5.0.0 -  RELEASE  -
|  1> !LC-BLYP RIJCOSX def2-SVPD def2/J TightSCF xyzfile
|  2>
|  3> *xyzfile 0 1 D1.xyz
|  4>
|  5> %MaxCore 64000
|  6>
|  7> %pal nprocs 4
|  8> end
|  9>
| 10> %scf
| 11>   MaxIter 150
| 12> end
| 13>
| 14>
| 15>                          ****END OF INPUT****

CARTESIAN COORDINATES (ANGSTROEM)
---------------------------------
  C     -0.461293    2.234686   -4.989619
  C      0.848883    2.667967   -4.302351
  C      2.093434    1.861037   -4.656845
  H      2.444814    2.041567   -5.674990
  H      2.901748    2.137864   -3.980338
  S      1.879644    0.078594   -4.462965
  C     -0.423841    2.398772   -6.474317
  C     -0.959467    3.492647   -7.007401
  N      0.145585    1.486891   -7.203987
  H      0.565371    0.696807   -6.723858
  H      0.220682    1.581768   -8.207520
  H     -1.406243    4.181507   -6.403261
  H     -0.934215    3.681601   -7.999468
  F      3.207574   -0.466111   -4.420259
  O      1.075064   -0.056160   -3.268758
  O      1.131661   -0.319960   -5.679031
  H      0.668432    2.559427   -3.232850
  H      1.034074    3.729426   -4.497081
  H     -1.288884    2.826737   -4.594997
  H     -0.651696    1.186343   -4.756552

 Total Charge           Charge          ....    0
 Multiplicity           Mult            ....    1
 Number of Electrons    NEL             ....   88
 Basis Dimension        Dim             ....  296

ORBITAL ENERGIES
----------------

  NO   OCC          E(Eh)            E(eV)
   0   2.0000     -88.588508     -2410.6158
   1   2.0000     -24.616210      -669.8411
   2   2.0000     -18.990274      -516.7516
   3   2.0000     -18.985976      -516.6347
   4   2.0000     -14.162564      -385.3830
   5   2.0000     -10.155590      -276.3476
   6   2.0000     -10.115639      -275.2605
   7   2.0000     -10.100736      -274.8550
   8   2.0000     -10.087205      -274.4868
   9   2.0000     -10.010743      -272.4062
  10   2.0000      -8.137616      -221.4358
  11   2.0000      -6.176338      -168.0667
  12   2.0000      -6.169937      -167.8925
  13   2.0000      -6.167945      -167.8383
  14   2.0000      -1.483972       -40.3809
  15   2.0000      -1.228785       -33.4369
  16   2.0000      -1.126230       -30.6463
  17   2.0000      -1.016010       -27.6470
  18   2.0000      -0.944675       -25.7059
  19   2.0000      -0.877667       -23.8825
  20   2.0000      -0.844371       -22.9765
  21   2.0000      -0.799837       -21.7647
  22   2.0000      -0.757291       -20.6069
  23   2.0000      -0.719032       -19.5659
  24   2.0000      -0.706081       -19.2135
  25   2.0000      -0.687715       -18.7137
  26   2.0000      -0.662417       -18.0253
  27   2.0000      -0.634311       -17.2605
  28   2.0000      -0.613434       -16.6924
  29   2.0000      -0.599162       -16.3040
  30   2.0000      -0.581789       -15.8313
  31   2.0000      -0.561418       -15.2770
  32   2.0000      -0.553931       -15.0732
  33   2.0000      -0.521104       -14.1800
  34   2.0000      -0.502670       -13.6783
  35   2.0000      -0.499071       -13.5804
  36   2.0000      -0.482833       -13.1385
  37   2.0000      -0.465100       -12.6560
  38   2.0000      -0.454391       -12.3646
  39   2.0000      -0.447212       -12.1693
  40   2.0000      -0.432635       -11.7726
  41   2.0000      -0.429087       -11.6760
  42   2.0000      -0.420378       -11.4391
  43   2.0000      -0.273621        -7.4456
  44   0.0000       0.038079         1.0362
  45   0.0000       0.065659         1.7867
  46   0.0000       0.068659         1.8683
  47   0.0000       0.079657         2.1676
  48   0.0000       0.095523         2.5993

MULLIKEN ATOMIC CHARGES
-----------------------
   0 C :    0.705599
   1 C :    0.301215
   2 C :    0.290696
   3 H :    0.064510
   4 H :   -0.212284
   5 S :    1.355732
   6 C :   -0.256592
   7 C :    0.464541
   8 N :    0.949911
   9 H :   -0.581725
  10 H :   -0.247797
  11 H :   -0.215176
  12 H :   -0.543982
  13 F :   -0.383891
  14 O :   -0.589786
  15 O :   -0.681729
  16 H :    0.086499
  17 H :   -0.293769
  18 H :   -0.043514
  19 H :   -0.168457
Sum of atomic charges:   -0.0000000

LOEWDIN ATOMIC CHARGES
----------------------
   0 C :    0.019588
   1 C :   -0.014002
   2 C :   -0.049989
   3 H :    0.030805
   4 H :    0.024302
   5 S :    1.123198
   6 C :   -0.258450
   7 C :    0.164277
   8 N :    0.212116
   9 H :   -0.145762
  10 H :    0.018856
  11 H :   -0.084810
  12 H :   -0.089142
  13 F :   -0.221937
  14 O :   -0.425708
  15 O :   -0.435080
  16 H :    0.031748
  17 H :    0.045301
  18 H :    0.037305
  19 H :    0.017383

  Mayer bond orders larger than 0.100000
B(  0-C ,  1-C ) :   1.1037 B(  0-C ,  6-C ) :   1.1392 B(  0-C ,  8-N ) :   0.1290
B(  0-C , 16-H ) :   0.1653 B(  0-C , 18-H ) :   0.6615 B(  0-C , 19-H ) :   0.6064
B(  1-C ,  2-C ) :   1.3334 B(  1-C ,  3-H ) :   0.1425 B(  1-C ,  4-H ) :   0.2411
B(  1-C , 16-H ) :   0.7503 B(  1-C , 17-H ) :   0.8419 B(  1-C , 18-H ) :   0.1605
B(  1-C , 19-H ) :   0.1969 B(  2-C ,  3-H ) :   0.8713 B(  2-C ,  4-H ) :   0.7214
B(  2-C ,  5-S ) :   0.9110 B(  2-C , 15-O ) :   0.1176 B(  2-C , 16-H ) :   0.1459
B(  2-C , 17-H ) :   0.1361 B(  5-S , 13-F ) :   0.7701 B(  5-S , 14-O ) :   1.5945
B(  5-S , 15-O ) :   1.4189 B(  6-C ,  7-C ) :   1.5147 B(  6-C ,  8-N ) :   1.2162
B(  6-C ,  9-H ) :   0.1139 B(  6-C , 10-H ) :  -0.1094 B(  6-C , 12-H ) :   0.1676
B(  6-C , 18-H ) :   0.2240 B(  6-C , 19-H ) :   0.2296 B(  7-C ,  8-N ) :   0.1597
B(  7-C , 11-H ) :   0.9211 B(  7-C , 12-H ) :   0.5329 B(  8-N ,  9-H ) :   0.8760
B(  8-N , 10-H ) :   1.1710 B(  9-H , 10-H ) :  -0.2142 B(  9-H , 15-O ) :   0.2416
B( 16-H , 17-H ) :  -0.1044

FINAL SINGLE POINT ENERGY      -897.894331656840

DIPOLE MOMENT
-------------
                                X             Y             Z
Electronic contribution:     10.17317     -13.85562       5.46280
Nuclear contribution   :     -8.53047      14.15581      -5.17613
                        -----------------------------------------
Total Dipole Moment    :      1.64270       0.30019       0.28667
                        -----------------------------------------
Magnitude (a.u.)       :      1.69434
Magnitude (Debye)      :      4.30666

Rotational constants in cm-1:     0.081196     0.024861     0.022477
Rotational constants in MHz :  2434.181666   745.320670   673.846846

                             ****ORCA TERMINATED NORMALLY****
TOTAL RUN TIME: 0 days 0 hours 1 minutes 21 seconds 183 msec
