                         Program Version 5.0.0 -  RELEASE  -
|  1> !LC-BLYP RIJCOSX def2-SVPD def2/J TightSCF xyzfile
|  2>
|  3> *xyzfile 0 1 D5.xyz
|  4>
|  5> %MaxCore 64000
|  6>
|  7> %pal nprocs 4
|  8> end
|  9>
| 10> %scf
| 11>   MaxIter 150
| 12> end
| 13>
| 14>
| 15>                          ****END OF INPUT****

CARTESIAN COORDINATES (ANGSTROEM)
---------------------------------
  C     -0.461293    2.234686   -4.989619
  C      0.848883    2.667967   -4.302351
  C      2.093434    1.861037   -4.656845
  H      2.444814    2.041567   -5.674990
  H      2.901748    2.137864   -3.980338
  S      1.879644    0.078594   -4.462965
  C     -0.423841    2.398772   -6.474317
  C     -0.959467    3.492647   -7.007401
  N      0.145585    1.486891   -7.203987
  H      0.565371    0.696807   -6.723858
  H      0.220682    1.581768   -8.207520
  H     -1.406243    4.181507   -6.403261
  H     -0.934215    3.681601   -7.999468
  O      3.207574   -0.466111   -4.420259
  O      1.075064   -0.056160   -3.268758
  F      1.131661   -0.319960   -5.679031
  H      0.668432    2.559427   -3.232850
  H      1.034074    3.729426   -4.497081
  H     -1.288884    2.826737   -4.594997
  H     -0.651696    1.186343   -4.756552

 Total Charge           Charge          ....    0
 Multiplicity           Mult            ....    1
 Number of Electrons    NEL             ....   88
 Basis Dimension        Dim             ....  296

ORBITAL ENERGIES
----------------

  NO   OCC          E(Eh)            E(eV)
   0   2.0000     -88.578709     -2410.3492
   1   2.0000     -24.602281      -669.4621
   2   2.0000     -18.988051      -516.6911
   3   2.0000     -18.984148      -516.5849
   4   2.0000     -14.194084      -386.2407
   5   2.0000     -10.151878      -276.2467
   6   2.0000     -10.118380      -275.3351
   7   2.0000     -10.116502      -275.2840
   8   2.0000     -10.101450      -274.8744
   9   2.0000     -10.028411      -272.8869
  10   2.0000      -8.128063      -221.1758
  11   2.0000      -6.167164      -167.8171
  12   2.0000      -6.160061      -167.6238
  13   2.0000      -6.158388      -167.5783
  14   2.0000      -1.457629       -39.6641
  15   2.0000      -1.231905       -33.5218
  16   2.0000      -1.132946       -30.8290
  17   2.0000      -1.042469       -28.3670
  18   2.0000      -0.946588       -25.7580
  19   2.0000      -0.878548       -23.9065
  20   2.0000      -0.855701       -23.2848
  21   2.0000      -0.806122       -21.9357
  22   2.0000      -0.769590       -20.9416
  23   2.0000      -0.713008       -19.4019
  24   2.0000      -0.699724       -19.0405
  25   2.0000      -0.680628       -18.5208
  26   2.0000      -0.664311       -18.0768
  27   2.0000      -0.644720       -17.5437
  28   2.0000      -0.610836       -16.6217
  29   2.0000      -0.598924       -16.2976
  30   2.0000      -0.582808       -15.8590
  31   2.0000      -0.576395       -15.6845
  32   2.0000      -0.555860       -15.1257
  33   2.0000      -0.531583       -14.4651
  34   2.0000      -0.512136       -13.9359
  35   2.0000      -0.502495       -13.6736
  36   2.0000      -0.492059       -13.3896
  37   2.0000      -0.479943       -13.0599
  38   2.0000      -0.457466       -12.4483
  39   2.0000      -0.454080       -12.3562
  40   2.0000      -0.444228       -12.0881
  41   2.0000      -0.436692       -11.8830
  42   2.0000      -0.431346       -11.7375
  43   2.0000      -0.293941        -7.9985
  44   0.0000       0.046683         1.2703
  45   0.0000       0.067390         1.8338
  46   0.0000       0.070283         1.9125
  47   0.0000       0.078048         2.1238
  48   0.0000       0.097828         2.6620

MULLIKEN ATOMIC CHARGES
-----------------------
   0 C :    0.681037
   1 C :    0.352288
   2 C :    0.323303
   3 H :    0.049143
   4 H :   -0.225133
   5 S :    1.226359
   6 C :   -0.204282
   7 C :    0.469457
   8 N :    0.955945
   9 H :   -0.544625
  10 H :   -0.231466
  11 H :   -0.207321
  12 H :   -0.546135
  13 O :   -0.553824
  14 O :   -0.613193
  15 F :   -0.473606
  16 H :    0.089199
  17 H :   -0.289524
  18 H :   -0.041463
  19 H :   -0.216158
Sum of atomic charges:    0.0000000

LOEWDIN ATOMIC CHARGES
----------------------
   0 C :    0.015939
   1 C :   -0.022813
   2 C :   -0.044596
   3 H :    0.028443
   4 H :    0.037438
   5 S :    1.080604
   6 C :   -0.259524
   7 C :    0.174775
   8 N :    0.209758
   9 H :   -0.100948
  10 H :    0.023847
  11 H :   -0.077882
  12 H :   -0.084392
  13 O :   -0.425839
  14 O :   -0.429094
  15 F :   -0.254583
  16 H :    0.032673
  17 H :    0.042965
  18 H :    0.039434
  19 H :    0.013794

  Mayer bond orders larger than 0.100000
B(  0-C ,  1-C ) :   1.1177 B(  0-C ,  6-C ) :   1.1340 B(  0-C ,  8-N ) :   0.1227
B(  0-C , 16-H ) :   0.1633 B(  0-C , 17-H ) :   0.1110 B(  0-C , 18-H ) :   0.6749
B(  0-C , 19-H ) :   0.6164 B(  1-C ,  2-C ) :   1.3156 B(  1-C ,  3-H ) :   0.1469
B(  1-C ,  4-H ) :   0.2102 B(  1-C , 16-H ) :   0.7502 B(  1-C , 17-H ) :   0.8222
B(  1-C , 18-H ) :   0.1545 B(  1-C , 19-H ) :   0.1959 B(  2-C ,  3-H ) :   0.8694
B(  2-C ,  4-H ) :   0.7588 B(  2-C ,  5-S ) :   0.9504 B(  2-C , 16-H ) :   0.1567
B(  2-C , 17-H ) :   0.1277 B(  5-S , 13-O ) :   1.6510 B(  5-S , 14-O ) :   1.5945
B(  5-S , 15-F ) :   0.7032 B(  6-C ,  7-C ) :   1.5113 B(  6-C ,  8-N ) :   1.1960
B(  6-C ,  9-H ) :   0.1213 B(  6-C , 10-H ) :  -0.1145 B(  6-C , 12-H ) :   0.1581
B(  6-C , 18-H ) :   0.2300 B(  6-C , 19-H ) :   0.2131 B(  7-C ,  8-N ) :   0.1668
B(  7-C , 11-H ) :   0.9296 B(  7-C , 12-H ) :   0.5338 B(  8-N ,  9-H ) :   0.8730
B(  8-N , 10-H ) :   1.1765 B(  9-H , 10-H ) :  -0.1956 B(  9-H , 15-F ) :   0.1941
B( 13-O , 14-O ) :   0.1126 B( 16-H , 17-H ) :  -0.1051

FINAL SINGLE POINT ENERGY      -897.902730081322

DIPOLE MOMENT
-------------
                                X             Y             Z
Electronic contribution:      6.40573     -13.34520       3.14671
Nuclear contribution   :     -6.26130      13.99605      -3.80018
                        -----------------------------------------
Total Dipole Moment    :      0.14443       0.65085      -0.65347
                        -----------------------------------------
Magnitude (a.u.)       :      0.93353
Magnitude (Debye)      :      2.37286

Rotational constants in cm-1:     0.079895     0.025630     0.022948
Rotational constants in MHz :  2395.188639   768.373696   687.955250

                             ****ORCA TERMINATED NORMALLY****
TOTAL RUN TIME: 0 days 0 hours 1 minutes 20 seconds 618 msec
