                         Program Version 5.0.0 -  RELEASE  -
|  1> !wB97X-D3 RIJCOSX def2-SVPD def2/J TightSCF CPCM(Water)
|  2> *xyz -1 1
|  3> C          4.26524        2.50052       -0.79589
|  4> C          4.98224        1.65026        0.24742
|  5> O          4.36806        1.38927        1.31371
|  6> O          6.12892        1.23351       -0.04562
|  7> H          4.90412        2.63966       -1.64287
|  8> H          4.02079        3.45265       -0.37328
|  9> H          3.36773        2.00584       -1.10356
| 10> *
| 11> %MaxCore 64000
| 12> %pal nprocs 8
| 13> end
| 14> %scf
| 15>   MaxIter 150
| 16> end
| 17>
| 18>
| 19>                          ****END OF INPUT****

CARTESIAN COORDINATES (ANGSTROEM)
---------------------------------
  C      4.265240    2.500520   -0.795890
  C      4.982240    1.650260    0.247420
  O      4.368060    1.389270    1.313710
  O      6.128920    1.233510   -0.045620
  H      4.904120    2.639660   -1.642870
  H      4.020790    3.452650   -0.373280
  H      3.367730    2.005840   -1.103560

 Total Charge           Charge          ....   -1
 Multiplicity           Mult            ....    1
 Number of Electrons    NEL             ....   32
 Basis Dimension        Dim             ....  110

ORBITAL ENERGIES
----------------

  NO   OCC          E(Eh)            E(eV)
   0   2.0000     -19.178232      -521.8662
   1   2.0000     -19.177645      -521.8503
   2   2.0000     -10.369311      -282.1633
   3   2.0000     -10.260501      -279.2024
   4   2.0000      -1.124346       -30.5950
   5   2.0000      -1.028625       -27.9903
   6   2.0000      -0.817979       -22.2583
   7   2.0000      -0.589032       -16.0284
   8   2.0000      -0.532051       -14.4778
   9   2.0000      -0.523451       -14.2438
  10   2.0000      -0.520650       -14.1676
  11   2.0000      -0.469827       -12.7846
  12   2.0000      -0.449111       -12.2209
  13   2.0000      -0.344321        -9.3695
  14   2.0000      -0.333470        -9.0742
  15   2.0000      -0.323595        -8.8055
  16   0.0000       0.096844         2.6353
  17   0.0000       0.131692         3.5835
  18   0.0000       0.133600         3.6354
  19   0.0000       0.149840         4.0773
  20   0.0000       0.172449         4.6926

MULLIKEN ATOMIC CHARGES
-----------------------
   0 C :    0.410233
   1 C :    0.012382
   2 O :   -0.697803
   3 O :   -0.674473
   4 H :   -0.051443
   5 H :    0.000104
   6 H :    0.001000
Sum of atomic charges:   -1.0000000

LOEWDIN ATOMIC CHARGES
----------------------
   0 C :    0.156793
   1 C :   -0.354114
   2 O :   -0.377390
   3 O :   -0.372049
   4 H :   -0.026003
   5 H :   -0.014219
   6 H :   -0.013019

  Mayer bond orders larger than 0.100000
B(  0-C ,  1-C ) :   1.2262 B(  0-C ,  4-H ) :   0.8834 B(  0-C ,  5-H ) :   0.8192
B(  0-C ,  6-H ) :   0.8241 B(  1-C ,  2-O ) :   1.5004 B(  1-C ,  3-O ) :   1.5148
B(  1-C ,  4-H ) :   0.2180 B(  1-C ,  5-H ) :   0.1509 B(  1-C ,  6-H ) :   0.1461
B(  2-O ,  3-O ) :   0.1002

Dispersion correction           -0.000903673
FINAL SINGLE POINT ENERGY      -228.415966794522

DIPOLE MOMENT
-------------
                                X             Y             Z
Electronic contribution:      1.40163      -1.65431       2.02253
Nuclear contribution   :     -2.34880       2.82033      -3.41655
                        -----------------------------------------
Total Dipole Moment    :     -0.94717       1.16601      -1.39402
                        -----------------------------------------
Magnitude (a.u.)       :      2.04939
Magnitude (Debye)      :      5.20914

Rotational constants in cm-1:     0.393413     0.334516     0.186969
Rotational constants in MHz : 11794.232386 10028.538646  5605.197050

                             ****ORCA TERMINATED NORMALLY****
TOTAL RUN TIME: 0 days 0 hours 0 minutes 7 seconds 156 msec
