                         Program Version 5.0.0 -  RELEASE  -
|  1> !wB97X-D3 RIJCOSX def2-SVPD def2/J TightSCF CPCM(Water)
|  2> *xyz 1 1
|  3> C          3.91385       -1.65829        3.01513
|  4> N          5.03927       -0.90115        2.49282
|  5> C          6.21038       -1.41726        2.17824
|  6> N          6.53591       -2.67712        2.55608
|  7> N          7.07675       -0.70082        1.47891
|  8> H          7.95464       -1.12155        1.20755
|  9> H          6.75616        0.10664        0.96028
| 10> H          4.84217        0.01761        2.11519
| 11> H          5.99388       -3.12692        3.28278
| 12> H          7.49844       -2.97548        2.46878
| 13> H          3.08844       -0.99893        3.18495
| 14> H          4.19412       -2.12366        3.93697
| 15> H          3.63051       -2.40965        2.30798
| 16> *
| 17> %MaxCore 64000
| 18> %pal nprocs 8
| 19> end
| 20> %scf
| 21>   MaxIter 150
| 22> end
| 23>
| 24>
| 25>                          ****END OF INPUT****

CARTESIAN COORDINATES (ANGSTROEM)
---------------------------------
  C      3.913850   -1.658290    3.015130
  N      5.039270   -0.901150    2.492820
  C      6.210380   -1.417260    2.178240
  N      6.535910   -2.677120    2.556080
  N      7.076750   -0.700820    1.478910
  H      7.954640   -1.121550    1.207550
  H      6.756160    0.106640    0.960280
  H      4.842170    0.017610    2.115190
  H      5.993880   -3.126920    3.282780
  H      7.498440   -2.975480    2.468780
  H      3.088440   -0.998930    3.184950
  H      4.194120   -2.123660    3.936970
  H      3.630510   -2.409650    2.307980

 Total Charge           Charge          ....    1
 Multiplicity           Mult            ....    1
 Number of Electrons    NEL             ....   40
 Basis Dimension        Dim             ....  164

ORBITAL ENERGIES
----------------

  NO   OCC          E(Eh)            E(eV)
   0   2.0000     -14.493253      -394.3815
   1   2.0000     -14.484879      -394.1536
   2   2.0000     -14.483893      -394.1268
   3   2.0000     -10.456531      -284.5367
   4   2.0000     -10.330087      -281.0960
   5   2.0000      -1.154887       -31.4261
   6   2.0000      -1.042992       -28.3813
   7   2.0000      -1.023306       -27.8456
   8   2.0000      -0.848205       -23.0808
   9   2.0000      -0.757042       -20.6002
  10   2.0000      -0.716033       -19.4843
  11   2.0000      -0.683092       -18.5879
  12   2.0000      -0.616820       -16.7845
  13   2.0000      -0.610689       -16.6177
  14   2.0000      -0.587614       -15.9898
  15   2.0000      -0.573877       -15.6160
  16   2.0000      -0.524004       -14.2589
  17   2.0000      -0.511203       -13.9105
  18   2.0000      -0.401495       -10.9252
  19   2.0000      -0.379305       -10.3214
  20   0.0000       0.081077         2.2062
  21   0.0000       0.086000         2.3402
  22   0.0000       0.116295         3.1645
  23   0.0000       0.132759         3.6126
  24   0.0000       0.154858         4.2139

MULLIKEN ATOMIC CHARGES
-----------------------
   0 C :    0.937770
   1 N :   -0.582996
   2 C :    1.228237
   3 N :   -0.135709
   4 N :   -0.138665
   5 H :    0.038098
   6 H :    0.029241
   7 H :   -0.132720
   8 H :   -0.001726
   9 H :   -0.025111
  10 H :   -0.219901
  11 H :    0.000676
  12 H :    0.002806
Sum of atomic charges:    1.0000000

LOEWDIN ATOMIC CHARGES
----------------------
   0 C :    0.242582
   1 N :    0.013549
   2 C :   -0.035238
   3 N :    0.274545
   4 N :    0.259743
   5 H :    0.046874
   6 H :    0.049272
   7 H :    0.069572
   8 H :    0.022069
   9 H :    0.042308
  10 H :    0.009694
  11 H :   -0.000652
  12 H :    0.005683

  Mayer bond orders larger than 0.100000
B(  0-C ,  1-N ) :   0.8809 B(  0-C ,  7-H ) :  -0.1032 B(  0-C , 10-H ) :   0.8814
B(  0-C , 11-H ) :   0.8396 B(  0-C , 12-H ) :   0.8546 B(  1-N ,  2-C ) :   1.0643
B(  1-N ,  3-N ) :   0.2071 B(  1-N ,  4-N ) :   0.2148 B(  1-N ,  7-H ) :   1.2880
B(  1-N , 10-H ) :   0.1593 B(  1-N , 11-H ) :   0.1510 B(  1-N , 12-H ) :   0.1173
B(  2-C ,  3-N ) :   0.9545 B(  2-C ,  4-N ) :   0.8983 B(  2-C ,  6-H ) :  -0.1105
B(  2-C ,  7-H ) :  -0.1902 B(  2-C ,  8-H ) :  -0.1050 B(  3-N ,  4-N ) :   0.1300
B(  3-N ,  8-H ) :   1.0688 B(  3-N ,  9-H ) :   1.1789 B(  4-N ,  5-H ) :   1.1284
B(  4-N ,  6-H ) :   1.1436 B(  5-H ,  6-H ) :  -0.1443 B(  8-H ,  9-H ) :  -0.1586

Dispersion correction           -0.002371491
FINAL SINGLE POINT ENERGY      -244.955562015192

DIPOLE MOMENT
-------------
                                X             Y             Z
Electronic contribution:      2.59571       0.91732      -1.05085
Nuclear contribution   :     -2.01473      -0.74897       0.69347
                        -----------------------------------------
Total Dipole Moment    :      0.58098       0.16835      -0.35738
                        -----------------------------------------
Magnitude (a.u.)       :      0.70257
Magnitude (Debye)      :      1.78578

Rotational constants in cm-1:     0.313249     0.134439     0.096258
Rotational constants in MHz :  9390.961986  4030.377472  2885.728233

                             ****ORCA TERMINATED NORMALLY****
TOTAL RUN TIME: 0 days 0 hours 0 minutes 15 seconds 212 msec
