                         Program Version 5.0.0 -  RELEASE  -
|  1> !wB97X-D3 RIJCOSX def2-SVPD def2/J TightSCF CPCM(Water)
|  2> *xyz 0 1
|  3> C          4.26524        2.50052       -0.79589
|  4> C          4.98224        1.65026        0.24742
|  5> F          4.36806        1.38927        1.31371
|  6> O          6.12892        1.23351       -0.04562
|  7> H          4.90412        2.63966       -1.64287
|  8> H          4.02079        3.45265       -0.37328
|  9> H          3.36773        2.00584       -1.10356
| 10> *
| 11> %MaxCore 64000
| 12> %pal nprocs 8
| 13> end
| 14> %scf
| 15>   MaxIter 150
| 16> end
| 17>
| 18>
| 19>                          ****END OF INPUT****

CARTESIAN COORDINATES (ANGSTROEM)
---------------------------------
  C      4.265240    2.500520   -0.795890
  C      4.982240    1.650260    0.247420
  F      4.368060    1.389270    1.313710
  O      6.128920    1.233510   -0.045620
  H      4.904120    2.639660   -1.642870
  H      4.020790    3.452650   -0.373280
  H      3.367730    2.005840   -1.103560

 Total Charge           Charge          ....    0
 Multiplicity           Mult            ....    1
 Number of Electrons    NEL             ....   32
 Basis Dimension        Dim             ....  110

ORBITAL ENERGIES
----------------

  NO   OCC          E(Eh)            E(eV)
   0   2.0000     -24.876962      -676.9366
   1   2.0000     -19.263422      -524.1844
   2   2.0000     -10.484227      -285.2903
   3   2.0000     -10.301659      -280.3224
   4   2.0000      -1.425684       -38.7948
   5   2.0000      -1.152058       -31.3491
   6   2.0000      -0.873604       -23.7720
   7   2.0000      -0.767312       -20.8796
   8   2.0000      -0.658162       -17.9095
   9   2.0000      -0.650235       -17.6938
  10   2.0000      -0.613561       -16.6958
  11   2.0000      -0.531731       -14.4691
  12   2.0000      -0.523623       -14.2485
  13   2.0000      -0.504874       -13.7383
  14   2.0000      -0.461895       -12.5688
  15   2.0000      -0.402248       -10.9457
  16   0.0000       0.053633         1.4594
  17   0.0000       0.089762         2.4425
  18   0.0000       0.130991         3.5644
  19   0.0000       0.153805         4.1852
  20   0.0000       0.161324         4.3899

MULLIKEN ATOMIC CHARGES
-----------------------
   0 C :    0.250803
   1 C :    0.438846
   2 F :   -0.376041
   3 O :   -0.510515
   4 H :    0.002728
   5 H :    0.095726
   6 H :    0.098454
Sum of atomic charges:    0.0000000

LOEWDIN ATOMIC CHARGES
----------------------
   0 C :    0.219173
   1 C :   -0.019936
   2 F :   -0.036298
   3 O :   -0.189509
   4 H :    0.003332
   5 H :    0.010944
   6 H :    0.012293

  Mayer bond orders larger than 0.100000
B(  0-C ,  1-C ) :   1.2624 B(  0-C ,  4-H ) :   0.9134 B(  0-C ,  5-H ) :   0.8154
B(  0-C ,  6-H ) :   0.8171 B(  1-C ,  2-F ) :   0.7680 B(  1-C ,  3-O ) :   1.8158
B(  1-C ,  4-H ) :   0.1829 B(  1-C ,  5-H ) :   0.1154 B(  1-C ,  6-H ) :   0.1125

Dispersion correction           -0.000896073
FINAL SINGLE POINT ENERGY      -252.847793551754

DIPOLE MOMENT
-------------
                                X             Y             Z
Electronic contribution:      0.46578      -2.34893       4.28053
Nuclear contribution   :     -1.76261       3.13449      -4.58927
                        -----------------------------------------
Total Dipole Moment    :     -1.29682       0.78556      -0.30875
                        -----------------------------------------
Magnitude (a.u.)       :      1.54731
Magnitude (Debye)      :      3.93295

Rotational constants in cm-1:     0.370628     0.320375     0.177409
Rotational constants in MHz : 11111.155899  9604.607061  5318.597912

                             ****ORCA TERMINATED NORMALLY****
TOTAL RUN TIME: 0 days 0 hours 0 minutes 7 seconds 775 msec
