                         Program Version 5.0.0 -  RELEASE  -
|  1> !wB97X-D3 RIJCOSX def2-SVPD def2/J TightSCF CPCM(Water)
|  2> *xyz 0 1
|  3> C          3.91385       -1.65829        3.01513
|  4> C          5.03927       -0.90115        2.49282
|  5> C          6.21038       -1.41726        2.17824
|  6> N          6.53591       -2.67712        2.55608
|  7> N          7.07675       -0.70082        1.47891
|  8> H          7.95464       -1.12155        1.20755
|  9> H          6.75616        0.10664        0.96028
| 10> H          4.84217        0.01761        2.11519
| 11> H          5.99388       -3.12692        3.28278
| 12> H          7.49844       -2.97548        2.46878
| 13> H          3.08844       -0.99893        3.18495
| 14> H          4.19412       -2.12366        3.93697
| 15> H          3.63051       -2.40965        2.30798
| 16> *
| 17> %MaxCore 64000
| 18> %pal nprocs 8
| 19> end
| 20> %scf
| 21>   MaxIter 150
| 22> end
| 23>
| 24>
| 25>                          ****END OF INPUT****

CARTESIAN COORDINATES (ANGSTROEM)
---------------------------------
  C      3.913850   -1.658290    3.015130
  C      5.039270   -0.901150    2.492820
  C      6.210380   -1.417260    2.178240
  N      6.535910   -2.677120    2.556080
  N      7.076750   -0.700820    1.478910
  H      7.954640   -1.121550    1.207550
  H      6.756160    0.106640    0.960280
  H      4.842170    0.017610    2.115190
  H      5.993880   -3.126920    3.282780
  H      7.498440   -2.975480    2.468780
  H      3.088440   -0.998930    3.184950
  H      4.194120   -2.123660    3.936970
  H      3.630510   -2.409650    2.307980

 Total Charge           Charge          ....    0
 Multiplicity           Mult            ....    1
 Number of Electrons    NEL             ....   40
 Basis Dimension        Dim             ....  164

ORBITAL ENERGIES
----------------

  NO   OCC          E(Eh)            E(eV)
   0   2.0000     -14.433263      -392.7491
   1   2.0000     -14.428338      -392.6150
   2   2.0000     -10.334775      -281.2235
   3   2.0000     -10.258107      -279.1373
   4   2.0000     -10.214248      -277.9438
   5   2.0000      -1.066484       -29.0205
   6   2.0000      -0.970965       -26.4213
   7   2.0000      -0.867864       -23.6158
   8   2.0000      -0.764997       -20.8166
   9   2.0000      -0.683427       -18.5970
  10   2.0000      -0.637673       -17.3520
  11   2.0000      -0.608049       -16.5459
  12   2.0000      -0.564477       -15.3602
  13   2.0000      -0.525490       -14.2993
  14   2.0000      -0.518599       -14.1118
  15   2.0000      -0.477337       -12.9890
  16   2.0000      -0.460938       -12.5428
  17   2.0000      -0.438979       -11.9452
  18   2.0000      -0.359960        -9.7950
  19   2.0000      -0.251877        -6.8539
  20   0.0000       0.096473         2.6252
  21   0.0000       0.122566         3.3352
  22   0.0000       0.135020         3.6741
  23   0.0000       0.146887         3.9970
  24   0.0000       0.165472         4.5027

MULLIKEN ATOMIC CHARGES
-----------------------
   0 C :    0.733046
   1 C :   -0.684622
   2 C :    0.733380
   3 N :   -0.124802
   4 N :   -0.022100
   5 H :   -0.072981
   6 H :    0.004383
   7 H :   -0.292818
   8 H :   -0.002656
   9 H :   -0.155722
  10 H :   -0.051485
  11 H :    0.000852
  12 H :   -0.064476
Sum of atomic charges:   -0.0000000

LOEWDIN ATOMIC CHARGES
----------------------
   0 C :    0.070887
   1 C :   -0.097493
   2 C :   -0.246769
   3 N :    0.200207
   4 N :    0.172508
   5 H :    0.007328
   6 H :    0.017152
   7 H :   -0.058342
   8 H :   -0.003909
   9 H :    0.004564
  10 H :   -0.018228
  11 H :   -0.026837
  12 H :   -0.021069

  Mayer bond orders larger than 0.100000
B(  0-C ,  1-C ) :   1.2141 B(  0-C ,  7-H ) :   0.1876 B(  0-C , 10-H ) :   0.7721
B(  0-C , 11-H ) :   0.7165 B(  0-C , 12-H ) :   0.7665 B(  1-C ,  2-C ) :   1.6297
B(  1-C ,  3-N ) :   0.2560 B(  1-C ,  4-N ) :   0.2879 B(  1-C ,  7-H ) :   1.0313
B(  1-C , 10-H ) :   0.2725 B(  1-C , 11-H ) :   0.2719 B(  1-C , 12-H ) :   0.1583
B(  2-C ,  3-N ) :   0.9179 B(  2-C ,  4-N ) :   0.9341 B(  2-C ,  7-H ) :   0.1540
B(  2-C ,  9-H ) :  -0.1151 B(  3-N ,  8-H ) :   1.0221 B(  3-N ,  9-H ) :   1.2562
B(  4-N ,  5-H ) :   1.1039 B(  4-N ,  6-H ) :   1.1280 B(  5-H ,  6-H ) :  -0.1398
B(  8-H ,  9-H ) :  -0.1530 B( 10-H , 11-H ) :   0.1022

Dispersion correction           -0.002373163
FINAL SINGLE POINT ENERGY      -228.404015807046

DIPOLE MOMENT
-------------
                                X             Y             Z
Electronic contribution:      3.25239       0.21604      -1.10126
Nuclear contribution   :     -2.16157      -0.63191       0.72436
                        -----------------------------------------
Total Dipole Moment    :      1.09082      -0.41587      -0.37690
                        -----------------------------------------
Magnitude (a.u.)       :      1.22674
Magnitude (Debye)      :      3.11813

Rotational constants in cm-1:     0.318470     0.135474     0.097247
Rotational constants in MHz :  9547.495553  4061.405016  2915.385882

                             ****ORCA TERMINATED NORMALLY****
TOTAL RUN TIME: 0 days 0 hours 0 minutes 15 seconds 340 msec
