                         Program Version 5.0.0 -  RELEASE  -
|  1> !wB97X-D3 RIJCOSX def2-SVPD def2/J TightSCF CPCM(Water)
|  2> *xyz 0 1
|  3> C          4.26524        2.50052       -0.79589
|  4> C          4.98224        1.65026        0.24742
|  5> O          4.36806        1.38927        1.31371
|  6> F          6.12892        1.23351       -0.04562
|  7> H          4.90412        2.63966       -1.64287
|  8> H          4.02079        3.45265       -0.37328
|  9> H          3.36773        2.00584       -1.10356
| 10> *
| 11> %MaxCore 64000
| 12> %pal nprocs 8
| 13> end
| 14> %scf
| 15>   MaxIter 150
| 16> end
| 17>
| 18>
| 19>                          ****END OF INPUT****

CARTESIAN COORDINATES (ANGSTROEM)
---------------------------------
  C      4.265240    2.500520   -0.795890
  C      4.982240    1.650260    0.247420
  O      4.368060    1.389270    1.313710
  F      6.128920    1.233510   -0.045620
  H      4.904120    2.639660   -1.642870
  H      4.020790    3.452650   -0.373280
  H      3.367730    2.005840   -1.103560

 Total Charge           Charge          ....    0
 Multiplicity           Mult            ....    1
 Number of Electrons    NEL             ....   32
 Basis Dimension        Dim             ....  110

ORBITAL ENERGIES
----------------

  NO   OCC          E(Eh)            E(eV)
   0   2.0000     -24.877477      -676.9506
   1   2.0000     -19.263370      -524.1829
   2   2.0000     -10.484904      -285.3088
   3   2.0000     -10.301793      -280.3260
   4   2.0000      -1.427852       -38.8538
   5   2.0000      -1.150112       -31.2961
   6   2.0000      -0.874140       -23.7866
   7   2.0000      -0.768328       -20.9073
   8   2.0000      -0.658903       -17.9297
   9   2.0000      -0.651681       -17.7331
  10   2.0000      -0.613473       -16.6934
  11   2.0000      -0.533723       -14.5233
  12   2.0000      -0.522293       -14.2123
  13   2.0000      -0.504014       -13.7149
  14   2.0000      -0.458312       -12.4713
  15   2.0000      -0.404239       -10.9999
  16   0.0000       0.050473         1.3734
  17   0.0000       0.091082         2.4785
  18   0.0000       0.131065         3.5665
  19   0.0000       0.152592         4.1522
  20   0.0000       0.161213         4.3868

MULLIKEN ATOMIC CHARGES
-----------------------
   0 C :    0.231958
   1 C :    0.433648
   2 O :   -0.535795
   3 F :   -0.350601
   4 H :    0.037173
   5 H :    0.090043
   6 H :    0.093574
Sum of atomic charges:    0.0000000

LOEWDIN ATOMIC CHARGES
----------------------
   0 C :    0.219737
   1 C :   -0.018518
   2 O :   -0.192233
   3 F :   -0.035660
   4 H :   -0.001345
   5 H :    0.013562
   6 H :    0.014458

  Mayer bond orders larger than 0.100000
B(  0-C ,  1-C ) :   1.2779 B(  0-C ,  4-H ) :   0.9000 B(  0-C ,  5-H ) :   0.8181
B(  0-C ,  6-H ) :   0.8219 B(  1-C ,  2-O ) :   1.7802 B(  1-C ,  3-F ) :   0.8104
B(  1-C ,  4-H ) :   0.1397 B(  1-C ,  5-H ) :   0.1289 B(  1-C ,  6-H ) :   0.1228

Dispersion correction           -0.000908897
FINAL SINGLE POINT ENERGY      -252.847120432756

DIPOLE MOMENT
-------------
                                X             Y             Z
Electronic contribution:      3.69383      -2.63540       1.79100
Nuclear contribution   :     -3.58210       3.29544      -3.18468
                        -----------------------------------------
Total Dipole Moment    :      0.11173       0.66003      -1.39368
                        -----------------------------------------
Magnitude (a.u.)       :      1.54612
Magnitude (Debye)      :      3.92992

Rotational constants in cm-1:     0.368075     0.322590     0.177495
Rotational constants in MHz : 11034.605942  9670.991558  5321.154504

                             ****ORCA TERMINATED NORMALLY****
TOTAL RUN TIME: 0 days 0 hours 0 minutes 7 seconds 684 msec
