                         Program Version 5.0.0 -  RELEASE  -
|  1> !wB97X-D3 RIJCOSX def2-SVPD def2/J TightSCF CPCM(Water)
|  2> *xyz 0 1
|  3> C          3.91385       -1.65829        3.01513
|  4> N          5.03927       -0.90115        2.49282
|  5> C          6.21038       -1.41726        2.17824
|  6> C          6.53591       -2.67712        2.55608
|  7> N          7.07675       -0.70082        1.47891
|  8> H          7.95464       -1.12155        1.20755
|  9> H          6.75616        0.10664        0.96028
| 10> H          4.84217        0.01761        2.11519
| 11> H          5.99388       -3.12692        3.28278
| 12> H          7.49844       -2.97548        2.46878
| 13> H          3.08844       -0.99893        3.18495
| 14> H          4.19412       -2.12366        3.93697
| 15> H          3.63051       -2.40965        2.30798
| 16> *
| 17> %MaxCore 64000
| 18> %pal nprocs 8
| 19> end
| 20> %scf
| 21>   MaxIter 150
| 22> end
| 23>
| 24>
| 25>                          ****END OF INPUT****

CARTESIAN COORDINATES (ANGSTROEM)
---------------------------------
  C      3.913850   -1.658290    3.015130
  N      5.039270   -0.901150    2.492820
  C      6.210380   -1.417260    2.178240
  C      6.535910   -2.677120    2.556080
  N      7.076750   -0.700820    1.478910
  H      7.954640   -1.121550    1.207550
  H      6.756160    0.106640    0.960280
  H      4.842170    0.017610    2.115190
  H      5.993880   -3.126920    3.282780
  H      7.498440   -2.975480    2.468780
  H      3.088440   -0.998930    3.184950
  H      4.194120   -2.123660    3.936970
  H      3.630510   -2.409650    2.307980

 Total Charge           Charge          ....    0
 Multiplicity           Mult            ....    1
 Number of Electrons    NEL             ....   40
 Basis Dimension        Dim             ....  164

ORBITAL ENERGIES
----------------

  NO   OCC          E(Eh)            E(eV)
   0   2.0000     -14.441711      -392.9789
   1   2.0000     -14.434735      -392.7891
   2   2.0000     -10.348173      -281.5881
   3   2.0000     -10.308407      -280.5060
   4   2.0000     -10.210651      -277.8460
   5   2.0000      -1.083456       -29.4823
   6   2.0000      -0.993151       -27.0250
   7   2.0000      -0.829088       -22.5606
   8   2.0000      -0.805415       -21.9165
   9   2.0000      -0.673838       -18.3361
  10   2.0000      -0.652179       -17.7467
  11   2.0000      -0.620452       -16.8833
  12   2.0000      -0.554038       -15.0761
  13   2.0000      -0.542412       -14.7598
  14   2.0000      -0.513214       -13.9653
  15   2.0000      -0.483365       -13.1530
  16   2.0000      -0.477236       -12.9862
  17   2.0000      -0.465367       -12.6633
  18   2.0000      -0.344723        -9.3804
  19   2.0000      -0.265762        -7.2318
  20   0.0000       0.096265         2.6195
  21   0.0000       0.120342         3.2747
  22   0.0000       0.128421         3.4945
  23   0.0000       0.141470         3.8496
  24   0.0000       0.162988         4.4351

MULLIKEN ATOMIC CHARGES
-----------------------
   0 C :    0.970965
   1 N :   -0.529320
   2 C :    0.456377
   3 C :    0.407271
   4 N :   -0.060191
   5 H :    0.026105
   6 H :   -0.074886
   7 H :   -0.260409
   8 H :   -0.165294
   9 H :   -0.514454
  10 H :   -0.281857
  11 H :    0.059345
  12 H :   -0.033654
Sum of atomic charges:   -0.0000000

LOEWDIN ATOMIC CHARGES
----------------------
   0 C :    0.209156
   1 N :   -0.050015
   2 C :   -0.255124
   3 C :    0.116554
   4 N :    0.184403
   5 H :    0.019429
   6 H :    0.014936
   7 H :    0.039702
   8 H :   -0.132708
   9 H :   -0.118603
  10 H :   -0.002964
  11 H :   -0.014236
  12 H :   -0.010531

  Mayer bond orders larger than 0.100000
B(  0-C ,  1-N ) :   0.8866 B(  0-C ,  7-H ) :  -0.1236 B(  0-C , 10-H ) :   0.9106
B(  0-C , 11-H ) :   0.8218 B(  0-C , 12-H ) :   0.8425 B(  1-N ,  2-C ) :   1.0700
B(  1-N ,  3-C ) :   0.3158 B(  1-N ,  4-N ) :   0.1242 B(  1-N ,  7-H ) :   1.3624
B(  1-N , 10-H ) :   0.1511 B(  1-N , 11-H ) :   0.1052 B(  1-N , 12-H ) :   0.1293
B(  2-C ,  3-C ) :   1.7650 B(  2-C ,  4-N ) :   0.9545 B(  2-C ,  7-H ) :  -0.2077
B(  2-C ,  8-H ) :   0.2838 B(  2-C ,  9-H ) :   0.2073 B(  3-C ,  4-N ) :   0.2084
B(  3-C ,  8-H ) :   0.7274 B(  3-C ,  9-H ) :   0.8502 B(  4-N ,  5-H ) :   1.1036
B(  4-N ,  6-H ) :   1.1682 B(  5-H ,  6-H ) :  -0.1426 B(  8-H ,  9-H ) :   0.1337

Dispersion correction           -0.002368308
FINAL SINGLE POINT ENERGY      -228.395196401783

DIPOLE MOMENT
-------------
                                X             Y             Z
Electronic contribution:      1.33811       2.49119      -1.30293
Nuclear contribution   :     -1.85843      -0.99162       0.73717
                        -----------------------------------------
Total Dipole Moment    :     -0.52032       1.49957      -0.56576
                        -----------------------------------------
Magnitude (a.u.)       :      1.68509
Magnitude (Debye)      :      4.28316

Rotational constants in cm-1:     0.336495     0.135025     0.098658
Rotational constants in MHz : 10087.870488  4047.943278  2957.678786

                             ****ORCA TERMINATED NORMALLY****
TOTAL RUN TIME: 0 days 0 hours 0 minutes 14 seconds 967 msec
