                         Program Version 5.0.0 -  RELEASE  -
|  1> !wB97X-D3 RIJCOSX def2-SVPD def2/J TightSCF CPCM(Water)
|  2> *xyz 0 1
|  3> C          3.91385       -1.65829        3.01513
|  4> N          5.03927       -0.90115        2.49282
|  5> C          6.21038       -1.41726        2.17824
|  6> N          6.53591       -2.67712        2.55608
|  7> C          7.07675       -0.70082        1.47891
|  8> H          7.95464       -1.12155        1.20755
|  9> H          6.75616        0.10664        0.96028
| 10> H          4.84217        0.01761        2.11519
| 11> H          5.99388       -3.12692        3.28278
| 12> H          7.49844       -2.97548        2.46878
| 13> H          3.08844       -0.99893        3.18495
| 14> H          4.19412       -2.12366        3.93697
| 15> H          3.63051       -2.40965        2.30798
| 16> *
| 17> %MaxCore 64000
| 18> %pal nprocs 8
| 19> end
| 20> %scf
| 21>   MaxIter 150
| 22> end
| 23>
| 24>
| 25>                          ****END OF INPUT****

CARTESIAN COORDINATES (ANGSTROEM)
---------------------------------
  C      3.913850   -1.658290    3.015130
  N      5.039270   -0.901150    2.492820
  C      6.210380   -1.417260    2.178240
  N      6.535910   -2.677120    2.556080
  C      7.076750   -0.700820    1.478910
  H      7.954640   -1.121550    1.207550
  H      6.756160    0.106640    0.960280
  H      4.842170    0.017610    2.115190
  H      5.993880   -3.126920    3.282780
  H      7.498440   -2.975480    2.468780
  H      3.088440   -0.998930    3.184950
  H      4.194120   -2.123660    3.936970
  H      3.630510   -2.409650    2.307980

 Total Charge           Charge          ....    0
 Multiplicity           Mult            ....    1
 Number of Electrons    NEL             ....   40
 Basis Dimension        Dim             ....  164

ORBITAL ENERGIES
----------------

  NO   OCC          E(Eh)            E(eV)
   0   2.0000     -14.437700      -392.8698
   1   2.0000     -14.435622      -392.8133
   2   2.0000     -10.345776      -281.5229
   3   2.0000     -10.308675      -280.5133
   4   2.0000     -10.206991      -277.7463
   5   2.0000      -1.078787       -29.3553
   6   2.0000      -0.986649       -26.8481
   7   2.0000      -0.853814       -23.2335
   8   2.0000      -0.774883       -21.0856
   9   2.0000      -0.702953       -19.1283
  10   2.0000      -0.635771       -17.3002
  11   2.0000      -0.593633       -16.1536
  12   2.0000      -0.568790       -15.4776
  13   2.0000      -0.553462       -15.0605
  14   2.0000      -0.495751       -13.4901
  15   2.0000      -0.489776       -13.3275
  16   2.0000      -0.483733       -13.1631
  17   2.0000      -0.462732       -12.5916
  18   2.0000      -0.351684        -9.5698
  19   2.0000      -0.261245        -7.1088
  20   0.0000       0.093046         2.5319
  21   0.0000       0.120606         3.2819
  22   0.0000       0.138476         3.7681
  23   0.0000       0.140950         3.8355
  24   0.0000       0.157810         4.2942

MULLIKEN ATOMIC CHARGES
-----------------------
   0 C :    0.963992
   1 N :   -0.531654
   2 C :    0.595976
   3 N :   -0.054818
   4 C :    0.291063
   5 H :   -0.331968
   6 H :   -0.287445
   7 H :   -0.183668
   8 H :   -0.100823
   9 H :   -0.026862
  10 H :   -0.255469
  11 H :   -0.050827
  12 H :   -0.027498
Sum of atomic charges:    0.0000000

LOEWDIN ATOMIC CHARGES
----------------------
   0 C :    0.208031
   1 N :   -0.050271
   2 C :   -0.253122
   3 N :    0.200736
   4 C :    0.096310
   5 H :   -0.112035
   6 H :   -0.109147
   7 H :    0.043888
   8 H :   -0.009723
   9 H :    0.015110
  10 H :   -0.003141
  11 H :   -0.015204
  12 H :   -0.011435

  Mayer bond orders larger than 0.100000
B(  0-C ,  1-N ) :   0.9118 B(  0-C ,  7-H ) :  -0.1076 B(  0-C , 10-H ) :   0.8732
B(  0-C , 11-H ) :   0.8359 B(  0-C , 12-H ) :   0.8456 B(  1-N ,  2-C ) :   1.0938
B(  1-N ,  3-N ) :   0.1426 B(  1-N ,  4-C ) :   0.2173 B(  1-N ,  7-H ) :   1.2446
B(  1-N , 10-H ) :   0.1601 B(  1-N , 11-H ) :   0.1669 B(  1-N , 12-H ) :   0.1280
B(  2-C ,  3-N ) :   0.9514 B(  2-C ,  4-C ) :   1.6155 B(  2-C ,  5-H ) :   0.1782
B(  2-C ,  6-H ) :   0.1242 B(  2-C ,  7-H ) :  -0.1511 B(  3-N ,  4-C ) :   0.1856
B(  3-N ,  8-H ) :   1.0762 B(  3-N ,  9-H ) :   1.1386 B(  4-C ,  5-H ) :   0.8164
B(  4-C ,  6-H ) :   0.8565 B(  5-H ,  6-H ) :   0.1364 B(  8-H ,  9-H ) :  -0.1577

Dispersion correction           -0.002384317
FINAL SINGLE POINT ENERGY      -228.392214272413

DIPOLE MOMENT
-------------
                                X             Y             Z
Electronic contribution:      0.64004      -0.10983       0.22467
Nuclear contribution   :     -1.74889      -0.59133       0.51900
                        -----------------------------------------
Total Dipole Moment    :     -1.10884      -0.70116       0.74366
                        -----------------------------------------
Magnitude (a.u.)       :      1.50804
Magnitude (Debye)      :      3.83314

Rotational constants in cm-1:     0.319878     0.140238     0.099847
Rotational constants in MHz :  9589.703832  4204.215525  2993.343846

                             ****ORCA TERMINATED NORMALLY****
TOTAL RUN TIME: 0 days 0 hours 0 minutes 15 seconds 18 msec
