                         Program Version 5.0.0 -  RELEASE  -
|  1> !wB97X-D3 RIJCOSX def2-SVPD def2/J TightSCF CPCM(Water) xyzfile
|  2>
|  3> *xyzfile 0 1 D3.xyz
|  4>
|  5> %MaxCore 64000
|  6>
|  7> %pal nprocs 18
|  8> end
|  9>
| 10> %scf
| 11>   MaxIter 150
| 12> end
| 13>
| 14>
| 15>                          ****END OF INPUT****

CARTESIAN COORDINATES (ANGSTROEM)
---------------------------------
  C      3.913853   -1.658291    3.015134
  N      5.039266   -0.901154    2.492821
  C      4.084215    1.742081   -2.114724
  C      4.265245    2.500518   -0.795890
  H      4.868534    3.392674   -0.981134
  H      3.307640    2.824571   -0.387809
  C      4.982240    1.650257    0.247422
  C      6.210384   -1.417261    2.178244
  N      6.535913   -2.677122    2.556078
  C      7.076754   -0.700820    1.478906
  H      7.954643   -1.121554    1.207554
  H      6.756161    0.106637    0.960278
  H      4.842168    0.017609    2.115191
  H      5.993876   -3.126918    3.282784
  H      7.498441   -2.975482    2.468776
  F      4.368065    1.389270    1.313706
  O      6.128919    1.233512   -0.045620
  C      3.139159   -2.376572    1.910609
  H      3.267235   -0.939401    3.520693
  H      4.247195   -2.355095    3.790065
  C      1.997274    0.430918   -1.399218
  C      3.412746    0.376886   -1.965497
  H      4.047407   -0.246590   -1.326706
  H      3.390774   -0.118719   -2.942839
  H      5.068475    1.598504   -2.565728
  H      3.503356    2.363939   -2.804565
  C      2.399946   -1.389579    1.009490
  H      2.440750   -3.087118    2.362976
  H      3.844475   -2.970462    1.318677
  C      2.070177   -1.936705   -0.372401
  H      1.481611   -1.061542    1.509912
  H      3.008628   -0.490001    0.897451
  C      1.322238   -0.935775   -1.256413
  H      1.472747   -2.850902   -0.283997
  H      3.003539   -2.234041   -0.862535
  H      1.376444    1.058920   -2.047420
  H      2.015341    0.929780   -0.426535
  H      0.316648   -0.787213   -0.848278
  H      1.185611   -1.379252   -2.248613

 Total Charge           Charge          ....    0
 Multiplicity           Mult            ....    1
 Number of Electrons    NEL             ....  126
 Basis Dimension        Dim             ....  510

ORBITAL ENERGIES
----------------

  NO   OCC          E(Eh)            E(eV)
   0   2.0000     -24.895369      -677.4374
   1   2.0000     -19.265952      -524.2532
   2   2.0000     -14.429300      -392.6412
   3   2.0000     -14.425372      -392.5343
   4   2.0000     -10.489228      -285.4264
   5   2.0000     -10.335720      -281.2492
   6   2.0000     -10.314742      -280.6784
   7   2.0000     -10.311714      -280.5960
   8   2.0000     -10.294749      -280.1343
   9   2.0000     -10.282870      -279.8111
  10   2.0000     -10.278418      -279.6900
  11   2.0000     -10.277310      -279.6598
  12   2.0000     -10.277088      -279.6538
  13   2.0000     -10.276214      -279.6300
  14   2.0000     -10.275895      -279.6213
  15   2.0000     -10.184230      -277.1270
  16   2.0000      -1.445969       -39.3468
  17   2.0000      -1.162402       -31.6306
  18   2.0000      -1.073347       -29.2072
  19   2.0000      -0.983831       -26.7714
  20   2.0000      -0.934957       -25.4415
  21   2.0000      -0.911708       -24.8088
  22   2.0000      -0.884348       -24.0643
  23   2.0000      -0.847102       -23.0508
  24   2.0000      -0.823691       -22.4138
  25   2.0000      -0.800591       -21.7852
  26   2.0000      -0.773826       -21.0569
  27   2.0000      -0.747150       -20.3310
  28   2.0000      -0.712679       -19.3930
  29   2.0000      -0.710143       -19.3240
  30   2.0000      -0.684767       -18.6334
  31   2.0000      -0.675661       -18.3857
  32   2.0000      -0.659961       -17.9585
  33   2.0000      -0.657340       -17.8871
  34   2.0000      -0.633085       -17.2271
  35   2.0000      -0.615587       -16.7510
  36   2.0000      -0.593953       -16.1623
  37   2.0000      -0.577426       -15.7125
  38   2.0000      -0.572665       -15.5830
  39   2.0000      -0.562448       -15.3050
  40   2.0000      -0.557210       -15.1625
  41   2.0000      -0.537674       -14.6309
  42   2.0000      -0.531724       -14.4689
  43   2.0000      -0.524013       -14.2591
  44   2.0000      -0.512561       -13.9475
  45   2.0000      -0.499556       -13.5936
  46   2.0000      -0.496629       -13.5140
  47   2.0000      -0.482139       -13.1197
  48   2.0000      -0.479592       -13.0504
  49   2.0000      -0.470913       -12.8142
  50   2.0000      -0.468882       -12.7589
  51   2.0000      -0.456867       -12.4320
  52   2.0000      -0.450405       -12.2561
  53   2.0000      -0.443145       -12.0586
  54   2.0000      -0.431347       -11.7375
  55   2.0000      -0.421599       -11.4723
  56   2.0000      -0.416109       -11.3229
  57   2.0000      -0.401678       -10.9302
  58   2.0000      -0.399017       -10.8578
  59   2.0000      -0.396365       -10.7856
  60   2.0000      -0.376599       -10.2478
  61   2.0000      -0.343798        -9.3552
  62   2.0000      -0.251430        -6.8418
  63   0.0000       0.038075         1.0361
  64   0.0000       0.089526         2.4361
  65   0.0000       0.102605         2.7920
  66   0.0000       0.106218         2.8903
  67   0.0000       0.107227         2.9178

MULLIKEN ATOMIC CHARGES
-----------------------
   0 C :    1.133445
   1 N :    0.210827
   2 C :    0.357773
   3 C :    0.190597
   4 H :   -0.028786
   5 H :    0.228114
   6 C :    0.511627
   7 C :    0.663510
   8 N :    0.053827
   9 C :    0.906164
  10 H :   -0.352566
  11 H :   -0.865538
  12 H :   -1.007877
  13 H :   -0.046835
  14 H :   -0.118235
  15 F :   -0.490425
  16 O :   -0.492002
  17 C :    0.241867
  18 H :   -0.264510
  19 H :   -0.176443
  20 C :   -0.139400
  21 C :   -0.169128
  22 H :   -0.017399
  23 H :   -0.124368
  24 H :    0.034644
  25 H :   -0.056967
  26 C :    0.554644
  27 H :   -0.128475
  28 H :   -0.021302
  29 C :   -0.027593
  30 H :    0.014649
  31 H :   -0.877845
  32 C :    0.651068
  33 H :   -0.353866
  34 H :    0.125420
  35 H :   -0.355673
  36 H :    0.184483
  37 H :    0.034942
  38 H :    0.017632
Sum of atomic charges:    0.0000000

LOEWDIN ATOMIC CHARGES
----------------------
   0 C :    0.064361
   1 N :    0.004932
   2 C :   -0.010280
   3 C :    0.066184
   4 H :    0.052284
   5 H :    0.031766
   6 C :    0.067673
   7 C :   -0.231748
   8 N :    0.198348
   9 C :    0.132708
  10 H :   -0.106799
  11 H :   -0.215326
  12 H :   -0.047342
  13 H :   -0.016688
  14 H :    0.012107
  15 F :   -0.021077
  16 O :   -0.143672
  17 C :   -0.018900
  18 H :    0.031783
  19 H :    0.015038
  20 C :   -0.034142
  21 C :   -0.029085
  22 H :    0.012428
  23 H :    0.035146
  24 H :    0.028412
  25 H :    0.035922
  26 C :   -0.034474
  27 H :    0.027249
  28 H :    0.017159
  29 C :   -0.039861
  30 H :    0.039554
  31 H :   -0.022220
  32 C :   -0.032082
  33 H :    0.026494
  34 H :    0.019470
  35 H :    0.029207
  36 H :    0.007049
  37 H :    0.024631
  38 H :    0.023790

  Mayer bond orders larger than 0.100000
B(  0-C ,  1-N ) :   0.9064 B(  0-C , 12-H ) :  -0.4507 B(  0-C , 17-C ) :   1.0683
B(  0-C , 18-H ) :   0.6654 B(  0-C , 19-H ) :   0.8111 B(  0-C , 26-C ) :   0.1144
B(  1-N ,  7-C ) :   1.1336 B(  1-N ,  8-N ) :   0.1765 B(  1-N ,  9-C ) :   0.1333
B(  1-N , 12-H ) :   0.9207 B(  1-N , 18-H ) :   0.1908 B(  2-C ,  3-C ) :   1.1659
B(  2-C ,  4-H ) :   0.1641 B(  2-C , 21-C ) :   1.2499 B(  2-C , 24-H ) :   0.7106
B(  2-C , 25-H ) :   0.8387 B(  3-C ,  4-H ) :   0.6933 B(  3-C ,  5-H ) :   0.7524
B(  3-C ,  6-C ) :   1.2631 B(  3-C , 24-H ) :   0.1022 B(  3-C , 25-H ) :   0.1362
B(  4-H ,  6-C ) :   0.2726 B(  5-H ,  6-C ) :   0.1658 B(  6-C , 15-F ) :   0.6488
B(  6-C , 16-O ) :   1.7341 B(  7-C ,  8-N ) :   0.8704 B(  7-C ,  9-C ) :   1.6283
B(  7-C , 10-H ) :   0.2576 B(  7-C , 11-H ) :   0.1327 B(  7-C , 12-H ) :  -0.5996
B(  8-N ,  9-C ) :   0.2462 B(  8-N , 13-H ) :   0.9698 B(  8-N , 14-H ) :   1.2045
B(  8-N , 19-H ) :   0.1049 B(  9-C , 10-H ) :   0.5536 B(  9-C , 11-H ) :   0.3216
B( 10-H , 11-H ) :   0.2639 B( 11-H , 16-O ) :   0.1244 B( 12-H , 15-F ) :   0.1965
B( 12-H , 18-H ) :   0.1591 B( 13-H , 14-H ) :  -0.1822 B( 17-C , 19-H ) :   0.1594
B( 17-C , 26-C ) :   1.0980 B( 17-C , 27-H ) :   0.9477 B( 17-C , 28-H ) :   0.8842
B( 17-C , 30-H ) :   0.1284 B( 18-H , 19-H ) :  -0.1954 B( 20-C , 21-C ) :   1.2067
B( 20-C , 23-H ) :   0.1485 B( 20-C , 32-C ) :   1.1529 B( 20-C , 35-H ) :   1.0559
B( 20-C , 36-H ) :   0.8214 B( 20-C , 37-H ) :   0.2563 B( 20-C , 38-H ) :   0.1367
B( 21-C , 22-H ) :   0.9501 B( 21-C , 23-H ) :   0.8996 B( 21-C , 24-H ) :   0.2211
B( 21-C , 25-H ) :   0.1736 B( 21-C , 35-H ) :   0.1225 B( 24-H , 25-H ) :  -0.1097
B( 26-C , 27-H ) :   0.1544 B( 26-C , 29-C ) :   1.2352 B( 26-C , 30-H ) :   0.6630
B( 26-C , 31-H ) :   0.3710 B( 26-C , 33-H ) :   0.1058 B( 26-C , 34-H ) :   0.1460
B( 29-C , 31-H ) :   0.1292 B( 29-C , 32-C ) :   1.1093 B( 29-C , 33-H ) :   1.0586
B( 29-C , 34-H ) :   0.8352 B( 29-C , 37-H ) :   0.1111 B( 29-C , 38-H ) :   0.2105
B( 30-H , 31-H ) :   0.2487 B( 31-H , 36-H ) :   0.1038 B( 32-C , 37-H ) :   0.6842
B( 32-C , 38-H ) :   0.7136 B( 37-H , 38-H ) :  -0.1009

Dispersion correction           -0.020075480
FINAL SINGLE POINT ENERGY      -754.971748602151

DIPOLE MOMENT
-------------
                                X             Y             Z
Electronic contribution:      8.65786       8.70578       6.90172
Nuclear contribution   :    -11.12616      -8.32792      -6.96231
                        -----------------------------------------
Total Dipole Moment    :     -2.46829       0.37786      -0.06060
                        -----------------------------------------
Magnitude (a.u.)       :      2.49778
Magnitude (Debye)      :      6.34886

Rotational constants in cm-1:     0.020226     0.013574     0.009520
Rotational constants in MHz :   606.360011   406.923773   285.390769

                             ****ORCA TERMINATED NORMALLY****
TOTAL RUN TIME: 0 days 0 hours 2 minutes 41 seconds 47 msec
