                         Program Version 5.0.0 -  RELEASE  -
|  1> !wB97X-D3 RIJCOSX def2-SVPD def2/J TightSCF CPCM(Water) xyzfile
|  2>
|  3> *xyzfile 0 1 D6.xyz
|  4>
|  5> %MaxCore 64000
|  6>
|  7> %pal nprocs 18
|  8> end
|  9>
| 10> %scf
| 11>   MaxIter 150
| 12> end
| 13>
| 14>
| 15>                          ****END OF INPUT****

CARTESIAN COORDINATES (ANGSTROEM)
---------------------------------
  C      3.913853   -1.658291    3.015134
  N      5.039266   -0.901154    2.492821
  C      4.084215    1.742081   -2.114724
  C      4.265245    2.500518   -0.795890
  H      4.868534    3.392674   -0.981134
  H      3.307640    2.824571   -0.387809
  C      4.982240    1.650257    0.247422
  C      6.210384   -1.417261    2.178244
  N      6.535913   -2.677122    2.556078
  C      7.076754   -0.700820    1.478906
  H      7.954643   -1.121554    1.207554
  H      6.756161    0.106637    0.960278
  H      4.842168    0.017609    2.115191
  H      5.993876   -3.126918    3.282784
  H      7.498441   -2.975482    2.468776
  O      4.368065    1.389270    1.313706
  F      6.128919    1.233512   -0.045620
  C      3.139159   -2.376572    1.910609
  H      3.267235   -0.939401    3.520693
  H      4.247195   -2.355095    3.790065
  C      1.997274    0.430918   -1.399218
  C      3.412746    0.376886   -1.965497
  H      4.047407   -0.246590   -1.326706
  H      3.390774   -0.118719   -2.942839
  H      5.068475    1.598504   -2.565728
  H      3.503356    2.363939   -2.804565
  C      2.399946   -1.389579    1.009490
  H      2.440750   -3.087118    2.362976
  H      3.844475   -2.970462    1.318677
  C      2.070177   -1.936705   -0.372401
  H      1.481611   -1.061542    1.509912
  H      3.008628   -0.490001    0.897451
  C      1.322238   -0.935775   -1.256413
  H      1.472747   -2.850902   -0.283997
  H      3.003539   -2.234041   -0.862535
  H      1.376444    1.058920   -2.047420
  H      2.015341    0.929780   -0.426535
  H      0.316648   -0.787213   -0.848278
  H      1.185611   -1.379252   -2.248613

 Total Charge           Charge          ....    0
 Multiplicity           Mult            ....    1
 Number of Electrons    NEL             ....  126
 Basis Dimension        Dim             ....  510

ORBITAL ENERGIES
----------------

  NO   OCC          E(Eh)            E(eV)
   0   2.0000     -24.886625      -677.1995
   1   2.0000     -19.276342      -524.5359
   2   2.0000     -14.429914      -392.6579
   3   2.0000     -14.414953      -392.2508
   4   2.0000     -10.493593      -285.5452
   5   2.0000     -10.337166      -281.2886
   6   2.0000     -10.312434      -280.6156
   7   2.0000     -10.311826      -280.5991
   8   2.0000     -10.295807      -280.1631
   9   2.0000     -10.283602      -279.8310
  10   2.0000     -10.277635      -279.6687
  11   2.0000     -10.276667      -279.6423
  12   2.0000     -10.275265      -279.6042
  13   2.0000     -10.274672      -279.5880
  14   2.0000     -10.272149      -279.5194
  15   2.0000     -10.192947      -277.3642
  16   2.0000      -1.440730       -39.2042
  17   2.0000      -1.167938       -31.7812
  18   2.0000      -1.070039       -29.1173
  19   2.0000      -0.981234       -26.7007
  20   2.0000      -0.936066       -25.4716
  21   2.0000      -0.911376       -24.7998
  22   2.0000      -0.883665       -24.0457
  23   2.0000      -0.845813       -23.0157
  24   2.0000      -0.825631       -22.4666
  25   2.0000      -0.788189       -21.4477
  26   2.0000      -0.779260       -21.2047
  27   2.0000      -0.744248       -20.2520
  28   2.0000      -0.709987       -19.3197
  29   2.0000      -0.709182       -19.2978
  30   2.0000      -0.681479       -18.5440
  31   2.0000      -0.674359       -18.3502
  32   2.0000      -0.671118       -18.2621
  33   2.0000      -0.651273       -17.7220
  34   2.0000      -0.626950       -17.0602
  35   2.0000      -0.616033       -16.7631
  36   2.0000      -0.594296       -16.1716
  37   2.0000      -0.578556       -15.7433
  38   2.0000      -0.571448       -15.5499
  39   2.0000      -0.561432       -15.2774
  40   2.0000      -0.556467       -15.1422
  41   2.0000      -0.534607       -14.5474
  42   2.0000      -0.529773       -14.4159
  43   2.0000      -0.523231       -14.2378
  44   2.0000      -0.513855       -13.9827
  45   2.0000      -0.507374       -13.8063
  46   2.0000      -0.489423       -13.3179
  47   2.0000      -0.482665       -13.1340
  48   2.0000      -0.480727       -13.0813
  49   2.0000      -0.476288       -12.9604
  50   2.0000      -0.464838       -12.6489
  51   2.0000      -0.449959       -12.2440
  52   2.0000      -0.448336       -12.1998
  53   2.0000      -0.443336       -12.0638
  54   2.0000      -0.431134       -11.7317
  55   2.0000      -0.424503       -11.5513
  56   2.0000      -0.415276       -11.3002
  57   2.0000      -0.400161       -10.8889
  58   2.0000      -0.397948       -10.8287
  59   2.0000      -0.397076       -10.8050
  60   2.0000      -0.393740       -10.7142
  61   2.0000      -0.340816        -9.2741
  62   2.0000      -0.253532        -6.8990
  63   0.0000       0.038029         1.0348
  64   0.0000       0.089322         2.4306
  65   0.0000       0.101804         2.7702
  66   0.0000       0.105674         2.8755
  67   0.0000       0.108030         2.9396

MULLIKEN ATOMIC CHARGES
-----------------------
   0 C :    1.147931
   1 N :    0.179578
   2 C :    0.336754
   3 C :    0.168861
   4 H :    0.001203
   5 H :    0.189067
   6 C :    0.655177
   7 C :    0.647033
   8 N :    0.059777
   9 C :    1.069910
  10 H :   -0.284041
  11 H :   -0.994667
  12 H :   -1.035316
  13 H :   -0.049023
  14 H :   -0.119250
  15 O :   -0.599499
  16 F :   -0.512995
  17 C :    0.245745
  18 H :   -0.262808
  19 H :   -0.190142
  20 C :   -0.144282
  21 C :   -0.156009
  22 H :   -0.008875
  23 H :   -0.132495
  24 H :    0.028770
  25 H :   -0.057573
  26 C :    0.591837
  27 H :   -0.135210
  28 H :   -0.027147
  29 C :   -0.016383
  30 H :    0.002386
  31 H :   -0.903268
  32 C :    0.666481
  33 H :   -0.367850
  34 H :    0.130881
  35 H :   -0.359454
  36 H :    0.185726
  37 H :    0.037526
  38 H :    0.011643
Sum of atomic charges:    0.0000000

LOEWDIN ATOMIC CHARGES
----------------------
   0 C :    0.063611
   1 N :    0.004842
   2 C :   -0.012440
   3 C :    0.070095
   4 H :    0.052053
   5 H :    0.037118
   6 C :    0.071334
   7 C :   -0.229892
   8 N :    0.200595
   9 C :    0.135078
  10 H :   -0.106147
  11 H :   -0.176723
  12 H :   -0.092432
  13 H :   -0.015804
  14 H :    0.012361
  15 O :   -0.137621
  16 F :   -0.030404
  17 C :   -0.019467
  18 H :    0.030648
  19 H :    0.012926
  20 C :   -0.032110
  21 C :   -0.028489
  22 H :    0.014396
  23 H :    0.034946
  24 H :    0.030256
  25 H :    0.035902
  26 C :   -0.033574
  27 H :    0.025800
  28 H :    0.016417
  29 C :   -0.040654
  30 H :    0.038776
  31 H :   -0.027371
  32 C :   -0.032381
  33 H :    0.025440
  34 H :    0.018909
  35 H :    0.029179
  36 H :    0.007209
  37 H :    0.024370
  38 H :    0.023248

  Mayer bond orders larger than 0.100000
B(  0-C ,  1-N ) :   0.8904 B(  0-C , 12-H ) :  -0.4672 B(  0-C , 17-C ) :   1.0650
B(  0-C , 18-H ) :   0.6585 B(  0-C , 19-H ) :   0.8114 B(  0-C , 26-C ) :   0.1182
B(  1-N ,  7-C ) :   1.1280 B(  1-N ,  8-N ) :   0.1688 B(  1-N ,  9-C ) :   0.1160
B(  1-N , 12-H ) :   0.9696 B(  1-N , 18-H ) :   0.1933 B(  2-C ,  3-C ) :   1.1698
B(  2-C ,  4-H ) :   0.1575 B(  2-C , 21-C ) :   1.2439 B(  2-C , 24-H ) :   0.7193
B(  2-C , 25-H ) :   0.8491 B(  3-C ,  4-H ) :   0.7030 B(  3-C ,  5-H ) :   0.7699
B(  3-C ,  6-C ) :   1.2433 B(  3-C , 24-H ) :   0.1028 B(  3-C , 25-H ) :   0.1347
B(  4-H ,  6-C ) :   0.2616 B(  5-H ,  6-C ) :   0.1715 B(  6-C , 15-O ) :   1.6465
B(  6-C , 16-F ) :   0.5565 B(  7-C ,  8-N ) :   0.8950 B(  7-C ,  9-C ) :   1.6644
B(  7-C , 10-H ) :   0.2823 B(  7-C , 11-H ) :   0.1132 B(  7-C , 12-H ) :  -0.5985
B(  8-N ,  9-C ) :   0.2315 B(  8-N , 13-H ) :   0.9711 B(  8-N , 14-H ) :   1.2045
B(  8-N , 19-H ) :   0.1055 B(  9-C , 10-H ) :   0.5188 B( 10-H , 11-H ) :   0.2589
B( 11-H , 16-F ) :   0.2866 B( 12-H , 15-O ) :   0.1817 B( 12-H , 18-H ) :   0.1625
B( 13-H , 14-H ) :  -0.1800 B( 15-O , 16-F ) :   0.1020 B( 17-C , 19-H ) :   0.1611
B( 17-C , 26-C ) :   1.1010 B( 17-C , 27-H ) :   0.9452 B( 17-C , 28-H ) :   0.8848
B( 17-C , 30-H ) :   0.1297 B( 18-H , 19-H ) :  -0.1989 B( 20-C , 21-C ) :   1.2153
B( 20-C , 22-H ) :   0.1016 B( 20-C , 23-H ) :   0.1472 B( 20-C , 32-C ) :   1.1465
B( 20-C , 35-H ) :   1.0577 B( 20-C , 36-H ) :   0.8219 B( 20-C , 37-H ) :   0.2532
B( 20-C , 38-H ) :   0.1370 B( 21-C , 22-H ) :   0.9328 B( 21-C , 23-H ) :   0.9081
B( 21-C , 24-H ) :   0.2195 B( 21-C , 25-H ) :   0.1645 B( 21-C , 35-H ) :   0.1238
B( 21-C , 36-H ) :   0.1013 B( 24-H , 25-H ) :  -0.1039 B( 26-C , 27-H ) :   0.1575
B( 26-C , 29-C ) :   1.2372 B( 26-C , 30-H ) :   0.6538 B( 26-C , 31-H ) :   0.3168
B( 26-C , 34-H ) :   0.1471 B( 29-C , 31-H ) :   0.1245 B( 29-C , 32-C ) :   1.1105
B( 29-C , 33-H ) :   1.0596 B( 29-C , 34-H ) :   0.8290 B( 29-C , 37-H ) :   0.1104
B( 29-C , 38-H ) :   0.2096 B( 30-H , 31-H ) :   0.2614 B( 31-H , 36-H ) :   0.1037
B( 32-C , 37-H ) :   0.6867 B( 32-C , 38-H ) :   0.7079 B( 37-H , 38-H ) :  -0.1040

Dispersion correction           -0.020134997
FINAL SINGLE POINT ENERGY      -754.982257985499

DIPOLE MOMENT
-------------
                                X             Y             Z
Electronic contribution:     12.09377       8.48157       4.20574
Nuclear contribution   :    -13.25777      -8.13937      -5.31678
                        -----------------------------------------
Total Dipole Moment    :     -1.16399       0.34220      -1.11103
                        -----------------------------------------
Magnitude (a.u.)       :      1.64510
Magnitude (Debye)      :      4.18152

Rotational constants in cm-1:     0.020021     0.013636     0.009443
Rotational constants in MHz :   600.208195   408.782966   283.102361

                             ****ORCA TERMINATED NORMALLY****
TOTAL RUN TIME: 0 days 0 hours 1 minutes 56 seconds 624 msec
