                         Program Version 5.0.0 -  RELEASE  -
|  1> !LC-BLYP RIJCOSX def2-TZVPD def2/J TightSCF
|  2> *xyz -1 1
|  3> C          0.13297        2.38587       -4.02462
|  4> C         -1.36646        2.47911       -4.31393
|  5> C         -2.35773        2.30686       -3.13675
|  6> H         -1.63680        1.72709       -5.06399
|  7> H         -1.58235        3.44561       -4.76869
|  8> O         -3.44376        2.84652       -3.25274
|  9> O         -1.97092        1.58304       -2.15123
| 10> H          0.68084        2.52514       -4.93310
| 11> H          0.35823        1.42282       -3.61633
| 12> H          0.40851        3.14443       -3.32208
| 13> *
| 14> %MaxCore 64000
| 15>
| 16> %pal nprocs 4
| 17> end
| 18>
| 19> %scf
| 20>   MaxIter 150
| 21> end
| 22>
| 23>
| 24>                          ****END OF INPUT****

CARTESIAN COORDINATES (ANGSTROEM)
---------------------------------
  C      0.132970    2.385870   -4.024620
  C     -1.366460    2.479110   -4.313930
  C     -2.357730    2.306860   -3.136750
  H     -1.636800    1.727090   -5.063990
  H     -1.582350    3.445610   -4.768690
  O     -3.443760    2.846520   -3.252740
  O     -1.970920    1.583040   -2.151230
  H      0.680840    2.525140   -4.933100
  H      0.358230    1.422820   -3.616330
  H      0.408510    3.144430   -3.322080

 Total Charge           Charge          ....   -1
 Multiplicity           Mult            ....    1
 Number of Electrons    NEL             ....   40
 Basis Dimension        Dim             ....  236

ORBITAL ENERGIES
----------------

  NO   OCC          E(Eh)            E(eV)
   0   2.0000     -18.681400      -508.3467
   1   2.0000     -18.671257      -508.0707
   2   2.0000      -9.956524      -270.9308
   3   2.0000      -9.902698      -269.4661
   4   2.0000      -9.895981      -269.2833
   5   2.0000      -0.922523       -25.1031
   6   2.0000      -0.821485       -22.3537
   7   2.0000      -0.714061       -19.4306
   8   2.0000      -0.582619       -15.8539
   9   2.0000      -0.422947       -11.5090
  10   2.0000      -0.402122       -10.9423
  11   2.0000      -0.365224        -9.9382
  12   2.0000      -0.335085        -9.1181
  13   2.0000      -0.321213        -8.7407
  14   2.0000      -0.311461        -8.4753
  15   2.0000      -0.281031        -7.6473
  16   2.0000      -0.264754        -7.2043
  17   2.0000      -0.150377        -4.0920
  18   2.0000      -0.142325        -3.8729
  19   2.0000      -0.130394        -3.5482
  20   0.0000       0.175994         4.7890
  21   0.0000       0.195846         5.3292
  22   0.0000       0.206230         5.6118
  23   0.0000       0.225375         6.1328
  24   0.0000       0.237460         6.4616

MULLIKEN ATOMIC CHARGES
-----------------------
   0 C :   -1.203056
   1 C :   -0.422650
   2 C :    0.274062
   3 H :    0.268624
   4 H :    0.324782
   5 O :   -0.610031
   6 O :   -0.695369
   7 H :    0.408196
   8 H :    0.323693
   9 H :    0.331749
Sum of atomic charges:   -1.0000000

LOEWDIN ATOMIC CHARGES
----------------------
   0 C :   -0.152605
   1 C :   -0.223555
   2 C :   -0.805048
   3 H :    0.101405
   4 H :    0.090886
   5 O :   -0.058174
   6 O :   -0.119199
   7 H :    0.046884
   8 H :    0.056992
   9 H :    0.062414

  Mayer bond orders larger than 0.100000
B(  0-C ,  1-C ) :   0.4239 B(  0-C ,  7-H ) :   0.8841 B(  0-C ,  8-H ) :   0.9874
B(  0-C ,  9-H ) :   0.9538 B(  1-C ,  2-C ) :   0.9188 B(  1-C ,  3-H ) :   0.9601
B(  1-C ,  4-H ) :   0.9668 B(  2-C ,  5-O ) :   1.5696 B(  2-C ,  6-O ) :   1.5011

FINAL SINGLE POINT ENERGY      -267.353264287527

DIPOLE MOMENT
-------------
                                X             Y             Z
Electronic contribution:     -5.22344      -0.36227       3.15827
Nuclear contribution   :      6.75610       0.63068      -4.53972
                        -----------------------------------------
Total Dipole Moment    :      1.53265       0.26841      -1.38145
                        -----------------------------------------
Magnitude (a.u.)       :      2.08074
Magnitude (Debye)      :      5.28882

Rotational constants in cm-1:     0.335096     0.130241     0.099025
Rotational constants in MHz : 10045.924902  3904.536250  2968.708333

                             ****ORCA TERMINATED NORMALLY****
TOTAL RUN TIME: 0 days 0 hours 0 minutes 33 seconds 270 msec
