                         Program Version 5.0.0 -  RELEASE  -
|  1> !LC-BLYP RIJCOSX def2-TZVPD def2/J TightSCF
|  2> *xyz 1 1
|  3> C          0.64866        1.00359       -3.64560
|  4> N          0.28128        0.67645       -2.24018
|  5> C          0.13297        2.38587       -4.02462
|  6> H          0.39079       -0.31925       -2.02649
|  7> H         -0.69269        0.99010       -2.13812
|  8> H          0.85421        1.21221       -1.57528
|  9> H          0.19099        0.23965       -4.27575
| 10> H          1.73157        0.93173       -3.75075
| 11> H          0.40589        2.60338       -5.03610
| 12> H          0.56342        3.11797       -3.37374
| 13> H         -0.93265        2.40724       -3.93025
| 14> *
| 15> %MaxCore 64000
| 16>
| 17> %pal nprocs 4
| 18> end
| 19>
| 20> %scf
| 21>   MaxIter 150
| 22> end
| 23>
| 24>
| 25>                          ****END OF INPUT****

CARTESIAN COORDINATES (ANGSTROEM)
---------------------------------
  C      0.648660    1.003590   -3.645600
  N      0.281280    0.676450   -2.240180
  C      0.132970    2.385870   -4.024620
  H      0.390790   -0.319250   -2.026490
  H     -0.692690    0.990100   -2.138120
  H      0.854210    1.212210   -1.575280
  H      0.190990    0.239650   -4.275750
  H      1.731570    0.931730   -3.750750
  H      0.405890    2.603380   -5.036100
  H      0.563420    3.117970   -3.373740
  H     -0.932650    2.407240   -3.930250

 Total Charge           Charge          ....    1
 Multiplicity           Mult            ....    1
 Number of Electrons    NEL             ....   26
 Basis Dimension        Dim             ....  183

ORBITAL ENERGIES
----------------

  NO   OCC          E(Eh)            E(eV)
   0   2.0000     -14.502568      -394.6349
   1   2.0000     -10.322392      -280.8866
   2   2.0000     -10.244482      -278.7665
   3   2.0000      -1.317959       -35.8635
   4   2.0000      -1.075145       -29.2562
   5   2.0000      -0.953823       -25.9548
   6   2.0000      -0.905079       -24.6284
   7   2.0000      -0.897203       -24.4141
   8   2.0000      -0.797816       -21.7097
   9   2.0000      -0.746270       -20.3070
  10   2.0000      -0.685593       -18.6559
  11   2.0000      -0.671382       -18.2692
  12   2.0000      -0.651790       -17.7361
  13   0.0000      -0.140569        -3.8251
  14   0.0000      -0.084230        -2.2920
  15   0.0000      -0.079751        -2.1701
  16   0.0000      -0.079393        -2.1604
  17   0.0000      -0.043917        -1.1950

MULLIKEN ATOMIC CHARGES
-----------------------
   0 C :   -0.475150
   1 N :   -0.384846
   2 C :   -1.400907
   3 H :    0.368339
   4 H :    0.360637
   5 H :    0.362028
   6 H :    0.403663
   7 H :    0.422640
   8 H :    0.414600
   9 H :    0.444296
  10 H :    0.484702
Sum of atomic charges:    1.0000000

LOEWDIN ATOMIC CHARGES
----------------------
   0 C :   -0.217249
   1 N :    0.181542
   2 C :   -0.067766
   3 H :    0.182936
   4 H :    0.177240
   5 H :    0.184759
   6 H :    0.141086
   7 H :    0.141689
   8 H :    0.098585
   9 H :    0.089167
  10 H :    0.088010

  Mayer bond orders larger than 0.100000
B(  0-C ,  1-N ) :   0.8148 B(  0-C ,  2-C ) :   0.4458 B(  0-C ,  6-H ) :   0.8888
B(  0-C ,  7-H ) :   0.8720 B(  1-N ,  3-H ) :   0.8658 B(  1-N ,  4-H ) :   0.8635
B(  1-N ,  5-H ) :   0.8676 B(  2-C ,  8-H ) :   0.9209 B(  2-C ,  9-H ) :   0.8657
B(  2-C , 10-H ) :   0.8056

FINAL SINGLE POINT ENERGY      -135.191718887624

DIPOLE MOMENT
-------------
                                X             Y             Z
Electronic contribution:      0.17213      -1.29979       1.31408
Nuclear contribution   :     -0.22655       0.48066      -0.09136
                        -----------------------------------------
Total Dipole Moment    :     -0.05442      -0.81913       1.22273
                        -----------------------------------------
Magnitude (a.u.)       :      1.47275
Magnitude (Debye)      :      3.74343

Rotational constants in cm-1:     0.998155     0.284845     0.251232
Rotational constants in MHz : 29923.943568  8539.431565  7531.732866

                             ****ORCA TERMINATED NORMALLY****
TOTAL RUN TIME: 0 days 0 hours 0 minutes 21 seconds 922 msec
