                         Program Version 5.0.0 -  RELEASE  -
|  1> !LC-BLYP RIJCOSX def2-TZVPD def2/J TightSCF xyzfile
|  2>
|  3> *xyzfile 0 1 B.xyz
|  4>
|  5> %MaxCore 64000
|  6>
|  7> %pal nprocs 4
|  8> end
|  9>
| 10> %scf
| 11>   MaxIter 150
| 12> end
| 13>
| 14>
| 15>                          ****END OF INPUT****

CARTESIAN COORDINATES (ANGSTROEM)
---------------------------------
  C      0.648656    1.003595   -3.645601
  N      0.281280    0.676454   -2.240179
  C      0.132968    2.385869   -4.024618
  C     -1.366462    2.479106   -4.313932
  C     -2.357732    2.306858   -3.136753
  H     -1.636802    1.727095   -5.063993
  H     -1.582347    3.445605   -4.768687
  H      0.390790   -0.319253   -2.026495
  H     -0.692686    0.990104   -2.138123
  H      0.854206    1.212214   -1.575279
  O     -3.443763    2.846518   -3.252744
  O     -1.970922    1.583042   -2.151229
  H      0.190993    0.239655   -4.275752
  H      1.731572    0.931729   -3.750751
  H      0.414839    3.102847   -3.245165
  H      0.683167    2.687560   -4.919721

 Total Charge           Charge          ....    0
 Multiplicity           Mult            ....    1
 Number of Electrons    NEL             ....   56
 Basis Dimension        Dim             ....  346

ORBITAL ENERGIES
----------------

  NO   OCC          E(Eh)            E(eV)
   0   2.0000     -18.866274      -513.3774
   1   2.0000     -18.846353      -512.8353
   2   2.0000     -14.279685      -388.5700
   3   2.0000     -10.158106      -276.4161
   4   2.0000     -10.133799      -275.7547
   5   2.0000     -10.098369      -274.7906
   6   2.0000     -10.060992      -273.7735
   7   2.0000      -1.123140       -30.5622
   8   2.0000      -1.096461       -29.8362
   9   2.0000      -1.012463       -27.5505
  10   2.0000      -0.923225       -25.1222
  11   2.0000      -0.827376       -22.5140
  12   2.0000      -0.748126       -20.3575
  13   2.0000      -0.712537       -19.3891
  14   2.0000      -0.700292       -19.0559
  15   2.0000      -0.630043       -17.1443
  16   2.0000      -0.588393       -16.0110
  17   2.0000      -0.586437       -15.9578
  18   2.0000      -0.542782       -14.7699
  19   2.0000      -0.525917       -14.3109
  20   2.0000      -0.493144       -13.4191
  21   2.0000      -0.489290       -13.3142
  22   2.0000      -0.480035       -13.0624
  23   2.0000      -0.459784       -12.5113
  24   2.0000      -0.438452       -11.9309
  25   2.0000      -0.335020        -9.1164
  26   2.0000      -0.333213        -9.0672
  27   2.0000      -0.303373        -8.2552
  28   0.0000       0.010426         0.2837
  29   0.0000       0.044568         1.2128
  30   0.0000       0.047400         1.2898
  31   0.0000       0.067457         1.8356
  32   0.0000       0.088262         2.4017

MULLIKEN ATOMIC CHARGES
-----------------------
   0 C :   -0.672666
   1 N :   -0.300058
   2 C :   -0.749314
   3 C :   -0.652695
   4 C :    0.408353
   5 H :    0.306492
   6 H :    0.352949
   7 H :    0.329365
   8 H :    0.345793
   9 H :    0.337488
  10 O :   -0.549452
  11 O :   -0.738786
  12 H :    0.398966
  13 H :    0.419425
  14 H :    0.362263
  15 H :    0.401877
Sum of atomic charges:   -0.0000000

LOEWDIN ATOMIC CHARGES
----------------------
   0 C :   -0.182276
   1 N :    0.143827
   2 C :   -0.202786
   3 C :   -0.129996
   4 C :   -0.691773
   5 H :    0.124816
   6 H :    0.117690
   7 H :    0.165093
   8 H :   -0.010705
   9 H :    0.168971
  10 O :    0.034853
  11 O :   -0.047995
  12 H :    0.136797
  13 H :    0.124703
  14 H :    0.129364
  15 H :    0.119417

  Mayer bond orders larger than 0.100000
B(  0-C ,  1-N ) :   0.8284 B(  0-C ,  2-C ) :   0.6456 B(  0-C , 12-H ) :   0.8995
B(  0-C , 13-H ) :   0.9010 B(  1-N ,  7-H ) :   0.8988 B(  1-N ,  8-H ) :   0.7411
B(  1-N ,  9-H ) :   0.8833 B(  1-N , 11-O ) :  -0.1163 B(  2-C ,  3-C ) :   0.5317
B(  2-C , 14-H ) :   0.9158 B(  2-C , 15-H ) :   0.9423 B(  3-C ,  4-C ) :   0.9706
B(  3-C ,  5-H ) :   0.9467 B(  3-C ,  6-H ) :   0.9801 B(  4-C , 10-O ) :   1.6168
B(  4-C , 11-O ) :   1.2612 B(  8-H , 11-O ) :   0.1884

FINAL SINGLE POINT ENERGY      -362.347975770866

DIPOLE MOMENT
-------------
                                X             Y             Z
Electronic contribution:     -5.77172       0.93556       2.50387
Nuclear contribution   :      9.92875      -2.62114      -2.63866
                        -----------------------------------------
Total Dipole Moment    :      4.15703      -1.68558      -0.13479
                        -----------------------------------------
Magnitude (a.u.)       :      4.48779
Magnitude (Debye)      :     11.40705

Rotational constants in cm-1:     0.159108     0.062474     0.047603
Rotational constants in MHz :  4769.938632  1872.932224  1427.103830

                             ****ORCA TERMINATED NORMALLY****
TOTAL RUN TIME: 0 days 0 hours 1 minutes 10 seconds 861 msec
