                         Program Version 5.0.0 -  RELEASE  -
|  1> !LC-BLYP RIJCOSX def2-TZVPD def2/J TightSCF
|  2> *xyz 0 1
|  3> C          0.13297        2.38587       -4.02462
|  4> C         -1.36646        2.47911       -4.31393
|  5> C         -2.35773        2.30686       -3.13675
|  6> H         -1.63680        1.72709       -5.06399
|  7> H         -1.58235        3.44561       -4.76869
|  8> F         -3.44376        2.84652       -3.25274
|  9> O         -1.97092        1.58304       -2.15123
| 10> H          0.68084        2.52514       -4.93310
| 11> H          0.35823        1.42282       -3.61633
| 12> H          0.40851        3.14443       -3.32208
| 13> *
| 14> %MaxCore 64000
| 15>
| 16> %pal nprocs 4
| 17> end
| 18>
| 19> %scf
| 20>   MaxIter 150
| 21> end
| 22>
| 23>
| 24>                          ****END OF INPUT****

CARTESIAN COORDINATES (ANGSTROEM)
---------------------------------
  C      0.132970    2.385870   -4.024620
  C     -1.366460    2.479110   -4.313930
  C     -2.357730    2.306860   -3.136750
  H     -1.636800    1.727090   -5.063990
  H     -1.582350    3.445610   -4.768690
  F     -3.443760    2.846520   -3.252740
  O     -1.970920    1.583040   -2.151230
  H      0.680840    2.525140   -4.933100
  H      0.358230    1.422820   -3.616330
  H      0.408510    3.144430   -3.322080

 Total Charge           Charge          ....    0
 Multiplicity           Mult            ....    1
 Number of Electrons    NEL             ....   40
 Basis Dimension        Dim             ....  236

ORBITAL ENERGIES
----------------

  NO   OCC          E(Eh)            E(eV)
   0   2.0000     -24.540679      -667.7858
   1   2.0000     -18.943018      -515.4657
   2   2.0000     -10.255717      -279.0722
   3   2.0000     -10.103644      -274.9341
   4   2.0000     -10.068835      -273.9869
   5   2.0000      -1.429329       -38.8940
   6   2.0000      -1.111868       -30.2555
   7   2.0000      -0.908218       -24.7139
   8   2.0000      -0.806147       -21.9364
   9   2.0000      -0.753319       -20.4989
  10   2.0000      -0.674738       -18.3606
  11   2.0000      -0.653508       -17.7829
  12   2.0000      -0.612772       -16.6744
  13   2.0000      -0.573754       -15.6126
  14   2.0000      -0.534879       -14.5548
  15   2.0000      -0.494910       -13.4672
  16   2.0000      -0.474680       -12.9167
  17   2.0000      -0.472237       -12.8502
  18   2.0000      -0.445526       -12.1234
  19   2.0000      -0.389211       -10.5910
  20   0.0000       0.041169         1.1203
  21   0.0000       0.054501         1.4830
  22   0.0000       0.068596         1.8666
  23   0.0000       0.077257         2.1023
  24   0.0000       0.091845         2.4992

MULLIKEN ATOMIC CHARGES
-----------------------
   0 C :   -1.264703
   1 C :   -0.504064
   2 C :    0.493461
   3 H :    0.352343
   4 H :    0.385620
   5 F :   -0.147259
   6 O :   -0.468961
   7 H :    0.419016
   8 H :    0.364436
   9 H :    0.370111
Sum of atomic charges:   -0.0000000

LOEWDIN ATOMIC CHARGES
----------------------
   0 C :   -0.105222
   1 C :   -0.172416
   2 C :   -0.523106
   3 H :    0.126981
   4 H :    0.113040
   5 F :    0.266364
   6 O :    0.067831
   7 H :    0.073061
   8 H :    0.074931
   9 H :    0.078535

  Mayer bond orders larger than 0.100000
B(  0-C ,  1-C ) :   0.5149 B(  0-C ,  7-H ) :   0.8798 B(  0-C ,  8-H ) :   0.9461
B(  0-C ,  9-H ) :   0.9194 B(  1-C ,  2-C ) :   0.9109 B(  1-C ,  3-H ) :   0.9060
B(  1-C ,  4-H ) :   0.9010 B(  2-C ,  5-F ) :   1.0841 B(  2-C ,  6-O ) :   1.7606

FINAL SINGLE POINT ENERGY      -291.893083134948

DIPOLE MOMENT
-------------
                                X             Y             Z
Electronic contribution:     -8.36520       0.48269       3.55094
Nuclear contribution   :      8.54799       0.05434      -4.66633
                        -----------------------------------------
Total Dipole Moment    :      0.18279       0.53703      -1.11539
                        -----------------------------------------
Magnitude (a.u.)       :      1.25136
Magnitude (Debye)      :      3.18070

Rotational constants in cm-1:     0.325803     0.123345     0.094275
Rotational constants in MHz :  9767.324172  3697.779805  2826.305733

                             ****ORCA TERMINATED NORMALLY****
TOTAL RUN TIME: 0 days 0 hours 0 minutes 34 seconds 300 msec
