                         Program Version 5.0.0 -  RELEASE  -
|  1> !LC-BLYP RIJCOSX def2-TZVPD def2/J TightSCF
|  2> *xyz 0 1
|  3> C          0.64866        1.00359       -3.64560
|  4> C          0.28128        0.67645       -2.24018
|  5> C          0.13297        2.38587       -4.02462
|  6> H          0.39079       -0.31925       -2.02649
|  7> H         -0.69269        0.99010       -2.13812
|  8> H          0.85421        1.21221       -1.57528
|  9> H          0.19099        0.23965       -4.27575
| 10> H          1.73157        0.93173       -3.75075
| 11> H          0.40589        2.60338       -5.03610
| 12> H          0.56342        3.11797       -3.37374
| 13> H         -0.93265        2.40724       -3.93025
| 14> *
| 15> %MaxCore 64000
| 16>
| 17> %pal nprocs 4
| 18> end
| 19>
| 20> %scf
| 21>   MaxIter 150
| 22> end
| 23>
| 24>
| 25>                          ****END OF INPUT****

CARTESIAN COORDINATES (ANGSTROEM)
---------------------------------
  C      0.648660    1.003590   -3.645600
  C      0.281280    0.676450   -2.240180
  C      0.132970    2.385870   -4.024620
  H      0.390790   -0.319250   -2.026490
  H     -0.692690    0.990100   -2.138120
  H      0.854210    1.212210   -1.575280
  H      0.190990    0.239650   -4.275750
  H      1.731570    0.931730   -3.750750
  H      0.405890    2.603380   -5.036100
  H      0.563420    3.117970   -3.373740
  H     -0.932650    2.407240   -3.930250

 Total Charge           Charge          ....    0
 Multiplicity           Mult            ....    1
 Number of Electrons    NEL             ....   26
 Basis Dimension        Dim             ....  183

ORBITAL ENERGIES
----------------

  NO   OCC          E(Eh)            E(eV)
   0   2.0000     -10.053780      -273.5773
   1   2.0000     -10.045114      -273.3415
   2   2.0000     -10.026750      -272.8417
   3   2.0000      -0.903061       -24.5735
   4   2.0000      -0.797132       -21.6911
   5   2.0000      -0.693310       -18.8659
   6   2.0000      -0.576314       -15.6823
   7   2.0000      -0.555985       -15.1291
   8   2.0000      -0.504662       -13.7326
   9   2.0000      -0.487325       -13.2608
  10   2.0000      -0.436625       -11.8812
  11   2.0000      -0.433039       -11.7836
  12   2.0000      -0.423733       -11.5304
  13   0.0000       0.060879         1.6566
  14   0.0000       0.080168         2.1815
  15   0.0000       0.082427         2.2430
  16   0.0000       0.110854         3.0165
  17   0.0000       0.131520         3.5788

MULLIKEN ATOMIC CHARGES
-----------------------
   0 C :   -0.364567
   1 C :   -1.436689
   2 C :   -1.296429
   3 H :    0.418325
   4 H :    0.413618
   5 H :    0.422993
   6 H :    0.346206
   7 H :    0.343753
   8 H :    0.379855
   9 H :    0.370907
  10 H :    0.402028
Sum of atomic charges:    0.0000000

LOEWDIN ATOMIC CHARGES
----------------------
   0 C :   -0.334337
   1 C :   -0.138421
   2 C :   -0.130439
   3 H :    0.056365
   4 H :    0.057330
   5 H :    0.061352
   6 H :    0.108727
   7 H :    0.108760
   8 H :    0.066427
   9 H :    0.073244
  10 H :    0.070993

  Mayer bond orders larger than 0.100000
B(  0-C ,  1-C ) :   0.4388 B(  0-C ,  2-C ) :   0.5169 B(  0-C ,  6-H ) :   0.9374
B(  0-C ,  7-H ) :   0.9174 B(  1-C ,  3-H ) :   0.9006 B(  1-C ,  4-H ) :   0.8787
B(  1-C ,  5-H ) :   0.9042 B(  2-C ,  8-H ) :   0.9401 B(  2-C ,  9-H ) :   0.9349
B(  2-C , 10-H ) :   0.9011

FINAL SINGLE POINT ENERGY      -118.784446083546

DIPOLE MOMENT
-------------
                                X             Y             Z
Electronic contribution:      0.26148      -0.28117      -0.24710
Nuclear contribution   :     -0.24754       0.26111       0.24628
                        -----------------------------------------
Total Dipole Moment    :      0.01394      -0.02006      -0.00083
                        -----------------------------------------
Magnitude (a.u.)       :      0.02444
Magnitude (Debye)      :      0.06213

Rotational constants in cm-1:     1.006509     0.299509     0.263145
Rotational constants in MHz : 30174.379724  8979.049324  7888.875355

                             ****ORCA TERMINATED NORMALLY****
TOTAL RUN TIME: 0 days 0 hours 0 minutes 18 seconds 957 msec
