                         Program Version 5.0.0 -  RELEASE  -
|  1> !LC-BLYP RIJCOSX def2-TZVPD def2/J TightSCF
|  2> *xyz 0 1
|  3> C          0.13297        2.38587       -4.02462
|  4> C         -1.36646        2.47911       -4.31393
|  5> C         -2.35773        2.30686       -3.13675
|  6> H         -1.63680        1.72709       -5.06399
|  7> H         -1.58235        3.44561       -4.76869
|  8> O         -3.44376        2.84652       -3.25274
|  9> F         -1.97092        1.58304       -2.15123
| 10> H          0.68084        2.52514       -4.93310
| 11> H          0.35823        1.42282       -3.61633
| 12> H          0.40851        3.14443       -3.32208
| 13> *
| 14> %MaxCore 64000
| 15>
| 16> %pal nprocs 4
| 17> end
| 18>
| 19> %scf
| 20>   MaxIter 150
| 21> end
| 22>
| 23>
| 24>                          ****END OF INPUT****

CARTESIAN COORDINATES (ANGSTROEM)
---------------------------------
  C      0.132970    2.385870   -4.024620
  C     -1.366460    2.479110   -4.313930
  C     -2.357730    2.306860   -3.136750
  H     -1.636800    1.727090   -5.063990
  H     -1.582350    3.445610   -4.768690
  O     -3.443760    2.846520   -3.252740
  F     -1.970920    1.583040   -2.151230
  H      0.680840    2.525140   -4.933100
  H      0.358230    1.422820   -3.616330
  H      0.408510    3.144430   -3.322080

 Total Charge           Charge          ....    0
 Multiplicity           Mult            ....    1
 Number of Electrons    NEL             ....   40
 Basis Dimension        Dim             ....  236

ORBITAL ENERGIES
----------------

  NO   OCC          E(Eh)            E(eV)
   0   2.0000     -24.517287      -667.1493
   1   2.0000     -18.952121      -515.7134
   2   2.0000     -10.249792      -278.9110
   3   2.0000     -10.101971      -274.8886
   4   2.0000     -10.073855      -274.1235
   5   2.0000      -1.382042       -37.6073
   6   2.0000      -1.150561       -31.3084
   7   2.0000      -0.910749       -24.7828
   8   2.0000      -0.789379       -21.4801
   9   2.0000      -0.744369       -20.2553
  10   2.0000      -0.650137       -17.6911
  11   2.0000      -0.643472       -17.5098
  12   2.0000      -0.600803       -16.3487
  13   2.0000      -0.572699       -15.5839
  14   2.0000      -0.536896       -14.6097
  15   2.0000      -0.509922       -13.8757
  16   2.0000      -0.493959       -13.4413
  17   2.0000      -0.475864       -12.9489
  18   2.0000      -0.455966       -12.4075
  19   2.0000      -0.399058       -10.8589
  20   0.0000       0.041328         1.1246
  21   0.0000       0.058725         1.5980
  22   0.0000       0.069522         1.8918
  23   0.0000       0.075801         2.0627
  24   0.0000       0.091436         2.4881

MULLIKEN ATOMIC CHARGES
-----------------------
   0 C :   -1.293279
   1 C :   -0.426041
   2 C :    0.423363
   3 H :    0.348964
   4 H :    0.355822
   5 O :   -0.396437
   6 F :   -0.189088
   7 H :    0.404422
   8 H :    0.381264
   9 H :    0.391010
Sum of atomic charges:    0.0000000

LOEWDIN ATOMIC CHARGES
----------------------
   0 C :   -0.111683
   1 C :   -0.165261
   2 C :   -0.514054
   3 H :    0.127603
   4 H :    0.120329
   5 O :    0.125085
   6 F :    0.196342
   7 H :    0.073202
   8 H :    0.071802
   9 H :    0.076635

  Mayer bond orders larger than 0.100000
B(  0-C ,  1-C ) :   0.4381 B(  0-C ,  7-H ) :   0.9111 B(  0-C ,  8-H ) :   0.9225
B(  0-C ,  9-H ) :   0.9141 B(  1-C ,  2-C ) :   0.8982 B(  1-C ,  3-H ) :   0.9095
B(  1-C ,  4-H ) :   0.9261 B(  2-C ,  5-O ) :   1.8315 B(  2-C ,  6-F ) :   1.0472

FINAL SINGLE POINT ENERGY      -291.910573046153

DIPOLE MOMENT
-------------
                                X             Y             Z
Electronic contribution:     -5.87860      -1.62685       5.37591
Nuclear contribution   :      6.94213       1.43193      -5.86732
                        -----------------------------------------
Total Dipole Moment    :      1.06353      -0.19493      -0.49140
                        -----------------------------------------
Magnitude (a.u.)       :      1.18767
Magnitude (Debye)      :      3.01882

Rotational constants in cm-1:     0.306336     0.129048     0.095707
Rotational constants in MHz :  9183.725605  3868.769583  2869.236577

                             ****ORCA TERMINATED NORMALLY****
TOTAL RUN TIME: 0 days 0 hours 0 minutes 33 seconds 467 msec
