                         Program Version 5.0.0 -  RELEASE  -
|  1> !LC-BLYP RIJCOSX def2-TZVPD def2/J TightSCF xyzfile
|  2>
|  3> *xyzfile 0 1 D1.xyz
|  4>
|  5> %MaxCore 64000
|  6>
|  7> %pal nprocs 4
|  8> end
|  9>
| 10> %scf
| 11>   MaxIter 150
| 12> end
| 13>
| 14>
| 15>                          ****END OF INPUT****

CARTESIAN COORDINATES (ANGSTROEM)
---------------------------------
  C      0.648656    1.003595   -3.645601
  C      0.281280    0.676454   -2.240179
  C      0.132968    2.385869   -4.024618
  C     -1.366462    2.479106   -4.313932
  C     -2.357732    2.306858   -3.136753
  H     -1.636802    1.727095   -5.063993
  H     -1.582347    3.445605   -4.768687
  H      0.390790   -0.319253   -2.026495
  H     -0.692686    0.990104   -2.138123
  H      0.854206    1.212214   -1.575279
  F     -3.443763    2.846518   -3.252744
  O     -1.970922    1.583042   -2.151229
  H      0.190993    0.239655   -4.275752
  H      1.731572    0.931729   -3.750751
  H      0.414839    3.102847   -3.245165
  H      0.683167    2.687560   -4.919721

 Total Charge           Charge          ....    0
 Multiplicity           Mult            ....    1
 Number of Electrons    NEL             ....   56
 Basis Dimension        Dim             ....  346

ORBITAL ENERGIES
----------------

  NO   OCC          E(Eh)            E(eV)
   0   2.0000     -24.551147      -668.0707
   1   2.0000     -18.950555      -515.6708
   2   2.0000     -10.270351      -279.4705
   3   2.0000     -10.108268      -275.0600
   4   2.0000     -10.076790      -274.2034
   5   2.0000     -10.048207      -273.4256
   6   2.0000      -9.976824      -271.4832
   7   2.0000      -1.439657       -39.1751
   8   2.0000      -1.135085       -30.8872
   9   2.0000      -0.927563       -25.2403
  10   2.0000      -0.867293       -23.6002
  11   2.0000      -0.796355       -21.6699
  12   2.0000      -0.767316       -20.8797
  13   2.0000      -0.693121       -18.8608
  14   2.0000      -0.680874       -18.5275
  15   2.0000      -0.664107       -18.0713
  16   2.0000      -0.632472       -17.2104
  17   2.0000      -0.590816       -16.0769
  18   2.0000      -0.555763       -15.1231
  19   2.0000      -0.540557       -14.7093
  20   2.0000      -0.513028       -13.9602
  21   2.0000      -0.485833       -13.2202
  22   2.0000      -0.478953       -13.0330
  23   2.0000      -0.457432       -12.4474
  24   2.0000      -0.442376       -12.0377
  25   2.0000      -0.418419       -11.3858
  26   2.0000      -0.409484       -11.1426
  27   2.0000      -0.343781        -9.3548
  28   0.0000       0.035219         0.9584
  29   0.0000       0.045710         1.2438
  30   0.0000       0.066237         1.8024
  31   0.0000       0.070841         1.9277
  32   0.0000       0.076605         2.0845

MULLIKEN ATOMIC CHARGES
-----------------------
   0 C :   -0.507310
   1 C :   -1.355329
   2 C :   -0.749616
   3 C :   -0.680616
   4 C :    0.542588
   5 H :    0.366817
   6 H :    0.399776
   7 H :    0.457580
   8 H :    0.337897
   9 H :    0.462434
  10 F :   -0.175932
  11 O :   -0.496785
  12 H :    0.332777
  13 H :    0.351004
  14 H :    0.345343
  15 H :    0.369372
Sum of atomic charges:   -0.0000000

LOEWDIN ATOMIC CHARGES
----------------------
   0 C :   -0.264530
   1 C :   -0.133671
   2 C :   -0.213848
   3 C :   -0.100177
   4 C :   -0.451350
   5 H :    0.136475
   6 H :    0.119514
   7 H :    0.062350
   8 H :   -0.056182
   9 H :    0.068281
  10 F :    0.282656
  11 O :    0.077145
  12 H :    0.116930
  13 H :    0.110946
  14 H :    0.129931
  15 H :    0.115529

  Mayer bond orders larger than 0.100000
B(  0-C ,  1-C ) :   0.4165 B(  0-C ,  2-C ) :   0.6770 B(  0-C ,  8-H ) :  -0.1139
B(  0-C , 12-H ) :   0.9667 B(  0-C , 13-H ) :   0.9399 B(  1-C ,  7-H ) :   0.9921
B(  1-C ,  8-H ) :   0.9273 B(  1-C ,  9-H ) :   1.0283 B(  1-C , 11-O ) :   0.1111
B(  2-C ,  3-C ) :   0.6380 B(  2-C , 14-H ) :   0.9392 B(  2-C , 15-H ) :   0.9578
B(  3-C ,  4-C ) :   0.9074 B(  3-C ,  5-H ) :   0.9230 B(  3-C ,  6-H ) :   0.9120
B(  4-C , 10-F ) :   1.0527 B(  4-C , 11-O ) :   1.7261 B(  8-H , 11-O ) :  -0.3171

FINAL SINGLE POINT ENERGY      -370.255282929656

DIPOLE MOMENT
-------------
                                X             Y             Z
Electronic contribution:    -12.98896       4.59184       1.39639
Nuclear contribution   :     12.79331      -3.91961      -2.45895
                        -----------------------------------------
Total Dipole Moment    :     -0.19565       0.67222      -1.06255
                        -----------------------------------------
Magnitude (a.u.)       :      1.27247
Magnitude (Debye)      :      3.23437

Rotational constants in cm-1:     0.162888     0.059977     0.046450
Rotational constants in MHz :  4883.250030  1798.063289  1392.548669

                             ****ORCA TERMINATED NORMALLY****
TOTAL RUN TIME: 0 days 0 hours 1 minutes 25 seconds 671 msec
