                         Program Version 5.0.0 -  RELEASE  -
|  1> !LC-BLYP RIJCOSX def2-TZVPD def2/J TightSCF xyzfile
|  2>
|  3> *xyzfile 0 1 D2.xyz
|  4>
|  5> %MaxCore 64000
|  6>
|  7> %pal nprocs 4
|  8> end
|  9>
| 10> %scf
| 11>   MaxIter 150
| 12> end
| 13>
| 14>
| 15>                          ****END OF INPUT****

CARTESIAN COORDINATES (ANGSTROEM)
---------------------------------
  C      0.648656    1.003595   -3.645601
  C      0.281280    0.676454   -2.240179
  C      0.132968    2.385869   -4.024618
  C     -1.366462    2.479106   -4.313932
  C     -2.357732    2.306858   -3.136753
  H     -1.636802    1.727095   -5.063993
  H     -1.582347    3.445605   -4.768687
  H      0.390790   -0.319253   -2.026495
  H     -0.692686    0.990104   -2.138123
  H      0.854206    1.212214   -1.575279
  O     -3.443763    2.846518   -3.252744
  F     -1.970922    1.583042   -2.151229
  H      0.190993    0.239655   -4.275752
  H      1.731572    0.931729   -3.750751
  H      0.414839    3.102847   -3.245165
  H      0.683167    2.687560   -4.919721

 Total Charge           Charge          ....    0
 Multiplicity           Mult            ....    1
 Number of Electrons    NEL             ....   56
 Basis Dimension        Dim             ....  346

ORBITAL ENERGIES
----------------

  NO   OCC          E(Eh)            E(eV)
   0   2.0000     -24.527661      -667.4316
   1   2.0000     -18.959200      -515.9061
   2   2.0000     -10.257208      -279.1128
   3   2.0000     -10.104269      -274.9511
   4   2.0000     -10.080577      -274.3064
   5   2.0000     -10.061873      -273.7975
   6   2.0000     -10.009064      -272.3605
   7   2.0000      -1.403399       -38.1884
   8   2.0000      -1.158233       -31.5171
   9   2.0000      -0.935969       -25.4690
  10   2.0000      -0.873861       -23.7790
  11   2.0000      -0.787702       -21.4344
  12   2.0000      -0.784383       -21.3441
  13   2.0000      -0.694541       -18.8994
  14   2.0000      -0.669417       -18.2158
  15   2.0000      -0.659495       -17.9458
  16   2.0000      -0.613407       -16.6917
  17   2.0000      -0.579015       -15.7558
  18   2.0000      -0.559005       -15.2113
  19   2.0000      -0.553870       -15.0716
  20   2.0000      -0.524927       -14.2840
  21   2.0000      -0.495120       -13.4729
  22   2.0000      -0.486460       -13.2372
  23   2.0000      -0.466620       -12.6974
  24   2.0000      -0.437745       -11.9116
  25   2.0000      -0.431118       -11.7313
  26   2.0000      -0.423104       -11.5132
  27   2.0000      -0.391074       -10.6417
  28   0.0000       0.042272         1.1503
  29   0.0000       0.052925         1.4402
  30   0.0000       0.065921         1.7938
  31   0.0000       0.069224         1.8837
  32   0.0000       0.070992         1.9318

MULLIKEN ATOMIC CHARGES
-----------------------
   0 C :   -0.495384
   1 C :   -1.484894
   2 C :   -0.748188
   3 C :   -0.581946
   4 C :    0.475494
   5 H :    0.348907
   6 H :    0.359974
   7 H :    0.473513
   8 H :    0.447170
   9 H :    0.480835
  10 O :   -0.424916
  11 F :   -0.277018
  12 H :    0.344945
  13 H :    0.360027
  14 H :    0.348865
  15 H :    0.372614
Sum of atomic charges:    0.0000000

LOEWDIN ATOMIC CHARGES
----------------------
   0 C :   -0.264826
   1 C :   -0.115300
   2 C :   -0.220891
   3 C :   -0.099735
   4 C :   -0.473487
   5 H :    0.136306
   6 H :    0.126320
   7 H :    0.065691
   8 H :   -0.015687
   9 H :    0.071235
  10 O :    0.140171
  11 F :    0.174459
  12 H :    0.118021
  13 H :    0.113456
  14 H :    0.128215
  15 H :    0.116053

  Mayer bond orders larger than 0.100000
B(  0-C ,  1-C ) :   0.3976 B(  0-C ,  2-C ) :   0.6387 B(  0-C ,  8-H ) :  -0.1034
B(  0-C , 12-H ) :   0.9735 B(  0-C , 13-H ) :   0.9324 B(  1-C ,  7-H ) :   0.9249
B(  1-C ,  8-H ) :   0.8090 B(  1-C ,  9-H ) :   0.9494 B(  1-C , 11-F ) :   0.1658
B(  2-C ,  3-C ) :   0.5723 B(  2-C , 14-H ) :   0.9645 B(  2-C , 15-H ) :   0.9600
B(  3-C ,  4-C ) :   0.8814 B(  3-C ,  5-H ) :   0.9276 B(  3-C ,  6-H ) :   0.9689
B(  4-C , 10-O ) :   1.7912 B(  4-C , 11-F ) :   1.0045 B(  8-H , 11-F ) :  -0.2529

FINAL SINGLE POINT ENERGY      -370.274929788176

DIPOLE MOMENT
-------------
                                X             Y             Z
Electronic contribution:    -10.25077       2.33711       3.28328
Nuclear contribution   :     11.08738      -2.45618      -3.73478
                        -----------------------------------------
Total Dipole Moment    :      0.83661      -0.11907      -0.45150
                        -----------------------------------------
Magnitude (a.u.)       :      0.95810
Magnitude (Debye)      :      2.43529

Rotational constants in cm-1:     0.156244     0.063730     0.048063
Rotational constants in MHz :  4684.071402  1910.571278  1440.877811

                             ****ORCA TERMINATED NORMALLY****
TOTAL RUN TIME: 0 days 0 hours 1 minutes 19 seconds 494 msec
