                         Program Version 5.0.0 -  RELEASE  -
|  1> !DLPNO-CCSD(T) aug-cc-pVTZ aug-cc-pVTZ/C TightSCF TightPNO RIJCOSX def2/J
|  2> *xyz -1 1
|  3> C          1.69499        1.54179       -5.57045
|  4> S          1.78029       -0.03313       -6.42874
|  5> O          2.56929        0.21366       -7.60736
|  6> O          0.41688       -0.46297       -6.61859
|  7> O          2.50513       -0.93326       -5.48257
|  8> H          1.18489        2.25500       -6.18367
|  9> H          2.68564        1.89081       -5.36624
| 10> H          1.16361        1.41804       -4.65000
| 11> *
| 12> %MaxCore 64000
| 13>
| 14> %pal nprocs 2
| 15> end
| 16>
| 17> %scf
| 18>   MaxIter 150
| 19> end
| 20>
| 21>
| 22>                          ****END OF INPUT****

CARTESIAN COORDINATES (ANGSTROEM)
---------------------------------
  C      1.694990    1.541790   -5.570450
  S      1.780290   -0.033130   -6.428740
  O      2.569290    0.213660   -7.607360
  O      0.416880   -0.462970   -6.618590
  O      2.505130   -0.933260   -5.482570
  H      1.184890    2.255000   -6.183670
  H      2.685640    1.890810   -5.366240
  H      1.163610    1.418040   -4.650000

 Total Charge           Charge          ....   -1
 Multiplicity           Mult            ....    1
 Number of Electrons    NEL             ....   50
 Basis Dimension        Dim             ....  303

ORBITAL ENERGIES
----------------

  NO   OCC          E(Eh)            E(eV)
   0   2.0000     -91.983691     -2503.0035
   1   2.0000     -20.333637      -553.3064
   2   2.0000     -20.332323      -553.2706
   3   2.0000     -20.314306      -552.7804
   4   2.0000     -11.082001      -301.5566
   5   2.0000      -8.946618      -243.4499
   6   2.0000      -6.632843      -180.4888
   7   2.0000      -6.631518      -180.4528
   8   2.0000      -6.631454      -180.4510
   9   2.0000      -1.272308       -34.6213
  10   2.0000      -1.134234       -30.8641
  11   2.0000      -1.097100       -29.8536
  12   2.0000      -0.845303       -23.0019
  13   2.0000      -0.604692       -16.4545
  14   2.0000      -0.485958       -13.2236
  15   2.0000      -0.468952       -12.7608
  16   2.0000      -0.467485       -12.7209
  17   2.0000      -0.421982       -11.4827
  18   2.0000      -0.417621       -11.3641
  19   2.0000      -0.323908        -8.8140
  20   2.0000      -0.318400        -8.6641
  21   2.0000      -0.280726        -7.6389
  22   2.0000      -0.263353        -7.1662
  23   2.0000      -0.251426        -6.8417
  24   2.0000      -0.226625        -6.1668
  25   0.0000       0.127334         3.4649
  26   0.0000       0.140089         3.8120
  27   0.0000       0.141485         3.8500
  28   0.0000       0.189224         5.1490
  29   0.0000       0.212781         5.7901

MULLIKEN ATOMIC CHARGES
-----------------------
   0 C :   -1.071464
   1 S :    2.181591
   2 O :   -0.999353
   3 O :   -0.999843
   4 O :   -1.011677
   5 H :    0.298896
   6 H :    0.310603
   7 H :    0.291248
Sum of atomic charges:   -1.0000000

LOEWDIN ATOMIC CHARGES
----------------------
   0 C :    0.428787
   1 S :   -0.437958
   2 O :   -0.066456
   3 O :   -0.067421
   4 O :   -0.106086
   5 H :   -0.251834
   6 H :   -0.249222
   7 H :   -0.249809

  Mayer bond orders larger than 0.100000
B(  0-C ,  1-S ) :   0.7786 B(  0-C ,  5-H ) :   0.9069 B(  0-C ,  6-H ) :   0.8939
B(  0-C ,  7-H ) :   0.9165 B(  1-S ,  2-O ) :   1.3847 B(  1-S ,  3-O ) :   1.3846
B(  1-S ,  4-O ) :   1.3033

E(0)                                       ...   -661.876754950
E(0)                                       ...   -661.876754950
E(CORR)(strong-pairs)                      ...     -1.114246392
E(CORR)(weak-pairs)                        ...     -0.000982492
E(CORR)(corrected)                         ...     -1.115228884
E(TOT)                                     ...   -662.991983834
E(CCSD(T))                                 ...   -663.039749787
FINAL SINGLE POINT ENERGY      -663.039749786684

DIPOLE MOMENT
-------------
                                X             Y             Z
Electronic contribution:      0.10128      -3.54424      -2.11831
Nuclear contribution   :     -0.31747       5.08000       2.69095
                        -----------------------------------------
Total Dipole Moment    :     -0.21619       1.53576       0.57264
                        -----------------------------------------
Magnitude (a.u.)       :      1.65324
Magnitude (Debye)      :      4.20221

Rotational constants in cm-1:     0.172246     0.157831     0.154490
Rotational constants in MHz :  5163.797750  4731.657963  4631.481993

                             ****ORCA TERMINATED NORMALLY****
TOTAL RUN TIME: 0 days 1 hours 3 minutes 53 seconds 852 msec
