                         Program Version 5.0.0 -  RELEASE  -
|  1> !DLPNO-CCSD(T) aug-cc-pVTZ aug-cc-pVTZ/C TightSCF TightPNO RIJCOSX def2/J
|  2> *xyz 1 1
|  3> C          1.96337       -1.74915       -1.89689
|  4> N          2.73849       -2.01517       -3.09711
|  5> C          4.04974       -2.15472       -3.15204
|  6> N          4.65821       -1.98629       -4.31866
|  7> N          4.76423       -2.45444       -2.05049
|  8> H          4.28736       -2.77626       -1.21750
|  9> H          5.75082       -2.65835       -2.12599
| 10> H          2.34518       -1.69027       -3.97145
| 11> H          4.10900       -1.59268       -5.07176
| 12> H          5.64910       -2.15646       -4.42724
| 13> H          0.92556       -1.68522       -2.14942
| 14> H          2.28268       -0.82430       -1.46378
| 15> H          2.11118       -2.54207       -1.19381
| 16> *
| 17> %MaxCore 64000
| 18>
| 19> %pal nprocs 2
| 20> end
| 21>
| 22> %scf
| 23>   MaxIter 150
| 24> end
| 25>
| 26>
| 27>                          ****END OF INPUT****

CARTESIAN COORDINATES (ANGSTROEM)
---------------------------------
  C      1.963370   -1.749150   -1.896890
  N      2.738490   -2.015170   -3.097110
  C      4.049740   -2.154720   -3.152040
  N      4.658210   -1.986290   -4.318660
  N      4.764230   -2.454440   -2.050490
  H      4.287360   -2.776260   -1.217500
  H      5.750820   -2.658350   -2.125990
  H      2.345180   -1.690270   -3.971450
  H      4.109000   -1.592680   -5.071760
  H      5.649100   -2.156460   -4.427240
  H      0.925560   -1.685220   -2.149420
  H      2.282680   -0.824300   -1.463780
  H      2.111180   -2.542070   -1.193810

 Total Charge           Charge          ....    1
 Multiplicity           Mult            ....    1
 Number of Electrons    NEL             ....   40
 Basis Dimension        Dim             ....  414

ORBITAL ENERGIES
----------------

  NO   OCC          E(Eh)            E(eV)
   0   2.0000     -15.791301      -429.7031
   1   2.0000     -15.790058      -429.6693
   2   2.0000     -15.788930      -429.6386
   3   2.0000     -11.592347      -315.4438
   4   2.0000     -11.430196      -311.0314
   5   2.0000      -1.547281       -42.1037
   6   2.0000      -1.409000       -38.3409
   7   2.0000      -1.393657       -37.9233
   8   2.0000      -1.154152       -31.4061
   9   2.0000      -1.042332       -28.3633
  10   2.0000      -0.975625       -26.5481
  11   2.0000      -0.946821       -25.7643
  12   2.0000      -0.868233       -23.6258
  13   2.0000      -0.861010       -23.4293
  14   2.0000      -0.828920       -22.5561
  15   2.0000      -0.806658       -21.9503
  16   2.0000      -0.750902       -20.4331
  17   2.0000      -0.735083       -20.0026
  18   2.0000      -0.627228       -17.0677
  19   2.0000      -0.596917       -16.2429
  20   0.0000      -0.096793        -2.6339
  21   0.0000      -0.077412        -2.1065
  22   0.0000      -0.071653        -1.9498
  23   0.0000      -0.058457        -1.5907
  24   0.0000      -0.049264        -1.3405

MULLIKEN ATOMIC CHARGES
-----------------------
   0 C :   -0.833927
   1 N :    0.025230
   2 C :    0.492982
   3 N :   -0.345792
   4 N :   -0.273565
   5 H :    0.194593
   6 H :    0.159129
   7 H :    0.135071
   8 H :    0.151360
   9 H :    0.188843
  10 H :    0.385881
  11 H :    0.347439
  12 H :    0.372757
Sum of atomic charges:    1.0000000

LOEWDIN ATOMIC CHARGES
----------------------
   0 C :    0.583859
   1 N :    0.607438
   2 C :   -0.367216
   3 N :    0.937751
   4 N :    0.944275
   5 H :   -0.262216
   6 H :   -0.242664
   7 H :   -0.251042
   8 H :   -0.245502
   9 H :   -0.233088
  10 H :   -0.146086
  11 H :   -0.155674
  12 H :   -0.169833

  Mayer bond orders larger than 0.100000
B(  0-C ,  1-N ) :   0.8612 B(  0-C ,  2-C ) :  -0.1112 B(  0-C , 10-H ) :   0.8925
B(  0-C , 11-H ) :   0.8996 B(  0-C , 12-H ) :   0.8606 B(  1-N ,  2-C ) :   0.9878
B(  1-N ,  7-H ) :   1.0246 B(  2-C ,  3-N ) :   1.0850 B(  2-C ,  4-N ) :   1.0154
B(  3-N ,  8-H ) :   1.0729 B(  3-N ,  9-H ) :   1.0421 B(  4-N ,  5-H ) :   1.0262
B(  4-N ,  6-H ) :   1.0391

E(0)                                       ...   -243.655433062
E(0)                                       ...   -243.655433062
E(CORR)(strong-pairs)                      ...     -0.995053903
E(CORR)(weak-pairs)                        ...     -0.000980098
E(CORR)(corrected)                         ...     -0.996034001
E(TOT)                                     ...   -244.651467063
E(CCSD(T))                                 ...   -244.691118261
FINAL SINGLE POINT ENERGY      -244.691118260781

DIPOLE MOMENT
-------------
                                X             Y             Z
Electronic contribution:      2.06853      -0.55326      -1.80810
Nuclear contribution   :     -1.59972       0.59064       1.48941
                        -----------------------------------------
Total Dipole Moment    :      0.46881       0.03738      -0.31869
                        -----------------------------------------
Magnitude (a.u.)       :      0.56810
Magnitude (Debye)      :      1.44401

Rotational constants in cm-1:     0.309236     0.134358     0.096189
Rotational constants in MHz :  9270.657746  4027.948155  2883.671905

                             ****ORCA TERMINATED NORMALLY****
TOTAL RUN TIME: 0 days 1 hours 57 minutes 54 seconds 242 msec
