                         Program Version 5.0.0 -  RELEASE  -
|  1> !DLPNO-CCSD(T) aug-cc-pVTZ aug-cc-pVTZ/C TightSCF TightPNO RIJCOSX def2/J
|  2> *xyz 0 1
|  3> C          1.69499        1.54179       -5.57045
|  4> S          1.78029       -0.03313       -6.42874
|  5> F          2.56929        0.21366       -7.60736
|  6> O          0.41688       -0.46297       -6.61859
|  7> O          2.50513       -0.93326       -5.48257
|  8> H          1.18489        2.25500       -6.18367
|  9> H          2.68564        1.89081       -5.36624
| 10> H          1.16361        1.41804       -4.65000
| 11> *
| 12> %MaxCore 64000
| 13>
| 14> %pal nprocs 2
| 15> end
| 16>
| 17> %scf
| 18>   MaxIter 150
| 19> end
| 20>
| 21>
| 22>                          ****END OF INPUT****

CARTESIAN COORDINATES (ANGSTROEM)
---------------------------------
  C      1.694990    1.541790   -5.570450
  S      1.780290   -0.033130   -6.428740
  F      2.569290    0.213660   -7.607360
  O      0.416880   -0.462970   -6.618590
  O      2.505130   -0.933260   -5.482570
  H      1.184890    2.255000   -6.183670
  H      2.685640    1.890810   -5.366240
  H      1.163610    1.418040   -4.650000

 Total Charge           Charge          ....    0
 Multiplicity           Mult            ....    1
 Number of Electrons    NEL             ....   50
 Basis Dimension        Dim             ....  303

ORBITAL ENERGIES
----------------

  NO   OCC          E(Eh)            E(eV)
   0   2.0000     -92.259033     -2510.4959
   1   2.0000     -26.439854      -719.4650
   2   2.0000     -20.575544      -559.8890
   3   2.0000     -20.555336      -559.3391
   4   2.0000     -11.293665      -307.3162
   5   2.0000      -9.221873      -250.9399
   6   2.0000      -6.909547      -188.0183
   7   2.0000      -6.905589      -187.9106
   8   2.0000      -6.904631      -187.8846
   9   2.0000      -1.809244       -49.2320
  10   2.0000      -1.454954       -39.5913
  11   2.0000      -1.338604       -36.4253
  12   2.0000      -1.073967       -29.2241
  13   2.0000      -0.970570       -26.4106
  14   2.0000      -0.842083       -22.9142
  15   2.0000      -0.836398       -22.7595
  16   2.0000      -0.770666       -20.9709
  17   2.0000      -0.663069       -18.0430
  18   2.0000      -0.658192       -17.9103
  19   2.0000      -0.638954       -17.3868
  20   2.0000      -0.612303       -16.6616
  21   2.0000      -0.559045       -15.2124
  22   2.0000      -0.504158       -13.7188
  23   2.0000      -0.484946       -13.1960
  24   2.0000      -0.475260       -12.9325
  25   0.0000       0.021238         0.5779
  26   0.0000       0.040725         1.1082
  27   0.0000       0.044477         1.2103
  28   0.0000       0.062842         1.7100
  29   0.0000       0.090871         2.4727

MULLIKEN ATOMIC CHARGES
-----------------------
   0 C :   -0.985192
   1 S :    2.136680
   2 F :   -0.486021
   3 O :   -0.839324
   4 O :   -0.853453
   5 H :    0.336916
   6 H :    0.349202
   7 H :    0.341191
Sum of atomic charges:    0.0000000

LOEWDIN ATOMIC CHARGES
----------------------
   0 C :    0.512613
   1 S :   -0.139429
   2 F :    0.281926
   3 O :    0.020353
   4 O :   -0.014431
   5 H :   -0.227739
   6 H :   -0.225219
   7 H :   -0.208074

  Mayer bond orders larger than 0.100000
B(  0-C ,  1-S ) :   0.9006 B(  0-C ,  5-H ) :   0.8747 B(  0-C ,  6-H ) :   0.8621
B(  0-C ,  7-H ) :   0.8805 B(  1-S ,  2-F ) :   0.5841 B(  1-S ,  3-O ) :   1.5816
B(  1-S ,  4-O ) :   1.4969

E(0)                                       ...   -686.371644791
E(0)                                       ...   -686.371644791
E(CORR)(strong-pairs)                      ...     -1.119910647
E(CORR)(weak-pairs)                        ...     -0.000970407
E(CORR)(corrected)                         ...     -1.120881054
E(TOT)                                     ...   -687.492525845
E(CCSD(T))                                 ...   -687.538036198
FINAL SINGLE POINT ENERGY      -687.538036197550

DIPOLE MOMENT
-------------
                                X             Y             Z
Electronic contribution:      1.44437      -3.04900      -4.18793
Nuclear contribution   :     -1.09446       4.91008       3.93848
                        -----------------------------------------
Total Dipole Moment    :      0.34991       1.86108      -0.24945
                        -----------------------------------------
Magnitude (a.u.)       :      1.91005
Magnitude (Debye)      :      4.85496

Rotational constants in cm-1:     0.163326     0.155515     0.146672
Rotational constants in MHz :  4896.387829  4662.220576  4397.127261

                             ****ORCA TERMINATED NORMALLY****
TOTAL RUN TIME: 0 days 0 hours 57 minutes 2 seconds 324 msec
