                         Program Version 5.0.0 -  RELEASE  -
|  1> !DLPNO-CCSD(T) aug-cc-pVTZ aug-cc-pVTZ/C TightSCF TightPNO RIJCOSX def2/J
|  2> *xyz 0 1
|  3> C          1.96337       -1.74915       -1.89689
|  4> C          2.73849       -2.01517       -3.09711
|  5> C          4.04974       -2.15472       -3.15204
|  6> N          4.65821       -1.98629       -4.31866
|  7> N          4.76423       -2.45444       -2.05049
|  8> H          4.28736       -2.77626       -1.21750
|  9> H          5.75082       -2.65835       -2.12599
| 10> H          2.34518       -1.69027       -3.97145
| 11> H          4.10900       -1.59268       -5.07176
| 12> H          5.64910       -2.15646       -4.42724
| 13> H          0.92556       -1.68522       -2.14942
| 14> H          2.28268       -0.82430       -1.46378
| 15> H          2.11118       -2.54207       -1.19381
| 16> *
| 17> %MaxCore 64000
| 18>
| 19> %pal nprocs 2
| 20> end
| 21>
| 22> %scf
| 23>   MaxIter 150
| 24> end
| 25>
| 26>
| 27>                          ****END OF INPUT****

CARTESIAN COORDINATES (ANGSTROEM)
---------------------------------
  C      1.963370   -1.749150   -1.896890
  C      2.738490   -2.015170   -3.097110
  C      4.049740   -2.154720   -3.152040
  N      4.658210   -1.986290   -4.318660
  N      4.764230   -2.454440   -2.050490
  H      4.287360   -2.776260   -1.217500
  H      5.750820   -2.658350   -2.125990
  H      2.345180   -1.690270   -3.971450
  H      4.109000   -1.592680   -5.071760
  H      5.649100   -2.156460   -4.427240
  H      0.925560   -1.685220   -2.149420
  H      2.282680   -0.824300   -1.463780
  H      2.111180   -2.542070   -1.193810

 Total Charge           Charge          ....    0
 Multiplicity           Mult            ....    1
 Number of Electrons    NEL             ....   40
 Basis Dimension        Dim             ....  414

ORBITAL ENERGIES
----------------

  NO   OCC          E(Eh)            E(eV)
   0   2.0000     -15.563975      -423.5173
   1   2.0000     -15.559595      -423.3981
   2   2.0000     -11.281351      -306.9812
   3   2.0000     -11.183171      -304.3095
   4   2.0000     -11.135317      -303.0074
   5   2.0000      -1.276278       -34.7293
   6   2.0000      -1.164515       -31.6881
   7   2.0000      -1.024330       -27.8734
   8   2.0000      -0.896289       -24.3893
   9   2.0000      -0.783805       -21.3284
  10   2.0000      -0.721679       -19.6379
  11   2.0000      -0.693085       -18.8598
  12   2.0000      -0.639303       -17.3963
  13   2.0000      -0.588467       -16.0130
  14   2.0000      -0.574124       -15.6227
  15   2.0000      -0.533970       -14.5301
  16   2.0000      -0.509986       -13.8774
  17   2.0000      -0.484074       -13.1723
  18   2.0000      -0.414802       -11.2873
  19   2.0000      -0.257449        -7.0055
  20   0.0000       0.023979         0.6525
  21   0.0000       0.035666         0.9705
  22   0.0000       0.040739         1.1086
  23   0.0000       0.053919         1.4672
  24   0.0000       0.055319         1.5053

MULLIKEN ATOMIC CHARGES
-----------------------
   0 C :   -0.796954
   1 C :   -0.383914
   2 C :    0.579127
   3 N :   -0.491132
   4 N :   -0.399380
   5 H :    0.117770
   6 H :    0.136882
   7 H :    0.255612
   8 H :    0.071128
   9 H :    0.092382
  10 H :    0.253884
  11 H :    0.279460
  12 H :    0.285135
Sum of atomic charges:    0.0000000

LOEWDIN ATOMIC CHARGES
----------------------
   0 C :    0.531986
   1 C :    0.179572
   2 C :   -0.435101
   3 N :    0.849566
   4 N :    0.867765
   5 H :   -0.288655
   6 H :   -0.284311
   7 H :   -0.292234
   8 H :   -0.279370
   9 H :   -0.278458
  10 H :   -0.183920
  11 H :   -0.184906
  12 H :   -0.201934

  Mayer bond orders larger than 0.100000
B(  0-C ,  1-C ) :   0.8091 B(  0-C , 10-H ) :   1.0719 B(  0-C , 11-H ) :   0.8915
B(  0-C , 12-H ) :   0.9476 B(  1-C ,  2-C ) :   1.1955 B(  1-C ,  3-N ) :  -0.1997
B(  1-C ,  4-N ) :  -0.1298 B(  1-C ,  7-H ) :   1.0107 B(  2-C ,  3-N ) :   0.8410
B(  2-C ,  4-N ) :   0.8069 B(  3-N ,  4-N ) :  -0.1461 B(  3-N ,  8-H ) :   1.1512
B(  3-N ,  9-H ) :   1.1437 B(  4-N ,  5-H ) :   1.1180 B(  4-N ,  6-H ) :   1.0286

E(0)                                       ...   -227.202727337
E(0)                                       ...   -227.202727337
E(CORR)(strong-pairs)                      ...     -0.978623972
E(CORR)(weak-pairs)                        ...     -0.000958949
E(CORR)(corrected)                         ...     -0.979582921
E(TOT)                                     ...   -228.182310258
E(CCSD(T))                                 ...   -228.222353564
FINAL SINGLE POINT ENERGY      -228.222353563916

DIPOLE MOMENT
-------------
                                X             Y             Z
Electronic contribution:      2.78374      -0.65337      -1.58562
Nuclear contribution   :     -1.78367       0.60166       1.44982
                        -----------------------------------------
Total Dipole Moment    :      1.00007      -0.05171      -0.13581
                        -----------------------------------------
Magnitude (a.u.)       :      1.01058
Magnitude (Debye)      :      2.56868

Rotational constants in cm-1:     0.313991     0.135452     0.097139
Rotational constants in MHz :  9413.212964  4060.745953  2912.144668

                             ****ORCA TERMINATED NORMALLY****
TOTAL RUN TIME: 0 days 2 hours 11 minutes 38 seconds 79 msec
