                         Program Version 5.0.0 -  RELEASE  -
|  1> !DLPNO-CCSD(T) aug-cc-pVTZ aug-cc-pVTZ/C TightSCF TightPNO RIJCOSX def2/J
|  2> *xyz 0 1
|  3> C          1.69499        1.54179       -5.57045
|  4> S          1.78029       -0.03313       -6.42874
|  5> O          2.56929        0.21366       -7.60736
|  6> F          0.41688       -0.46297       -6.61859
|  7> O          2.50513       -0.93326       -5.48257
|  8> H          1.18489        2.25500       -6.18367
|  9> H          2.68564        1.89081       -5.36624
| 10> H          1.16361        1.41804       -4.65000
| 11> *
| 12> %MaxCore 64000
| 13>
| 14> %pal nprocs 2
| 15> end
| 16>
| 17> %scf
| 18>   MaxIter 150
| 19> end
| 20>
| 21>
| 22>                          ****END OF INPUT****

CARTESIAN COORDINATES (ANGSTROEM)
---------------------------------
  C      1.694990    1.541790   -5.570450
  S      1.780290   -0.033130   -6.428740
  O      2.569290    0.213660   -7.607360
  F      0.416880   -0.462970   -6.618590
  O      2.505130   -0.933260   -5.482570
  H      1.184890    2.255000   -6.183670
  H      2.685640    1.890810   -5.366240
  H      1.163610    1.418040   -4.650000

 Total Charge           Charge          ....    0
 Multiplicity           Mult            ....    1
 Number of Electrons    NEL             ....   50
 Basis Dimension        Dim             ....  303

ORBITAL ENERGIES
----------------

  NO   OCC          E(Eh)            E(eV)
   0   2.0000     -92.258771     -2510.4888
   1   2.0000     -26.440158      -719.4733
   2   2.0000     -20.574271      -559.8544
   3   2.0000     -20.555377      -559.3402
   4   2.0000     -11.293687      -307.3168
   5   2.0000      -9.221641      -250.9336
   6   2.0000      -6.909263      -188.0106
   7   2.0000      -6.905381      -187.9050
   8   2.0000      -6.904392      -187.8781
   9   2.0000      -1.808051       -49.1996
  10   2.0000      -1.456035       -39.6207
  11   2.0000      -1.338280       -36.4165
  12   2.0000      -1.073382       -29.2082
  13   2.0000      -0.970399       -26.4059
  14   2.0000      -0.841578       -22.9005
  15   2.0000      -0.835818       -22.7438
  16   2.0000      -0.770364       -20.9627
  17   2.0000      -0.663269       -18.0485
  18   2.0000      -0.658226       -17.9112
  19   2.0000      -0.639326       -17.3969
  20   2.0000      -0.612154       -16.6576
  21   2.0000      -0.559048       -15.2125
  22   2.0000      -0.503490       -13.7007
  23   2.0000      -0.484734       -13.1903
  24   2.0000      -0.474735       -12.9182
  25   0.0000       0.021251         0.5783
  26   0.0000       0.040734         1.1084
  27   0.0000       0.044568         1.2128
  28   0.0000       0.062745         1.7074
  29   0.0000       0.090838         2.4718

MULLIKEN ATOMIC CHARGES
-----------------------
   0 C :   -0.986416
   1 S :    2.137789
   2 O :   -0.841050
   3 F :   -0.488246
   4 O :   -0.850040
   5 H :    0.338717
   6 H :    0.359497
   7 H :    0.329749
Sum of atomic charges:   -0.0000000

LOEWDIN ATOMIC CHARGES
----------------------
   0 C :    0.511948
   1 S :   -0.137845
   2 O :    0.020987
   3 F :    0.280143
   4 O :   -0.014204
   5 H :   -0.227703
   6 H :   -0.207602
   7 H :   -0.225723

  Mayer bond orders larger than 0.100000
B(  0-C ,  1-S ) :   0.9022 B(  0-C ,  5-H ) :   0.8735 B(  0-C ,  6-H ) :   0.8590
B(  0-C ,  7-H ) :   0.8846 B(  1-S ,  2-O ) :   1.5802 B(  1-S ,  3-F ) :   0.5772
B(  1-S ,  4-O ) :   1.5003

E(0)                                       ...   -686.370807610
E(0)                                       ...   -686.370807610
E(CORR)(strong-pairs)                      ...     -1.119993275
E(CORR)(weak-pairs)                        ...     -0.000969607
E(CORR)(corrected)                         ...     -1.120962882
E(TOT)                                     ...   -687.491770491
E(CCSD(T))                                 ...   -687.537289003
FINAL SINGLE POINT ENERGY      -687.537289003105

DIPOLE MOMENT
-------------
                                X             Y             Z
Electronic contribution:     -2.30448      -4.22762      -2.46217
Nuclear contribution   :      1.05593       5.58608       2.95063
                        -----------------------------------------
Total Dipole Moment    :     -1.24855       1.35846       0.48846
                        -----------------------------------------
Magnitude (a.u.)       :      1.90863
Magnitude (Debye)      :      4.85135

Rotational constants in cm-1:     0.163930     0.155251     0.146268
Rotational constants in MHz :  4914.487830  4654.318941  4385.000376

                             ****ORCA TERMINATED NORMALLY****
TOTAL RUN TIME: 0 days 0 hours 57 minutes 57 seconds 671 msec
