                         Program Version 5.0.0 -  RELEASE  -
|  1> !DLPNO-CCSD(T) aug-cc-pVTZ aug-cc-pVTZ/C TightSCF TightPNO RIJCOSX def2/J
|  2> *xyz 0 1
|  3> C          1.96337       -1.74915       -1.89689
|  4> N          2.73849       -2.01517       -3.09711
|  5> C          4.04974       -2.15472       -3.15204
|  6> C          4.65821       -1.98629       -4.31866
|  7> N          4.76423       -2.45444       -2.05049
|  8> H          4.28736       -2.77626       -1.21750
|  9> H          5.75082       -2.65835       -2.12599
| 10> H          2.34518       -1.69027       -3.97145
| 11> H          4.10900       -1.59268       -5.07176
| 12> H          5.64910       -2.15646       -4.42724
| 13> H          0.92556       -1.68522       -2.14942
| 14> H          2.28268       -0.82430       -1.46378
| 15> H          2.11118       -2.54207       -1.19381
| 16> *
| 17> %MaxCore 64000
| 18>
| 19> %pal nprocs 2
| 20> end
| 21>
| 22> %scf
| 23>   MaxIter 150
| 24> end
| 25>
| 26>
| 27>                          ****END OF INPUT****

CARTESIAN COORDINATES (ANGSTROEM)
---------------------------------
  C      1.963370   -1.749150   -1.896890
  N      2.738490   -2.015170   -3.097110
  C      4.049740   -2.154720   -3.152040
  C      4.658210   -1.986290   -4.318660
  N      4.764230   -2.454440   -2.050490
  H      4.287360   -2.776260   -1.217500
  H      5.750820   -2.658350   -2.125990
  H      2.345180   -1.690270   -3.971450
  H      4.109000   -1.592680   -5.071760
  H      5.649100   -2.156460   -4.427240
  H      0.925560   -1.685220   -2.149420
  H      2.282680   -0.824300   -1.463780
  H      2.111180   -2.542070   -1.193810

 Total Charge           Charge          ....    0
 Multiplicity           Mult            ....    1
 Number of Electrons    NEL             ....   40
 Basis Dimension        Dim             ....  414

ORBITAL ENERGIES
----------------

  NO   OCC          E(Eh)            E(eV)
   0   2.0000     -15.562667      -423.4817
   1   2.0000     -15.558982      -423.3814
   2   2.0000     -11.285946      -307.1062
   3   2.0000     -11.257796      -306.3402
   4   2.0000     -11.128957      -302.8343
   5   2.0000      -1.286756       -35.0144
   6   2.0000      -1.178998       -32.0822
   7   2.0000      -1.006828       -27.3972
   8   2.0000      -0.912783       -24.8381
   9   2.0000      -0.801885       -21.8204
  10   2.0000      -0.716922       -19.5084
  11   2.0000      -0.668696       -18.1962
  12   2.0000      -0.643137       -17.5006
  13   2.0000      -0.628397       -17.0995
  14   2.0000      -0.560255       -15.2453
  15   2.0000      -0.549516       -14.9531
  16   2.0000      -0.545795       -14.8518
  17   2.0000      -0.516358       -14.0508
  18   2.0000      -0.402014       -10.9394
  19   2.0000      -0.264388        -7.1944
  20   0.0000       0.025665         0.6984
  21   0.0000       0.034658         0.9431
  22   0.0000       0.042315         1.1515
  23   0.0000       0.047075         1.2810
  24   0.0000       0.055137         1.5003

MULLIKEN ATOMIC CHARGES
-----------------------
   0 C :   -0.902222
   1 N :   -0.050026
   2 C :    0.375771
   3 C :   -1.176393
   4 N :   -0.411513
   5 H :    0.151287
   6 H :    0.061470
   7 H :    0.050186
   8 H :    0.371934
   9 H :    0.467945
  10 H :    0.365269
  11 H :    0.324094
  12 H :    0.372197
Sum of atomic charges:   -0.0000000

LOEWDIN ATOMIC CHARGES
----------------------
   0 C :    0.528735
   1 N :    0.548129
   2 C :   -0.463034
   3 C :    0.535621
   4 N :    0.862022
   5 H :   -0.302208
   6 H :   -0.272260
   7 H :   -0.278402
   8 H :   -0.315603
   9 H :   -0.306915
  10 H :   -0.171058
  11 H :   -0.175740
  12 H :   -0.189287

  Mayer bond orders larger than 0.100000
B(  0-C ,  1-N ) :   0.9069 B(  0-C ,  2-C ) :  -0.1227 B(  0-C , 10-H ) :   0.9118
B(  0-C , 11-H ) :   0.9203 B(  0-C , 12-H ) :   0.8702 B(  1-N ,  2-C ) :   0.7801
B(  1-N ,  3-C ) :  -0.2051 B(  1-N ,  4-N ) :  -0.1487 B(  1-N ,  7-H ) :   1.1034
B(  2-C ,  3-C ) :   1.2004 B(  2-C ,  4-N ) :   0.8761 B(  3-C ,  4-N ) :  -0.2165
B(  3-C ,  8-H ) :   0.9827 B(  3-C ,  9-H ) :   0.8029 B(  4-N ,  5-H ) :   1.0429
B(  4-N ,  6-H ) :   1.1387

E(0)                                       ...   -227.199774484
E(0)                                       ...   -227.199774484
E(CORR)(strong-pairs)                      ...     -0.974823261
E(CORR)(weak-pairs)                        ...     -0.000957161
E(CORR)(corrected)                         ...     -0.975780422
E(TOT)                                     ...   -228.175554906
E(CCSD(T))                                 ...   -228.215264592
FINAL SINGLE POINT ENERGY      -228.215264592059

DIPOLE MOMENT
-------------
                                X             Y             Z
Electronic contribution:      0.82643      -0.64286      -0.26043
Nuclear contribution   :     -1.39484       0.60751       1.20240
                        -----------------------------------------
Total Dipole Moment    :     -0.56841      -0.03536       0.94196
                        -----------------------------------------
Magnitude (a.u.)       :      1.10074
Magnitude (Debye)      :      2.79786

Rotational constants in cm-1:     0.316419     0.139940     0.099730
Rotational constants in MHz :  9485.991536  4195.289338  2989.818216

                             ****ORCA TERMINATED NORMALLY****
TOTAL RUN TIME: 0 days 2 hours 9 minutes 32 seconds 763 msec
