                         Program Version 5.0.0 -  RELEASE  -
|  1> !DLPNO-CCSD(T) aug-cc-pVTZ aug-cc-pVTZ/C TightSCF TightPNO RIJCOSX def2/J
|  2> *xyz 0 1
|  3> C          1.69499        1.54179       -5.57045
|  4> S          1.78029       -0.03313       -6.42874
|  5> O          2.56929        0.21366       -7.60736
|  6> O          0.41688       -0.46297       -6.61859
|  7> F          2.50513       -0.93326       -5.48257
|  8> H          1.18489        2.25500       -6.18367
|  9> H          2.68564        1.89081       -5.36624
| 10> H          1.16361        1.41804       -4.65000
| 11> *
| 12> %MaxCore 64000
| 13>
| 14> %pal nprocs 2
| 15> end
| 16>
| 17> %scf
| 18>   MaxIter 150
| 19> end
| 20>
| 21>
| 22>                          ****END OF INPUT****

CARTESIAN COORDINATES (ANGSTROEM)
---------------------------------
  C      1.694990    1.541790   -5.570450
  S      1.780290   -0.033130   -6.428740
  O      2.569290    0.213660   -7.607360
  O      0.416880   -0.462970   -6.618590
  F      2.505130   -0.933260   -5.482570
  H      1.184890    2.255000   -6.183670
  H      2.685640    1.890810   -5.366240
  H      1.163610    1.418040   -4.650000

 Total Charge           Charge          ....    0
 Multiplicity           Mult            ....    1
 Number of Electrons    NEL             ....   50
 Basis Dimension        Dim             ....  303

ORBITAL ENERGIES
----------------

  NO   OCC          E(Eh)            E(eV)
   0   2.0000     -92.257387     -2510.4511
   1   2.0000     -26.411409      -718.6910
   2   2.0000     -20.574795      -559.8686
   3   2.0000     -20.573486      -559.8330
   4   2.0000     -11.292442      -307.2830
   5   2.0000      -9.219865      -250.8853
   6   2.0000      -6.907554      -187.9641
   7   2.0000      -6.903819      -187.8625
   8   2.0000      -6.902674      -187.8313
   9   2.0000      -1.760621       -47.9089
  10   2.0000      -1.470250       -40.0075
  11   2.0000      -1.369454       -37.2647
  12   2.0000      -1.069717       -29.1085
  13   2.0000      -0.942608       -25.6497
  14   2.0000      -0.811519       -22.0826
  15   2.0000      -0.802302       -21.8317
  16   2.0000      -0.769109       -20.9285
  17   2.0000      -0.669790       -18.2259
  18   2.0000      -0.663792       -18.0627
  19   2.0000      -0.637497       -17.3472
  20   2.0000      -0.622339       -16.9347
  21   2.0000      -0.567228       -15.4351
  22   2.0000      -0.516232       -14.0474
  23   2.0000      -0.497504       -13.5378
  24   2.0000      -0.494963       -13.4686
  25   0.0000       0.022287         0.6065
  26   0.0000       0.041706         1.1349
  27   0.0000       0.043566         1.1855
  28   0.0000       0.065321         1.7775
  29   0.0000       0.091541         2.4910

MULLIKEN ATOMIC CHARGES
-----------------------
   0 C :   -0.995995
   1 S :    2.171546
   2 O :   -0.850571
   3 O :   -0.850409
   4 F :   -0.498506
   5 H :    0.350627
   6 H :    0.346100
   7 H :    0.327207
Sum of atomic charges:    0.0000000

LOEWDIN ATOMIC CHARGES
----------------------
   0 C :    0.513949
   1 S :   -0.133827
   2 O :    0.021153
   3 O :    0.020608
   4 F :    0.238984
   5 H :   -0.209719
   6 H :   -0.225275
   7 H :   -0.225874

  Mayer bond orders larger than 0.100000
B(  0-C ,  1-S ) :   0.8883 B(  0-C ,  5-H ) :   0.8712 B(  0-C ,  6-H ) :   0.8629
B(  0-C ,  7-H ) :   0.8858 B(  1-S ,  2-O ) :   1.5774 B(  1-S ,  3-O ) :   1.5766
B(  1-S ,  4-F ) :   0.5585

E(0)                                       ...   -686.394366786
E(0)                                       ...   -686.394366786
E(CORR)(strong-pairs)                      ...     -1.118800377
E(CORR)(weak-pairs)                        ...     -0.000962339
E(CORR)(corrected)                         ...     -1.119762715
E(TOT)                                     ...   -687.514129501
E(CCSD(T))                                 ...   -687.559314657
FINAL SINGLE POINT ENERGY      -687.559314656805

DIPOLE MOMENT
-------------
                                X             Y             Z
Electronic contribution:      1.35062      -5.06710      -0.45351
Nuclear contribution   :     -1.03036       6.05593       1.81567
                        -----------------------------------------
Total Dipole Moment    :      0.32026       0.98883       1.36216
                        -----------------------------------------
Magnitude (a.u.)       :      1.71343
Magnitude (Debye)      :      4.35520

Rotational constants in cm-1:     0.164224     0.152173     0.148737
Rotational constants in MHz :  4923.310232  4562.031098  4459.033187

                             ****ORCA TERMINATED NORMALLY****
TOTAL RUN TIME: 0 days 0 hours 56 minutes 5 seconds 31 msec
