                         Program Version 5.0.0 -  RELEASE  -
|  1> !DLPNO-CCSD(T) aug-cc-pVTZ aug-cc-pVTZ/C TightSCF TightPNO RIJCOSX def2/J
|  2> *xyz 0 1
|  3> C          1.96337       -1.74915       -1.89689
|  4> N          2.73849       -2.01517       -3.09711
|  5> C          4.04974       -2.15472       -3.15204
|  6> N          4.65821       -1.98629       -4.31866
|  7> C          4.76423       -2.45444       -2.05049
|  8> H          4.28736       -2.77626       -1.21750
|  9> H          5.75082       -2.65835       -2.12599
| 10> H          2.34518       -1.69027       -3.97145
| 11> H          4.10900       -1.59268       -5.07176
| 12> H          5.64910       -2.15646       -4.42724
| 13> H          0.92556       -1.68522       -2.14942
| 14> H          2.28268       -0.82430       -1.46378
| 15> H          2.11118       -2.54207       -1.19381
| 16> *
| 17> %MaxCore 64000
| 18>
| 19> %pal nprocs 2
| 20> end
| 21>
| 22> %scf
| 23>   MaxIter 150
| 24> end
| 25>
| 26>
| 27>                          ****END OF INPUT****

CARTESIAN COORDINATES (ANGSTROEM)
---------------------------------
  C      1.963370   -1.749150   -1.896890
  N      2.738490   -2.015170   -3.097110
  C      4.049740   -2.154720   -3.152040
  N      4.658210   -1.986290   -4.318660
  C      4.764230   -2.454440   -2.050490
  H      4.287360   -2.776260   -1.217500
  H      5.750820   -2.658350   -2.125990
  H      2.345180   -1.690270   -3.971450
  H      4.109000   -1.592680   -5.071760
  H      5.649100   -2.156460   -4.427240
  H      0.925560   -1.685220   -2.149420
  H      2.282680   -0.824300   -1.463780
  H      2.111180   -2.542070   -1.193810

 Total Charge           Charge          ....    0
 Multiplicity           Mult            ....    1
 Number of Electrons    NEL             ....   40
 Basis Dimension        Dim             ....  414

ORBITAL ENERGIES
----------------

  NO   OCC          E(Eh)            E(eV)
   0   2.0000     -15.564452      -423.5303
   1   2.0000     -15.564416      -423.5293
   2   2.0000     -11.288043      -307.1633
   3   2.0000     -11.251030      -306.1561
   4   2.0000     -11.130540      -302.8774
   5   2.0000      -1.293745       -35.2046
   6   2.0000      -1.183307       -32.1994
   7   2.0000      -0.978863       -26.6362
   8   2.0000      -0.942498       -25.6467
   9   2.0000      -0.772241       -21.0137
  10   2.0000      -0.727926       -19.8079
  11   2.0000      -0.707586       -19.2544
  12   2.0000      -0.623582       -16.9685
  13   2.0000      -0.609127       -16.5752
  14   2.0000      -0.580368       -15.7926
  15   2.0000      -0.538778       -14.6609
  16   2.0000      -0.531254       -14.4562
  17   2.0000      -0.522597       -14.2206
  18   2.0000      -0.396475       -10.7886
  19   2.0000      -0.266221        -7.2442
  20   0.0000       0.023753         0.6463
  21   0.0000       0.034630         0.9423
  22   0.0000       0.041737         1.1357
  23   0.0000       0.051420         1.3992
  24   0.0000       0.055955         1.5226

MULLIKEN ATOMIC CHARGES
-----------------------
   0 C :   -0.942311
   1 N :   -0.112392
   2 C :    0.498762
   3 N :   -0.478045
   4 C :   -1.242690
   5 H :    0.570243
   6 H :    0.305003
   7 H :    0.097843
   8 H :    0.131140
   9 H :    0.101266
  10 H :    0.368756
  11 H :    0.324190
  12 H :    0.378233
Sum of atomic charges:    0.0000000

LOEWDIN ATOMIC CHARGES
----------------------
   0 C :    0.529635
   1 N :    0.546926
   2 C :   -0.466963
   3 N :    0.855557
   4 C :    0.543493
   5 H :   -0.328000
   6 H :   -0.314525
   7 H :   -0.284101
   8 H :   -0.287423
   9 H :   -0.263054
  10 H :   -0.172939
  11 H :   -0.172751
  12 H :   -0.185857

  Mayer bond orders larger than 0.100000
B(  0-C ,  1-N ) :   0.9640 B(  0-C , 10-H ) :   0.8993 B(  0-C , 11-H ) :   0.9203
B(  0-C , 12-H ) :   0.8733 B(  1-N ,  2-C ) :   0.8410 B(  1-N ,  3-N ) :  -0.1698
B(  1-N ,  4-C ) :  -0.2034 B(  1-N ,  7-H ) :   1.0786 B(  2-C ,  3-N ) :   0.8965
B(  2-C ,  4-C ) :   1.1764 B(  3-N ,  4-C ) :  -0.1114 B(  3-N ,  8-H ) :   1.0843
B(  3-N ,  9-H ) :   1.1226 B(  4-C ,  5-H ) :   0.6604 B(  4-C ,  6-H ) :   1.0393

E(0)                                       ...   -227.200170128
E(0)                                       ...   -227.200170128
E(CORR)(strong-pairs)                      ...     -0.975329492
E(CORR)(weak-pairs)                        ...     -0.000970621
E(CORR)(corrected)                         ...     -0.976300113
E(TOT)                                     ...   -228.176470241
E(CCSD(T))                                 ...   -228.216385216
FINAL SINGLE POINT ENERGY      -228.216385216223

DIPOLE MOMENT
-------------
                                X             Y             Z
Electronic contribution:      0.74140      -0.11021      -2.58881
Nuclear contribution   :     -1.37336       0.51269       1.66180
                        -----------------------------------------
Total Dipole Moment    :     -0.63197       0.40248      -0.92700
                        -----------------------------------------
Magnitude (a.u.)       :      1.19193
Magnitude (Debye)      :      3.02965

Rotational constants in cm-1:     0.331915     0.135033     0.098638
Rotational constants in MHz :  9950.555862  4048.179255  2957.099162

                             ****ORCA TERMINATED NORMALLY****
TOTAL RUN TIME: 0 days 2 hours 10 minutes 14 seconds 850 msec
