                         Program Version 5.0.0 -  RELEASE  -
|  1> !DLPNO-CCSD(T) aug-cc-pVTZ aug-cc-pVTZ/C TightSCF TightPNO RIJCOSX def2/J
|  2>
|  3> *xyzfile 0 1 D1.xyz
|  4>
|  5> %MaxCore 64000
|  6>
|  7> %pal nprocs 18
|  8> end
|  9>
| 10> %scf
| 11>   MaxIter 150
| 12> end
| 13>
| 14>
| 15>                          ****END OF INPUT****

CARTESIAN COORDINATES (ANGSTROEM)
---------------------------------
  C      1.963365   -1.749150   -1.896887
  C      2.738490   -2.015170   -3.097113
  C      0.611877    1.657634   -4.500288
  C      1.694991    1.541794   -5.570447
  H      2.697326    1.734659   -5.183996
  H      1.506656    2.272239   -6.358076
  S      1.780287   -0.033128   -6.428739
  C      4.049736   -2.154717   -3.152044
  N      4.658206   -1.986293   -4.318655
  N      4.764231   -2.454435   -2.050491
  H      4.287363   -2.776259   -1.217496
  H      5.750825   -2.658351   -2.125988
  H      2.345176   -1.690274   -3.971447
  H      4.109004   -1.592677   -5.071760
  H      5.649095   -2.156462   -4.427237
  F      2.569287    0.213657   -7.607360
  O      0.416880   -0.462969   -6.618595
  C      2.088520   -0.300912   -1.415204
  H      2.231272   -2.451616   -1.102643
  H      0.930249   -1.977801   -2.155438
  C      0.680356    0.655418   -3.348038
  H     -0.356865    1.549231   -4.991128
  H      0.650228    2.675438   -4.096000
  C      1.968993    0.733582   -2.535654
  H      3.051356   -0.168602   -0.911868
  H      1.316501   -0.136231   -0.657252
  O      2.505129   -0.933263   -5.482570
  H      2.824195    0.624726   -3.208464
  H      2.058919    1.730331   -2.093112
  H      0.542252   -0.344731   -3.766662
  H     -0.174219    0.829692   -2.685182

 Total Charge           Charge          ....    0
 Multiplicity           Mult            ....    1
 Number of Electrons    NEL             ....  120
 Basis Dimension        Dim             .... 1039

ORBITAL ENERGIES
----------------

  NO   OCC          E(Eh)            E(eV)
   0   2.0000     -92.260753     -2510.5427
   1   2.0000     -26.444426      -719.5894
   2   2.0000     -20.579489      -559.9964
   3   2.0000     -20.562920      -559.5455
   4   2.0000     -15.543200      -422.9520
   5   2.0000     -15.526761      -422.5046
   6   2.0000     -11.297411      -307.4182
   7   2.0000     -11.256298      -306.2994
   8   2.0000     -11.251519      -306.1694
   9   2.0000     -11.216910      -305.2276
  10   2.0000     -11.204752      -304.8968
  11   2.0000     -11.193944      -304.6027
  12   2.0000     -11.180476      -304.2362
  13   2.0000     -11.098964      -302.0182
  14   2.0000      -9.224456      -251.0102
  15   2.0000      -6.911843      -188.0808
  16   2.0000      -6.907949      -187.9749
  17   2.0000      -6.907296      -187.9571
  18   2.0000      -1.814152       -49.3656
  19   2.0000      -1.463639       -39.8276
  20   2.0000      -1.354797       -36.8659
  21   2.0000      -1.251978       -34.0681
  22   2.0000      -1.141013       -31.0485
  23   2.0000      -1.117703       -30.4142
  24   2.0000      -1.067088       -29.0369
  25   2.0000      -1.019904       -27.7530
  26   2.0000      -0.983056       -26.7503
  27   2.0000      -0.940070       -25.5806
  28   2.0000      -0.891473       -24.2582
  29   2.0000      -0.849813       -23.1246
  30   2.0000      -0.843880       -22.9631
  31   2.0000      -0.816566       -22.2199
  32   2.0000      -0.800206       -21.7747
  33   2.0000      -0.758159       -20.6306
  34   2.0000      -0.746901       -20.3242
  35   2.0000      -0.705499       -19.1976
  36   2.0000      -0.679928       -18.5018
  37   2.0000      -0.671113       -18.2619
  38   2.0000      -0.669247       -18.2111
  39   2.0000      -0.643839       -17.5197
  40   2.0000      -0.634443       -17.2641
  41   2.0000      -0.613048       -16.6819
  42   2.0000      -0.596791       -16.2395
  43   2.0000      -0.586726       -15.9656
  44   2.0000      -0.574601       -15.6357
  45   2.0000      -0.564530       -15.3616
  46   2.0000      -0.537181       -14.6174
  47   2.0000      -0.533326       -14.5125
  48   2.0000      -0.524307       -14.2671
  49   2.0000      -0.516524       -14.0553
  50   2.0000      -0.508314       -13.8319
  51   2.0000      -0.487450       -13.2642
  52   2.0000      -0.477744       -13.0001
  53   2.0000      -0.476837       -12.9754
  54   2.0000      -0.468285       -12.7427
  55   2.0000      -0.448581       -12.2065
  56   2.0000      -0.436481       -11.8773
  57   2.0000      -0.422795       -11.5048
  58   2.0000      -0.389943       -10.6109
  59   2.0000      -0.232929        -6.3383
  60   0.0000       0.019986         0.5439
  61   0.0000       0.029451         0.8014
  62   0.0000       0.033741         0.9181
  63   0.0000       0.038703         1.0531
  64   0.0000       0.042951         1.1688

MULLIKEN ATOMIC CHARGES
-----------------------
   0 C :   -0.366383
   1 C :   -0.457681
   2 C :   -0.564779
   3 C :   -0.554715
   4 H :    0.187894
   5 H :    0.337378
   6 S :    2.191339
   7 C :    0.853767
   8 N :   -0.759549
   9 N :   -0.654092
  10 H :    0.100721
  11 H :    0.117134
  12 H :    0.772782
  13 H :    0.218226
  14 H :    0.101453
  15 F :   -0.510750
  16 O :   -1.015091
  17 C :   -0.730664
  18 H :    0.338266
  19 H :    0.128371
  20 C :   -0.350973
  21 H :    0.227990
  22 H :    0.242485
  23 C :   -0.317427
  24 H :    0.132342
  25 H :    0.183470
  26 O :   -0.916496
  27 H :    0.265103
  28 H :    0.316404
  29 H :    0.132306
  30 H :    0.351168
Sum of atomic charges:   -0.0000000

LOEWDIN ATOMIC CHARGES
----------------------
   0 C :    0.234784
   1 C :    0.176588
   2 C :    0.270585
   3 C :    0.208059
   4 H :   -0.187302
   5 H :   -0.192680
   6 S :    0.036655
   7 C :   -0.409276
   8 N :    0.859246
   9 N :    0.867663
  10 H :   -0.295037
  11 H :   -0.286724
  12 H :   -0.539579
  13 H :   -0.496598
  14 H :   -0.276780
  15 F :    0.303297
  16 O :    0.068191
  17 C :    0.304761
  18 H :   -0.157615
  19 H :   -0.155145
  20 C :    0.281802
  21 H :   -0.156897
  22 H :   -0.134002
  23 C :    0.281499
  24 H :   -0.140979
  25 H :   -0.146593
  26 O :    0.292797
  27 H :   -0.171006
  28 H :   -0.137962
  29 H :   -0.176740
  30 H :   -0.125009

  Mayer bond orders larger than 0.100000
B(  0-C ,  1-C ) :   0.8673 B(  0-C , 17-C ) :   0.9810 B(  0-C , 18-H ) :   0.8458
B(  0-C , 19-H ) :   1.1662 B(  1-C ,  7-C ) :   1.1792 B(  1-C ,  8-N ) :  -0.1927
B(  1-C ,  9-N ) :  -0.2141 B(  1-C , 12-H ) :   0.5186 B(  2-C ,  3-C ) :   0.9627
B(  2-C ,  6-S ) :   0.1191 B(  2-C , 20-C ) :   0.8731 B(  2-C , 21-H ) :   1.0437
B(  2-C , 22-H ) :   0.9492 B(  3-C ,  4-H ) :   1.0128 B(  3-C ,  5-H ) :   0.8471
B(  3-C ,  6-S ) :   0.8456 B(  3-C , 16-O ) :   0.1464 B(  4-H ,  6-S ) :   0.1016
B(  6-S , 15-F ) :   0.2463 B(  6-S , 16-O ) :   1.3594 B(  6-S , 26-O ) :   1.5767
B(  7-C ,  8-N ) :   0.5573 B(  7-C ,  9-N ) :   0.5752 B(  8-N , 13-H ) :   1.0568
B(  8-N , 14-H ) :   1.0973 B(  9-N , 10-H ) :   1.1597 B(  9-N , 11-H ) :   1.0738
B( 12-H , 26-O ) :  -0.3199 B( 15-F , 26-O ) :   0.1488 B( 16-O , 26-O ) :   0.1183
B( 17-C , 23-C ) :   0.8704 B( 17-C , 24-H ) :   1.0463 B( 17-C , 25-H ) :   1.0206
B( 20-C , 23-C ) :   0.8292 B( 20-C , 29-H ) :   1.0802 B( 20-C , 30-H ) :   0.8852
B( 23-C , 27-H ) :   0.9988 B( 23-C , 28-H ) :   0.8932

E(0)                                       ...  -1068.570321733
E(0)                                       ...  -1068.570321733
E(CORR)(strong-pairs)                      ...     -2.832122211
E(CORR)(weak-pairs)                        ...     -0.004970948
E(CORR)(corrected)                         ...     -2.837093159
E(TOT)                                     ...  -1071.407414891
E(CCSD(T))                                 ...  -1071.527808685
FINAL SINGLE POINT ENERGY     -1071.527808685191

DIPOLE MOMENT
-------------
                                X             Y             Z
Electronic contribution:      0.78145      -0.80864     -23.57420
Nuclear contribution   :      0.18720       2.58739      22.98820
                        -----------------------------------------
Total Dipole Moment    :      0.96865       1.77876      -0.58599
                        -----------------------------------------
Magnitude (a.u.)       :      2.10847
Magnitude (Debye)      :      5.35931

Rotational constants in cm-1:     0.028798     0.014448     0.010940
Rotational constants in MHz :   863.355869   433.126694   327.985023

                             ****ORCA TERMINATED NORMALLY****
TOTAL RUN TIME: 0 days 3 hours 52 minutes 31 seconds 854 msec
