                         Program Version 5.0.0 -  RELEASE  -
|  1> !DLPNO-CCSD(T) aug-cc-pVTZ aug-cc-pVTZ/C TightSCF TightPNO RIJCOSX def2/J
|  2>
|  3> *xyzfile 0 1 D2.xyz
|  4>
|  5> %MaxCore 64000
|  6>
|  7> %pal nprocs 18
|  8> end
|  9>
| 10> %scf
| 11>   MaxIter 150
| 12> end
| 13>
| 14>
| 15>                          ****END OF INPUT****

CARTESIAN COORDINATES (ANGSTROEM)
---------------------------------
  C      1.963365   -1.749150   -1.896887
  N      2.738490   -2.015170   -3.097113
  C      0.611877    1.657634   -4.500288
  C      1.694991    1.541794   -5.570447
  H      2.697326    1.734659   -5.183996
  H      1.506656    2.272239   -6.358076
  S      1.780287   -0.033128   -6.428739
  C      4.049736   -2.154717   -3.152044
  C      4.658206   -1.986293   -4.318655
  N      4.764231   -2.454435   -2.050491
  H      4.287363   -2.776259   -1.217496
  H      5.750825   -2.658351   -2.125988
  H      2.345176   -1.690274   -3.971447
  H      4.109004   -1.592677   -5.071760
  H      5.649095   -2.156462   -4.427237
  F      2.569287    0.213657   -7.607360
  O      0.416880   -0.462969   -6.618595
  C      2.088520   -0.300912   -1.415204
  H      2.231272   -2.451616   -1.102643
  H      0.930249   -1.977801   -2.155438
  C      0.680356    0.655418   -3.348038
  H     -0.356865    1.549231   -4.991128
  H      0.650228    2.675438   -4.096000
  C      1.968993    0.733582   -2.535654
  H      3.051356   -0.168602   -0.911868
  H      1.316501   -0.136231   -0.657252
  O      2.505129   -0.933263   -5.482570
  H      2.824195    0.624726   -3.208464
  H      2.058919    1.730331   -2.093112
  H      0.542252   -0.344731   -3.766662
  H     -0.174219    0.829692   -2.685182

 Total Charge           Charge          ....    0
 Multiplicity           Mult            ....    1
 Number of Electrons    NEL             ....  120
 Basis Dimension        Dim             .... 1039

ORBITAL ENERGIES
----------------

  NO   OCC          E(Eh)            E(eV)
   0   2.0000     -92.263235     -2510.6102
   1   2.0000     -26.445164      -719.6095
   2   2.0000     -20.581253      -560.0444
   3   2.0000     -20.561891      -559.5175
   4   2.0000     -15.541202      -422.8976
   5   2.0000     -15.520918      -422.3456
   6   2.0000     -11.300647      -307.5063
   7   2.0000     -11.259562      -306.3883
   8   2.0000     -11.258531      -306.3602
   9   2.0000     -11.249046      -306.1021
  10   2.0000     -11.231293      -305.6190
  11   2.0000     -11.220671      -305.3300
  12   2.0000     -11.215983      -305.2024
  13   2.0000     -11.095032      -301.9112
  14   2.0000      -9.226687      -251.0709
  15   2.0000      -6.913979      -188.1389
  16   2.0000      -6.910259      -188.0377
  17   2.0000      -6.909633      -188.0207
  18   2.0000      -1.814226       -49.3676
  19   2.0000      -1.465197       -39.8700
  20   2.0000      -1.355379       -36.8817
  21   2.0000      -1.262027       -34.3415
  22   2.0000      -1.159532       -31.5525
  23   2.0000      -1.124514       -30.5996
  24   2.0000      -1.066541       -29.0220
  25   2.0000      -1.022642       -27.8275
  26   2.0000      -0.976735       -26.5783
  27   2.0000      -0.947108       -25.7721
  28   2.0000      -0.901702       -24.5366
  29   2.0000      -0.856836       -23.3157
  30   2.0000      -0.843962       -22.9654
  31   2.0000      -0.822679       -22.3862
  32   2.0000      -0.804146       -21.8819
  33   2.0000      -0.772850       -21.0303
  34   2.0000      -0.761094       -20.7104
  35   2.0000      -0.699280       -19.0284
  36   2.0000      -0.685439       -18.6518
  37   2.0000      -0.676387       -18.4054
  38   2.0000      -0.653574       -17.7847
  39   2.0000      -0.651506       -17.7284
  40   2.0000      -0.637150       -17.3377
  41   2.0000      -0.627171       -17.0662
  42   2.0000      -0.606415       -16.5014
  43   2.0000      -0.593318       -16.1450
  44   2.0000      -0.577783       -15.7223
  45   2.0000      -0.563449       -15.3322
  46   2.0000      -0.545625       -14.8472
  47   2.0000      -0.538112       -14.6428
  48   2.0000      -0.527851       -14.3636
  49   2.0000      -0.520052       -14.1513
  50   2.0000      -0.509517       -13.8647
  51   2.0000      -0.505675       -13.7601
  52   2.0000      -0.503475       -13.7003
  53   2.0000      -0.485593       -13.2137
  54   2.0000      -0.471487       -12.8298
  55   2.0000      -0.464101       -12.6288
  56   2.0000      -0.460536       -12.5318
  57   2.0000      -0.456180       -12.4133
  58   2.0000      -0.372765       -10.1435
  59   2.0000      -0.236972        -6.4483
  60   0.0000       0.019924         0.5422
  61   0.0000       0.028271         0.7693
  62   0.0000       0.033197         0.9033
  63   0.0000       0.036245         0.9863
  64   0.0000       0.044024         1.1980

MULLIKEN ATOMIC CHARGES
-----------------------
   0 C :   -0.581874
   1 N :   -0.322834
   2 C :   -0.545965
   3 C :   -0.580171
   4 H :    0.215205
   5 H :    0.321114
   6 S :    2.238709
   7 C :    0.655397
   8 C :   -1.613855
   9 N :   -0.637805
  10 H :    0.037733
  11 H :    0.065664
  12 H :    0.824624
  13 H :    0.820506
  14 H :    0.232379
  15 F :   -0.509568
  16 O :   -1.018147
  17 C :   -0.559648
  18 H :    0.392865
  19 H :    0.172635
  20 C :   -0.387730
  21 H :    0.241272
  22 H :    0.241314
  23 C :   -0.405543
  24 H :    0.179403
  25 H :    0.272020
  26 O :   -0.841130
  27 H :    0.270175
  28 H :    0.327605
  29 H :    0.145304
  30 H :    0.350347
Sum of atomic charges:    0.0000000

LOEWDIN ATOMIC CHARGES
----------------------
   0 C :    0.220102
   1 N :    0.575520
   2 C :    0.271758
   3 C :    0.209437
   4 H :   -0.185653
   5 H :   -0.191600
   6 S :    0.039909
   7 C :   -0.444000
   8 C :    0.531723
   9 N :    0.862581
  10 H :   -0.308526
  11 H :   -0.274594
  12 H :   -0.547209
  13 H :   -0.518566
  14 H :   -0.305414
  15 F :    0.310048
  16 O :    0.064444
  17 C :    0.313121
  18 H :   -0.148917
  19 H :   -0.146716
  20 C :    0.278280
  21 H :   -0.156188
  22 H :   -0.132992
  23 C :    0.283672
  24 H :   -0.141220
  25 H :   -0.144751
  26 O :    0.293181
  27 H :   -0.169072
  28 H :   -0.134499
  29 H :   -0.178352
  30 H :   -0.125510

  Mayer bond orders larger than 0.100000
B(  0-C ,  1-N ) :   1.2459 B(  0-C , 12-H ) :  -0.1322 B(  0-C , 17-C ) :   0.8919
B(  0-C , 18-H ) :   0.8468 B(  0-C , 19-H ) :   1.0916 B(  1-N ,  7-C ) :   0.8439
B(  1-N ,  8-C ) :  -0.1162 B(  1-N ,  9-N ) :  -0.1623 B(  1-N , 12-H ) :   0.2075
B(  1-N , 18-H ) :  -0.1024 B(  1-N , 19-H ) :   0.1039 B(  1-N , 26-O ) :  -0.1578
B(  2-C ,  3-C ) :   0.9538 B(  2-C ,  6-S ) :   0.1156 B(  2-C , 20-C ) :   0.9064
B(  2-C , 21-H ) :   1.0300 B(  2-C , 22-H ) :   0.9460 B(  3-C ,  4-H ) :   0.9887
B(  3-C ,  5-H ) :   0.8663 B(  3-C ,  6-S ) :   0.8582 B(  3-C , 16-O ) :   0.1438
B(  6-S , 15-F ) :   0.2533 B(  6-S , 16-O ) :   1.3617 B(  6-S , 26-O ) :   1.5400
B(  7-C ,  8-C ) :   1.1695 B(  7-C ,  9-N ) :   0.7300 B(  7-C , 10-H ) :  -0.1103
B(  7-C , 12-H ) :  -0.1749 B(  7-C , 14-H ) :  -0.1061 B(  8-C ,  9-N ) :  -0.3406
B(  8-C , 13-H ) :   0.2188 B(  8-C , 14-H ) :   1.2860 B(  9-N , 10-H ) :   1.2412
B(  9-N , 11-H ) :   1.1266 B( 12-H , 26-O ) :  -0.2216 B( 15-F , 26-O ) :   0.1185
B( 16-O , 26-O ) :   0.1293 B( 17-C , 23-C ) :   0.8959 B( 17-C , 24-H ) :   1.0432
B( 17-C , 25-H ) :   0.9278 B( 20-C , 23-C ) :   0.8554 B( 20-C , 29-H ) :   1.0889
B( 20-C , 30-H ) :   0.8685 B( 23-C , 27-H ) :   0.9827 B( 23-C , 28-H ) :   0.8911

E(0)                                       ...  -1068.571290945
E(0)                                       ...  -1068.571290945
E(CORR)(strong-pairs)                      ...     -2.827491054
E(CORR)(weak-pairs)                        ...     -0.005025717
E(CORR)(corrected)                         ...     -2.832516772
E(TOT)                                     ...  -1071.403807716
E(CCSD(T))                                 ...  -1071.523747542
FINAL SINGLE POINT ENERGY     -1071.523747542415

DIPOLE MOMENT
-------------
                                X             Y             Z
Electronic contribution:     -0.90882      -0.63836     -22.47087
Nuclear contribution   :      0.43347       2.59110      22.83150
                        -----------------------------------------
Total Dipole Moment    :     -0.47535       1.95274       0.36063
                        -----------------------------------------
Magnitude (a.u.)       :      2.04186
Magnitude (Debye)      :      5.18999

Rotational constants in cm-1:     0.029257     0.014415     0.010996
Rotational constants in MHz :   877.098782   432.159206   329.643335

                             ****ORCA TERMINATED NORMALLY****
TOTAL RUN TIME: 0 days 4 hours 55 minutes 58 seconds 37 msec
