                         Program Version 5.0.0 -  RELEASE  -
|  1> !DLPNO-CCSD(T) aug-cc-pVTZ aug-cc-pVTZ/C TightSCF TightPNO RIJCOSX def2/J
|  2>
|  3> *xyzfile 0 1 D3.xyz
|  4>
|  5> %MaxCore 64000
|  6>
|  7> %pal nprocs 18
|  8> end
|  9>
| 10> %scf
| 11>   MaxIter 150
| 12> end
| 13>
| 14>
| 15>                          ****END OF INPUT****

CARTESIAN COORDINATES (ANGSTROEM)
---------------------------------
  C      1.963365   -1.749150   -1.896887
  N      2.738490   -2.015170   -3.097113
  C      0.611877    1.657634   -4.500288
  C      1.694991    1.541794   -5.570447
  H      2.697326    1.734659   -5.183996
  H      1.506656    2.272239   -6.358076
  S      1.780287   -0.033128   -6.428739
  C      4.049736   -2.154717   -3.152044
  N      4.658206   -1.986293   -4.318655
  C      4.764231   -2.454435   -2.050491
  H      4.287363   -2.776259   -1.217496
  H      5.750825   -2.658351   -2.125988
  H      2.345176   -1.690274   -3.971447
  H      4.109004   -1.592677   -5.071760
  H      5.649095   -2.156462   -4.427237
  F      2.569287    0.213657   -7.607360
  O      0.416880   -0.462969   -6.618595
  C      2.088520   -0.300912   -1.415204
  H      2.231272   -2.451616   -1.102643
  H      0.930249   -1.977801   -2.155438
  C      0.680356    0.655418   -3.348038
  H     -0.356865    1.549231   -4.991128
  H      0.650228    2.675438   -4.096000
  C      1.968993    0.733582   -2.535654
  H      3.051356   -0.168602   -0.911868
  H      1.316501   -0.136231   -0.657252
  O      2.505129   -0.933263   -5.482570
  H      2.824195    0.624726   -3.208464
  H      2.058919    1.730331   -2.093112
  H      0.542252   -0.344731   -3.766662
  H     -0.174219    0.829692   -2.685182

 Total Charge           Charge          ....    0
 Multiplicity           Mult            ....    1
 Number of Electrons    NEL             ....  120
 Basis Dimension        Dim             .... 1039

ORBITAL ENERGIES
----------------

  NO   OCC          E(Eh)            E(eV)
   0   2.0000     -92.280509     -2511.0803
   1   2.0000     -26.460790      -720.0347
   2   2.0000     -20.596197      -560.4510
   3   2.0000     -20.585485      -560.1595
   4   2.0000     -15.527330      -422.5201
   5   2.0000     -15.523006      -422.4025
   6   2.0000     -11.311935      -307.8134
   7   2.0000     -11.265902      -306.5608
   8   2.0000     -11.262260      -306.4617
   9   2.0000     -11.242139      -305.9142
  10   2.0000     -11.234465      -305.7053
  11   2.0000     -11.221542      -305.3537
  12   2.0000     -11.209765      -305.0332
  13   2.0000     -11.104359      -302.1650
  14   2.0000      -9.243920      -251.5399
  15   2.0000      -6.931235      -188.6085
  16   2.0000      -6.927440      -188.5052
  17   2.0000      -6.926911      -188.4908
  18   2.0000      -1.829990       -49.7966
  19   2.0000      -1.482421       -40.3387
  20   2.0000      -1.375673       -37.4340
  21   2.0000      -1.264441       -34.4072
  22   2.0000      -1.158752       -31.5312
  23   2.0000      -1.132237       -30.8097
  24   2.0000      -1.069552       -29.1040
  25   2.0000      -1.022542       -27.8248
  26   2.0000      -0.976871       -26.5820
  27   2.0000      -0.944467       -25.7003
  28   2.0000      -0.920054       -25.0359
  29   2.0000      -0.868866       -23.6430
  30   2.0000      -0.859111       -23.3776
  31   2.0000      -0.835677       -22.7399
  32   2.0000      -0.805091       -21.9076
  33   2.0000      -0.779927       -21.2229
  34   2.0000      -0.739270       -20.1166
  35   2.0000      -0.709026       -19.2936
  36   2.0000      -0.703710       -19.1489
  37   2.0000      -0.688650       -18.7391
  38   2.0000      -0.675486       -18.3809
  39   2.0000      -0.654477       -17.8092
  40   2.0000      -0.640229       -17.4215
  41   2.0000      -0.622503       -16.9392
  42   2.0000      -0.604967       -16.4620
  43   2.0000      -0.587538       -15.9877
  44   2.0000      -0.581776       -15.8309
  45   2.0000      -0.578202       -15.7337
  46   2.0000      -0.545578       -14.8459
  47   2.0000      -0.541321       -14.7301
  48   2.0000      -0.536172       -14.5900
  49   2.0000      -0.520835       -14.1726
  50   2.0000      -0.514678       -14.0051
  51   2.0000      -0.509258       -13.8576
  52   2.0000      -0.503189       -13.6925
  53   2.0000      -0.496780       -13.5181
  54   2.0000      -0.489097       -13.3090
  55   2.0000      -0.472039       -12.8448
  56   2.0000      -0.464653       -12.6438
  57   2.0000      -0.452417       -12.3109
  58   2.0000      -0.363446        -9.8899
  59   2.0000      -0.240077        -6.5328
  60   0.0000       0.015034         0.4091
  61   0.0000       0.028261         0.7690
  62   0.0000       0.032693         0.8896
  63   0.0000       0.036082         0.9818
  64   0.0000       0.043329         1.1790

MULLIKEN ATOMIC CHARGES
-----------------------
   0 C :   -0.480016
   1 N :   -0.447099
   2 C :   -0.538254
   3 C :   -0.555230
   4 H :    0.208870
   5 H :    0.327216
   6 S :    2.225890
   7 C :    1.002369
   8 N :   -0.856365
   9 C :   -1.627509
  10 H :    0.597721
  11 H :    0.199747
  12 H :    0.865269
  13 H :    0.306196
  14 H :    0.038175
  15 F :   -0.507870
  16 O :   -1.001625
  17 C :   -0.596211
  18 H :    0.284921
  19 H :    0.220785
  20 C :   -0.361286
  21 H :    0.243234
  22 H :    0.248951
  23 C :   -0.422718
  24 H :    0.202865
  25 H :    0.241956
  26 O :   -0.884416
  27 H :    0.277230
  28 H :    0.309864
  29 H :    0.123726
  30 H :    0.353611
Sum of atomic charges:   -0.0000000

LOEWDIN ATOMIC CHARGES
----------------------
   0 C :    0.224693
   1 N :    0.576026
   2 C :    0.272550
   3 C :    0.210740
   4 H :   -0.186242
   5 H :   -0.190141
   6 S :    0.041590
   7 C :   -0.448367
   8 N :    0.863172
   9 C :    0.540119
  10 H :   -0.332781
  11 H :   -0.320004
  12 H :   -0.555224
  13 H :   -0.507690
  14 H :   -0.262273
  15 F :    0.310022
  16 O :    0.071511
  17 C :    0.314625
  18 H :   -0.147387
  19 H :   -0.147390
  20 C :    0.277825
  21 H :   -0.155860
  22 H :   -0.131788
  23 C :    0.281947
  24 H :   -0.142456
  25 H :   -0.143233
  26 O :    0.292567
  27 H :   -0.168704
  28 H :   -0.134365
  29 H :   -0.179320
  30 H :   -0.124165

  Mayer bond orders larger than 0.100000
B(  0-C ,  1-N ) :   1.3079 B(  0-C ,  9-C ) :  -0.1180 B(  0-C , 12-H ) :  -0.1548
B(  0-C , 17-C ) :   0.9183 B(  0-C , 18-H ) :   0.9262 B(  0-C , 19-H ) :   1.0226
B(  1-N ,  7-C ) :   0.7193 B(  1-N ,  8-N ) :  -0.1528 B(  1-N , 12-H ) :   0.1039
B(  1-N , 26-O ) :  -0.1405 B(  2-C ,  3-C ) :   0.9606 B(  2-C ,  6-S ) :   0.1185
B(  2-C , 20-C ) :   0.9020 B(  2-C , 21-H ) :   1.0266 B(  2-C , 22-H ) :   0.9369
B(  3-C ,  4-H ) :   0.9927 B(  3-C ,  5-H ) :   0.8562 B(  3-C ,  6-S ) :   0.8354
B(  3-C , 16-O ) :   0.1393 B(  6-S , 15-F ) :   0.2721 B(  6-S , 16-O ) :   1.3990
B(  6-S , 26-O ) :   1.5426 B(  7-C ,  8-N ) :   0.6387 B(  7-C ,  9-C ) :   0.7360
B(  7-C , 12-H ) :  -0.2240 B(  7-C , 13-H ) :  -0.1331 B(  7-C , 14-H ) :  -0.1263
B(  8-N , 13-H ) :   0.8604 B(  8-N , 14-H ) :   1.2312 B(  9-C , 10-H ) :   0.5804
B(  9-C , 11-H ) :   1.2852 B( 12-H , 26-O ) :  -0.2715 B( 15-F , 26-O ) :   0.1367
B( 16-O , 26-O ) :   0.1027 B( 17-C , 23-C ) :   0.8975 B( 17-C , 24-H ) :   1.0306
B( 17-C , 25-H ) :   0.9399 B( 20-C , 23-C ) :   0.8445 B( 20-C , 29-H ) :   1.0959
B( 20-C , 30-H ) :   0.8662 B( 23-C , 27-H ) :   0.9836 B( 23-C , 28-H ) :   0.9096

E(0)                                       ...  -1068.583695458
E(0)                                       ...  -1068.583695458
E(CORR)(strong-pairs)                      ...     -2.826242569
E(CORR)(weak-pairs)                        ...     -0.005059889
E(CORR)(corrected)                         ...     -2.831302458
E(TOT)                                     ...  -1071.414997917
E(CCSD(T))                                 ...  -1071.534898589
FINAL SINGLE POINT ENERGY     -1071.534898589494

DIPOLE MOMENT
-------------
                                X             Y             Z
Electronic contribution:     -1.14779      -0.03787     -24.61214
Nuclear contribution   :      0.44707       2.53104      23.12246
                        -----------------------------------------
Total Dipole Moment    :     -0.70073       2.49317      -1.48967
                        -----------------------------------------
Magnitude (a.u.)       :      2.98765
Magnitude (Debye)      :      7.59401

Rotational constants in cm-1:     0.028906     0.014696     0.011110
Rotational constants in MHz :   866.591909   440.585554   333.081943

                             ****ORCA TERMINATED NORMALLY****
TOTAL RUN TIME: 0 days 4 hours 44 minutes 37 seconds 563 msec
