                         Program Version 5.0.0 -  RELEASE  -
|  1> !wB97X-D3 RIJCOSX def2-SVPD def2/J TightSCF
|  2> *xyz -1 1
|  3> C         -2.79070       -0.78527        5.70281
|  4> C         -2.45380        0.05510        6.94145
|  5> C         -2.07842        1.48042        6.56410
|  6> H         -1.62558       -0.38216        7.49891
|  7> H         -3.32527        0.08775        7.59917
|  8> O         -0.90125        1.85816        6.82810
|  9> O         -2.93658        2.17731        5.96415
| 10> H         -1.94052       -0.82114        5.05412
| 11> H         -3.61590       -0.34261        5.18514
| 12> H         -3.05063       -1.77815        6.00536
| 13> *
| 14> %MaxCore 64000
| 15>
| 16> %pal nprocs 18
| 17> end
| 18>
| 19> %scf
| 20>   MaxIter 150
| 21> end
| 22>
| 23>
| 24>                          ****END OF INPUT****

CARTESIAN COORDINATES (ANGSTROEM)
---------------------------------
  C     -2.790700   -0.785270    5.702810
  C     -2.453800    0.055100    6.941450
  C     -2.078420    1.480420    6.564100
  H     -1.625580   -0.382160    7.498910
  H     -3.325270    0.087750    7.599170
  O     -0.901250    1.858160    6.828100
  O     -2.936580    2.177310    5.964150
  H     -1.940520   -0.821140    5.054120
  H     -3.615900   -0.342610    5.185140
  H     -3.050630   -1.778150    6.005360

 Total Charge           Charge          ....   -1
 Multiplicity           Mult            ....    1
 Number of Electrons    NEL             ....   40
 Basis Dimension        Dim             ....  146

ORBITAL ENERGIES
----------------

  NO   OCC          E(Eh)            E(eV)
   0   2.0000     -18.982154      -516.5307
   1   2.0000     -18.980772      -516.4931
   2   2.0000     -10.176655      -276.9209
   3   2.0000     -10.129914      -275.6490
   4   2.0000     -10.117068      -275.2994
   5   2.0000      -0.925664       -25.1886
   6   2.0000      -0.828910       -22.5558
   7   2.0000      -0.718069       -19.5396
   8   2.0000      -0.583175       -15.8690
   9   2.0000      -0.425539       -11.5795
  10   2.0000      -0.395822       -10.7709
  11   2.0000      -0.360310        -9.8045
  12   2.0000      -0.332239        -9.0407
  13   2.0000      -0.314100        -8.5471
  14   2.0000      -0.307921        -8.3790
  15   2.0000      -0.275130        -7.4867
  16   2.0000      -0.260550        -7.0899
  17   2.0000      -0.142426        -3.8756
  18   2.0000      -0.138241        -3.7617
  19   2.0000      -0.123800        -3.3688
  20   0.0000       0.223122         6.0715
  21   0.0000       0.255999         6.9661
  22   0.0000       0.266969         7.2646
  23   0.0000       0.291945         7.9442
  24   0.0000       0.313847         8.5402

MULLIKEN ATOMIC CHARGES
-----------------------
   0 C :    0.482956
   1 C :   -0.289664
   2 C :    0.442666
   3 H :   -0.044323
   4 H :    0.000716
   5 O :   -0.707354
   6 O :   -0.724939
   7 H :   -0.060144
   8 H :   -0.032847
   9 H :   -0.067067
Sum of atomic charges:   -1.0000000

LOEWDIN ATOMIC CHARGES
----------------------
   0 C :    0.100954
   1 C :   -0.043710
   2 C :   -0.304709
   3 H :    0.001238
   4 H :    0.009942
   5 O :   -0.343006
   6 O :   -0.332963
   7 H :   -0.020222
   8 H :   -0.025999
   9 H :   -0.041525

  Mayer bond orders larger than 0.100000
B(  0-C ,  1-C ) :   1.2582 B(  0-C ,  7-H ) :   0.8746 B(  0-C ,  8-H ) :   0.8519
B(  0-C ,  9-H ) :   0.8597 B(  1-C ,  2-C ) :   1.0303 B(  1-C ,  3-H ) :   0.9689
B(  1-C ,  4-H ) :   0.8995 B(  1-C ,  7-H ) :   0.1547 B(  1-C ,  8-H ) :   0.1763
B(  1-C ,  9-H ) :   0.1396 B(  2-C ,  3-H ) :   0.1783 B(  2-C ,  5-O ) :   1.4950
B(  2-C ,  6-O ) :   1.5224

Dispersion correction           -0.001962864
FINAL SINGLE POINT ENERGY      -267.583556728454

DIPOLE MOMENT
-------------
                                X             Y             Z
Electronic contribution:      1.61016       5.47829       0.68359
Nuclear contribution   :     -2.24498      -7.51881      -0.57245
                        -----------------------------------------
Total Dipole Moment    :     -0.63482      -2.04052       0.11114
                        -----------------------------------------
Magnitude (a.u.)       :      2.13988
Magnitude (Debye)      :      5.43913

Rotational constants in cm-1:     0.305589     0.135336     0.107479
Rotational constants in MHz :  9161.317320  4057.276612  3222.126231

                             ****ORCA TERMINATED NORMALLY****
TOTAL RUN TIME: 0 days 0 hours 0 minutes 7 seconds 313 msec
