                         Program Version 5.0.0 -  RELEASE  -
|  1> !wB97X-D3 RIJCOSX def2-SVPD def2/J TightSCF
|  2> *xyz 1 1
|  3> C         -0.69912        3.48945        3.75516
|  4> H         -0.96672        4.34901        3.14049
|  5> N         -1.08067        3.79296        5.15686
|  6> C          0.77696        3.13839        3.61741
|  7> H         -1.33146        2.65651        3.44632
|  8> H         -0.87449        4.76274        5.42734
|  9> H         -0.68079        3.13476        5.83900
| 10> H         -2.05755        3.53169        5.34620
| 11> H          0.99957        2.92898        2.59199
| 12> H          0.99576        2.27685        4.21303
| 13> H          1.37223        3.96279        3.95046
| 14> *
| 15> %MaxCore 64000
| 16>
| 17> %pal nprocs 18
| 18> end
| 19>
| 20> %scf
| 21>   MaxIter 150
| 22> end
| 23>
| 24>
| 25>                          ****END OF INPUT****

CARTESIAN COORDINATES (ANGSTROEM)
---------------------------------
  C     -0.699120    3.489450    3.755160
  H     -0.966720    4.349010    3.140490
  N     -1.080670    3.792960    5.156860
  C      0.776960    3.138390    3.617410
  H     -1.331460    2.656510    3.446320
  H     -0.874490    4.762740    5.427340
  H     -0.680790    3.134760    5.839000
  H     -2.057550    3.531690    5.346200
  H      0.999570    2.928980    2.591990
  H      0.995760    2.276850    4.213030
  H      1.372230    3.962790    3.950460

 Total Charge           Charge          ....    1
 Multiplicity           Mult            ....    1
 Number of Electrons    NEL             ....   26
 Basis Dimension        Dim             ....  124

ORBITAL ENERGIES
----------------

  NO   OCC          E(Eh)            E(eV)
   0   2.0000     -14.775513      -402.0621
   1   2.0000     -10.544883      -286.9408
   2   2.0000     -10.463902      -284.7373
   3   2.0000      -1.327906       -36.1341
   4   2.0000      -1.077254       -29.3136
   5   2.0000      -0.953326       -25.9413
   6   2.0000      -0.920640       -25.0519
   7   2.0000      -0.871261       -23.7082
   8   2.0000      -0.800531       -21.7836
   9   2.0000      -0.744059       -20.2469
  10   2.0000      -0.678888       -18.4735
  11   2.0000      -0.664034       -18.0693
  12   2.0000      -0.645724       -17.5710
  13   0.0000      -0.114118        -3.1053
  14   0.0000      -0.054808        -1.4914
  15   0.0000      -0.051140        -1.3916
  16   0.0000      -0.044302        -1.2055
  17   0.0000      -0.016466        -0.4481

MULLIKEN ATOMIC CHARGES
-----------------------
   0 C :    0.153497
   1 H :   -0.038146
   2 N :   -0.880097
   3 C :    0.475999
   4 H :   -0.002409
   5 H :    0.433446
   6 H :    0.400580
   7 H :    0.385643
   8 H :    0.040157
   9 H :   -0.008178
  10 H :    0.039508
Sum of atomic charges:    1.0000000

LOEWDIN ATOMIC CHARGES
----------------------
   0 C :    0.055921
   1 H :    0.054807
   2 N :    0.319186
   3 C :    0.167385
   4 H :    0.052764
   5 H :    0.116254
   6 H :    0.106455
   7 H :    0.108119
   8 H :    0.015836
   9 H :    0.000574
  10 H :    0.002699

  Mayer bond orders larger than 0.100000
B(  0-C ,  1-H ) :   0.9553 B(  0-C ,  2-N ) :   0.7091 B(  0-C ,  3-C ) :   1.2975
B(  0-C ,  4-H ) :   0.9417 B(  0-C ,  8-H ) :   0.1582 B(  0-C ,  9-H ) :   0.1459
B(  0-C , 10-H ) :   0.1308 B(  1-H ,  2-N ) :   0.1024 B(  2-N ,  5-H ) :   0.6854
B(  2-N ,  6-H ) :   0.7414 B(  2-N ,  7-H ) :   0.7502 B(  3-C ,  8-H ) :   0.8551
B(  3-C ,  9-H ) :   0.8670 B(  3-C , 10-H ) :   0.8409

Dispersion correction           -0.001535741
FINAL SINGLE POINT ENERGY      -135.404921854800

DIPOLE MOMENT
-------------
                                X             Y             Z
Electronic contribution:     -1.33554       0.57519       1.10896
Nuclear contribution   :      0.33986      -0.24565       0.10678
                        -----------------------------------------
Total Dipole Moment    :     -0.99568       0.32954       1.21574
                        -----------------------------------------
Magnitude (a.u.)       :      1.60562
Magnitude (Debye)      :      4.08115

Rotational constants in cm-1:     1.016237     0.277523     0.247812
Rotational constants in MHz : 30466.024354  8319.937961  7429.230177

                             ****ORCA TERMINATED NORMALLY****
TOTAL RUN TIME: 0 days 0 hours 0 minutes 5 seconds 289 msec
