                         Program Version 5.0.0 -  RELEASE  -
|  1> !wB97X-D3 RIJCOSX def2-SVPD def2/J TightSCF
|  2> *xyz 0 1
|  3> C         -2.79070       -0.78527        5.70281
|  4> C         -2.45380        0.05510        6.94145
|  5> C         -2.07842        1.48042        6.56410
|  6> H         -1.62558       -0.38216        7.49891
|  7> H         -3.32527        0.08775        7.59917
|  8> F         -0.90125        1.85816        6.82810
|  9> O         -2.93658        2.17731        5.96415
| 10> H         -1.94052       -0.82114        5.05412
| 11> H         -3.61590       -0.34261        5.18514
| 12> H         -3.05063       -1.77815        6.00536
| 13> *
| 14> %MaxCore 64000
| 15>
| 16> %pal nprocs 18
| 17> end
| 18>
| 19> %scf
| 20>   MaxIter 150
| 21> end
| 22>
| 23>
| 24>                          ****END OF INPUT****

CARTESIAN COORDINATES (ANGSTROEM)
---------------------------------
  C     -2.790700   -0.785270    5.702810
  C     -2.453800    0.055100    6.941450
  C     -2.078420    1.480420    6.564100
  H     -1.625580   -0.382160    7.498910
  H     -3.325270    0.087750    7.599170
  F     -0.901250    1.858160    6.828100
  O     -2.936580    2.177310    5.964150
  H     -1.940520   -0.821140    5.054120
  H     -3.615900   -0.342610    5.185140
  H     -3.050630   -1.778150    6.005360

 Total Charge           Charge          ....    0
 Multiplicity           Mult            ....    1
 Number of Electrons    NEL             ....   40
 Basis Dimension        Dim             ....  146

ORBITAL ENERGIES
----------------

  NO   OCC          E(Eh)            E(eV)
   0   2.0000     -24.873002      -676.8288
   1   2.0000     -19.256581      -523.9982
   2   2.0000     -10.476135      -285.0701
   3   2.0000     -10.325205      -280.9631
   4   2.0000     -10.298454      -280.2352
   5   2.0000      -1.419616       -38.6297
   6   2.0000      -1.142155       -31.0796
   7   2.0000      -0.915830       -24.9210
   8   2.0000      -0.799216       -21.7478
   9   2.0000      -0.747044       -20.3281
  10   2.0000      -0.656810       -17.8727
  11   2.0000      -0.641546       -17.4573
  12   2.0000      -0.614480       -16.7209
  13   2.0000      -0.569251       -15.4901
  14   2.0000      -0.538056       -14.6412
  15   2.0000      -0.501404       -13.6439
  16   2.0000      -0.480164       -13.0659
  17   2.0000      -0.473377       -12.8812
  18   2.0000      -0.446764       -12.1571
  19   2.0000      -0.395131       -10.7521
  20   0.0000       0.047939         1.3045
  21   0.0000       0.085335         2.3221
  22   0.0000       0.114937         3.1276
  23   0.0000       0.125385         3.4119
  24   0.0000       0.148943         4.0529

MULLIKEN ATOMIC CHARGES
-----------------------
   0 C :    0.470716
   1 C :   -0.392183
   2 C :    0.767780
   3 H :    0.015732
   4 H :    0.083200
   5 F :   -0.384773
   6 O :   -0.511882
   7 H :   -0.032281
   8 H :   -0.005148
   9 H :   -0.011162
Sum of atomic charges:    0.0000000

LOEWDIN ATOMIC CHARGES
----------------------
   0 C :    0.140473
   1 C :    0.001805
   2 C :    0.002911
   3 H :    0.024172
   4 H :    0.041769
   5 F :   -0.045223
   6 O :   -0.141113
   7 H :   -0.007052
   8 H :   -0.006877
   9 H :   -0.010866

  Mayer bond orders larger than 0.100000
B(  0-C ,  1-C ) :   1.2857 B(  0-C ,  7-H ) :   0.8747 B(  0-C ,  8-H ) :   0.8576
B(  0-C ,  9-H ) :   0.8712 B(  1-C ,  2-C ) :   1.0928 B(  1-C ,  3-H ) :   0.9686
B(  1-C ,  4-H ) :   0.8952 B(  1-C ,  7-H ) :   0.1399 B(  1-C ,  8-H ) :   0.1548
B(  1-C ,  9-H ) :   0.1277 B(  2-C ,  5-F ) :   0.7426 B(  2-C ,  6-O ) :   1.8313

Dispersion correction           -0.001919396
FINAL SINGLE POINT ENERGY      -292.117502511451

DIPOLE MOMENT
-------------
                                X             Y             Z
Electronic contribution:      3.97521       7.39334       1.50304
Nuclear contribution   :     -3.69486      -8.49563      -1.04945
                        -----------------------------------------
Total Dipole Moment    :      0.28035      -1.10230       0.45359
                        -----------------------------------------
Magnitude (a.u.)       :      1.22450
Magnitude (Debye)      :      3.11242

Rotational constants in cm-1:     0.293725     0.129218     0.102393
Rotational constants in MHz :  8805.653529  3873.869810  3069.666716

                             ****ORCA TERMINATED NORMALLY****
TOTAL RUN TIME: 0 days 0 hours 0 minutes 7 seconds 853 msec
