                         Program Version 5.0.0 -  RELEASE  -
|  1> !wB97X-D3 RIJCOSX def2-SVPD def2/J TightSCF
|  2> *xyz 0 1
|  3> C         -0.69912        3.48945        3.75516
|  4> H         -0.96672        4.34901        3.14049
|  5> C         -1.08067        3.79296        5.15686
|  6> C          0.77696        3.13839        3.61741
|  7> H         -1.33146        2.65651        3.44632
|  8> H         -0.87449        4.76274        5.42734
|  9> H         -0.68079        3.13476        5.83900
| 10> H         -2.05755        3.53169        5.34620
| 11> H          0.99957        2.92898        2.59199
| 12> H          0.99576        2.27685        4.21303
| 13> H          1.37223        3.96279        3.95046
| 14> *
| 15> %MaxCore 64000
| 16>
| 17> %pal nprocs 18
| 18> end
| 19>
| 20> %scf
| 21>   MaxIter 150
| 22> end
| 23>
| 24>
| 25>                          ****END OF INPUT****

CARTESIAN COORDINATES (ANGSTROEM)
---------------------------------
  C     -0.699120    3.489450    3.755160
  H     -0.966720    4.349010    3.140490
  C     -1.080670    3.792960    5.156860
  C      0.776960    3.138390    3.617410
  H     -1.331460    2.656510    3.446320
  H     -0.874490    4.762740    5.427340
  H     -0.680790    3.134760    5.839000
  H     -2.057550    3.531690    5.346200
  H      0.999570    2.928980    2.591990
  H      0.995760    2.276850    4.213030
  H      1.372230    3.962790    3.950460

 Total Charge           Charge          ....    0
 Multiplicity           Mult            ....    1
 Number of Electrons    NEL             ....   26
 Basis Dimension        Dim             ....  124

ORBITAL ENERGIES
----------------

  NO   OCC          E(Eh)            E(eV)
   0   2.0000     -10.276457      -279.6366
   1   2.0000     -10.267420      -279.3907
   2   2.0000     -10.249656      -278.9073
   3   2.0000      -0.901940       -24.5430
   4   2.0000      -0.799325       -21.7507
   5   2.0000      -0.692773       -18.8513
   6   2.0000      -0.574282       -15.6270
   7   2.0000      -0.540109       -14.6971
   8   2.0000      -0.497980       -13.5507
   9   2.0000      -0.493317       -13.4238
  10   2.0000      -0.434204       -11.8153
  11   2.0000      -0.421938       -11.4815
  12   2.0000      -0.418648       -11.3920
  13   0.0000       0.097639         2.6569
  14   0.0000       0.124573         3.3898
  15   0.0000       0.132047         3.5932
  16   0.0000       0.161974         4.4075
  17   0.0000       0.182021         4.9530

MULLIKEN ATOMIC CHARGES
-----------------------
   0 C :   -0.579651
   1 H :   -0.102179
   2 C :    0.841227
   3 C :    0.561280
   4 H :   -0.029157
   5 H :   -0.181578
   6 H :   -0.223208
   7 H :   -0.167186
   8 H :   -0.054877
   9 H :   -0.021194
  10 H :   -0.043476
Sum of atomic charges:   -0.0000000

LOEWDIN ATOMIC CHARGES
----------------------
   0 C :   -0.116135
   1 H :    0.021687
   2 C :    0.105310
   3 C :    0.112347
   4 H :    0.020838
   5 H :   -0.024279
   6 H :   -0.033553
   7 H :   -0.034849
   8 H :   -0.021145
   9 H :   -0.015787
  10 H :   -0.014433

  Mayer bond orders larger than 0.100000
B(  0-C ,  1-H ) :   0.9852 B(  0-C ,  2-C ) :   1.2668 B(  0-C ,  3-C ) :   1.2231
B(  0-C ,  4-H ) :   0.9345 B(  0-C ,  5-H ) :   0.2083 B(  0-C ,  6-H ) :   0.1871
B(  0-C ,  7-H ) :   0.1869 B(  0-C ,  8-H ) :   0.1713 B(  0-C ,  9-H ) :   0.1401
B(  0-C , 10-H ) :   0.1653 B(  2-C ,  5-H ) :   0.7630 B(  2-C ,  6-H ) :   0.7025
B(  2-C ,  7-H ) :   0.6857 B(  3-C ,  8-H ) :   0.8477 B(  3-C ,  9-H ) :   0.8582
B(  3-C , 10-H ) :   0.8520 B(  6-H ,  7-H ) :   0.2537

Dispersion correction           -0.001483159
FINAL SINGLE POINT ENERGY      -119.008724975104

DIPOLE MOMENT
-------------
                                X             Y             Z
Electronic contribution:     -0.14298       0.12005      -0.39382
Nuclear contribution   :      0.10024      -0.14218       0.41628
                        -----------------------------------------
Total Dipole Moment    :     -0.04274      -0.02213       0.02246
                        -----------------------------------------
Magnitude (a.u.)       :      0.05311
Magnitude (Debye)      :      0.13500

Rotational constants in cm-1:     1.024179     0.291605     0.259489
Rotational constants in MHz : 30704.103454  8742.106283  7779.285909

                             ****ORCA TERMINATED NORMALLY****
TOTAL RUN TIME: 0 days 0 hours 0 minutes 5 seconds 703 msec
