                         Program Version 5.0.0 -  RELEASE  -
|  1> !wB97X-D3 RIJCOSX def2-SVPD def2/J TightSCF
|  2> *xyz 0 1
|  3> C         -2.79070       -0.78527        5.70281
|  4> C         -2.45380        0.05510        6.94145
|  5> C         -2.07842        1.48042        6.56410
|  6> H         -1.62558       -0.38216        7.49891
|  7> H         -3.32527        0.08775        7.59917
|  8> O         -0.90125        1.85816        6.82810
|  9> F         -2.93658        2.17731        5.96415
| 10> H         -1.94052       -0.82114        5.05412
| 11> H         -3.61590       -0.34261        5.18514
| 12> H         -3.05063       -1.77815        6.00536
| 13> *
| 14> %MaxCore 64000
| 15>
| 16> %pal nprocs 18
| 17> end
| 18>
| 19> %scf
| 20>   MaxIter 150
| 21> end
| 22>
| 23>
| 24>                          ****END OF INPUT****

CARTESIAN COORDINATES (ANGSTROEM)
---------------------------------
  C     -2.790700   -0.785270    5.702810
  C     -2.453800    0.055100    6.941450
  C     -2.078420    1.480420    6.564100
  H     -1.625580   -0.382160    7.498910
  H     -3.325270    0.087750    7.599170
  O     -0.901250    1.858160    6.828100
  F     -2.936580    2.177310    5.964150
  H     -1.940520   -0.821140    5.054120
  H     -3.615900   -0.342610    5.185140
  H     -3.050630   -1.778150    6.005360

 Total Charge           Charge          ....    0
 Multiplicity           Mult            ....    1
 Number of Electrons    NEL             ....   40
 Basis Dimension        Dim             ....  146

ORBITAL ENERGIES
----------------

  NO   OCC          E(Eh)            E(eV)
   0   2.0000     -24.876354      -676.9200
   1   2.0000     -19.254742      -523.9482
   2   2.0000     -10.475957      -285.0653
   3   2.0000     -10.324873      -280.9541
   4   2.0000     -10.302643      -280.3492
   5   2.0000      -1.425030       -38.7770
   6   2.0000      -1.137312       -30.9478
   7   2.0000      -0.919095       -25.0098
   8   2.0000      -0.796897       -21.6847
   9   2.0000      -0.753962       -20.5164
  10   2.0000      -0.661179       -17.9916
  11   2.0000      -0.648583       -17.6488
  12   2.0000      -0.607892       -16.5416
  13   2.0000      -0.569675       -15.5016
  14   2.0000      -0.538740       -14.6599
  15   2.0000      -0.504364       -13.7244
  16   2.0000      -0.484327       -13.1792
  17   2.0000      -0.475689       -12.9442
  18   2.0000      -0.448532       -12.2052
  19   2.0000      -0.388817       -10.5803
  20   0.0000       0.050322         1.3693
  21   0.0000       0.083814         2.2807
  22   0.0000       0.115253         3.1362
  23   0.0000       0.124336         3.3834
  24   0.0000       0.149516         4.0685

MULLIKEN ATOMIC CHARGES
-----------------------
   0 C :    0.457485
   1 C :   -0.368806
   2 C :    0.784207
   3 H :    0.001925
   4 H :    0.072842
   5 O :   -0.498877
   6 F :   -0.399323
   7 H :   -0.025402
   8 H :   -0.015845
   9 H :   -0.008205
Sum of atomic charges:   -0.0000000

LOEWDIN ATOMIC CHARGES
----------------------
   0 C :    0.135522
   1 C :    0.005102
   2 C :   -0.000867
   3 H :    0.035217
   4 H :    0.036383
   5 O :   -0.147318
   6 F :   -0.036913
   7 H :   -0.004982
   8 H :   -0.011802
   9 H :   -0.010342

  Mayer bond orders larger than 0.100000
B(  0-C ,  1-C ) :   1.2600 B(  0-C ,  7-H ) :   0.8883 B(  0-C ,  8-H ) :   0.8483
B(  0-C ,  9-H ) :   0.8775 B(  1-C ,  2-C ) :   1.0646 B(  1-C ,  3-H ) :   0.9994
B(  1-C ,  4-H ) :   0.8929 B(  1-C ,  7-H ) :   0.1361 B(  1-C ,  8-H ) :   0.1469
B(  1-C ,  9-H ) :   0.1280 B(  2-C ,  3-H ) :   0.1261 B(  2-C ,  5-O ) :   1.8255
B(  2-C ,  6-F ) :   0.7296

Dispersion correction           -0.001918098
FINAL SINGLE POINT ENERGY      -292.115024784605

DIPOLE MOMENT
-------------
                                X             Y             Z
Electronic contribution:      0.55233       7.90827       0.05333
Nuclear contribution   :     -1.47571      -8.84360      -0.10748
                        -----------------------------------------
Total Dipole Moment    :     -0.92338      -0.93533      -0.05415
                        -----------------------------------------
Magnitude (a.u.)       :      1.31545
Magnitude (Debye)      :      3.34361

Rotational constants in cm-1:     0.283081     0.133379     0.103386
Rotational constants in MHz :  8486.545774  3998.599544  3099.448040

                             ****ORCA TERMINATED NORMALLY****
TOTAL RUN TIME: 0 days 0 hours 0 minutes 7 seconds 172 msec
