                         Program Version 5.0.0 -  RELEASE  -
|  1> !wB97X-D3 RIJCOSX def2-SVPD def2/J TightSCF xyzfile
|  2>
|  3> *xyzfile 0 1 D1.xyz
|  4>
|  5> %MaxCore 64000
|  6>
|  7> %pal nprocs 18
|  8> end
|  9>
| 10> %scf
| 11>   MaxIter 150
| 12> end
| 13>
| 14>
| 15>                          ****END OF INPUT****

CARTESIAN COORDINATES (ANGSTROEM)
---------------------------------
  C     -0.699123    3.489451    3.755163
  H     -0.966716    4.349013    3.140491
  C     -1.080669    3.792957    5.156857
  C      0.776956    3.138391    3.617408
  H     -1.331455    2.656510    3.446323
  H      1.371398    3.888342    4.149744
  H      1.046926    3.232057    2.561331
  C      1.118917    1.731170    4.115155
  H      2.200573    1.654226    4.254882
  C      0.659466    0.635182    3.153306
  H      0.677024    1.576674    5.103150
  H      1.312288    0.638870    2.274207
  H     -0.339563    0.868049    2.772876
  C      0.639957   -0.771175    3.755619
  C     -0.341821   -0.965537    4.915046
  H      1.648266   -1.028665    4.097015
  H      0.398568   -1.482386    2.958453
  H     -0.279892   -2.005646    5.252547
  C     -1.789164   -0.639231    4.557496
  H     -0.032380   -0.352918    5.765118
  H     -2.107151   -1.270102    3.719619
  H     -1.856352    0.391636    4.197604
  C     -2.790700   -0.785275    5.702812
  H     -2.867308   -1.835651    6.001675
  H     -3.774554   -0.486577    5.334807
  C     -2.453797    0.055101    6.941445
  C     -2.078419    1.480421    6.564098
  H     -1.625584   -0.382163    7.498914
  H     -3.325274    0.087746    7.599175
  H     -0.874488    4.762737    5.427344
  H     -0.680793    3.134762    5.839000
  H     -2.057550    3.531691    5.346197
  F     -0.901252    1.858156    6.828104
  O     -2.936582    2.177309    5.964151

 Total Charge           Charge          ....    0
 Multiplicity           Mult            ....    1
 Number of Electrons    NEL             ....  104
 Basis Dimension        Dim             ....  434

ORBITAL ENERGIES
----------------

  NO   OCC          E(Eh)            E(eV)
   0   2.0000     -24.883534      -677.1154
   1   2.0000     -19.262499      -524.1592
   2   2.0000     -10.486346      -285.3480
   3   2.0000     -10.326024      -280.9854
   4   2.0000     -10.308365      -280.5049
   5   2.0000     -10.293462      -280.0993
   6   2.0000     -10.290577      -280.0208
   7   2.0000     -10.284939      -279.8674
   8   2.0000     -10.277777      -279.6725
   9   2.0000     -10.274920      -279.5948
  10   2.0000     -10.267351      -279.3888
  11   2.0000     -10.257598      -279.1234
  12   2.0000     -10.203639      -277.6551
  13   2.0000      -1.435793       -39.0699
  14   2.0000      -1.155592       -31.4453
  15   2.0000      -0.945290       -25.7227
  16   2.0000      -0.920412       -25.0457
  17   2.0000      -0.889309       -24.1993
  18   2.0000      -0.860310       -23.4102
  19   2.0000      -0.817530       -22.2461
  20   2.0000      -0.793977       -21.6052
  21   2.0000      -0.766799       -20.8657
  22   2.0000      -0.733016       -19.9464
  23   2.0000      -0.715959       -19.4822
  24   2.0000      -0.672628       -18.3031
  25   2.0000      -0.671601       -18.2752
  26   2.0000      -0.661469       -17.9995
  27   2.0000      -0.642738       -17.4898
  28   2.0000      -0.623840       -16.9756
  29   2.0000      -0.584136       -15.8951
  30   2.0000      -0.580522       -15.7968
  31   2.0000      -0.562702       -15.3119
  32   2.0000      -0.560306       -15.2467
  33   2.0000      -0.538097       -14.6424
  34   2.0000      -0.529872       -14.4186
  35   2.0000      -0.514625       -14.0037
  36   2.0000      -0.507417       -13.8075
  37   2.0000      -0.498469       -13.5640
  38   2.0000      -0.487925       -13.2771
  39   2.0000      -0.477761       -13.0006
  40   2.0000      -0.464831       -12.6487
  41   2.0000      -0.457829       -12.4582
  42   2.0000      -0.447806       -12.1854
  43   2.0000      -0.439747       -11.9661
  44   2.0000      -0.433924       -11.8077
  45   2.0000      -0.422551       -11.4982
  46   2.0000      -0.417418       -11.3585
  47   2.0000      -0.405615       -11.0373
  48   2.0000      -0.401985       -10.9386
  49   2.0000      -0.390713       -10.6318
  50   2.0000      -0.388372       -10.5681
  51   2.0000      -0.360744        -9.8163
  52   0.0000       0.036749         1.0000
  53   0.0000       0.084783         2.3071
  54   0.0000       0.099933         2.7193
  55   0.0000       0.102981         2.8023
  56   0.0000       0.109032         2.9669

MULLIKEN ATOMIC CHARGES
-----------------------
   0 C :   -0.005387
   1 H :   -0.274481
   2 C :    1.886762
   3 C :    0.514613
   4 H :   -0.229354
   5 H :   -0.071017
   6 H :   -0.101368
   7 C :    0.603190
   8 H :    0.009523
   9 C :    0.008895
  10 H :   -0.734625
  11 H :   -0.217206
  12 H :   -0.118442
  13 C :    0.669259
  14 C :   -0.013411
  15 H :   -0.114062
  16 H :    0.045428
  17 H :   -0.267525
  18 C :    0.293900
  19 H :   -0.035561
  20 H :   -0.052369
  21 H :   -0.541395
  22 C :    0.417527
  23 H :   -0.147031
  24 H :    0.094495
  25 C :    0.230091
  26 C :    0.578789
  27 H :    0.161713
  28 H :   -0.118061
  29 H :   -0.260977
  30 H :   -0.799642
  31 H :   -0.310929
  32 F :   -0.543864
  33 O :   -0.557478
Sum of atomic charges:    0.0000000

LOEWDIN ATOMIC CHARGES
----------------------
   0 C :   -0.038803
   1 H :    0.023003
   2 C :    0.131791
   3 C :   -0.028196
   4 H :    0.003976
   5 H :    0.025135
   6 H :    0.017981
   7 C :   -0.015646
   8 H :    0.025845
   9 C :   -0.032140
  10 H :   -0.015243
  11 H :    0.025914
  12 H :    0.000573
  13 C :   -0.028895
  14 C :   -0.028734
  15 H :    0.024324
  16 H :    0.023388
  17 H :    0.027499
  18 C :   -0.023795
  19 H :   -0.004598
  20 H :    0.035197
  21 H :    0.000062
  22 C :   -0.008625
  23 H :    0.028901
  24 H :    0.031914
  25 C :    0.056235
  26 C :    0.053510
  27 H :    0.025782
  28 H :    0.043512
  29 H :   -0.016350
  30 H :   -0.096094
  31 H :   -0.097578
  32 F :   -0.053093
  33 O :   -0.116753

  Mayer bond orders larger than 0.100000
B(  0-C ,  1-H ) :   0.9146 B(  0-C ,  2-C ) :   0.8231 B(  0-C ,  3-C ) :   1.1539
B(  0-C ,  4-H ) :   0.7505 B(  0-C ,  5-H ) :   0.1528 B(  0-C ,  6-H ) :   0.1569
B(  0-C ,  7-C ) :   0.1408 B(  0-C , 10-H ) :  -0.1328 B(  0-C , 29-H ) :   0.1282
B(  0-C , 30-H ) :   0.5690 B(  0-C , 31-H ) :   0.3395 B(  1-H , 30-H ) :   0.1191
B(  2-C ,  4-H ) :   0.1941 B(  2-C , 29-H ) :   0.5615 B(  2-C , 30-H ) :  -0.4030
B(  2-C , 31-H ) :   0.2965 B(  2-C , 32-F ) :  -0.1058 B(  3-C ,  4-H ) :   0.1135
B(  3-C ,  5-H ) :   0.7183 B(  3-C ,  6-H ) :   0.7554 B(  3-C ,  7-C ) :   1.1700
B(  3-C , 10-H ) :   0.1823 B(  3-C , 30-H ) :  -0.1418 B(  4-H , 12-H ) :   0.1018
B(  4-H , 21-H ) :   0.1643 B(  5-H ,  6-H ) :  -0.1213 B(  5-H ,  7-C ) :   0.1517
B(  5-H , 10-H ) :   0.1057 B(  6-H ,  7-C ) :   0.1270 B(  7-C ,  8-H ) :   0.6912
B(  7-C ,  9-C ) :   1.1052 B(  7-C , 10-H ) :   0.4866 B(  7-C , 11-H ) :   0.1919
B(  8-H ,  9-C ) :   0.1987 B(  9-C , 10-H ) :   0.2338 B(  9-C , 11-H ) :   0.8979
B(  9-C , 12-H ) :   0.9142 B(  9-C , 13-C ) :   1.1709 B(  9-C , 15-H ) :   0.1418
B(  9-C , 16-H ) :   0.2215 B( 10-H , 19-H ) :   0.1155 B( 10-H , 30-H ) :   0.1110
B( 13-C , 14-C ) :   1.1307 B( 13-C , 15-H ) :   0.7001 B( 13-C , 16-H ) :   0.6999
B( 14-C , 15-H ) :   0.2723 B( 14-C , 17-H ) :   0.9488 B( 14-C , 18-C ) :   1.1313
B( 14-C , 19-H ) :   0.8721 B( 14-C , 20-H ) :   0.1682 B( 14-C , 21-H ) :   0.2297
B( 15-H , 16-H ) :  -0.1158 B( 17-H , 18-C ) :   0.1479 B( 18-C , 20-H ) :   0.7079
B( 18-C , 21-H ) :   0.7311 B( 18-C , 22-C ) :   1.2422 B( 18-C , 23-H ) :   0.1548
B( 18-C , 24-H ) :   0.2369 B( 20-H , 21-H ) :   0.1258 B( 21-H , 22-C ) :   0.1166
B( 22-C , 23-H ) :   0.8267 B( 22-C , 24-H ) :   0.6991 B( 22-C , 25-C ) :   1.1462
B( 22-C , 28-H ) :   0.1672 B( 23-H , 24-H ) :  -0.1241 B( 23-H , 25-C ) :   0.1219
B( 25-C , 26-C ) :   1.2304 B( 25-C , 27-H ) :   0.8088 B( 25-C , 28-H ) :   0.6868
B( 26-C , 27-H ) :   0.1320 B( 26-C , 28-H ) :   0.2800 B( 26-C , 30-H ) :   0.1172
B( 26-C , 32-F ) :   0.6115 B( 26-C , 33-O ) :   1.6756 B( 29-H , 30-H ) :   0.1840
B( 30-H , 31-H ) :   0.4022 B( 30-H , 32-F ) :   0.2765 B( 31-H , 33-O ) :   0.2125

Dispersion correction           -0.017256555
FINAL SINGLE POINT ENERGY      -606.288392516476

DIPOLE MOMENT
-------------
                                X             Y             Z
Electronic contribution:     -5.46234       2.46663      10.85335
Nuclear contribution   :      5.54676      -3.70047     -10.28793
                        -----------------------------------------
Total Dipole Moment    :      0.08442      -1.23384       0.56542
                        -----------------------------------------
Magnitude (a.u.)       :      1.35985
Magnitude (Debye)      :      3.45646

Rotational constants in cm-1:     0.028503     0.023389     0.015214
Rotational constants in MHz :   854.502405   701.197575   456.108322

                             ****ORCA TERMINATED NORMALLY****
TOTAL RUN TIME: 0 days 0 hours 1 minutes 31 seconds 83 msec
