                         Program Version 5.0.0 -  RELEASE  -
|  1> !wB97X-D3 RIJCOSX def2-SVPD def2/J TightSCF xyzfile
|  2>
|  3> *xyzfile 0 1 D2.xyz
|  4>
|  5> %MaxCore 64000
|  6>
|  7> %pal nprocs 18
|  8> end
|  9>
| 10> %scf
| 11>   MaxIter 150
| 12> end
| 13>
| 14>
| 15>                          ****END OF INPUT****

CARTESIAN COORDINATES (ANGSTROEM)
---------------------------------
  C     -0.699123    3.489451    3.755163
  H     -0.966716    4.349013    3.140491
  C     -1.080669    3.792957    5.156857
  C      0.776956    3.138391    3.617408
  H     -1.331455    2.656510    3.446323
  H      1.371398    3.888342    4.149744
  H      1.046926    3.232057    2.561331
  C      1.118917    1.731170    4.115155
  H      2.200573    1.654226    4.254882
  C      0.659466    0.635182    3.153306
  H      0.677024    1.576674    5.103150
  H      1.312288    0.638870    2.274207
  H     -0.339563    0.868049    2.772876
  C      0.639957   -0.771175    3.755619
  C     -0.341821   -0.965537    4.915046
  H      1.648266   -1.028665    4.097015
  H      0.398568   -1.482386    2.958453
  H     -0.279892   -2.005646    5.252547
  C     -1.789164   -0.639231    4.557496
  H     -0.032380   -0.352918    5.765118
  H     -2.107151   -1.270102    3.719619
  H     -1.856352    0.391636    4.197604
  C     -2.790700   -0.785275    5.702812
  H     -2.867308   -1.835651    6.001675
  H     -3.774554   -0.486577    5.334807
  C     -2.453797    0.055101    6.941445
  C     -2.078419    1.480421    6.564098
  H     -1.625584   -0.382163    7.498914
  H     -3.325274    0.087746    7.599175
  H     -0.874488    4.762737    5.427344
  H     -0.680793    3.134762    5.839000
  H     -2.057550    3.531691    5.346197
  O     -0.901252    1.858156    6.828104
  F     -2.936582    2.177309    5.964151

 Total Charge           Charge          ....    0
 Multiplicity           Mult            ....    1
 Number of Electrons    NEL             ....  104
 Basis Dimension        Dim             ....  434

ORBITAL ENERGIES
----------------

  NO   OCC          E(Eh)            E(eV)
   0   2.0000     -24.887092      -677.2122
   1   2.0000     -19.262314      -524.1542
   2   2.0000     -10.488111      -285.3960
   3   2.0000     -10.326522      -280.9989
   4   2.0000     -10.311930      -280.6019
   5   2.0000     -10.295806      -280.1631
   6   2.0000     -10.284880      -279.8658
   7   2.0000     -10.280767      -279.7539
   8   2.0000     -10.273537      -279.5572
   9   2.0000     -10.266369      -279.3621
  10   2.0000     -10.263809      -279.2924
  11   2.0000     -10.257452      -279.1194
  12   2.0000     -10.202297      -277.6186
  13   2.0000      -1.439462       -39.1697
  14   2.0000      -1.155143       -31.4330
  15   2.0000      -0.946683       -25.7605
  16   2.0000      -0.917360       -24.9626
  17   2.0000      -0.887433       -24.1483
  18   2.0000      -0.858709       -23.3667
  19   2.0000      -0.814012       -22.1504
  20   2.0000      -0.791408       -21.5353
  21   2.0000      -0.768897       -20.9228
  22   2.0000      -0.728992       -19.8369
  23   2.0000      -0.716641       -19.5008
  24   2.0000      -0.674215       -18.3463
  25   2.0000      -0.669264       -18.2116
  26   2.0000      -0.665112       -18.0986
  27   2.0000      -0.641271       -17.4499
  28   2.0000      -0.619749       -16.8642
  29   2.0000      -0.587034       -15.9740
  30   2.0000      -0.581409       -15.8209
  31   2.0000      -0.561275       -15.2731
  32   2.0000      -0.555213       -15.1081
  33   2.0000      -0.532897       -14.5009
  34   2.0000      -0.523723       -14.2512
  35   2.0000      -0.518655       -14.1133
  36   2.0000      -0.507225       -13.8023
  37   2.0000      -0.500814       -13.6278
  38   2.0000      -0.486711       -13.2441
  39   2.0000      -0.473499       -12.8846
  40   2.0000      -0.469753       -12.7826
  41   2.0000      -0.463429       -12.6105
  42   2.0000      -0.446894       -12.1606
  43   2.0000      -0.438659       -11.9365
  44   2.0000      -0.431270       -11.7355
  45   2.0000      -0.420868       -11.4524
  46   2.0000      -0.414430       -11.2772
  47   2.0000      -0.404235       -10.9998
  48   2.0000      -0.397561       -10.8182
  49   2.0000      -0.387363       -10.5407
  50   2.0000      -0.385325       -10.4852
  51   2.0000      -0.351598        -9.5675
  52   0.0000       0.037539         1.0215
  53   0.0000       0.081762         2.2248
  54   0.0000       0.100371         2.7312
  55   0.0000       0.103663         2.8208
  56   0.0000       0.108583         2.9547

MULLIKEN ATOMIC CHARGES
-----------------------
   0 C :   -0.028594
   1 H :   -0.263067
   2 C :    1.873709
   3 C :    0.499663
   4 H :   -0.218190
   5 H :   -0.066994
   6 H :   -0.107273
   7 C :    0.645108
   8 H :    0.022493
   9 C :    0.002263
  10 H :   -0.768331
  11 H :   -0.223200
  12 H :   -0.117812
  13 C :    0.680710
  14 C :   -0.020875
  15 H :   -0.111866
  16 H :    0.040288
  17 H :   -0.262104
  18 C :    0.320238
  19 H :   -0.014087
  20 H :   -0.070913
  21 H :   -0.548161
  22 C :    0.407359
  23 H :   -0.148736
  24 H :    0.059984
  25 C :    0.262636
  26 C :    0.662567
  27 H :    0.133425
  28 H :   -0.093735
  29 H :   -0.254567
  30 H :   -0.721332
  31 H :   -0.422900
  32 O :   -0.658951
  33 F :   -0.488757
Sum of atomic charges:   -0.0000000

LOEWDIN ATOMIC CHARGES
----------------------
   0 C :   -0.042759
   1 H :    0.020144
   2 C :    0.131575
   3 C :   -0.025824
   4 H :    0.000295
   5 H :    0.026263
   6 H :    0.016980
   7 C :   -0.010444
   8 H :    0.026180
   9 C :   -0.033173
  10 H :   -0.014777
  11 H :    0.024713
  12 H :   -0.001457
  13 C :   -0.028698
  14 C :   -0.023948
  15 H :    0.024848
  16 H :    0.021790
  17 H :    0.027249
  18 C :   -0.025177
  19 H :   -0.001125
  20 H :    0.034243
  21 H :   -0.000992
  22 C :   -0.015935
  23 H :    0.029288
  24 H :    0.026594
  25 C :    0.060700
  26 C :    0.058442
  27 H :    0.036358
  28 H :    0.039108
  29 H :   -0.015581
  30 H :   -0.125063
  31 H :   -0.075034
  32 O :   -0.134017
  33 F :   -0.030767

  Mayer bond orders larger than 0.100000
B(  0-C ,  1-H ) :   0.9111 B(  0-C ,  2-C ) :   0.8151 B(  0-C ,  3-C ) :   1.1677
B(  0-C ,  4-H ) :   0.7510 B(  0-C ,  5-H ) :   0.1652 B(  0-C ,  6-H ) :   0.1586
B(  0-C ,  7-C ) :   0.1403 B(  0-C , 10-H ) :  -0.1260 B(  0-C , 29-H ) :   0.1247
B(  0-C , 30-H ) :   0.5631 B(  0-C , 31-H ) :   0.3529 B(  1-H , 30-H ) :   0.1026
B(  2-C ,  4-H ) :   0.1804 B(  2-C , 29-H ) :   0.5604 B(  2-C , 30-H ) :  -0.2075
B(  2-C , 31-H ) :   0.1676 B(  3-C ,  4-H ) :   0.1200 B(  3-C ,  5-H ) :   0.7136
B(  3-C ,  6-H ) :   0.7481 B(  3-C ,  7-C ) :   1.1705 B(  3-C , 10-H ) :   0.1934
B(  3-C , 30-H ) :  -0.1498 B(  4-H , 21-H ) :   0.1645 B(  5-H ,  6-H ) :  -0.1220
B(  5-H ,  7-C ) :   0.1517 B(  5-H , 10-H ) :   0.1026 B(  6-H ,  7-C ) :   0.1422
B(  7-C ,  8-H ) :   0.6769 B(  7-C ,  9-C ) :   1.0930 B(  7-C , 10-H ) :   0.4441
B(  7-C , 11-H ) :   0.1827 B(  8-H ,  9-C ) :   0.1926 B(  9-C , 10-H ) :   0.2435
B(  9-C , 11-H ) :   0.9023 B(  9-C , 12-H ) :   0.9128 B(  9-C , 13-C ) :   1.1720
B(  9-C , 15-H ) :   0.1401 B(  9-C , 16-H ) :   0.2216 B( 10-H , 13-C ) :  -0.1007
B( 10-H , 19-H ) :   0.1221 B( 10-H , 30-H ) :   0.1067 B( 13-C , 14-C ) :   1.1268
B( 13-C , 15-H ) :   0.7013 B( 13-C , 16-H ) :   0.6991 B( 14-C , 15-H ) :   0.2714
B( 14-C , 17-H ) :   0.9385 B( 14-C , 18-C ) :   1.1402 B( 14-C , 19-H ) :   0.8773
B( 14-C , 20-H ) :   0.1673 B( 14-C , 21-H ) :   0.2416 B( 15-H , 16-H ) :  -0.1175
B( 17-H , 18-C ) :   0.1501 B( 18-C , 19-H ) :   0.1005 B( 18-C , 20-H ) :   0.7145
B( 18-C , 21-H ) :   0.6941 B( 18-C , 22-C ) :   1.2260 B( 18-C , 23-H ) :   0.1512
B( 18-C , 24-H ) :   0.2377 B( 20-H , 21-H ) :   0.1477 B( 21-H , 22-C ) :   0.1131
B( 22-C , 23-H ) :   0.8341 B( 22-C , 24-H ) :   0.7008 B( 22-C , 25-C ) :   1.1382
B( 22-C , 28-H ) :   0.1642 B( 23-H , 24-H ) :  -0.1273 B( 23-H , 25-C ) :   0.1218
B( 25-C , 26-C ) :   1.1779 B( 25-C , 27-H ) :   0.8360 B( 25-C , 28-H ) :   0.6880
B( 26-C , 27-H ) :   0.1326 B( 26-C , 28-H ) :   0.2616 B( 26-C , 32-O ) :   1.6731
B( 26-C , 33-F ) :   0.5238 B( 29-H , 30-H ) :   0.2020 B( 30-H , 31-H ) :   0.4442
B( 30-H , 32-O ) :   0.1865 B( 31-H , 33-F ) :   0.2245 B( 32-O , 33-F ) :   0.1133

Dispersion correction           -0.017268117
FINAL SINGLE POINT ENERGY      -606.286725079343

DIPOLE MOMENT
-------------
                                X             Y             Z
Electronic contribution:     -8.96868       3.00103       9.46428
Nuclear contribution   :      8.07181      -4.09641      -9.21610
                        -----------------------------------------
Total Dipole Moment    :     -0.89688      -1.09538       0.24818
                        -----------------------------------------
Magnitude (a.u.)       :      1.43731
Magnitude (Debye)      :      3.65334

Rotational constants in cm-1:     0.028400     0.023377     0.015073
Rotational constants in MHz :   851.414727   700.831775   451.871218

                             ****ORCA TERMINATED NORMALLY****
TOTAL RUN TIME: 0 days 0 hours 1 minutes 22 seconds 26 msec
