                         Program Version 5.0.0 -  RELEASE  -
|  1> !PBE0 D3BJ RIJCOSX def2-SVPD def2/J TightSCF
|  2> *xyz -1 1
|  3> C          3.34350        3.35457       -3.59200
|  4> C          2.95263        1.86308       -3.57485
|  5> C          4.12921        0.89839       -3.41895
|  6> H          3.73369       -0.10060       -3.23763
|  7> H          4.71910        0.86256       -4.33901
|  8> C          5.01734        1.31521       -2.22130
|  9> H          2.27894        1.73525       -2.72550
| 10> H          2.37747        1.62579       -4.47587
| 11> O          4.73706        0.85411       -1.12283
| 12> O          5.92815        2.16811       -2.49136
| 13> H          4.00801        3.53975       -4.40994
| 14> H          3.83025        3.60631       -2.67298
| 15> H          2.46347        3.95263       -3.70497
| 16> *
| 17> %MaxCore 64000
| 18>
| 19> %pal nprocs 4
| 20> end
| 21>
| 22> %scf
| 23>   MaxIter 150
| 24> end
| 25>
| 26>
| 27>                          ****END OF INPUT****

CARTESIAN COORDINATES (ANGSTROEM)
---------------------------------
  C      3.343500    3.354570   -3.592000
  C      2.952630    1.863080   -3.574850
  C      4.129210    0.898390   -3.418950
  H      3.733690   -0.100600   -3.237630
  H      4.719100    0.862560   -4.339010
  C      5.017340    1.315210   -2.221300
  H      2.278940    1.735250   -2.725500
  H      2.377470    1.625790   -4.475870
  O      4.737060    0.854110   -1.122830
  O      5.928150    2.168110   -2.491360
  H      4.008010    3.539750   -4.409940
  H      3.830250    3.606310   -2.672980
  H      2.463470    3.952630   -3.704970

 Total Charge           Charge          ....   -1
 Multiplicity           Mult            ....    1
 Number of Electrons    NEL             ....   48
 Basis Dimension        Dim             ....  182

ORBITAL ENERGIES
----------------

  NO   OCC          E(Eh)            E(eV)
   0   2.0000     -18.963479      -516.0225
   1   2.0000     -18.952369      -515.7202
   2   2.0000     -10.119305      -275.3603
   3   2.0000     -10.086773      -274.4750
   4   2.0000     -10.070207      -274.0243
   5   2.0000     -10.057862      -273.6884
   6   2.0000      -0.849226       -23.1086
   7   2.0000      -0.750718       -20.4281
   8   2.0000      -0.650282       -17.6951
   9   2.0000      -0.551991       -15.0204
  10   2.0000      -0.454291       -12.3619
  11   2.0000      -0.342887        -9.3304
  12   2.0000      -0.310601        -8.4519
  13   2.0000      -0.302310        -8.2263
  14   2.0000      -0.264129        -7.1873
  15   2.0000      -0.249692        -6.7945
  16   2.0000      -0.225443        -6.1346
  17   2.0000      -0.217313        -5.9134
  18   2.0000      -0.211884        -5.7657
  19   2.0000      -0.186626        -5.0783
  20   2.0000      -0.182127        -4.9559
  21   2.0000      -0.067114        -1.8263
  22   2.0000      -0.056769        -1.5448
  23   2.0000      -0.046082        -1.2539
  24   0.0000       0.154573         4.2061
  25   0.0000       0.180004         4.8982
  26   0.0000       0.193882         5.2758
  27   0.0000       0.205962         5.6045
  28   0.0000       0.232111         6.3161

MULLIKEN ATOMIC CHARGES
-----------------------
   0 C :    0.511971
   1 C :   -0.544038
   2 C :    0.023969
   3 H :    0.039563
   4 H :    0.038233
   5 C :    0.536356
   6 H :    0.035799
   7 H :   -0.129883
   8 O :   -0.700207
   9 O :   -0.780824
  10 H :    0.002991
  11 H :    0.059302
  12 H :   -0.093231
Sum of atomic charges:   -1.0000000

LOEWDIN ATOMIC CHARGES
----------------------
   0 C :    0.106299
   1 C :   -0.088539
   2 C :   -0.006287
   3 H :   -0.000103
   4 H :    0.006568
   5 C :   -0.295721
   6 H :    0.013333
   7 H :   -0.001136
   8 O :   -0.304703
   9 O :   -0.345056
  10 H :   -0.020775
  11 H :   -0.023590
  12 H :   -0.040291

  Mayer bond orders larger than 0.100000
B(  0-C ,  1-C ) :   1.3136 B(  0-C , 10-H ) :   0.8198 B(  0-C , 11-H ) :   0.8257
B(  0-C , 12-H ) :   0.8271 B(  1-C ,  2-C ) :   1.2011 B(  1-C ,  3-H ) :   0.1273
B(  1-C ,  4-H ) :   0.1267 B(  1-C ,  6-H ) :   0.9280 B(  1-C ,  7-H ) :   1.0150
B(  1-C , 10-H ) :   0.1850 B(  1-C , 11-H ) :   0.1947 B(  1-C , 12-H ) :   0.1891
B(  2-C ,  3-H ) :   0.8761 B(  2-C ,  4-H ) :   0.9148 B(  2-C ,  5-C ) :   1.0117
B(  2-C ,  6-H ) :   0.1104 B(  3-H ,  5-C ) :   0.1293 B(  5-C ,  8-O ) :   1.4030
B(  5-C ,  9-O ) :   1.3703

Dispersion correction           -0.008431551
FINAL SINGLE POINT ENERGY      -306.603048154567

DIPOLE MOMENT
-------------
                                X             Y             Z
Electronic contribution:      4.93527      -2.54864       4.47135
Nuclear contribution   :     -6.63819       2.74067      -6.05656
                        -----------------------------------------
Total Dipole Moment    :     -1.70292       0.19203      -1.58521
                        -----------------------------------------
Magnitude (a.u.)       :      2.33446
Magnitude (Debye)      :      5.93373

Rotational constants in cm-1:     0.190880     0.089683     0.076466
Rotational constants in MHz :  5722.446013  2688.617255  2292.390699

                             ****ORCA TERMINATED NORMALLY****
TOTAL RUN TIME: 0 days 0 hours 0 minutes 17 seconds 614 msec
