                         Program Version 5.0.0 -  RELEASE  -
|  1> !PBE0 D3BJ RIJCOSX def2-SVPD def2/J TightSCF
|  2> *xyz 1 1
|  3> C          3.34350        3.35457       -3.59200
|  4> C          2.95263        1.86308       -3.57485
|  5> C          4.12921        0.89839       -3.41895
|  6> C          4.25587        3.70385       -4.72605
|  7> N          3.73403        4.29378       -5.80077
|  8> N          5.51504        3.40725       -4.63718
|  9> H          6.14919        3.60120       -5.39905
| 10> H          5.81358        2.89950       -3.80879
| 11> H          2.74138        4.51311       -5.82470
| 12> H          4.28755        4.52126       -6.61434
| 13> H          2.27894        1.73525       -2.72550
| 14> H          2.37747        1.62579       -4.47587
| 15> H          3.86125        3.59725       -2.66298
| 16> H          2.44649        3.97346       -3.65656
| 17> H          4.79753        1.01430       -4.24649
| 18> H          3.76482       -0.10731       -3.39293
| 19> H          4.64840        1.11330       -2.50837
| 20> *
| 21> %MaxCore 64000
| 22>
| 23> %pal nprocs 4
| 24> end
| 25>
| 26> %scf
| 27>   MaxIter 150
| 28> end
| 29>
| 30>
| 31>                          ****END OF INPUT****

CARTESIAN COORDINATES (ANGSTROEM)
---------------------------------
  C      3.343500    3.354570   -3.592000
  C      2.952630    1.863080   -3.574850
  C      4.129210    0.898390   -3.418950
  C      4.255870    3.703850   -4.726050
  N      3.734030    4.293780   -5.800770
  N      5.515040    3.407250   -4.637180
  H      6.149190    3.601200   -5.399050
  H      5.813580    2.899500   -3.808790
  H      2.741380    4.513110   -5.824700
  H      4.287550    4.521260   -6.614340
  H      2.278940    1.735250   -2.725500
  H      2.377470    1.625790   -4.475870
  H      3.861250    3.597250   -2.662980
  H      2.446490    3.973460   -3.656560
  H      4.797530    1.014300   -4.246490
  H      3.764820   -0.107310   -3.392930
  H      4.648400    1.113300   -2.508370

 Total Charge           Charge          ....    1
 Multiplicity           Mult            ....    1
 Number of Electrons    NEL             ....   48
 Basis Dimension        Dim             ....  208

ORBITAL ENERGIES
----------------

  NO   OCC          E(Eh)            E(eV)
   0   2.0000     -14.641185      -398.4069
   1   2.0000     -14.637337      -398.3022
   2   2.0000     -10.551220      -287.1133
   3   2.0000     -10.427492      -283.7465
   4   2.0000     -10.396623      -282.9065
   5   2.0000     -10.364884      -282.0428
   6   2.0000      -1.221219       -33.2310
   7   2.0000      -1.124390       -30.5962
   8   2.0000      -0.990941       -26.9649
   9   2.0000      -0.906503       -24.6672
  10   2.0000      -0.847010       -23.0483
  11   2.0000      -0.805085       -21.9075
  12   2.0000      -0.788942       -21.4682
  13   2.0000      -0.746094       -20.3022
  14   2.0000      -0.715839       -19.4790
  15   2.0000      -0.667287       -18.1578
  16   2.0000      -0.635713       -17.2986
  17   2.0000      -0.622445       -16.9376
  18   2.0000      -0.588186       -16.0054
  19   2.0000      -0.573703       -15.6112
  20   2.0000      -0.522899       -14.2288
  21   2.0000      -0.515071       -14.0158
  22   2.0000      -0.510641       -13.8952
  23   2.0000      -0.496962       -13.5230
  24   0.0000      -0.202081        -5.4989
  25   0.0000      -0.146870        -3.9965
  26   0.0000      -0.105430        -2.8689
  27   0.0000      -0.102018        -2.7761
  28   0.0000      -0.080072        -2.1789

MULLIKEN ATOMIC CHARGES
-----------------------
   0 C :   -0.074054
   1 C :   -0.371449
   2 C :    0.567341
   3 C :    1.033065
   4 N :   -0.172874
   5 N :   -0.055759
   6 H :   -0.113953
   7 H :    0.104728
   8 H :    0.060993
   9 H :   -0.095924
  10 H :    0.045151
  11 H :   -0.008897
  12 H :    0.111077
  13 H :    0.018363
  14 H :   -0.004154
  15 H :   -0.090547
  16 H :    0.046892
Sum of atomic charges:    1.0000000

LOEWDIN ATOMIC CHARGES
----------------------
   0 C :    0.042527
   1 C :   -0.036579
   2 C :    0.131237
   3 C :   -0.035949
   4 N :    0.277236
   5 N :    0.286270
   6 H :    0.056718
   7 H :    0.045955
   8 H :    0.052130
   9 H :    0.043746
  10 H :    0.041727
  11 H :    0.035813
  12 H :    0.049571
  13 H :    0.040897
  14 H :   -0.031825
  15 H :    0.004170
  16 H :   -0.003645

  Mayer bond orders larger than 0.100000
B(  0-C ,  1-C ) :   1.1846 B(  0-C ,  3-C ) :   1.0524 B(  0-C ,  4-N ) :   0.1096
B(  0-C ,  5-N ) :   0.1079 B(  0-C , 12-H ) :   0.8569 B(  0-C , 13-H ) :   0.9237
B(  1-C ,  2-C ) :   1.3266 B(  1-C , 10-H ) :   0.9154 B(  1-C , 11-H ) :   1.0026
B(  1-C , 12-H ) :   0.1102 B(  1-C , 13-H ) :   0.1010 B(  1-C , 14-H ) :   0.1703
B(  1-C , 15-H ) :   0.1833 B(  1-C , 16-H ) :   0.1785 B(  2-C , 14-H ) :   0.8365
B(  2-C , 15-H ) :   0.8651 B(  2-C , 16-H ) :   0.8087 B(  3-C ,  4-N ) :   0.9029
B(  3-C ,  5-N ) :   1.0332 B(  3-C ,  6-H ) :  -0.2054 B(  3-C ,  9-H ) :  -0.1839
B(  4-N ,  5-N ) :   0.1784 B(  4-N ,  8-H ) :   1.0953 B(  4-N ,  9-H ) :   1.3112
B(  5-N ,  6-H ) :   1.3731 B(  5-N ,  7-H ) :   0.9984 B(  6-H ,  7-H ) :  -0.1897
B(  8-H ,  9-H ) :  -0.1730

Dispersion correction           -0.011731952
FINAL SINGLE POINT ENERGY      -267.862642567438

DIPOLE MOMENT
-------------
                                X             Y             Z
Electronic contribution:      1.42412       4.41936      -2.93623
Nuclear contribution   :     -0.87169      -3.40560       1.97790
                        -----------------------------------------
Total Dipole Moment    :      0.55243       1.01376      -0.95832
                        -----------------------------------------
Magnitude (a.u.)       :      1.50042
Magnitude (Debye)      :      3.81377

Rotational constants in cm-1:     0.188632     0.081113     0.066356
Rotational constants in MHz :  5655.057814  2431.708101  1989.304146

                             ****ORCA TERMINATED NORMALLY****
TOTAL RUN TIME: 0 days 0 hours 0 minutes 22 seconds 709 msec
