                         Program Version 5.0.0 -  RELEASE  -
|  1> !PBE0 D3BJ RIJCOSX def2-SVPD def2/J TightSCF
|  2> *xyz 0 1
|  3> C          3.34350        3.35457       -3.59200
|  4> C          2.95263        1.86308       -3.57485
|  5> C          4.12921        0.89839       -3.41895
|  6> H          3.73369       -0.10060       -3.23763
|  7> H          4.71910        0.86256       -4.33901
|  8> C          5.01734        1.31521       -2.22130
|  9> H          2.27894        1.73525       -2.72550
| 10> H          2.37747        1.62579       -4.47587
| 11> F          4.73706        0.85411       -1.12283
| 12> O          5.92815        2.16811       -2.49136
| 13> H          4.00801        3.53975       -4.40994
| 14> H          3.83025        3.60631       -2.67298
| 15> H          2.46347        3.95263       -3.70497
| 16> *
| 17> %MaxCore 64000
| 18>
| 19> %pal nprocs 4
| 20> end
| 21>
| 22> %scf
| 23>   MaxIter 150
| 24> end
| 25>
| 26>
| 27>                          ****END OF INPUT****

CARTESIAN COORDINATES (ANGSTROEM)
---------------------------------
  C      3.343500    3.354570   -3.592000
  C      2.952630    1.863080   -3.574850
  C      4.129210    0.898390   -3.418950
  H      3.733690   -0.100600   -3.237630
  H      4.719100    0.862560   -4.339010
  C      5.017340    1.315210   -2.221300
  H      2.278940    1.735250   -2.725500
  H      2.377470    1.625790   -4.475870
  F      4.737060    0.854110   -1.122830
  O      5.928150    2.168110   -2.491360
  H      4.008010    3.539750   -4.409940
  H      3.830250    3.606310   -2.672980
  H      2.463470    3.952630   -3.704970

 Total Charge           Charge          ....    0
 Multiplicity           Mult            ....    1
 Number of Electrons    NEL             ....   48
 Basis Dimension        Dim             ....  182

ORBITAL ENERGIES
----------------

  NO   OCC          E(Eh)            E(eV)
   0   2.0000     -24.870620      -676.7640
   1   2.0000     -19.223600      -523.1007
   2   2.0000     -10.418365      -283.4981
   3   2.0000     -10.263502      -279.2841
   4   2.0000     -10.252498      -278.9847
   5   2.0000     -10.220736      -278.1204
   6   2.0000      -1.366367       -37.1807
   7   2.0000      -1.042323       -28.3631
   8   2.0000      -0.830951       -22.6113
   9   2.0000      -0.743364       -20.2280
  10   2.0000      -0.693731       -18.8774
  11   2.0000      -0.630232       -17.1495
  12   2.0000      -0.586405       -15.9569
  13   2.0000      -0.567794       -15.4504
  14   2.0000      -0.519536       -14.1373
  15   2.0000      -0.484297       -13.1784
  16   2.0000      -0.470379       -12.7997
  17   2.0000      -0.430485       -11.7141
  18   2.0000      -0.411546       -11.1987
  19   2.0000      -0.379896       -10.3375
  20   2.0000      -0.375177       -10.2091
  21   2.0000      -0.364123        -9.9083
  22   2.0000      -0.351939        -9.5768
  23   2.0000      -0.300879        -8.1873
  24   0.0000      -0.030241        -0.8229
  25   0.0000       0.020741         0.5644
  26   0.0000       0.051586         1.4037
  27   0.0000       0.056578         1.5396
  28   0.0000       0.063685         1.7330

MULLIKEN ATOMIC CHARGES
-----------------------
   0 C :    0.532606
   1 C :   -0.510442
   2 C :   -0.014481
   3 H :    0.072758
   4 H :    0.063835
   5 C :    0.898123
   6 H :    0.029929
   7 H :   -0.089554
   8 F :   -0.384808
   9 O :   -0.587410
  10 H :    0.013364
  11 H :    0.045010
  12 H :   -0.068927
Sum of atomic charges:    0.0000000

LOEWDIN ATOMIC CHARGES
----------------------
   0 C :    0.126774
   1 C :   -0.065447
   2 C :    0.040505
   3 H :    0.022667
   4 H :    0.039620
   5 C :   -0.001354
   6 H :    0.022807
   7 H :    0.026572
   8 F :   -0.009445
   9 O :   -0.155377
  10 H :   -0.007442
  11 H :   -0.023359
  12 H :   -0.016522

  Mayer bond orders larger than 0.100000
B(  0-C ,  1-C ) :   1.3287 B(  0-C , 10-H ) :   0.8245 B(  0-C , 11-H ) :   0.8348
B(  0-C , 12-H ) :   0.8310 B(  1-C ,  2-C ) :   1.1975 B(  1-C ,  3-H ) :   0.1237
B(  1-C ,  4-H ) :   0.1258 B(  1-C ,  6-H ) :   0.9302 B(  1-C ,  7-H ) :   1.0081
B(  1-C , 10-H ) :   0.1759 B(  1-C , 11-H ) :   0.1781 B(  1-C , 12-H ) :   0.1784
B(  2-C ,  3-H ) :   0.8684 B(  2-C ,  4-H ) :   0.9171 B(  2-C ,  5-C ) :   1.0466
B(  5-C ,  8-F ) :   0.6663 B(  5-C ,  9-O ) :   1.6906 B(  8-F ,  9-O ) :   0.1009

Dispersion correction           -0.008087487
FINAL SINGLE POINT ENERGY      -331.111608045910

DIPOLE MOMENT
-------------
                                X             Y             Z
Electronic contribution:      6.06829      -4.36363       7.57662
Nuclear contribution   :     -7.06456       3.75953      -7.86734
                        -----------------------------------------
Total Dipole Moment    :     -0.99627      -0.60410      -0.29071
                        -----------------------------------------
Magnitude (a.u.)       :      1.20083
Magnitude (Debye)      :      3.05227

Rotational constants in cm-1:     0.185871     0.085512     0.073500
Rotational constants in MHz :  5572.269993  2563.593529  2203.466497

                             ****ORCA TERMINATED NORMALLY****
TOTAL RUN TIME: 0 days 0 hours 0 minutes 16 seconds 727 msec
