                         Program Version 5.0.0 -  RELEASE  -
|  1> !PBE0 D3BJ RIJCOSX def2-SVPD def2/J TightSCF
|  2> *xyz 0 1
|  3> C          3.34350        3.35457       -3.59200
|  4> C          2.95263        1.86308       -3.57485
|  5> C          4.12921        0.89839       -3.41895
|  6> C          4.25587        3.70385       -4.72605
|  7> C          3.73403        4.29378       -5.80077
|  8> N          5.51504        3.40725       -4.63718
|  9> H          6.14919        3.60120       -5.39905
| 10> H          5.81358        2.89950       -3.80879
| 11> H          2.74138        4.51311       -5.82470
| 12> H          4.28755        4.52126       -6.61434
| 13> H          2.27894        1.73525       -2.72550
| 14> H          2.37747        1.62579       -4.47587
| 15> H          3.86125        3.59725       -2.66298
| 16> H          2.44649        3.97346       -3.65656
| 17> H          4.79753        1.01430       -4.24649
| 18> H          3.76482       -0.10731       -3.39293
| 19> H          4.64840        1.11330       -2.50837
| 20> *
| 21> %MaxCore 64000
| 22>
| 23> %pal nprocs 4
| 24> end
| 25>
| 26> %scf
| 27>   MaxIter 150
| 28> end
| 29>
| 30>
| 31>                          ****END OF INPUT****

CARTESIAN COORDINATES (ANGSTROEM)
---------------------------------
  C      3.343500    3.354570   -3.592000
  C      2.952630    1.863080   -3.574850
  C      4.129210    0.898390   -3.418950
  C      4.255870    3.703850   -4.726050
  C      3.734030    4.293780   -5.800770
  N      5.515040    3.407250   -4.637180
  H      6.149190    3.601200   -5.399050
  H      5.813580    2.899500   -3.808790
  H      2.741380    4.513110   -5.824700
  H      4.287550    4.521260   -6.614340
  H      2.278940    1.735250   -2.725500
  H      2.377470    1.625790   -4.475870
  H      3.861250    3.597250   -2.662980
  H      2.446490    3.973460   -3.656560
  H      4.797530    1.014300   -4.246490
  H      3.764820   -0.107310   -3.392930
  H      4.648400    1.113300   -2.508370

 Total Charge           Charge          ....    0
 Multiplicity           Mult            ....    1
 Number of Electrons    NEL             ....   48
 Basis Dimension        Dim             ....  208

ORBITAL ENERGIES
----------------

  NO   OCC          E(Eh)            E(eV)
   0   2.0000     -14.399297      -391.8248
   1   2.0000     -10.251691      -278.9627
   2   2.0000     -10.231200      -278.4051
   3   2.0000     -10.230963      -278.3987
   4   2.0000     -10.218235      -278.0523
   5   2.0000     -10.163521      -276.5635
   6   2.0000      -0.956426       -26.0257
   7   2.0000      -0.810048       -22.0425
   8   2.0000      -0.751568       -20.4512
   9   2.0000      -0.694842       -18.9076
  10   2.0000      -0.622272       -16.9329
  11   2.0000      -0.580616       -15.7994
  12   2.0000      -0.543730       -14.7956
  13   2.0000      -0.499471       -13.5913
  14   2.0000      -0.464816       -12.6483
  15   2.0000      -0.447784       -12.1848
  16   2.0000      -0.425092       -11.5673
  17   2.0000      -0.404495       -11.0069
  18   2.0000      -0.386406       -10.5147
  19   2.0000      -0.374047       -10.1783
  20   2.0000      -0.352830        -9.6010
  21   2.0000      -0.339101        -9.2274
  22   2.0000      -0.334300        -9.0968
  23   2.0000      -0.197048        -5.3619
  24   0.0000       0.022917         0.6236
  25   0.0000       0.045028         1.2253
  26   0.0000       0.054715         1.4889
  27   0.0000       0.057112         1.5541
  28   0.0000       0.074648         2.0313

MULLIKEN ATOMIC CHARGES
-----------------------
   0 C :    0.138167
   1 C :   -0.395227
   2 C :    0.547785
   3 C :    0.004920
   4 C :    0.363867
   5 N :    0.083354
   6 H :   -0.183423
   7 H :   -0.042615
   8 H :   -0.083414
   9 H :   -0.426208
  10 H :    0.012051
  11 H :   -0.044780
  12 H :    0.013297
  13 H :    0.081931
  14 H :    0.009335
  15 H :   -0.113864
  16 H :    0.034824
Sum of atomic charges:   -0.0000000

LOEWDIN ATOMIC CHARGES
----------------------
   0 C :    0.001674
   1 C :   -0.060633
   2 C :    0.110038
   3 C :   -0.263976
   4 C :    0.174714
   5 N :    0.170292
   6 H :    0.018477
   7 H :   -0.000323
   8 H :   -0.083274
   9 H :   -0.089866
  10 H :    0.017196
  11 H :    0.025981
  12 H :    0.022985
  13 H :    0.025163
  14 H :   -0.034052
  15 H :   -0.017767
  16 H :   -0.016628

  Mayer bond orders larger than 0.100000
B(  0-C ,  1-C ) :   1.1717 B(  0-C ,  3-C ) :   1.1406 B(  0-C ,  4-C ) :   0.1312
B(  0-C ,  5-N ) :   0.1215 B(  0-C , 11-H ) :   0.1154 B(  0-C , 12-H ) :   0.7867
B(  0-C , 13-H ) :   0.8717 B(  1-C ,  2-C ) :   1.3082 B(  1-C , 10-H ) :   0.9130
B(  1-C , 11-H ) :   1.0177 B(  1-C , 12-H ) :   0.1230 B(  1-C , 13-H ) :   0.1053
B(  1-C , 14-H ) :   0.1776 B(  1-C , 15-H ) :   0.1913 B(  1-C , 16-H ) :   0.1854
B(  2-C , 14-H ) :   0.8510 B(  2-C , 15-H ) :   0.8470 B(  2-C , 16-H ) :   0.8026
B(  3-C ,  4-C ) :   1.7237 B(  3-C ,  5-N ) :   1.0564 B(  3-C ,  6-H ) :  -0.1312
B(  3-C ,  9-H ) :   0.1670 B(  3-C , 12-H ) :   0.1494 B(  3-C , 13-H ) :   0.1180
B(  4-C ,  5-N ) :   0.2805 B(  4-C ,  8-H ) :   0.9667 B(  4-C ,  9-H ) :   0.7451
B(  5-N ,  6-H ) :   1.3380 B(  5-N ,  7-H ) :   1.0139 B(  6-H ,  7-H ) :  -0.1692

Dispersion correction           -0.012106737
FINAL SINGLE POINT ENERGY      -251.411925883770

DIPOLE MOMENT
-------------
                                X             Y             Z
Electronic contribution:      1.44558       2.65774      -1.21980
Nuclear contribution   :     -0.93682      -3.08083       1.62582
                        -----------------------------------------
Total Dipole Moment    :      0.50877      -0.42309       0.40601
                        -----------------------------------------
Magnitude (a.u.)       :      0.77633
Magnitude (Debye)      :      1.97328

Rotational constants in cm-1:     0.191400     0.084268     0.068511
Rotational constants in MHz :  5738.038424  2526.291061  2053.912421

                             ****ORCA TERMINATED NORMALLY****
TOTAL RUN TIME: 0 days 0 hours 0 minutes 22 seconds 682 msec
