                         Program Version 5.0.0 -  RELEASE  -
|  1> !PBE0 D3BJ RIJCOSX def2-SVPD def2/J TightSCF
|  2> *xyz 0 1
|  3> C          3.34350        3.35457       -3.59200
|  4> C          2.95263        1.86308       -3.57485
|  5> C          4.12921        0.89839       -3.41895
|  6> H          3.73369       -0.10060       -3.23763
|  7> H          4.71910        0.86256       -4.33901
|  8> C          5.01734        1.31521       -2.22130
|  9> H          2.27894        1.73525       -2.72550
| 10> H          2.37747        1.62579       -4.47587
| 11> O          4.73706        0.85411       -1.12283
| 12> F          5.92815        2.16811       -2.49136
| 13> H          4.00801        3.53975       -4.40994
| 14> H          3.83025        3.60631       -2.67298
| 15> H          2.46347        3.95263       -3.70497
| 16> *
| 17> %MaxCore 64000
| 18>
| 19> %pal nprocs 4
| 20> end
| 21>
| 22> %scf
| 23>   MaxIter 150
| 24> end
| 25>
| 26>
| 27>                          ****END OF INPUT****

CARTESIAN COORDINATES (ANGSTROEM)
---------------------------------
  C      3.343500    3.354570   -3.592000
  C      2.952630    1.863080   -3.574850
  C      4.129210    0.898390   -3.418950
  H      3.733690   -0.100600   -3.237630
  H      4.719100    0.862560   -4.339010
  C      5.017340    1.315210   -2.221300
  H      2.278940    1.735250   -2.725500
  H      2.377470    1.625790   -4.475870
  O      4.737060    0.854110   -1.122830
  F      5.928150    2.168110   -2.491360
  H      4.008010    3.539750   -4.409940
  H      3.830250    3.606310   -2.672980
  H      2.463470    3.952630   -3.704970

 Total Charge           Charge          ....    0
 Multiplicity           Mult            ....    1
 Number of Electrons    NEL             ....   48
 Basis Dimension        Dim             ....  182

ORBITAL ENERGIES
----------------

  NO   OCC          E(Eh)            E(eV)
   0   2.0000     -24.848883      -676.1725
   1   2.0000     -19.233060      -523.3582
   2   2.0000     -10.414003      -283.3794
   3   2.0000     -10.262887      -279.2674
   4   2.0000     -10.252902      -278.9956
   5   2.0000     -10.229543      -278.3600
   6   2.0000      -1.324759       -36.0485
   7   2.0000      -1.075812       -29.2743
   8   2.0000      -0.832947       -22.6657
   9   2.0000      -0.742414       -20.2021
  10   2.0000      -0.677268       -18.4294
  11   2.0000      -0.628170       -17.0934
  12   2.0000      -0.564433       -15.3590
  13   2.0000      -0.546915       -14.8823
  14   2.0000      -0.525962       -14.3121
  15   2.0000      -0.480354       -13.0711
  16   2.0000      -0.470520       -12.8035
  17   2.0000      -0.434073       -11.8117
  18   2.0000      -0.426361       -11.6019
  19   2.0000      -0.401002       -10.9118
  20   2.0000      -0.374065       -10.1788
  21   2.0000      -0.367632       -10.0038
  22   2.0000      -0.360544        -9.8109
  23   2.0000      -0.312475        -8.5029
  24   0.0000      -0.024288        -0.6609
  25   0.0000       0.022721         0.6183
  26   0.0000       0.050622         1.3775
  27   0.0000       0.054192         1.4746
  28   0.0000       0.067458         1.8356

MULLIKEN ATOMIC CHARGES
-----------------------
   0 C :    0.513993
   1 C :   -0.481055
   2 C :   -0.027184
   3 H :    0.070264
   4 H :    0.072111
   5 C :    0.904839
   6 H :    0.049355
   7 H :   -0.092190
   8 O :   -0.532721
   9 F :   -0.438794
  10 H :    0.001893
  11 H :    0.022393
  12 H :   -0.062905
Sum of atomic charges:    0.0000000

LOEWDIN ATOMIC CHARGES
----------------------
   0 C :    0.125092
   1 C :   -0.063084
   2 C :    0.041716
   3 H :    0.033152
   4 H :    0.030016
   5 C :   -0.004242
   6 H :    0.028889
   7 H :    0.026240
   8 O :   -0.116849
   9 F :   -0.054135
  10 H :   -0.011385
  11 H :   -0.020984
  12 H :   -0.014425

  Mayer bond orders larger than 0.100000
B(  0-C ,  1-C ) :   1.3327 B(  0-C , 10-H ) :   0.8221 B(  0-C , 11-H ) :   0.8415
B(  0-C , 12-H ) :   0.8354 B(  1-C ,  2-C ) :   1.2123 B(  1-C ,  3-H ) :   0.1196
B(  1-C ,  4-H ) :   0.1240 B(  1-C ,  6-H ) :   0.9302 B(  1-C ,  7-H ) :   1.0113
B(  1-C , 10-H ) :   0.1713 B(  1-C , 11-H ) :   0.1753 B(  1-C , 12-H ) :   0.1774
B(  2-C ,  3-H ) :   0.8808 B(  2-C ,  4-H ) :   0.9062 B(  2-C ,  5-C ) :   1.0294
B(  2-C ,  6-H ) :   0.1004 B(  3-H ,  5-C ) :   0.1039 B(  5-C ,  8-O ) :   1.7303
B(  5-C ,  9-F ) :   0.6009 B(  8-O ,  9-F ) :   0.1087

Dispersion correction           -0.008050267
FINAL SINGLE POINT ENERGY      -331.128246451101

DIPOLE MOMENT
-------------
                                X             Y             Z
Electronic contribution:      8.05389      -2.12743       5.23431
Nuclear contribution   :     -8.40998       2.27527      -6.32148
                        -----------------------------------------
Total Dipole Moment    :     -0.35609       0.14784      -1.08718
                        -----------------------------------------
Magnitude (a.u.)       :      1.15352
Magnitude (Debye)      :      2.93201

Rotational constants in cm-1:     0.181105     0.088112     0.073966
Rotational constants in MHz :  5429.384816  2641.525058  2217.445966

                             ****ORCA TERMINATED NORMALLY****
TOTAL RUN TIME: 0 days 0 hours 0 minutes 17 seconds 72 msec
