                         Program Version 5.0.0 -  RELEASE  -
|  1> !PBE0 D3BJ RIJCOSX def2-SVPD def2/J TightSCF
|  2> *xyz 0 1
|  3> C          3.34350        3.35457       -3.59200
|  4> C          2.95263        1.86308       -3.57485
|  5> C          4.12921        0.89839       -3.41895
|  6> C          4.25587        3.70385       -4.72605
|  7> N          3.73403        4.29378       -5.80077
|  8> C          5.51504        3.40725       -4.63718
|  9> H          6.14919        3.60120       -5.39905
| 10> H          5.81358        2.89950       -3.80879
| 11> H          2.74138        4.51311       -5.82470
| 12> H          4.28755        4.52126       -6.61434
| 13> H          2.27894        1.73525       -2.72550
| 14> H          2.37747        1.62579       -4.47587
| 15> H          3.86125        3.59725       -2.66298
| 16> H          2.44649        3.97346       -3.65656
| 17> H          4.79753        1.01430       -4.24649
| 18> H          3.76482       -0.10731       -3.39293
| 19> H          4.64840        1.11330       -2.50837
| 20> *
| 21> %MaxCore 64000
| 22>
| 23> %pal nprocs 4
| 24> end
| 25>
| 26> %scf
| 27>   MaxIter 150
| 28> end
| 29>
| 30>
| 31>                          ****END OF INPUT****

CARTESIAN COORDINATES (ANGSTROEM)
---------------------------------
  C      3.343500    3.354570   -3.592000
  C      2.952630    1.863080   -3.574850
  C      4.129210    0.898390   -3.418950
  C      4.255870    3.703850   -4.726050
  N      3.734030    4.293780   -5.800770
  C      5.515040    3.407250   -4.637180
  H      6.149190    3.601200   -5.399050
  H      5.813580    2.899500   -3.808790
  H      2.741380    4.513110   -5.824700
  H      4.287550    4.521260   -6.614340
  H      2.278940    1.735250   -2.725500
  H      2.377470    1.625790   -4.475870
  H      3.861250    3.597250   -2.662980
  H      2.446490    3.973460   -3.656560
  H      4.797530    1.014300   -4.246490
  H      3.764820   -0.107310   -3.392930
  H      4.648400    1.113300   -2.508370

 Total Charge           Charge          ....    0
 Multiplicity           Mult            ....    1
 Number of Electrons    NEL             ....   48
 Basis Dimension        Dim             ....  208

ORBITAL ENERGIES
----------------

  NO   OCC          E(Eh)            E(eV)
   0   2.0000     -14.396152      -391.7392
   1   2.0000     -10.249072      -278.8914
   2   2.0000     -10.230443      -278.3845
   3   2.0000     -10.229098      -278.3479
   4   2.0000     -10.206400      -277.7303
   5   2.0000     -10.162358      -276.5318
   6   2.0000      -0.941259       -25.6130
   7   2.0000      -0.810907       -22.0659
   8   2.0000      -0.747738       -20.3470
   9   2.0000      -0.701109       -19.0781
  10   2.0000      -0.611469       -16.6389
  11   2.0000      -0.578502       -15.7419
  12   2.0000      -0.534668       -14.5491
  13   2.0000      -0.494270       -13.4498
  14   2.0000      -0.465714       -12.6727
  15   2.0000      -0.448277       -12.1982
  16   2.0000      -0.407189       -11.0802
  17   2.0000      -0.406694       -11.0667
  18   2.0000      -0.387482       -10.5439
  19   2.0000      -0.371924       -10.1206
  20   2.0000      -0.346573        -9.4307
  21   2.0000      -0.335112        -9.1189
  22   2.0000      -0.330208        -8.9854
  23   2.0000      -0.202472        -5.5095
  24   0.0000       0.023674         0.6442
  25   0.0000       0.045781         1.2458
  26   0.0000       0.053624         1.4592
  27   0.0000       0.059887         1.6296
  28   0.0000       0.075867         2.0645

MULLIKEN ATOMIC CHARGES
-----------------------
   0 C :    0.110048
   1 C :   -0.384303
   2 C :    0.501715
   3 C :    0.182227
   4 N :   -0.091678
   5 C :    0.325327
   6 H :   -0.548845
   7 H :    0.140255
   8 H :   -0.075396
   9 H :   -0.156152
  10 H :    0.008222
  11 H :   -0.043964
  12 H :    0.132994
  13 H :   -0.070664
  14 H :    0.063352
  15 H :   -0.150229
  16 H :    0.057091
Sum of atomic charges:    0.0000000

LOEWDIN ATOMIC CHARGES
----------------------
   0 C :    0.001641
   1 C :   -0.062342
   2 C :    0.112966
   3 C :   -0.249209
   4 N :    0.164644
   5 C :    0.163060
   6 H :   -0.075820
   7 H :   -0.074667
   8 H :   -0.001803
   9 H :    0.003867
  10 H :    0.016826
  11 H :    0.022110
  12 H :    0.029792
  13 H :    0.014685
  14 H :   -0.033508
  15 H :   -0.019847
  16 H :   -0.012396

  Mayer bond orders larger than 0.100000
B(  0-C ,  1-C ) :   1.1883 B(  0-C ,  3-C ) :   1.0049 B(  0-C ,  4-N ) :   0.1273
B(  0-C ,  5-C ) :   0.1861 B(  0-C , 10-H ) :   0.1072 B(  0-C , 11-H ) :   0.1105
B(  0-C , 12-H ) :   0.8182 B(  0-C , 13-H ) :   0.8824 B(  1-C ,  2-C ) :   1.3228
B(  1-C , 10-H ) :   0.8873 B(  1-C , 11-H ) :   0.9970 B(  1-C , 12-H ) :   0.1237
B(  1-C , 13-H ) :   0.1145 B(  1-C , 14-H ) :   0.1772 B(  1-C , 15-H ) :   0.1995
B(  1-C , 16-H ) :   0.1795 B(  2-C , 14-H ) :   0.8379 B(  2-C , 15-H ) :   0.8764
B(  2-C , 16-H ) :   0.8037 B(  3-C ,  4-N ) :   0.9791 B(  3-C ,  5-C ) :   1.8554
B(  3-C ,  6-H ) :   0.1969 B(  3-C ,  7-H ) :   0.2110 B(  3-C ,  9-H ) :  -0.1225
B(  3-C , 13-H ) :   0.1033 B(  4-N ,  5-C ) :   0.2497 B(  4-N ,  8-H ) :   1.1459
B(  4-N ,  9-H ) :   1.3019 B(  5-C ,  6-H ) :   0.8594 B(  5-C ,  7-H ) :   0.6888
B(  6-H ,  7-H ) :  -0.1274 B(  8-H ,  9-H ) :  -0.1582

Dispersion correction           -0.012152934
FINAL SINGLE POINT ENERGY      -251.411243687361

DIPOLE MOMENT
-------------
                                X             Y             Z
Electronic contribution:     -0.07494       3.47827      -2.24076
Nuclear contribution   :     -0.51555      -3.29052       1.90104
                        -----------------------------------------
Total Dipole Moment    :     -0.59049       0.18775      -0.33972
                        -----------------------------------------
Magnitude (a.u.)       :      0.70664
Magnitude (Debye)      :      1.79613

Rotational constants in cm-1:     0.197086     0.081749     0.067746
Rotational constants in MHz :  5908.486274  2450.769911  2030.963952

                             ****ORCA TERMINATED NORMALLY****
TOTAL RUN TIME: 0 days 0 hours 0 minutes 22 seconds 547 msec
