                         Program Version 5.0.0 -  RELEASE  -
|  1> !PBE0 D3BJ RIJCOSX def2-SVPD def2/J TightSCF xyzfile
|  2>
|  3> *xyzfile 0 1 D1.xyz
|  4>
|  5> %MaxCore 64000
|  6>
|  7> %pal nprocs 4
|  8> end
|  9>
| 10> %scf
| 11>   MaxIter 150
| 12> end
| 13>
| 14>
| 15>                          ****END OF INPUT****

CARTESIAN COORDINATES (ANGSTROEM)
---------------------------------
  C      3.343500    3.354571   -3.591998
  C      2.952633    1.863077   -3.574849
  C      4.129209    0.898394   -3.418950
  H      3.733687   -0.100605   -3.237633
  H      4.719095    0.862556   -4.339005
  C      5.017344    1.315212   -2.221305
  C      4.255868    3.703851   -4.726054
  C      3.734032    4.293783   -5.800770
  N      5.515039    3.407255   -4.637185
  H      6.149187    3.601203   -5.399053
  H      5.813584    2.899504   -3.808785
  H      2.741380    4.513109   -5.824701
  H      4.287548    4.521260   -6.614341
  H      2.278938    1.735250   -2.725496
  H      2.377466    1.625787   -4.475869
  F      4.737055    0.854112   -1.122825
  O      5.928146    2.168108   -2.491365
  H      3.861246    3.597252   -2.662979
  H      2.446493    3.973461   -3.656556

 Total Charge           Charge          ....    0
 Multiplicity           Mult            ....    1
 Number of Electrons    NEL             ....   70
 Basis Dimension        Dim             ....  266

ORBITAL ENERGIES
----------------

  NO   OCC          E(Eh)            E(eV)
   0   2.0000     -24.893310      -677.3814
   1   2.0000     -19.252712      -523.8929
   2   2.0000     -14.362691      -390.8287
   3   2.0000     -10.447123      -284.2807
   4   2.0000     -10.274987      -279.5966
   5   2.0000     -10.258419      -279.1458
   6   2.0000     -10.242815      -278.7212
   7   2.0000     -10.235851      -278.5317
   8   2.0000     -10.154119      -276.3076
   9   2.0000      -1.388086       -37.7717
  10   2.0000      -1.080776       -29.4094
  11   2.0000      -0.935347       -25.4521
  12   2.0000      -0.842282       -22.9196
  13   2.0000      -0.768971       -20.9248
  14   2.0000      -0.730357       -19.8740
  15   2.0000      -0.698713       -19.0129
  16   2.0000      -0.648728       -17.6528
  17   2.0000      -0.607689       -16.5361
  18   2.0000      -0.596937       -16.2435
  19   2.0000      -0.566967       -15.4280
  20   2.0000      -0.563112       -15.3230
  21   2.0000      -0.522783       -14.2256
  22   2.0000      -0.500377       -13.6160
  23   2.0000      -0.475370       -12.9355
  24   2.0000      -0.460211       -12.5230
  25   2.0000      -0.448630       -12.2078
  26   2.0000      -0.409649       -11.1471
  27   2.0000      -0.399887       -10.8815
  28   2.0000      -0.390859       -10.6358
  29   2.0000      -0.387200       -10.5363
  30   2.0000      -0.372424       -10.1342
  31   2.0000      -0.342654        -9.3241
  32   2.0000      -0.337158        -9.1745
  33   2.0000      -0.321268        -8.7421
  34   2.0000      -0.184276        -5.0144
  35   0.0000      -0.055636        -1.5139
  36   0.0000       0.014295         0.3890
  37   0.0000       0.042096         1.1455
  38   0.0000       0.048089         1.3086
  39   0.0000       0.053952         1.4681

MULLIKEN ATOMIC CHARGES
-----------------------
   0 C :    0.237944
   1 C :   -0.112938
   2 C :   -0.027418
   3 H :   -0.075033
   4 H :    0.203772
   5 C :    0.976636
   6 C :    0.014425
   7 C :    0.256874
   8 N :    0.435648
   9 H :   -0.223927
  10 H :   -0.353330
  11 H :   -0.091216
  12 H :   -0.366719
  13 H :    0.098030
  14 H :   -0.083588
  15 F :   -0.412483
  16 O :   -0.601181
  17 H :    0.112802
  18 H :    0.011701
Sum of atomic charges:   -0.0000000

LOEWDIN ATOMIC CHARGES
----------------------
   0 C :    0.018468
   1 C :   -0.002133
   2 C :    0.059595
   3 H :    0.025658
   4 H :    0.037393
   5 C :    0.060184
   6 C :   -0.248393
   7 C :    0.165970
   8 N :    0.196419
   9 H :    0.017958
  10 H :   -0.140738
  11 H :   -0.089951
  12 H :   -0.091438
  13 H :    0.024994
  14 H :    0.035856
  15 F :    0.011307
  16 O :   -0.129861
  17 H :    0.020016
  18 H :    0.028697

  Mayer bond orders larger than 0.100000
B(  0-C ,  1-C ) :   1.1933 B(  0-C ,  6-C ) :   1.1450 B(  0-C ,  8-N ) :   0.1143
B(  0-C , 14-H ) :   0.1399 B(  0-C , 17-H ) :   0.6901 B(  0-C , 18-H ) :   0.8699
B(  1-C ,  2-C ) :   1.2941 B(  1-C ,  3-H ) :   0.1724 B(  1-C ,  4-H ) :   0.1362
B(  1-C , 13-H ) :   0.8469 B(  1-C , 14-H ) :   0.9894 B(  1-C , 17-H ) :   0.1289
B(  1-C , 18-H ) :   0.1428 B(  2-C ,  3-H ) :   0.8751 B(  2-C ,  4-H ) :   0.8361
B(  2-C ,  5-C ) :   1.0891 B(  2-C , 13-H ) :   0.1103 B(  2-C , 15-F ) :   0.1077
B(  5-C , 15-F ) :   0.6391 B(  5-C , 16-O ) :   1.5120 B(  6-C ,  7-C ) :   1.6792
B(  6-C ,  8-N ) :   1.0538 B(  6-C ,  9-H ) :  -0.1362 B(  6-C , 12-H ) :   0.1739
B(  6-C , 17-H ) :   0.1705 B(  6-C , 18-H ) :   0.1176 B(  7-C ,  8-N ) :   0.2126
B(  7-C , 11-H ) :   0.9759 B(  7-C , 12-H ) :   0.7353 B(  8-N ,  9-H ) :   1.2766
B(  8-N , 10-H ) :   0.9897 B(  8-N , 16-O ) :  -0.1073 B(  9-H , 10-H ) :  -0.2240
B( 10-H , 16-O ) :   0.1650

Dispersion correction           -0.016203848
FINAL SINGLE POINT ENERGY      -463.613549154635

DIPOLE MOMENT
-------------
                                X             Y             Z
Electronic contribution:      5.53419      -5.94916      10.54164
Nuclear contribution   :     -5.86483       4.68058     -10.07545
                        -----------------------------------------
Total Dipole Moment    :     -0.33065      -1.26858       0.46619
                        -----------------------------------------
Magnitude (a.u.)       :      1.39138
Magnitude (Debye)      :      3.53662

Rotational constants in cm-1:     0.107256     0.035474     0.030113
Rotational constants in MHz :  3215.453922  1063.481574   902.777619

                             ****ORCA TERMINATED NORMALLY****
TOTAL RUN TIME: 0 days 0 hours 1 minutes 0 seconds 951 msec
