                         Program Version 5.0.0 -  RELEASE  -
|  1> !PBE0 D3BJ RIJCOSX def2-SVPD def2/J TightSCF xyzfile
|  2>
|  3> *xyzfile 0 1 D3.xyz
|  4>
|  5> %MaxCore 64000
|  6>
|  7> %pal nprocs 4
|  8> end
|  9>
| 10> %scf
| 11>   MaxIter 150
| 12> end
| 13>
| 14>
| 15>                          ****END OF INPUT****

CARTESIAN COORDINATES (ANGSTROEM)
---------------------------------
  C      3.343500    3.354571   -3.591998
  C      2.952633    1.863077   -3.574849
  C      4.129209    0.898394   -3.418950
  H      3.733687   -0.100605   -3.237633
  H      4.719095    0.862556   -4.339005
  C      5.017344    1.315212   -2.221305
  C      4.255868    3.703851   -4.726054
  C      3.734032    4.293783   -5.800770
  N      5.515039    3.407255   -4.637185
  H      6.149187    3.601203   -5.399053
  H      5.813584    2.899504   -3.808785
  H      2.741380    4.513109   -5.824701
  H      4.287548    4.521260   -6.614341
  H      2.278938    1.735250   -2.725496
  H      2.377466    1.625787   -4.475869
  O      4.737055    0.854112   -1.122825
  F      5.928146    2.168108   -2.491365
  H      3.861246    3.597252   -2.662979
  H      2.446493    3.973461   -3.656556

 Total Charge           Charge          ....    0
 Multiplicity           Mult            ....    1
 Number of Electrons    NEL             ....   70
 Basis Dimension        Dim             ....  266

ORBITAL ENERGIES
----------------

  NO   OCC          E(Eh)            E(eV)
   0   2.0000     -24.881816      -677.0686
   1   2.0000     -19.250254      -523.8260
   2   2.0000     -14.390187      -391.5769
   3   2.0000     -10.431889      -283.8661
   4   2.0000     -10.270970      -279.4873
   5   2.0000     -10.257260      -279.1142
   6   2.0000     -10.256630      -279.0971
   7   2.0000     -10.244837      -278.7762
   8   2.0000     -10.167861      -276.6816
   9   2.0000      -1.362489       -37.0752
  10   2.0000      -1.092793       -29.7364
  11   2.0000      -0.957782       -26.0626
  12   2.0000      -0.842445       -22.9241
  13   2.0000      -0.775043       -21.0900
  14   2.0000      -0.737636       -20.0721
  15   2.0000      -0.699201       -19.0262
  16   2.0000      -0.657517       -17.8919
  17   2.0000      -0.606357       -16.4998
  18   2.0000      -0.592363       -16.1190
  19   2.0000      -0.571674       -15.5560
  20   2.0000      -0.544429       -14.8147
  21   2.0000      -0.525425       -14.2975
  22   2.0000      -0.501679       -13.6514
  23   2.0000      -0.485480       -13.2106
  24   2.0000      -0.464999       -12.6533
  25   2.0000      -0.444008       -12.0821
  26   2.0000      -0.417781       -11.3684
  27   2.0000      -0.412105       -11.2139
  28   2.0000      -0.401075       -10.9138
  29   2.0000      -0.394120       -10.7246
  30   2.0000      -0.375129       -10.2078
  31   2.0000      -0.351251        -9.5580
  32   2.0000      -0.348690        -9.4883
  33   2.0000      -0.326027        -8.8717
  34   2.0000      -0.200479        -5.4553
  35   0.0000      -0.040811        -1.1105
  36   0.0000       0.018213         0.4956
  37   0.0000       0.036638         0.9970
  38   0.0000       0.046834         1.2744
  39   0.0000       0.049239         1.3399

MULLIKEN ATOMIC CHARGES
-----------------------
   0 C :    0.188466
   1 C :   -0.086751
   2 C :   -0.019040
   3 H :   -0.087495
   4 H :    0.221366
   5 C :    0.907537
   6 C :    0.066045
   7 C :    0.260764
   8 N :    0.414001
   9 H :   -0.219622
  10 H :   -0.288570
  11 H :   -0.080819
  12 H :   -0.371066
  13 H :    0.113479
  14 H :   -0.082531
  15 O :   -0.512412
  16 F :   -0.524308
  17 H :    0.087962
  18 H :    0.012993
Sum of atomic charges:    0.0000000

LOEWDIN ATOMIC CHARGES
----------------------
   0 C :    0.018567
   1 C :   -0.000435
   2 C :    0.055279
   3 H :    0.034575
   4 H :    0.026600
   5 C :    0.022842
   6 C :   -0.249172
   7 C :    0.174552
   8 N :    0.194993
   9 H :    0.021789
  10 H :   -0.095567
  11 H :   -0.084017
  12 H :   -0.088048
  13 H :    0.031087
  14 H :    0.034706
  15 O :   -0.096519
  16 F :   -0.054417
  17 H :    0.022594
  18 H :    0.030591

  Mayer bond orders larger than 0.100000
B(  0-C ,  1-C ) :   1.2077 B(  0-C ,  6-C ) :   1.1433 B(  0-C ,  8-N ) :   0.1200
B(  0-C , 14-H ) :   0.1472 B(  0-C , 17-H ) :   0.7051 B(  0-C , 18-H ) :   0.8717
B(  1-C ,  2-C ) :   1.3007 B(  1-C ,  3-H ) :   0.1625 B(  1-C ,  4-H ) :   0.1323
B(  1-C , 13-H ) :   0.8522 B(  1-C , 14-H ) :   0.9796 B(  1-C , 17-H ) :   0.1320
B(  1-C , 18-H ) :   0.1395 B(  2-C ,  3-H ) :   0.8898 B(  2-C ,  4-H ) :   0.8146
B(  2-C ,  5-C ) :   1.0703 B(  2-C , 13-H ) :   0.1152 B(  2-C , 16-F ) :   0.1520
B(  3-H ,  5-C ) :   0.1240 B(  5-C , 15-O ) :   1.7260 B(  5-C , 16-F ) :   0.5089
B(  6-C ,  7-C ) :   1.6732 B(  6-C ,  8-N ) :   1.0335 B(  6-C ,  9-H ) :  -0.1475
B(  6-C , 12-H ) :   0.1687 B(  6-C , 17-H ) :   0.1479 B(  6-C , 18-H ) :   0.1261
B(  7-C ,  8-N ) :   0.2188 B(  7-C , 11-H ) :   0.9831 B(  7-C , 12-H ) :   0.7308
B(  8-N ,  9-H ) :   1.2943 B(  8-N , 10-H ) :   1.0065 B(  9-H , 10-H ) :  -0.2223
B( 15-O , 16-F ) :   0.1179

Dispersion correction           -0.016062711
FINAL SINGLE POINT ENERGY      -463.618697809668

DIPOLE MOMENT
-------------
                                X             Y             Z
Electronic contribution:      7.45134      -3.57634       8.03094
Nuclear contribution   :     -7.21688       3.18902      -8.52197
                        -----------------------------------------
Total Dipole Moment    :      0.23446      -0.38732      -0.49103
                        -----------------------------------------
Magnitude (a.u.)       :      0.66791
Magnitude (Debye)      :      1.69769

Rotational constants in cm-1:     0.103917     0.036987     0.030872
Rotational constants in MHz :  3115.342573  1108.839114   925.506342

                             ****ORCA TERMINATED NORMALLY****
TOTAL RUN TIME: 0 days 0 hours 0 minutes 50 seconds 26 msec
