                         Program Version 5.0.0 -  RELEASE  -
|  1> !PBE0 D3BJ RIJCOSX def2-SVPD def2/J TightSCF xyzfile
|  2>
|  3> *xyzfile 0 1 D4.xyz
|  4>
|  5> %MaxCore 64000
|  6>
|  7> %pal nprocs 4
|  8> end
|  9>
| 10> %scf
| 11>   MaxIter 150
| 12> end
| 13>
| 14>
| 15>                          ****END OF INPUT****

CARTESIAN COORDINATES (ANGSTROEM)
---------------------------------
  C      3.343500    3.354571   -3.591998
  C      2.952633    1.863077   -3.574849
  C      4.129209    0.898394   -3.418950
  H      3.733687   -0.100605   -3.237633
  H      4.719095    0.862556   -4.339005
  C      5.017344    1.315212   -2.221305
  C      4.255868    3.703851   -4.726054
  N      3.734032    4.293783   -5.800770
  C      5.515039    3.407255   -4.637185
  H      6.149187    3.601203   -5.399053
  H      5.813584    2.899504   -3.808785
  H      2.741380    4.513109   -5.824701
  H      4.287548    4.521260   -6.614341
  H      2.278938    1.735250   -2.725496
  H      2.377466    1.625787   -4.475869
  O      4.737055    0.854112   -1.122825
  F      5.928146    2.168108   -2.491365
  H      3.861246    3.597252   -2.662979
  H      2.446493    3.973461   -3.656556

 Total Charge           Charge          ....    0
 Multiplicity           Mult            ....    1
 Number of Electrons    NEL             ....   70
 Basis Dimension        Dim             ....  266

ORBITAL ENERGIES
----------------

  NO   OCC          E(Eh)            E(eV)
   0   2.0000     -24.852970      -676.2837
   1   2.0000     -19.234955      -523.4097
   2   2.0000     -14.400580      -391.8597
   3   2.0000     -10.415902      -283.4311
   4   2.0000     -10.259346      -279.1710
   5   2.0000     -10.254693      -279.0444
   6   2.0000     -10.253950      -279.0242
   7   2.0000     -10.244679      -278.7719
   8   2.0000     -10.155267      -276.3389
   9   2.0000      -1.335649       -36.3448
  10   2.0000      -1.077736       -29.3267
  11   2.0000      -0.946420       -25.7534
  12   2.0000      -0.838971       -22.8296
  13   2.0000      -0.772465       -21.0198
  14   2.0000      -0.727685       -19.8013
  15   2.0000      -0.695365       -18.9218
  16   2.0000      -0.637842       -17.3566
  17   2.0000      -0.602722       -16.4009
  18   2.0000      -0.566197       -15.4070
  19   2.0000      -0.554546       -15.0900
  20   2.0000      -0.542356       -14.7583
  21   2.0000      -0.523243       -14.2382
  22   2.0000      -0.498522       -13.5655
  23   2.0000      -0.479474       -13.0472
  24   2.0000      -0.463249       -12.6056
  25   2.0000      -0.437981       -11.9181
  26   2.0000      -0.413888       -11.2625
  27   2.0000      -0.399987       -10.8842
  28   2.0000      -0.391392       -10.6503
  29   2.0000      -0.382196       -10.4001
  30   2.0000      -0.367281        -9.9942
  31   2.0000      -0.347444        -9.4544
  32   2.0000      -0.343102        -9.3363
  33   2.0000      -0.313093        -8.5197
  34   2.0000      -0.206255        -5.6125
  35   0.0000      -0.026182        -0.7125
  36   0.0000       0.018035         0.4908
  37   0.0000       0.038247         1.0407
  38   0.0000       0.041515         1.1297
  39   0.0000       0.052122         1.4183

MULLIKEN ATOMIC CHARGES
-----------------------
   0 C :    0.073173
   1 C :   -0.071873
   2 C :   -0.054275
   3 H :   -0.131231
   4 H :    0.299760
   5 C :    0.911921
   6 C :    0.334060
   7 N :   -0.115741
   8 C :    0.642221
   9 H :   -0.629113
  10 H :    0.020387
  11 H :   -0.100354
  12 H :   -0.174096
  13 H :    0.092631
  14 H :   -0.085341
  15 O :   -0.534431
  16 F :   -0.550741
  17 H :    0.251896
  18 H :   -0.178854
Sum of atomic charges:    0.0000000

LOEWDIN ATOMIC CHARGES
----------------------
   0 C :    0.018521
   1 C :   -0.003446
   2 C :    0.056573
   3 H :    0.032813
   4 H :    0.026322
   5 C :    0.024295
   6 C :   -0.231875
   7 N :    0.163631
   8 C :    0.194398
   9 H :   -0.068767
  10 H :   -0.148601
  11 H :   -0.002647
  12 H :    0.004880
  13 H :    0.030506
  14 H :    0.030861
  15 O :   -0.106851
  16 F :   -0.069347
  17 H :    0.028575
  18 H :    0.020160

  Mayer bond orders larger than 0.100000
B(  0-C ,  1-C ) :   1.2245 B(  0-C ,  6-C ) :   1.0259 B(  0-C ,  7-N ) :   0.1224
B(  0-C ,  8-C ) :   0.1919 B(  0-C , 14-H ) :   0.1356 B(  0-C , 17-H ) :   0.7508
B(  0-C , 18-H ) :   0.9458 B(  1-C ,  2-C ) :   1.2922 B(  1-C ,  3-H ) :   0.1614
B(  1-C ,  4-H ) :   0.1214 B(  1-C , 13-H ) :   0.8339 B(  1-C , 14-H ) :   0.9604
B(  1-C , 17-H ) :   0.1241 B(  1-C , 18-H ) :   0.1569 B(  2-C ,  3-H ) :   0.9317
B(  2-C ,  4-H ) :   0.7776 B(  2-C ,  5-C ) :   1.0602 B(  2-C , 13-H ) :   0.1228
B(  2-C , 16-F ) :   0.1770 B(  3-H ,  5-C ) :   0.1280 B(  5-C , 15-O ) :   1.7139
B(  5-C , 16-F ) :   0.5398 B(  6-C ,  7-N ) :   0.8730 B(  6-C ,  8-C ) :   1.8399
B(  6-C ,  9-H ) :   0.2258 B(  6-C , 10-H ) :   0.2776 B(  6-C , 12-H ) :  -0.1450
B(  7-N ,  8-C ) :   0.2708 B(  7-N , 11-H ) :   1.1897 B(  7-N , 12-H ) :   1.3505
B(  8-C ,  9-H ) :   0.8833 B(  8-C , 10-H ) :   0.5678 B(  9-H , 10-H ) :  -0.2700
B( 11-H , 12-H ) :  -0.1567 B( 15-O , 16-F ) :   0.1371

Dispersion correction           -0.016149521
FINAL SINGLE POINT ENERGY      -463.605354850973

DIPOLE MOMENT
-------------
                                X             Y             Z
Electronic contribution:      6.18049      -2.80837       7.08208
Nuclear contribution   :     -6.99695       3.07955      -8.37829
                        -----------------------------------------
Total Dipole Moment    :     -0.81646       0.27118      -1.29621
                        -----------------------------------------
Magnitude (a.u.)       :      1.55573
Magnitude (Debye)      :      3.95435

Rotational constants in cm-1:     0.106302     0.035771     0.030198
Rotational constants in MHz :  3186.860872  1072.397550   905.318354

                             ****ORCA TERMINATED NORMALLY****
TOTAL RUN TIME: 0 days 0 hours 0 minutes 45 seconds 543 msec
