                         Program Version 5.0.0 -  RELEASE  -
|  1> !DLPNO-CCSD(T) aug-cc-pVTZ aug-cc-pVTZ/C TightSCF TightPNO RIJCOSX def2/J
|  2> *xyz -1 1
|  3> C         -0.87096        0.24804       -2.66280
|  4> C         -0.47749        0.60819       -4.10105
|  5> H          0.20677        1.45830       -4.11875
|  6> H         -1.36844        0.92942       -4.64785
|  7> C          0.18467       -0.50664       -4.91676
|  8> O         -0.15869       -1.70109       -4.65798
|  9> O          1.05594       -0.17441       -5.74037
| 10> C          0.10016       -0.67355       -1.91581
| 11> H         -1.00105        1.18104       -2.10407
| 12> H         -1.84465       -0.24659       -2.66328
| 13> H          0.22336       -1.58297       -2.46597
| 14> H         -0.29270       -0.89423       -0.94532
| 15> H          1.04759       -0.18666       -1.81480
| 16> *
| 17>
| 18> %MaxCore 64000
| 19>
| 20> %pal nprocs 8
| 21> end
| 22>
| 23> %scf
| 24>   MaxIter 150
| 25> end
| 26>
| 27>
| 28>                          ****END OF INPUT****

CARTESIAN COORDINATES (ANGSTROEM)
---------------------------------
  C     -0.870960    0.248040   -2.662800
  C     -0.477490    0.608190   -4.101050
  H      0.206770    1.458300   -4.118750
  H     -1.368440    0.929420   -4.647850
  C      0.184670   -0.506640   -4.916760
  O     -0.158690   -1.701090   -4.657980
  O      1.055940   -0.174410   -5.740370
  C      0.100160   -0.673550   -1.915810
  H     -1.001050    1.181040   -2.104070
  H     -1.844650   -0.246590   -2.663280
  H      0.223360   -1.582970   -2.465970
  H     -0.292700   -0.894230   -0.945320
  H      1.047590   -0.186660   -1.814800

 Total Charge           Charge          ....   -1
 Multiplicity           Mult            ....    1
 Number of Electrons    NEL             ....   48
 Basis Dimension        Dim             ....  437

ORBITAL ENERGIES
----------------

  NO   OCC          E(Eh)            E(eV)
   0   2.0000     -20.288639      -552.0819
   1   2.0000     -20.282724      -551.9210
   2   2.0000     -11.129170      -302.8401
   3   2.0000     -11.075957      -301.3921
   4   2.0000     -11.056064      -300.8508
   5   2.0000     -11.055388      -300.8324
   6   2.0000      -1.166975       -31.7550
   7   2.0000      -1.058718       -28.8092
   8   2.0000      -0.906740       -24.6736
   9   2.0000      -0.792766       -21.5723
  10   2.0000      -0.668097       -18.1798
  11   2.0000      -0.513693       -13.9783
  12   2.0000      -0.477834       -13.0025
  13   2.0000      -0.462563       -12.5870
  14   2.0000      -0.423090       -11.5129
  15   2.0000      -0.407792       -11.0966
  16   2.0000      -0.385119       -10.4796
  17   2.0000      -0.351716        -9.5707
  18   2.0000      -0.341879        -9.3030
  19   2.0000      -0.324335        -8.8256
  20   2.0000      -0.306797        -8.3484
  21   2.0000      -0.200848        -5.4654
  22   2.0000      -0.198352        -5.3974
  23   2.0000      -0.187584        -5.1044
  24   0.0000       0.114007         3.1023
  25   0.0000       0.124483         3.3874
  26   0.0000       0.131194         3.5700
  27   0.0000       0.141804         3.8587
  28   0.0000       0.147783         4.0214

MULLIKEN ATOMIC CHARGES
-----------------------
   0 C :   -0.416552
   1 C :   -0.215637
   2 H :    0.207347
   3 H :    0.245634
   4 C :    0.539028
   5 O :   -0.903067
   6 O :   -0.905249
   7 C :   -0.996914
   8 H :    0.283549
   9 H :    0.261293
  10 H :    0.384214
  11 H :    0.237122
  12 H :    0.279231
Sum of atomic charges:   -1.0000000

LOEWDIN ATOMIC CHARGES
----------------------
   0 C :    0.232658
   1 C :    0.200207
   2 H :   -0.196396
   3 H :   -0.175126
   4 C :   -1.182250
   5 O :    0.277347
   6 O :    0.259526
   7 C :    0.567807
   8 H :   -0.169147
   9 H :   -0.165327
  10 H :   -0.258509
  11 H :   -0.201485
  12 H :   -0.189305

  Mayer bond orders larger than 0.100000
B(  0-C ,  1-C ) :   0.8866 B(  0-C ,  7-C ) :   0.7965 B(  0-C ,  8-H ) :   0.9365
B(  0-C ,  9-H ) :   0.9433 B(  1-C ,  2-H ) :   0.9833 B(  1-C ,  3-H ) :   0.9838
B(  1-C ,  4-C ) :   0.6645 B(  4-C ,  5-O ) :   1.3650 B(  4-C ,  6-O ) :   1.3609
B(  7-C , 10-H ) :   0.8705 B(  7-C , 11-H ) :   1.0320 B(  7-C , 12-H ) :   0.9463

E(0)                                       ...   -305.419058753
E(0)                                       ...   -305.419058753
E(CORR)(strong-pairs)                      ...     -1.212391489
E(CORR)(weak-pairs)                        ...     -0.001185630
E(CORR)(corrected)                         ...     -1.213577120
E(TOT)                                     ...   -306.632635873
E(CCSD(T))                                 ...   -306.684311166
FINAL SINGLE POINT ENERGY      -306.684311165664

DIPOLE MOMENT
-------------
                                X             Y             Z
Electronic contribution:      1.74933      -1.90996      -6.61175
Nuclear contribution   :     -2.71698       3.10699       8.64748
                        -----------------------------------------
Total Dipole Moment    :     -0.96766       1.19704       2.03572
                        -----------------------------------------
Magnitude (a.u.)       :      2.55214
Magnitude (Debye)      :      6.48702

Rotational constants in cm-1:     0.212307     0.084237     0.072775
Rotational constants in MHz :  6364.813744  2525.362351  2181.751235

                             ****ORCA TERMINATED NORMALLY****
TOTAL RUN TIME: 0 days 0 hours 14 minutes 23 seconds 890 msec
