                         Program Version 5.0.0 -  RELEASE  -
|  1> !DLPNO-CCSD(T) aug-cc-pVTZ aug-cc-pVTZ/C TightSCF TightPNO RIJCOSX def2/J
|  2> *xyz 1 1
|  3> C          2.48645       -2.67712       -2.56345
|  4> C          3.03764       -2.36672       -3.92351
|  5> N          2.28036       -2.45441       -4.96769
|  6> N          4.32174       -2.01793       -4.01664
|  7> H          4.87994       -1.91167       -3.17382
|  8> H          4.71015       -1.67088       -4.88356
|  9> H          1.27042       -2.41265       -4.86614
| 10> H          2.58183       -2.05528       -5.84688
| 11> C          2.49799       -1.46946       -1.61030
| 12> C          1.58284       -0.32199       -2.04262
| 13> H          2.19308       -1.83391       -0.62542
| 14> H          3.52336       -1.10398       -1.49039
| 15> H          1.47259       -3.05153       -2.69437
| 16> H          3.08320       -3.49064       -2.14147
| 17> H          1.88480        0.03130       -3.00642
| 18> H          1.65140        0.47571       -1.33278
| 19> H          0.57235       -0.67052       -2.09099
| 20> *
| 21>
| 22> %MaxCore 64000
| 23>
| 24> %pal nprocs 2
| 25> end
| 26>
| 27> %scf
| 28>   MaxIter 150
| 29> end
| 30>
| 31>
| 32>                          ****END OF INPUT****

CARTESIAN COORDINATES (ANGSTROEM)
---------------------------------
  C      2.486450   -2.677120   -2.563450
  C      3.037640   -2.366720   -3.923510
  N      2.280360   -2.454410   -4.967690
  N      4.321740   -2.017930   -4.016640
  H      4.879940   -1.911670   -3.173820
  H      4.710150   -1.670880   -4.883560
  H      1.270420   -2.412650   -4.866140
  H      2.581830   -2.055280   -5.846880
  C      2.497990   -1.469460   -1.610300
  C      1.582840   -0.321990   -2.042620
  H      2.193080   -1.833910   -0.625420
  H      3.523360   -1.103980   -1.490390
  H      1.472590   -3.051530   -2.694370
  H      3.083200   -3.490640   -2.141470
  H      1.884800    0.031300   -3.006420
  H      1.651400    0.475710   -1.332780
  H      0.572350   -0.670520   -2.090990

 Total Charge           Charge          ....    1
 Multiplicity           Mult            ....    1
 Number of Electrons    NEL             ....   48
 Basis Dimension        Dim             ....  529

ORBITAL ENERGIES
----------------

  NO   OCC          E(Eh)            E(eV)
   0   2.0000     -15.807449      -430.1426
   1   2.0000     -15.800847      -429.9629
   2   2.0000     -11.568527      -314.7956
   3   2.0000     -11.420446      -310.7661
   4   2.0000     -11.388222      -309.8893
   5   2.0000     -11.351433      -308.8882
   6   2.0000      -1.523966       -41.4692
   7   2.0000      -1.403775       -38.1986
   8   2.0000      -1.247480       -33.9457
   9   2.0000      -1.140947       -31.0468
  10   2.0000      -1.052494       -28.6398
  11   2.0000      -0.988065       -26.8866
  12   2.0000      -0.954781       -25.9809
  13   2.0000      -0.927920       -25.2500
  14   2.0000      -0.866425       -23.5766
  15   2.0000      -0.816712       -22.2239
  16   2.0000      -0.791371       -21.5343
  17   2.0000      -0.748514       -20.3681
  18   2.0000      -0.732008       -19.9190
  19   2.0000      -0.719278       -19.5726
  20   2.0000      -0.647960       -17.6319
  21   2.0000      -0.643501       -17.5106
  22   2.0000      -0.641245       -17.4492
  23   2.0000      -0.627885       -17.0856
  24   0.0000      -0.095170        -2.5897
  25   0.0000      -0.075878        -2.0647
  26   0.0000      -0.072557        -1.9744
  27   0.0000      -0.061869        -1.6835
  28   0.0000      -0.048324        -1.3150

MULLIKEN ATOMIC CHARGES
-----------------------
   0 C :   -0.026897
   1 C :    0.873047
   2 N :   -0.504754
   3 N :   -0.481924
   4 H :    0.132113
   5 H :    0.141597
   6 H :    0.138656
   7 H :    0.145820
   8 C :   -0.419739
   9 C :   -0.971907
  10 H :    0.293239
  11 H :    0.245950
  12 H :    0.176160
  13 H :    0.369144
  14 H :    0.312786
  15 H :    0.293000
  16 H :    0.283710
Sum of atomic charges:    1.0000000

LOEWDIN ATOMIC CHARGES
----------------------
   0 C :    0.354080
   1 C :   -0.226388
   2 N :    0.946174
   3 N :    0.951705
   4 H :   -0.235859
   5 H :   -0.230530
   6 H :   -0.220552
   7 H :   -0.223823
   8 C :    0.302332
   9 C :    0.627687
  10 H :   -0.126603
  11 H :   -0.146181
  12 H :   -0.138681
  13 H :   -0.117296
  14 H :   -0.182368
  15 H :   -0.162269
  16 H :   -0.171430

  Mayer bond orders larger than 0.100000
B(  0-C ,  1-C ) :   0.3931 B(  0-C ,  3-N ) :  -0.1213 B(  0-C ,  8-C ) :   0.8545
B(  0-C , 12-H ) :   1.0106 B(  0-C , 13-H ) :   0.9098 B(  1-C ,  2-N ) :   0.7279
B(  1-C ,  3-N ) :   0.9457 B(  1-C ,  8-C ) :   0.1620 B(  2-N ,  6-H ) :   1.1004
B(  2-N ,  7-H ) :   1.0737 B(  3-N ,  4-H ) :   1.0977 B(  3-N ,  5-H ) :   1.0782
B(  8-C ,  9-C ) :   0.8221 B(  8-C , 10-H ) :   0.9452 B(  8-C , 11-H ) :   0.9310
B(  9-C , 14-H ) :   0.9181 B(  9-C , 15-H ) :   0.9812 B(  9-C , 16-H ) :   0.9577

E(0)                                       ...   -266.690411426
E(0)                                       ...   -266.690411426
E(CORR)(strong-pairs)                      ...     -1.156532943
E(CORR)(weak-pairs)                        ...     -0.001208558
E(CORR)(corrected)                         ...     -1.157741501
E(TOT)                                     ...   -267.848152927
E(CCSD(T))                                 ...   -267.894254663
FINAL SINGLE POINT ENERGY      -267.894254662632

DIPOLE MOMENT
-------------
                                X             Y             Z
Electronic contribution:      2.33474      -2.80596      -4.23178
Nuclear contribution   :     -1.82438       2.64851       2.98450
                        -----------------------------------------
Total Dipole Moment    :      0.51035      -0.15745      -1.24728
                        -----------------------------------------
Magnitude (a.u.)       :      1.35682
Magnitude (Debye)      :      3.44876

Rotational constants in cm-1:     0.176712     0.077069     0.069669
Rotational constants in MHz :  5297.698588  2310.466480  2088.633881

                             ****ORCA TERMINATED NORMALLY****
TOTAL RUN TIME: 0 days 1 hours 13 minutes 10 seconds 759 msec
