                         Program Version 5.0.0 -  RELEASE  -
|  1> !DLPNO-CCSD(T) aug-cc-pVTZ aug-cc-pVTZ/C TightSCF TightPNO RIJCOSX def2/J
|  2> *xyz 0 1
|  3> C         -0.87096        0.24804       -2.66280
|  4> C         -0.47749        0.60819       -4.10105
|  5> H          0.20677        1.45830       -4.11875
|  6> H         -1.36844        0.92942       -4.64785
|  7> C          0.18467       -0.50664       -4.91676
|  8> F         -0.15869       -1.70109       -4.65798
|  9> O          1.05594       -0.17441       -5.74037
| 10> C          0.10016       -0.67355       -1.91581
| 11> H         -1.00105        1.18104       -2.10407
| 12> H         -1.84465       -0.24659       -2.66328
| 13> H          0.22336       -1.58297       -2.46597
| 14> H         -0.29270       -0.89423       -0.94532
| 15> H          1.04759       -0.18666       -1.81480
| 16> *
| 17>
| 18> %MaxCore 64000
| 19>
| 20> %pal nprocs 8
| 21> end
| 22>
| 23> %scf
| 24>   MaxIter 150
| 25> end
| 26>
| 27>
| 28>                          ****END OF INPUT****

CARTESIAN COORDINATES (ANGSTROEM)
---------------------------------
  C     -0.870960    0.248040   -2.662800
  C     -0.477490    0.608190   -4.101050
  H      0.206770    1.458300   -4.118750
  H     -1.368440    0.929420   -4.647850
  C      0.184670   -0.506640   -4.916760
  F     -0.158690   -1.701090   -4.657980
  O      1.055940   -0.174410   -5.740370
  C      0.100160   -0.673550   -1.915810
  H     -1.001050    1.181040   -2.104070
  H     -1.844650   -0.246590   -2.663280
  H      0.223360   -1.582970   -2.465970
  H     -0.292700   -0.894230   -0.945320
  H      1.047590   -0.186660   -1.814800

 Total Charge           Charge          ....    0
 Multiplicity           Mult            ....    1
 Number of Electrons    NEL             ....   48
 Basis Dimension        Dim             ....  437

ORBITAL ENERGIES
----------------

  NO   OCC          E(Eh)            E(eV)
   0   2.0000     -26.370831      -717.5868
   1   2.0000     -20.564453      -559.5872
   2   2.0000     -11.429171      -311.0035
   3   2.0000     -11.260215      -306.4060
   4   2.0000     -11.243410      -305.9487
   5   2.0000     -11.218766      -305.2781
   6   2.0000      -1.720496       -46.8171
   7   2.0000      -1.382247       -37.6128
   8   2.0000      -1.094413       -29.7805
   9   2.0000      -0.988382       -26.8952
  10   2.0000      -0.899721       -24.4827
  11   2.0000      -0.842388       -22.9225
  12   2.0000      -0.769607       -20.9421
  13   2.0000      -0.764916       -20.8144
  14   2.0000      -0.695088       -18.9143
  15   2.0000      -0.648857       -17.6563
  16   2.0000      -0.620536       -16.8856
  17   2.0000      -0.594819       -16.1859
  18   2.0000      -0.573967       -15.6184
  19   2.0000      -0.527225       -14.3465
  20   2.0000      -0.515947       -14.0396
  21   2.0000      -0.501434       -13.6447
  22   2.0000      -0.480766       -13.0823
  23   2.0000      -0.458962       -12.4890
  24   0.0000       0.026082         0.7097
  25   0.0000       0.035796         0.9741
  26   0.0000       0.038379         1.0444
  27   0.0000       0.044242         1.2039
  28   0.0000       0.059008         1.6057

MULLIKEN ATOMIC CHARGES
-----------------------
   0 C :   -0.429550
   1 C :   -0.234607
   2 H :    0.267766
   3 H :    0.299435
   4 C :    0.628793
   5 F :   -0.322259
   6 O :   -0.705729
   7 C :   -0.984823
   8 H :    0.299312
   9 H :    0.264005
  10 H :    0.352165
  11 H :    0.267966
  12 H :    0.297523
Sum of atomic charges:   -0.0000000

LOEWDIN ATOMIC CHARGES
----------------------
   0 C :    0.264232
   1 C :    0.267756
   2 H :   -0.165763
   3 H :   -0.155175
   4 C :   -0.909168
   5 F :    0.590264
   6 O :    0.395285
   7 C :    0.596893
   8 H :   -0.144441
   9 H :   -0.154767
  10 H :   -0.229350
  11 H :   -0.177532
  12 H :   -0.178233

  Mayer bond orders larger than 0.100000
B(  0-C ,  1-C ) :   0.9036 B(  0-C ,  7-C ) :   0.8026 B(  0-C ,  8-H ) :   0.9184
B(  0-C ,  9-H ) :   0.9458 B(  1-C ,  2-H ) :   0.9561 B(  1-C ,  3-H ) :   0.9415
B(  1-C ,  4-C ) :   0.7025 B(  4-C ,  5-F ) :   0.8379 B(  4-C ,  6-O ) :   1.6293
B(  7-C , 10-H ) :   0.8993 B(  7-C , 11-H ) :   1.0189 B(  7-C , 12-H ) :   0.9283

E(0)                                       ...   -329.973775060
E(0)                                       ...   -329.973775060
E(CORR)(strong-pairs)                      ...     -1.212136296
E(CORR)(weak-pairs)                        ...     -0.001144521
E(CORR)(corrected)                         ...     -1.213280817
E(TOT)                                     ...   -331.187055876
E(CCSD(T))                                 ...   -331.234828789
FINAL SINGLE POINT ENERGY      -331.234828788726

DIPOLE MOMENT
-------------
                                X             Y             Z
Electronic contribution:      1.65194      -4.29112      -8.37521
Nuclear contribution   :     -2.55684       4.59749       9.38828
                        -----------------------------------------
Total Dipole Moment    :     -0.90490       0.30637       1.01306
                        -----------------------------------------
Magnitude (a.u.)       :      1.39248
Magnitude (Debye)      :      3.53941

Rotational constants in cm-1:     0.200184     0.083263     0.071070
Rotational constants in MHz :  6001.373539  2496.169674  2130.635527

                             ****ORCA TERMINATED NORMALLY****
TOTAL RUN TIME: 0 days 0 hours 13 minutes 15 seconds 993 msec
