                         Program Version 5.0.0 -  RELEASE  -
|  1> !DLPNO-CCSD(T) aug-cc-pVTZ aug-cc-pVTZ/C TightSCF TightPNO RIJCOSX def2/J
|  2> *xyz 0 1
|  3> C          2.48645       -2.67712       -2.56345
|  4> C          3.03764       -2.36672       -3.92351
|  5> C          2.28036       -2.45441       -4.96769
|  6> N          4.32174       -2.01793       -4.01664
|  7> H          4.87994       -1.91167       -3.17382
|  8> H          4.71015       -1.67088       -4.88356
|  9> H          1.27042       -2.41265       -4.86614
| 10> H          2.58183       -2.05528       -5.84688
| 11> C          2.49799       -1.46946       -1.61030
| 12> C          1.58284       -0.32199       -2.04262
| 13> H          2.19308       -1.83391       -0.62542
| 14> H          3.52336       -1.10398       -1.49039
| 15> H          1.47259       -3.05153       -2.69437
| 16> H          3.08320       -3.49064       -2.14147
| 17> H          1.88480        0.03130       -3.00642
| 18> H          1.65140        0.47571       -1.33278
| 19> H          0.57235       -0.67052       -2.09099
| 20> *
| 21>
| 22> %MaxCore 64000
| 23>
| 24> %pal nprocs 2
| 25> end
| 26>
| 27> %scf
| 28>   MaxIter 150
| 29> end
| 30>
| 31>
| 32>                          ****END OF INPUT****

CARTESIAN COORDINATES (ANGSTROEM)
---------------------------------
  C      2.486450   -2.677120   -2.563450
  C      3.037640   -2.366720   -3.923510
  C      2.280360   -2.454410   -4.967690
  N      4.321740   -2.017930   -4.016640
  H      4.879940   -1.911670   -3.173820
  H      4.710150   -1.670880   -4.883560
  H      1.270420   -2.412650   -4.866140
  H      2.581830   -2.055280   -5.846880
  C      2.497990   -1.469460   -1.610300
  C      1.582840   -0.321990   -2.042620
  H      2.193080   -1.833910   -0.625420
  H      3.523360   -1.103980   -1.490390
  H      1.472590   -3.051530   -2.694370
  H      3.083200   -3.490640   -2.141470
  H      1.884800    0.031300   -3.006420
  H      1.651400    0.475710   -1.332780
  H      0.572350   -0.670520   -2.090990

 Total Charge           Charge          ....    0
 Multiplicity           Mult            ....    1
 Number of Electrons    NEL             ....   48
 Basis Dimension        Dim             ....  529

ORBITAL ENERGIES
----------------

  NO   OCC          E(Eh)            E(eV)
   0   2.0000     -15.559712      -423.4013
   1   2.0000     -11.253955      -306.2357
   2   2.0000     -11.224119      -305.4238
   3   2.0000     -11.223010      -305.3936
   4   2.0000     -11.203300      -304.8573
   5   2.0000     -11.148205      -303.3581
   6   2.0000      -1.233000       -33.5516
   7   2.0000      -1.069161       -29.0934
   8   2.0000      -1.006471       -27.3875
   9   2.0000      -0.934605       -25.4319
  10   2.0000      -0.820739       -22.3334
  11   2.0000      -0.763567       -20.7777
  12   2.0000      -0.703009       -19.1299
  13   2.0000      -0.647079       -17.6079
  14   2.0000      -0.618093       -16.8192
  15   2.0000      -0.612055       -16.6549
  16   2.0000      -0.557486       -15.1700
  17   2.0000      -0.544169       -14.8076
  18   2.0000      -0.523359       -14.2413
  19   2.0000      -0.512677       -13.9507
  20   2.0000      -0.480533       -13.0760
  21   2.0000      -0.465011       -12.6536
  22   2.0000      -0.461813       -12.5666
  23   2.0000      -0.300473        -8.1763
  24   0.0000       0.027112         0.7378
  25   0.0000       0.035057         0.9539
  26   0.0000       0.037783         1.0281
  27   0.0000       0.040856         1.1118
  28   0.0000       0.053875         1.4660

MULLIKEN ATOMIC CHARGES
-----------------------
   0 C :   -0.093735
   1 C :    1.198457
   2 C :   -1.505541
   3 N :   -0.801104
   4 H :    0.043202
   5 H :    0.023127
   6 H :    0.177630
   7 H :    0.530481
   8 C :   -0.445813
   9 C :   -1.007681
  10 H :    0.287842
  11 H :    0.217451
  12 H :    0.141511
  13 H :    0.340557
  14 H :    0.359323
  15 H :    0.272962
  16 H :    0.261329
Sum of atomic charges:   -0.0000000

LOEWDIN ATOMIC CHARGES
----------------------
   0 C :    0.291952
   1 C :   -0.314518
   2 C :    0.549978
   3 N :    0.849176
   4 H :   -0.280887
   5 H :   -0.267379
   6 H :   -0.285882
   7 H :   -0.285989
   8 C :    0.277657
   9 C :    0.607072
  10 H :   -0.148156
  11 H :   -0.156177
  12 H :   -0.154685
  13 H :   -0.137526
  14 H :   -0.183476
  15 H :   -0.182893
  16 H :   -0.178268

  Mayer bond orders larger than 0.100000
B(  0-C ,  1-C ) :   0.5318 B(  0-C ,  3-N ) :  -0.1469 B(  0-C ,  8-C ) :   0.8800
B(  0-C , 12-H ) :   1.0439 B(  0-C , 13-H ) :   0.9335 B(  1-C ,  2-C ) :   0.6894
B(  1-C ,  3-N ) :   0.6422 B(  1-C ,  6-H ) :  -0.1626 B(  2-C ,  3-N ) :  -0.1308
B(  2-C ,  6-H ) :   1.3623 B(  2-C ,  7-H ) :   0.5839 B(  3-N ,  4-H ) :   1.1939
B(  3-N ,  5-H ) :   1.1949 B(  8-C ,  9-C ) :   0.7962 B(  8-C , 10-H ) :   0.9582
B(  8-C , 11-H ) :   0.9576 B(  9-C , 14-H ) :   0.8994 B(  9-C , 15-H ) :   0.9899
B(  9-C , 16-H ) :   0.9850

E(0)                                       ...   -250.249480130
E(0)                                       ...   -250.249480130
E(CORR)(strong-pairs)                      ...     -1.137712690
E(CORR)(weak-pairs)                        ...     -0.001201464
E(CORR)(corrected)                         ...     -1.138914154
E(TOT)                                     ...   -251.388394284
E(CCSD(T))                                 ...   -251.434689276
FINAL SINGLE POINT ENERGY      -251.434689276291

DIPOLE MOMENT
-------------
                                X             Y             Z
Electronic contribution:      2.43397      -2.06972      -2.07467
Nuclear contribution   :     -1.92525       2.50924       2.56958
                        -----------------------------------------
Total Dipole Moment    :      0.50872       0.43952       0.49491
                        -----------------------------------------
Magnitude (a.u.)       :      0.83481
Magnitude (Debye)      :      2.12191

Rotational constants in cm-1:     0.181985     0.078726     0.071856
Rotational constants in MHz :  5455.785660  2360.157292  2154.177820

                             ****ORCA TERMINATED NORMALLY****
TOTAL RUN TIME: 0 days 1 hours 17 minutes 57 seconds 550 msec
