                         Program Version 5.0.0 -  RELEASE  -
|  1> !DLPNO-CCSD(T) aug-cc-pVTZ aug-cc-pVTZ/C TightSCF TightPNO RIJCOSX def2/J
|  2> *xyz 0 1
|  3> C         -0.87096        0.24804       -2.66280
|  4> C         -0.47749        0.60819       -4.10105
|  5> H          0.20677        1.45830       -4.11875
|  6> H         -1.36844        0.92942       -4.64785
|  7> C          0.18467       -0.50664       -4.91676
|  8> O         -0.15869       -1.70109       -4.65798
|  9> F          1.05594       -0.17441       -5.74037
| 10> C          0.10016       -0.67355       -1.91581
| 11> H         -1.00105        1.18104       -2.10407
| 12> H         -1.84465       -0.24659       -2.66328
| 13> H          0.22336       -1.58297       -2.46597
| 14> H         -0.29270       -0.89423       -0.94532
| 15> H          1.04759       -0.18666       -1.81480
| 16> *
| 17>
| 18> %MaxCore 64000
| 19>
| 20> %pal nprocs 8
| 21> end
| 22>
| 23> %scf
| 24>   MaxIter 150
| 25> end
| 26>
| 27>
| 28>                          ****END OF INPUT****

CARTESIAN COORDINATES (ANGSTROEM)
---------------------------------
  C     -0.870960    0.248040   -2.662800
  C     -0.477490    0.608190   -4.101050
  H      0.206770    1.458300   -4.118750
  H     -1.368440    0.929420   -4.647850
  C      0.184670   -0.506640   -4.916760
  O     -0.158690   -1.701090   -4.657980
  F      1.055940   -0.174410   -5.740370
  C      0.100160   -0.673550   -1.915810
  H     -1.001050    1.181040   -2.104070
  H     -1.844650   -0.246590   -2.663280
  H      0.223360   -1.582970   -2.465970
  H     -0.292700   -0.894230   -0.945320
  H      1.047590   -0.186660   -1.814800

 Total Charge           Charge          ....    0
 Multiplicity           Mult            ....    1
 Number of Electrons    NEL             ....   48
 Basis Dimension        Dim             ....  437

ORBITAL ENERGIES
----------------

  NO   OCC          E(Eh)            E(eV)
   0   2.0000     -26.381813      -717.8856
   1   2.0000     -20.560035      -559.4670
   2   2.0000     -11.433212      -311.1135
   3   2.0000     -11.262282      -306.4623
   4   2.0000     -11.237722      -305.7940
   5   2.0000     -11.204169      -304.8809
   6   2.0000      -1.740319       -47.3565
   7   2.0000      -1.366254       -37.1777
   8   2.0000      -1.087202       -29.5843
   9   2.0000      -0.989128       -26.9155
  10   2.0000      -0.908161       -24.7123
  11   2.0000      -0.837593       -22.7921
  12   2.0000      -0.776606       -21.1325
  13   2.0000      -0.765591       -20.8328
  14   2.0000      -0.709044       -19.2941
  15   2.0000      -0.642306       -17.4780
  16   2.0000      -0.623482       -16.9658
  17   2.0000      -0.578244       -15.7348
  18   2.0000      -0.566877       -15.4255
  19   2.0000      -0.512627       -13.9493
  20   2.0000      -0.503003       -13.6874
  21   2.0000      -0.489042       -13.3075
  22   2.0000      -0.480024       -13.0621
  23   2.0000      -0.456949       -12.4342
  24   0.0000       0.026803         0.7294
  25   0.0000       0.037583         1.0227
  26   0.0000       0.038693         1.0529
  27   0.0000       0.045634         1.2418
  28   0.0000       0.058895         1.6026

MULLIKEN ATOMIC CHARGES
-----------------------
   0 C :   -0.408721
   1 C :   -0.315360
   2 H :    0.238485
   3 H :    0.293705
   4 C :    0.645844
   5 O :   -0.700567
   6 F :   -0.288226
   7 C :   -0.970127
   8 H :    0.308622
   9 H :    0.277295
  10 H :    0.369649
  11 H :    0.263234
  12 H :    0.286167
Sum of atomic charges:    0.0000000

LOEWDIN ATOMIC CHARGES
----------------------
   0 C :    0.268364
   1 C :    0.270011
   2 H :   -0.173770
   3 H :   -0.155546
   4 C :   -0.898639
   5 O :    0.407041
   6 F :    0.599214
   7 C :    0.591081
   8 H :   -0.145974
   9 H :   -0.150499
  10 H :   -0.249927
  11 H :   -0.179386
  12 H :   -0.181971

  Mayer bond orders larger than 0.100000
B(  0-C ,  1-C ) :   0.9065 B(  0-C ,  7-C ) :   0.8074 B(  0-C ,  8-H ) :   0.9158
B(  0-C ,  9-H ) :   0.9355 B(  1-C ,  2-H ) :   0.9618 B(  1-C ,  3-H ) :   0.9282
B(  1-C ,  4-C ) :   0.7507 B(  4-C ,  5-O ) :   1.6438 B(  4-C ,  6-F ) :   0.8094
B(  7-C , 10-H ) :   0.8908 B(  7-C , 11-H ) :   1.0107 B(  7-C , 12-H ) :   0.9410

E(0)                                       ...   -329.965683111
E(0)                                       ...   -329.965683111
E(CORR)(strong-pairs)                      ...     -1.213524160
E(CORR)(weak-pairs)                        ...     -0.001168020
E(CORR)(corrected)                         ...     -1.214692179
E(TOT)                                     ...   -331.180375290
E(CCSD(T))                                 ...   -331.228589022
FINAL SINGLE POINT ENERGY      -331.228589021685

DIPOLE MOMENT
-------------
                                X             Y             Z
Electronic contribution:      3.80395      -1.64002     -10.35573
Nuclear contribution   :     -3.92885       2.87300      10.61091
                        -----------------------------------------
Total Dipole Moment    :     -0.12491       1.23297       0.25519
                        -----------------------------------------
Magnitude (a.u.)       :      1.26528
Magnitude (Debye)      :      3.21609

Rotational constants in cm-1:     0.209332     0.079487     0.069375
Rotational constants in MHz :  6275.605762  2382.960864  2079.805430

                             ****ORCA TERMINATED NORMALLY****
TOTAL RUN TIME: 0 days 0 hours 13 minutes 40 seconds 675 msec
