                         Program Version 5.0.0 -  RELEASE  -
|  1> !DLPNO-CCSD(T) aug-cc-pVTZ aug-cc-pVTZ/C TightSCF TightPNO RIJCOSX def2/J
|  2> *xyz 0 1
|  3> C          2.48645       -2.67712       -2.56345
|  4> C          3.03764       -2.36672       -3.92351
|  5> N          2.28036       -2.45441       -4.96769
|  6> C          4.32174       -2.01793       -4.01664
|  7> H          4.87994       -1.91167       -3.17382
|  8> H          4.71015       -1.67088       -4.88356
|  9> H          1.27042       -2.41265       -4.86614
| 10> H          2.58183       -2.05528       -5.84688
| 11> C          2.49799       -1.46946       -1.61030
| 12> C          1.58284       -0.32199       -2.04262
| 13> H          2.19308       -1.83391       -0.62542
| 14> H          3.52336       -1.10398       -1.49039
| 15> H          1.47259       -3.05153       -2.69437
| 16> H          3.08320       -3.49064       -2.14147
| 17> H          1.88480        0.03130       -3.00642
| 18> H          1.65140        0.47571       -1.33278
| 19> H          0.57235       -0.67052       -2.09099
| 20> *
| 21>
| 22> %MaxCore 64000
| 23>
| 24> %pal nprocs 2
| 25> end
| 26>
| 27> %scf
| 28>   MaxIter 150
| 29> end
| 30>
| 31>
| 32>                          ****END OF INPUT****

CARTESIAN COORDINATES (ANGSTROEM)
---------------------------------
  C      2.486450   -2.677120   -2.563450
  C      3.037640   -2.366720   -3.923510
  N      2.280360   -2.454410   -4.967690
  C      4.321740   -2.017930   -4.016640
  H      4.879940   -1.911670   -3.173820
  H      4.710150   -1.670880   -4.883560
  H      1.270420   -2.412650   -4.866140
  H      2.581830   -2.055280   -5.846880
  C      2.497990   -1.469460   -1.610300
  C      1.582840   -0.321990   -2.042620
  H      2.193080   -1.833910   -0.625420
  H      3.523360   -1.103980   -1.490390
  H      1.472590   -3.051530   -2.694370
  H      3.083200   -3.490640   -2.141470
  H      1.884800    0.031300   -3.006420
  H      1.651400    0.475710   -1.332780
  H      0.572350   -0.670520   -2.090990

 Total Charge           Charge          ....    0
 Multiplicity           Mult            ....    1
 Number of Electrons    NEL             ....   48
 Basis Dimension        Dim             ....  529

ORBITAL ENERGIES
----------------

  NO   OCC          E(Eh)            E(eV)
   0   2.0000     -15.564325      -423.5268
   1   2.0000     -11.255304      -306.2724
   2   2.0000     -11.223789      -305.4148
   3   2.0000     -11.220532      -305.3262
   4   2.0000     -11.204566      -304.8918
   5   2.0000     -11.149140      -303.3835
   6   2.0000      -1.251736       -34.0615
   7   2.0000      -1.070768       -29.1371
   8   2.0000      -0.993921       -27.0460
   9   2.0000      -0.929541       -25.2941
  10   2.0000      -0.829881       -22.5822
  11   2.0000      -0.764480       -20.8026
  12   2.0000      -0.697280       -18.9740
  13   2.0000      -0.663331       -18.0502
  14   2.0000      -0.616462       -16.7748
  15   2.0000      -0.599327       -16.3085
  16   2.0000      -0.556613       -15.1462
  17   2.0000      -0.553086       -15.0502
  18   2.0000      -0.521230       -14.1834
  19   2.0000      -0.510987       -13.9047
  20   2.0000      -0.477986       -13.0067
  21   2.0000      -0.470990       -12.8163
  22   2.0000      -0.468438       -12.7468
  23   2.0000      -0.287172        -7.8144
  24   0.0000       0.027277         0.7422
  25   0.0000       0.034990         0.9521
  26   0.0000       0.038206         1.0396
  27   0.0000       0.040635         1.1057
  28   0.0000       0.053733         1.4622

MULLIKEN ATOMIC CHARGES
-----------------------
   0 C :    0.005330
   1 C :    0.984123
   2 N :   -0.760570
   3 C :   -1.408239
   4 H :    0.266748
   5 H :    0.451230
   6 H :    0.054205
   7 H :    0.011025
   8 C :   -0.476250
   9 C :   -0.984949
  10 H :    0.284239
  11 H :    0.227399
  12 H :    0.144219
  13 H :    0.327598
  14 H :    0.349780
  15 H :    0.263427
  16 H :    0.260686
Sum of atomic charges:   -0.0000000

LOEWDIN ATOMIC CHARGES
----------------------
   0 C :    0.294255
   1 C :   -0.321149
   2 N :    0.835495
   3 C :    0.564269
   4 H :   -0.293392
   5 H :   -0.290168
   6 H :   -0.267534
   7 H :   -0.261300
   8 C :    0.278683
   9 C :    0.605010
  10 H :   -0.148143
  11 H :   -0.154290
  12 H :   -0.158348
  13 H :   -0.135038
  14 H :   -0.184332
  15 H :   -0.180929
  16 H :   -0.183088

  Mayer bond orders larger than 0.100000
B(  0-C ,  1-C ) :   0.5566 B(  0-C ,  2-N ) :  -0.1053 B(  0-C ,  3-C ) :  -0.1004
B(  0-C ,  8-C ) :   0.8338 B(  0-C , 12-H ) :   1.0109 B(  0-C , 13-H ) :   0.9912
B(  1-C ,  2-N ) :   0.4239 B(  1-C ,  3-C ) :   1.1510 B(  1-C ,  6-H ) :  -0.1087
B(  1-C ,  8-C ) :   0.1982 B(  1-C , 13-H ) :  -0.1160 B(  2-N ,  3-C ) :  -0.1731
B(  2-N ,  6-H ) :   1.1656 B(  2-N ,  7-H ) :   1.2208 B(  3-C ,  4-H ) :   1.2012
B(  3-C ,  5-H ) :   0.7792 B(  8-C ,  9-C ) :   0.7912 B(  8-C , 10-H ) :   0.9527
B(  8-C , 11-H ) :   0.9436 B(  9-C , 14-H ) :   0.8955 B(  9-C , 15-H ) :   1.0051
B(  9-C , 16-H ) :   0.9750

E(0)                                       ...   -250.249717969
E(0)                                       ...   -250.249717969
E(CORR)(strong-pairs)                      ...     -1.138082456
E(CORR)(weak-pairs)                        ...     -0.001204529
E(CORR)(corrected)                         ...     -1.139286984
E(TOT)                                     ...   -251.389004953
E(CCSD(T))                                 ...   -251.435451594
FINAL SINGLE POINT ENERGY      -251.435451593761

DIPOLE MOMENT
-------------
                                X             Y             Z
Electronic contribution:      0.64677      -2.39012      -2.89993
Nuclear contribution   :     -1.44240       2.61248       2.79453
                        -----------------------------------------
Total Dipole Moment    :     -0.79563       0.22236      -0.10540
                        -----------------------------------------
Magnitude (a.u.)       :      0.83281
Magnitude (Debye)      :      2.11684

Rotational constants in cm-1:     0.182540     0.078634     0.071436
Rotational constants in MHz :  5472.425685  2357.397154  2141.608207

                             ****ORCA TERMINATED NORMALLY****
TOTAL RUN TIME: 0 days 1 hours 18 minutes 3 seconds 214 msec
