                         Program Version 5.0.0 -  RELEASE  -
|  1> !BLYP D3BJ RIJCOSX def2-SVPD def2/J TightSCF
|  2> *xyz -1 1
|  3> C         -2.79070       -0.78527        5.70281
|  4> C         -2.45380        0.05510        6.94145
|  5> C         -2.07842        1.48042        6.56410
|  6> H         -1.62558       -0.38216        7.49891
|  7> H         -3.32527        0.08775        7.59917
|  8> O         -0.90125        1.85816        6.82810
|  9> O         -2.93658        2.17731        5.96415
| 10> H         -1.94052       -0.82114        5.05412
| 11> H         -3.61590       -0.34261        5.18514
| 12> H         -3.05063       -1.77815        6.00536
| 13> *
| 14> %MaxCore 64000
| 15>
| 16> %pal nprocs 4
| 17> end
| 18>
| 19> %scf
| 20>   MaxIter 150
| 21> end
| 22>
| 23>
| 24>                          ****END OF INPUT****

CARTESIAN COORDINATES (ANGSTROEM)
---------------------------------
  C     -2.790700   -0.785270    5.702810
  C     -2.453800    0.055100    6.941450
  C     -2.078420    1.480420    6.564100
  H     -1.625580   -0.382160    7.498910
  H     -3.325270    0.087750    7.599170
  O     -0.901250    1.858160    6.828100
  O     -2.936580    2.177310    5.964150
  H     -1.940520   -0.821140    5.054120
  H     -3.615900   -0.342610    5.185140
  H     -3.050630   -1.778150    6.005360

 Total Charge           Charge          ....   -1
 Multiplicity           Mult            ....    1
 Number of Electrons    NEL             ....   40
 Basis Dimension        Dim             ....  146

ORBITAL ENERGIES
----------------

  NO   OCC          E(Eh)            E(eV)
   0   2.0000     -18.532532      -504.2958
   1   2.0000     -18.530936      -504.2524
   2   2.0000      -9.802467      -266.7387
   3   2.0000      -9.762275      -265.6450
   4   2.0000      -9.748785      -265.2779
   5   2.0000      -0.715892       -19.4804
   6   2.0000      -0.627535       -17.0761
   7   2.0000      -0.522553       -14.2194
   8   2.0000      -0.401504       -10.9255
   9   2.0000      -0.262617        -7.1462
  10   2.0000      -0.240392        -6.5414
  11   2.0000      -0.203558        -5.5391
  12   2.0000      -0.180480        -4.9111
  13   2.0000      -0.164613        -4.4793
  14   2.0000      -0.156254        -4.2519
  15   2.0000      -0.128036        -3.4840
  16   2.0000      -0.116579        -3.1723
  17   2.0000      -0.009581        -0.2607
  18   2.0000       0.002383         0.0648
  19   2.0000       0.021109         0.5744
  20   0.0000       0.138001         3.7552
  21   0.0000       0.171224         4.6593
  22   0.0000       0.187961         5.1147
  23   0.0000       0.198793         5.4094
  24   0.0000       0.214846         5.8463

MULLIKEN ATOMIC CHARGES
-----------------------
   0 C :    0.898116
   1 C :    0.034756
   2 C :    0.225734
   3 H :   -0.196449
   4 H :   -0.143708
   5 O :   -0.603731
   6 O :   -0.625589
   7 H :   -0.206522
   8 H :   -0.158938
   9 H :   -0.223670
Sum of atomic charges:   -1.0000000

LOEWDIN ATOMIC CHARGES
----------------------
   0 C :    0.115230
   1 C :   -0.032615
   2 C :   -0.331310
   3 H :   -0.009211
   4 H :   -0.000314
   5 O :   -0.318849
   6 O :   -0.307414
   7 H :   -0.028939
   8 H :   -0.034701
   9 H :   -0.051875

  Mayer bond orders larger than 0.100000
B(  0-C ,  1-C ) :   1.2821 B(  0-C ,  3-H ) :   0.1179 B(  0-C ,  4-H ) :   0.1214
B(  0-C ,  7-H ) :   0.7608 B(  0-C ,  8-H ) :   0.7511 B(  0-C ,  9-H ) :   0.7669
B(  1-C ,  2-C ) :   1.0574 B(  1-C ,  3-H ) :   0.8924 B(  1-C ,  4-H ) :   0.8136
B(  1-C ,  7-H ) :   0.2211 B(  1-C ,  8-H ) :   0.2404 B(  1-C ,  9-H ) :   0.2105
B(  2-C ,  3-H ) :   0.2293 B(  2-C ,  4-H ) :   0.1073 B(  2-C ,  5-O ) :   1.5118
B(  2-C ,  6-O ) :   1.5592

Dispersion correction           -0.013570284
FINAL SINGLE POINT ENERGY      -267.591027813097

DIPOLE MOMENT
-------------
                                X             Y             Z
Electronic contribution:      1.64376       5.59609       0.66938
Nuclear contribution   :     -2.24498      -7.51881      -0.57245
                        -----------------------------------------
Total Dipole Moment    :     -0.60123      -1.92272       0.09693
                        -----------------------------------------
Magnitude (a.u.)       :      2.01686
Magnitude (Debye)      :      5.12646

Rotational constants in cm-1:     0.305589     0.135336     0.107479
Rotational constants in MHz :  9161.317320  4057.276612  3222.126231

                             ****ORCA TERMINATED NORMALLY****
TOTAL RUN TIME: 0 days 0 hours 0 minutes 9 seconds 160 msec
