                         Program Version 5.0.0 -  RELEASE  -
|  1> !BLYP D3BJ RIJCOSX def2-SVPD def2/J TightSCF
|  2> *xyz 1 1
|  3> C         -0.69912        3.48945        3.75516
|  4> H         -0.96672        4.34901        3.14049
|  5> N         -1.08067        3.79296        5.15686
|  6> C          0.77696        3.13839        3.61741
|  7> H         -1.33146        2.65651        3.44632
|  8> H         -0.87449        4.76274        5.42734
|  9> H         -0.68079        3.13476        5.83900
| 10> H         -2.05755        3.53169        5.34620
| 11> H          0.99957        2.92898        2.59199
| 12> H          0.99576        2.27685        4.21303
| 13> H          1.37223        3.96279        3.95046
| 14> *
| 15> %MaxCore 64000
| 16>
| 17> %pal nprocs 4
| 18> end
| 19>
| 20> %scf
| 21>   MaxIter 150
| 22> end
| 23>
| 24>
| 25>                          ****END OF INPUT****

CARTESIAN COORDINATES (ANGSTROEM)
---------------------------------
  C     -0.699120    3.489450    3.755160
  H     -0.966720    4.349010    3.140490
  N     -1.080670    3.792960    5.156860
  C      0.776960    3.138390    3.617410
  H     -1.331460    2.656510    3.446320
  H     -0.874490    4.762740    5.427340
  H     -0.680790    3.134760    5.839000
  H     -2.057550    3.531690    5.346200
  H      0.999570    2.928980    2.591990
  H      0.995760    2.276850    4.213030
  H      1.372230    3.962790    3.950460

 Total Charge           Charge          ....    1
 Multiplicity           Mult            ....    1
 Number of Electrons    NEL             ....   26
 Basis Dimension        Dim             ....  124

ORBITAL ENERGIES
----------------

  NO   OCC          E(Eh)            E(eV)
   0   2.0000     -14.358821      -390.7234
   1   2.0000     -10.176821      -276.9254
   2   2.0000     -10.099422      -274.8193
   3   2.0000      -1.124154       -30.5898
   4   2.0000      -0.886957       -24.1353
   5   2.0000      -0.777441       -21.1552
   6   2.0000      -0.760825       -20.7031
   7   2.0000      -0.713219       -19.4077
   8   2.0000      -0.648191       -17.6382
   9   2.0000      -0.593290       -16.1443
  10   2.0000      -0.536120       -14.5886
  11   2.0000      -0.522991       -14.2313
  12   2.0000      -0.506115       -13.7721
  13   0.0000      -0.222792        -6.0625
  14   0.0000      -0.166999        -4.5443
  15   0.0000      -0.162933        -4.4336
  16   0.0000      -0.147254        -4.0070
  17   0.0000      -0.116091        -3.1590

MULLIKEN ATOMIC CHARGES
-----------------------
   0 C :    0.503110
   1 H :   -0.238180
   2 N :   -0.669148
   3 C :    1.022829
   4 H :   -0.191975
   5 H :    0.359849
   6 H :    0.333350
   7 H :    0.308326
   8 H :   -0.156486
   9 H :   -0.162605
  10 H :   -0.109069
Sum of atomic charges:    1.0000000

LOEWDIN ATOMIC CHARGES
----------------------
   0 C :    0.058769
   1 H :    0.050549
   2 N :    0.336573
   3 C :    0.189537
   4 H :    0.048299
   5 H :    0.110588
   6 H :    0.100338
   7 H :    0.102154
   8 H :    0.010961
   9 H :   -0.004923
  10 H :   -0.002845

  Mayer bond orders larger than 0.100000
B(  0-C ,  1-H ) :   0.8250 B(  0-C ,  2-N ) :   0.7772 B(  0-C ,  3-C ) :   1.3279
B(  0-C ,  4-H ) :   0.8201 B(  0-C ,  8-H ) :   0.2353 B(  0-C ,  9-H ) :   0.2270
B(  0-C , 10-H ) :   0.1994 B(  1-H ,  2-N ) :   0.1462 B(  2-N ,  4-H ) :   0.1029
B(  2-N ,  5-H ) :   0.7266 B(  2-N ,  6-H ) :   0.7809 B(  2-N ,  7-H ) :   0.7927
B(  3-C ,  8-H ) :   0.7385 B(  3-C ,  9-H ) :   0.7565 B(  3-C , 10-H ) :   0.7324

Dispersion correction           -0.012385427
FINAL SINGLE POINT ENERGY      -135.366827294356

DIPOLE MOMENT
-------------
                                X             Y             Z
Electronic contribution:     -1.31506       0.57049       1.08170
Nuclear contribution   :      0.33986      -0.24565       0.10678
                        -----------------------------------------
Total Dipole Moment    :     -0.97521       0.32484       1.18848
                        -----------------------------------------
Magnitude (a.u.)       :      1.57132
Magnitude (Debye)      :      3.99397

Rotational constants in cm-1:     1.016237     0.277523     0.247812
Rotational constants in MHz : 30466.024354  8319.937961  7429.230177

                             ****ORCA TERMINATED NORMALLY****
TOTAL RUN TIME: 0 days 0 hours 0 minutes 8 seconds 21 msec
