                         Program Version 5.0.0 -  RELEASE  -
|  1> !BLYP D3BJ RIJCOSX def2-SVPD def2/J TightSCF xyzfile
|  2>
|  3> *xyzfile 0 1 B.xyz
|  4>
|  5> %MaxCore 64000
|  6>
|  7> %pal nprocs 4
|  8> end
|  9>
| 10> %scf
| 11>   MaxIter 150
| 12> end
| 13>
| 14>
| 15>                          ****END OF INPUT****

CARTESIAN COORDINATES (ANGSTROEM)
---------------------------------
  C     -0.699123    3.489451    3.755163
  H     -0.966716    4.349013    3.140491
  N     -1.080669    3.792957    5.156857
  C      0.776956    3.138391    3.617408
  H     -1.331455    2.656510    3.446323
  H      1.371398    3.888342    4.149744
  H      1.046926    3.232057    2.561331
  C      1.118917    1.731170    4.115155
  H      2.200573    1.654226    4.254882
  C      0.659466    0.635182    3.153306
  H      0.677024    1.576674    5.103150
  H      1.312288    0.638870    2.274207
  H     -0.339563    0.868049    2.772876
  C      0.639957   -0.771175    3.755619
  C     -0.341821   -0.965537    4.915046
  H      1.648266   -1.028665    4.097015
  H      0.398568   -1.482386    2.958453
  H     -0.279892   -2.005646    5.252547
  C     -1.789164   -0.639231    4.557496
  H     -0.032380   -0.352918    5.765118
  H     -2.107151   -1.270102    3.719619
  H     -1.856352    0.391636    4.197604
  C     -2.790700   -0.785275    5.702812
  H     -2.867308   -1.835651    6.001675
  H     -3.774554   -0.486577    5.334807
  C     -2.453797    0.055101    6.941445
  C     -2.078419    1.480421    6.564098
  H     -1.625584   -0.382163    7.498914
  H     -3.325274    0.087746    7.599175
  H     -0.874488    4.762737    5.427344
  H     -0.680793    3.134762    5.839000
  H     -2.057550    3.531691    5.346197
  O     -0.901252    1.858156    6.828104
  O     -2.936582    2.177309    5.964151

 Total Charge           Charge          ....    0
 Multiplicity           Mult            ....    1
 Number of Electrons    NEL             ....  104
 Basis Dimension        Dim             ....  434

ORBITAL ENERGIES
----------------

  NO   OCC          E(Eh)            E(eV)
   0   2.0000     -18.730675      -509.6876
   1   2.0000     -18.729619      -509.6588
   2   2.0000     -14.101128      -383.7112
   3   2.0000      -9.992887      -271.9203
   4   2.0000      -9.989991      -271.8415
   5   2.0000      -9.944250      -270.5968
   6   2.0000      -9.920254      -269.9438
   7   2.0000      -9.917099      -269.8580
   8   2.0000      -9.910590      -269.6809
   9   2.0000      -9.901623      -269.4369
  10   2.0000      -9.901562      -269.4352
  11   2.0000      -9.900391      -269.4033
  12   2.0000      -9.893888      -269.2264
  13   2.0000      -0.926291       -25.2056
  14   2.0000      -0.886055       -24.1108
  15   2.0000      -0.830824       -22.6079
  16   2.0000      -0.735522       -20.0146
  17   2.0000      -0.708431       -19.2774
  18   2.0000      -0.682467       -18.5709
  19   2.0000      -0.640214       -17.4211
  20   2.0000      -0.610812       -16.6210
  21   2.0000      -0.575624       -15.6635
  22   2.0000      -0.541982       -14.7481
  23   2.0000      -0.534082       -14.5331
  24   2.0000      -0.510722       -13.8974
  25   2.0000      -0.492447       -13.4002
  26   2.0000      -0.480824       -13.0839
  27   2.0000      -0.449364       -12.2278
  28   2.0000      -0.422763       -11.5040
  29   2.0000      -0.419761       -11.4223
  30   2.0000      -0.417312       -11.3556
  31   2.0000      -0.392720       -10.6865
  32   2.0000      -0.387673       -10.5491
  33   2.0000      -0.381791       -10.3891
  34   2.0000      -0.369393       -10.0517
  35   2.0000      -0.361182        -9.8283
  36   2.0000      -0.350183        -9.5290
  37   2.0000      -0.346572        -9.4307
  38   2.0000      -0.339742        -9.2448
  39   2.0000      -0.331109        -9.0099
  40   2.0000      -0.317092        -8.6285
  41   2.0000      -0.312315        -8.4985
  42   2.0000      -0.305562        -8.3148
  43   2.0000      -0.291830        -7.9411
  44   2.0000      -0.283892        -7.7251
  45   2.0000      -0.278859        -7.5882
  46   2.0000      -0.266458        -7.2507
  47   2.0000      -0.261339        -7.1114
  48   2.0000      -0.255543        -6.9537
  49   2.0000      -0.209059        -5.6888
  50   2.0000      -0.192025        -5.2253
  51   2.0000      -0.185489        -5.0474
  52   0.0000      -0.026954        -0.7334
  53   0.0000       0.003622         0.0986
  54   0.0000       0.009017         0.2454
  55   0.0000       0.012828         0.3491
  56   0.0000       0.019570         0.5325

MULLIKEN ATOMIC CHARGES
-----------------------
   0 C :    1.426681
   1 H :   -0.393848
   2 N :   -0.483117
   3 C :    0.646668
   4 H :   -0.478067
   5 H :   -0.247087
   6 H :   -0.228229
   7 C :    1.152664
   8 H :   -0.124066
   9 C :    0.316296
  10 H :   -0.985118
  11 H :   -0.437094
  12 H :   -0.280418
  13 C :    1.054846
  14 C :    0.281024
  15 H :   -0.304537
  16 H :   -0.115388
  17 H :   -0.465791
  18 C :    0.703524
  19 H :   -0.131542
  20 H :   -0.208454
  21 H :   -0.823224
  22 C :    0.762562
  23 H :   -0.368852
  24 H :   -0.060273
  25 C :    0.674998
  26 C :    0.162135
  27 H :   -0.010674
  28 H :   -0.355273
  29 H :    0.288231
  30 H :    0.165115
  31 H :    0.167065
  32 O :   -0.675063
  33 O :   -0.625692
Sum of atomic charges:    0.0000000

LOEWDIN ATOMIC CHARGES
----------------------
   0 C :    0.101196
   1 H :    0.027233
   2 N :    0.334821
   3 C :   -0.000535
   4 H :    0.019775
   5 H :    0.018916
   6 H :    0.022967
   7 C :    0.001648
   8 H :    0.025888
   9 C :   -0.022562
  10 H :   -0.017727
  11 H :    0.018351
  12 H :   -0.005331
  13 C :   -0.016949
  14 C :   -0.012786
  15 H :    0.017622
  16 H :    0.016369
  17 H :    0.021725
  18 C :   -0.018317
  19 H :   -0.004581
  20 H :    0.022510
  21 H :   -0.010175
  22 C :   -0.008491
  23 H :    0.014248
  24 H :    0.018814
  25 C :    0.044775
  26 C :   -0.212370
  27 H :    0.012768
  28 H :    0.023361
  29 H :    0.087353
  30 H :   -0.061661
  31 H :   -0.026755
  32 O :   -0.220587
  33 O :   -0.211512

  Mayer bond orders larger than 0.100000
B(  0-C ,  1-H ) :   0.5000 B(  0-C ,  2-N ) :   0.6567 B(  0-C ,  3-C ) :   1.1180
B(  0-C ,  4-H ) :   0.4659 B(  0-C ,  6-H ) :   0.1656 B(  0-C ,  7-C ) :   0.3356
B(  0-C , 10-H ) :  -0.2522 B(  0-C , 18-C ) :   0.1404 B(  0-C , 21-H ) :  -0.1225
B(  1-H ,  3-C ) :   0.1774 B(  1-H ,  8-H ) :   0.1329 B(  1-H , 10-H ) :  -0.1245
B(  2-N ,  4-H ) :   0.3511 B(  2-N , 26-C ) :   0.1119 B(  2-N , 29-H ) :   0.8395
B(  2-N , 30-H ) :   0.8312 B(  2-N , 31-H ) :   0.8059 B(  2-N , 32-O ) :   0.1091
B(  3-C ,  4-H ) :   0.1746 B(  3-C ,  5-H ) :   0.5841 B(  3-C ,  6-H ) :   0.6571
B(  3-C ,  7-C ) :   1.0867 B(  3-C ,  8-H ) :   0.1127 B(  3-C ,  9-C ) :   0.1068
B(  3-C , 10-H ) :   0.2855 B(  4-H ,  7-C ) :  -0.1320 B(  4-H ,  8-H ) :  -0.1176
B(  4-H , 10-H ) :   0.1363 B(  4-H , 12-H ) :   0.1420 B(  4-H , 18-C ) :  -0.1246
B(  4-H , 21-H ) :   0.2642 B(  5-H ,  6-H ) :  -0.1362 B(  5-H ,  7-C ) :   0.1684
B(  5-H , 10-H ) :   0.1168 B(  7-C ,  8-H ) :   0.5303 B(  7-C ,  9-C ) :   1.0219
B(  7-C , 10-H ) :  -0.2002 B(  7-C , 11-H ) :   0.2420 B(  7-C , 12-H ) :   0.1480
B(  8-H ,  9-C ) :   0.2312 B(  9-C , 10-H ) :   0.4046 B(  9-C , 11-H ) :   0.7011
B(  9-C , 12-H ) :   0.7489 B(  9-C , 13-C ) :   1.1497 B(  9-C , 14-C ) :   0.2004
B(  9-C , 15-H ) :   0.1580 B(  9-C , 16-H ) :   0.3275 B( 10-H , 13-C ) :  -0.1339
B( 10-H , 19-H ) :   0.1478 B( 12-H , 21-H ) :   0.1058 B( 13-C , 14-C ) :   1.0990
B( 13-C , 15-H ) :   0.4567 B( 13-C , 16-H ) :   0.5184 B( 14-C , 15-H ) :   0.3856
B( 14-C , 16-H ) :   0.1126 B( 14-C , 17-H ) :   0.7152 B( 14-C , 18-C ) :   1.0994
B( 14-C , 19-H ) :   0.7970 B( 14-C , 20-H ) :   0.2123 B( 14-C , 21-H ) :   0.3485
B( 15-H , 16-H ) :  -0.1970 B( 17-H , 18-C ) :   0.1610 B( 18-C , 19-H ) :   0.1534
B( 18-C , 20-H ) :   0.5313 B( 18-C , 21-H ) :   0.2630 B( 18-C , 22-C ) :   1.1399
B( 18-C , 23-H ) :   0.2123 B( 18-C , 24-H ) :   0.3412 B( 18-C , 25-C ) :   0.2003
B( 20-H , 21-H ) :   0.1267 B( 20-H , 22-C ) :   0.1139 B( 21-H , 22-C ) :   0.2295
B( 22-C , 23-H ) :   0.6172 B( 22-C , 24-H ) :   0.5219 B( 22-C , 25-C ) :   1.0974
B( 22-C , 26-C ) :   0.1391 B( 22-C , 27-H ) :   0.1197 B( 22-C , 28-H ) :   0.2114
B( 23-H , 24-H ) :  -0.2171 B( 23-H , 25-C ) :   0.1841 B( 24-H , 25-C ) :   0.1354
B( 25-C , 26-C ) :   1.1179 B( 25-C , 27-H ) :   0.6983 B( 25-C , 28-H ) :   0.4571
B( 25-C , 33-O ) :   0.1199 B( 26-C , 27-H ) :   0.2678 B( 26-C , 28-H ) :   0.3350
B( 26-C , 32-O ) :   1.4510 B( 26-C , 33-O ) :   1.4178 B( 27-H , 28-H ) :  -0.1072
B( 30-H , 32-O ) :   0.2516 B( 31-H , 33-O ) :   0.2169 B( 32-O , 33-O ) :   0.1112

Dispersion correction           -0.076156735
FINAL SINGLE POINT ENERGY      -598.319987370536

DIPOLE MOMENT
-------------
                                X             Y             Z
Electronic contribution:     -4.67602       4.81223       6.73018
Nuclear contribution   :      5.60885      -3.40606      -8.06960
                        -----------------------------------------
Total Dipole Moment    :      0.93283       1.40617      -1.33942
                        -----------------------------------------
Magnitude (a.u.)       :      2.15442
Magnitude (Debye)      :      5.47611

Rotational constants in cm-1:     0.028465     0.023505     0.015110
Rotational constants in MHz :   853.363165   704.655786   452.976312

                             ****ORCA TERMINATED NORMALLY****
TOTAL RUN TIME: 0 days 0 hours 0 minutes 48 seconds 994 msec
