                         Program Version 5.0.0 -  RELEASE  -
|  1> !BLYP D3BJ RIJCOSX def2-SVPD def2/J TightSCF
|  2> *xyz 0 1
|  3> C         -2.79070       -0.78527        5.70281
|  4> C         -2.45380        0.05510        6.94145
|  5> C         -2.07842        1.48042        6.56410
|  6> H         -1.62558       -0.38216        7.49891
|  7> H         -3.32527        0.08775        7.59917
|  8> F         -0.90125        1.85816        6.82810
|  9> O         -2.93658        2.17731        5.96415
| 10> H         -1.94052       -0.82114        5.05412
| 11> H         -3.61590       -0.34261        5.18514
| 12> H         -3.05063       -1.77815        6.00536
| 13> *
| 14> %MaxCore 64000
| 15>
| 16> %pal nprocs 4
| 17> end
| 18>
| 19> %scf
| 20>   MaxIter 150
| 21> end
| 22>
| 23>
| 24>                          ****END OF INPUT****

CARTESIAN COORDINATES (ANGSTROEM)
---------------------------------
  C     -2.790700   -0.785270    5.702810
  C     -2.453800    0.055100    6.941450
  C     -2.078420    1.480420    6.564100
  H     -1.625580   -0.382160    7.498910
  H     -3.325270    0.087750    7.599170
  F     -0.901250    1.858160    6.828100
  O     -2.936580    2.177310    5.964150
  H     -1.940520   -0.821140    5.054120
  H     -3.615900   -0.342610    5.185140
  H     -3.050630   -1.778150    6.005360

 Total Charge           Charge          ....    0
 Multiplicity           Mult            ....    1
 Number of Electrons    NEL             ....   40
 Basis Dimension        Dim             ....  146

ORBITAL ENERGIES
----------------

  NO   OCC          E(Eh)            E(eV)
   0   2.0000     -24.373042      -663.2242
   1   2.0000     -18.799968      -511.5731
   2   2.0000     -10.096561      -274.7414
   3   2.0000      -9.955994      -270.9164
   4   2.0000      -9.931745      -270.2565
   5   2.0000      -1.191695       -32.4277
   6   2.0000      -0.931686       -25.3525
   7   2.0000      -0.718775       -19.5589
   8   2.0000      -0.614583       -16.7237
   9   2.0000      -0.569583       -15.4991
  10   2.0000      -0.486051       -13.2261
  11   2.0000      -0.470327       -12.7982
  12   2.0000      -0.446298       -12.1444
  13   2.0000      -0.413671       -11.2566
  14   2.0000      -0.382878       -10.4186
  15   2.0000      -0.354666        -9.6509
  16   2.0000      -0.333990        -9.0883
  17   2.0000      -0.330019        -8.9803
  18   2.0000      -0.306855        -8.3499
  19   2.0000      -0.245704        -6.6859
  20   0.0000      -0.070796        -1.9265
  21   0.0000      -0.004765        -0.1297
  22   0.0000       0.026188         0.7126
  23   0.0000       0.038720         1.0536
  24   0.0000       0.051724         1.4075

MULLIKEN ATOMIC CHARGES
-----------------------
   0 C :    0.941624
   1 C :    0.001225
   2 C :    0.541904
   3 H :   -0.176362
   4 H :   -0.085102
   5 F :   -0.305223
   6 O :   -0.399955
   7 H :   -0.184426
   8 H :   -0.147077
   9 H :   -0.186608
Sum of atomic charges:    0.0000000

LOEWDIN ATOMIC CHARGES
----------------------
   0 C :    0.158098
   1 C :    0.012344
   2 C :   -0.041883
   3 H :    0.016065
   4 H :    0.034927
   5 F :   -0.020942
   6 O :   -0.113474
   7 H :   -0.013985
   8 H :   -0.013324
   9 H :   -0.017825

  Mayer bond orders larger than 0.100000
B(  0-C ,  1-C ) :   1.3179 B(  0-C ,  3-H ) :   0.1147 B(  0-C ,  4-H ) :   0.1133
B(  0-C ,  7-H ) :   0.7584 B(  0-C ,  8-H ) :   0.7493 B(  0-C ,  9-H ) :   0.7636
B(  1-C ,  2-C ) :   1.0919 B(  1-C ,  3-H ) :   0.8963 B(  1-C ,  4-H ) :   0.8029
B(  1-C ,  7-H ) :   0.2046 B(  1-C ,  8-H ) :   0.2176 B(  1-C ,  9-H ) :   0.2002
B(  2-C ,  3-H ) :   0.1260 B(  2-C ,  5-F ) :   0.8178 B(  2-C ,  6-O ) :   1.8770
B(  5-F ,  6-O ) :   0.1244

Dispersion correction           -0.012868030
FINAL SINGLE POINT ENERGY      -292.129044282593

DIPOLE MOMENT
-------------
                                X             Y             Z
Electronic contribution:      3.95980       7.44278       1.47841
Nuclear contribution   :     -3.69486      -8.49563      -1.04945
                        -----------------------------------------
Total Dipole Moment    :      0.26494      -1.05285       0.42895
                        -----------------------------------------
Magnitude (a.u.)       :      1.16735
Magnitude (Debye)      :      2.96716

Rotational constants in cm-1:     0.293725     0.129218     0.102393
Rotational constants in MHz :  8805.653529  3873.869810  3069.666716

                             ****ORCA TERMINATED NORMALLY****
TOTAL RUN TIME: 0 days 0 hours 0 minutes 8 seconds 547 msec
