                         Program Version 5.0.0 -  RELEASE  -
|  1> !BLYP D3BJ RIJCOSX def2-SVPD def2/J TightSCF
|  2> *xyz 0 1
|  3> C         -0.69912        3.48945        3.75516
|  4> H         -0.96672        4.34901        3.14049
|  5> C         -1.08067        3.79296        5.15686
|  6> C          0.77696        3.13839        3.61741
|  7> H         -1.33146        2.65651        3.44632
|  8> H         -0.87449        4.76274        5.42734
|  9> H         -0.68079        3.13476        5.83900
| 10> H         -2.05755        3.53169        5.34620
| 11> H          0.99957        2.92898        2.59199
| 12> H          0.99576        2.27685        4.21303
| 13> H          1.37223        3.96279        3.95046
| 14> *
| 15> %MaxCore 64000
| 16>
| 17> %pal nprocs 4
| 18> end
| 19>
| 20> %scf
| 21>   MaxIter 150
| 22> end
| 23>
| 24>
| 25>                          ****END OF INPUT****

CARTESIAN COORDINATES (ANGSTROEM)
---------------------------------
  C     -0.699120    3.489450    3.755160
  H     -0.966720    4.349010    3.140490
  C     -1.080670    3.792960    5.156860
  C      0.776960    3.138390    3.617410
  H     -1.331460    2.656510    3.446320
  H     -0.874490    4.762740    5.427340
  H     -0.680790    3.134760    5.839000
  H     -2.057550    3.531690    5.346200
  H      0.999570    2.928980    2.591990
  H      0.995760    2.276850    4.213030
  H      1.372230    3.962790    3.950460

 Total Charge           Charge          ....    0
 Multiplicity           Mult            ....    1
 Number of Electrons    NEL             ....   26
 Basis Dimension        Dim             ....  124

ORBITAL ENERGIES
----------------

  NO   OCC          E(Eh)            E(eV)
   0   2.0000      -9.910145      -269.6688
   1   2.0000      -9.902200      -269.4526
   2   2.0000      -9.886219      -269.0177
   3   2.0000      -0.705229       -19.1902
   4   2.0000      -0.613223       -16.6867
   5   2.0000      -0.518688       -14.1142
   6   2.0000      -0.418127       -11.3778
   7   2.0000      -0.387218       -10.5367
   8   2.0000      -0.351122        -9.5545
   9   2.0000      -0.347469        -9.4551
  10   2.0000      -0.295985        -8.0542
  11   2.0000      -0.285039        -7.7563
  12   2.0000      -0.281594        -7.6626
  13   0.0000       0.007920         0.2155
  14   0.0000       0.037707         1.0261
  15   0.0000       0.044026         1.1980
  16   0.0000       0.060906         1.6573
  17   0.0000       0.083168         2.2631

MULLIKEN ATOMIC CHARGES
-----------------------
   0 C :   -0.252630
   1 H :   -0.268725
   2 C :    1.324899
   3 C :    1.021149
   4 H :   -0.185499
   5 H :   -0.346708
   6 H :   -0.374396
   7 H :   -0.353158
   8 H :   -0.230983
   9 H :   -0.151223
  10 H :   -0.182728
Sum of atomic charges:   -0.0000000

LOEWDIN ATOMIC CHARGES
----------------------
   0 C :   -0.103458
   1 H :    0.016382
   2 C :    0.124202
   3 C :    0.132159
   4 H :    0.015476
   5 H :   -0.030586
   6 H :   -0.040210
   7 H :   -0.041618
   8 H :   -0.028306
   9 H :   -0.022645
  10 H :   -0.021397

  Mayer bond orders larger than 0.100000
B(  0-C ,  1-H ) :   0.8495 B(  0-C ,  2-C ) :   1.2985 B(  0-C ,  3-C ) :   1.2775
B(  0-C ,  4-H ) :   0.8155 B(  0-C ,  5-H ) :   0.2797 B(  0-C ,  6-H ) :   0.2462
B(  0-C ,  7-H ) :   0.2679 B(  0-C ,  8-H ) :   0.2489 B(  0-C ,  9-H ) :   0.2062
B(  0-C , 10-H ) :   0.2267 B(  1-H ,  2-C ) :   0.1361 B(  2-C ,  4-H ) :   0.1570
B(  2-C ,  5-H ) :   0.5734 B(  2-C ,  6-H ) :   0.4778 B(  2-C ,  7-H ) :   0.4591
B(  3-C ,  8-H ) :   0.7157 B(  3-C ,  9-H ) :   0.7533 B(  3-C , 10-H ) :   0.7358
B(  6-H ,  7-H ) :   0.3166

Dispersion correction           -0.012469430
FINAL SINGLE POINT ENERGY      -118.958559544360

DIPOLE MOMENT
-------------
                                X             Y             Z
Electronic contribution:     -0.14413       0.12254      -0.39805
Nuclear contribution   :      0.10024      -0.14218       0.41628
                        -----------------------------------------
Total Dipole Moment    :     -0.04388      -0.01965       0.01824
                        -----------------------------------------
Magnitude (a.u.)       :      0.05142
Magnitude (Debye)      :      0.13071

Rotational constants in cm-1:     1.024179     0.291605     0.259489
Rotational constants in MHz : 30704.103454  8742.106283  7779.285909

                             ****ORCA TERMINATED NORMALLY****
TOTAL RUN TIME: 0 days 0 hours 0 minutes 7 seconds 692 msec
