                         Program Version 5.0.0 -  RELEASE  -
|  1> !BLYP D3BJ RIJCOSX def2-SVPD def2/J TightSCF
|  2> *xyz 0 1
|  3> C         -2.79070       -0.78527        5.70281
|  4> C         -2.45380        0.05510        6.94145
|  5> C         -2.07842        1.48042        6.56410
|  6> H         -1.62558       -0.38216        7.49891
|  7> H         -3.32527        0.08775        7.59917
|  8> O         -0.90125        1.85816        6.82810
|  9> F         -2.93658        2.17731        5.96415
| 10> H         -1.94052       -0.82114        5.05412
| 11> H         -3.61590       -0.34261        5.18514
| 12> H         -3.05063       -1.77815        6.00536
| 13> *
| 14> %MaxCore 64000
| 15>
| 16> %pal nprocs 4
| 17> end
| 18>
| 19> %scf
| 20>   MaxIter 150
| 21> end
| 22>
| 23>
| 24>                          ****END OF INPUT****

CARTESIAN COORDINATES (ANGSTROEM)
---------------------------------
  C     -2.790700   -0.785270    5.702810
  C     -2.453800    0.055100    6.941450
  C     -2.078420    1.480420    6.564100
  H     -1.625580   -0.382160    7.498910
  H     -3.325270    0.087750    7.599170
  O     -0.901250    1.858160    6.828100
  F     -2.936580    2.177310    5.964150
  H     -1.940520   -0.821140    5.054120
  H     -3.615900   -0.342610    5.185140
  H     -3.050630   -1.778150    6.005360

 Total Charge           Charge          ....    0
 Multiplicity           Mult            ....    1
 Number of Electrons    NEL             ....   40
 Basis Dimension        Dim             ....  146

ORBITAL ENERGIES
----------------

  NO   OCC          E(Eh)            E(eV)
   0   2.0000     -24.376329      -663.3136
   1   2.0000     -18.797911      -511.5172
   2   2.0000     -10.096426      -274.7377
   3   2.0000      -9.955640      -270.9067
   4   2.0000      -9.935717      -270.3646
   5   2.0000      -1.197045       -32.5733
   6   2.0000      -0.926830       -25.2203
   7   2.0000      -0.721780       -19.6406
   8   2.0000      -0.612708       -16.6726
   9   2.0000      -0.575696       -15.6655
  10   2.0000      -0.489803       -13.3282
  11   2.0000      -0.476189       -12.9578
  12   2.0000      -0.442076       -12.0295
  13   2.0000      -0.413603       -11.2547
  14   2.0000      -0.384490       -10.4625
  15   2.0000      -0.356728        -9.7071
  16   2.0000      -0.336568        -9.1585
  17   2.0000      -0.332794        -9.0558
  18   2.0000      -0.308870        -8.4048
  19   2.0000      -0.239421        -6.5150
  20   0.0000      -0.068654        -1.8682
  21   0.0000      -0.006976        -0.1898
  22   0.0000       0.026986         0.7343
  23   0.0000       0.037948         1.0326
  24   0.0000       0.052680         1.4335

MULLIKEN ATOMIC CHARGES
-----------------------
   0 C :    0.929670
   1 C :    0.031827
   2 C :    0.551435
   3 H :   -0.182318
   4 H :   -0.101009
   5 O :   -0.380517
   6 F :   -0.323084
   7 H :   -0.183314
   8 H :   -0.159655
   9 H :   -0.183035
Sum of atomic charges:   -0.0000000

LOEWDIN ATOMIC CHARGES
----------------------
   0 C :    0.153479
   1 C :    0.015773
   2 C :   -0.045676
   3 H :    0.028255
   4 H :    0.029033
   5 O :   -0.119256
   6 F :   -0.013308
   7 H :   -0.011967
   8 H :   -0.018851
   9 H :   -0.017482

  Mayer bond orders larger than 0.100000
B(  0-C ,  1-C ) :   1.2995 B(  0-C ,  3-H ) :   0.1018 B(  0-C ,  4-H ) :   0.1122
B(  0-C ,  7-H ) :   0.7714 B(  0-C ,  8-H ) :   0.7400 B(  0-C ,  9-H ) :   0.7726
B(  1-C ,  2-C ) :   1.0681 B(  1-C ,  3-H ) :   0.9031 B(  1-C ,  4-H ) :   0.8038
B(  1-C ,  7-H ) :   0.1997 B(  1-C ,  8-H ) :   0.2123 B(  1-C ,  9-H ) :   0.1978
B(  2-C ,  3-H ) :   0.1750 B(  2-C ,  5-O ) :   1.8616 B(  2-C ,  6-F ) :   0.7980
B(  5-O ,  6-F ) :   0.1331

Dispersion correction           -0.012791987
FINAL SINGLE POINT ENERGY      -292.126631957993

DIPOLE MOMENT
-------------
                                X             Y             Z
Electronic contribution:      0.59140       7.94686       0.05311
Nuclear contribution   :     -1.47571      -8.84360      -0.10748
                        -----------------------------------------
Total Dipole Moment    :     -0.88431      -0.89674      -0.05437
                        -----------------------------------------
Magnitude (a.u.)       :      1.26060
Magnitude (Debye)      :      3.20419

Rotational constants in cm-1:     0.283081     0.133379     0.103386
Rotational constants in MHz :  8486.545774  3998.599544  3099.448040

                             ****ORCA TERMINATED NORMALLY****
TOTAL RUN TIME: 0 days 0 hours 0 minutes 9 seconds 44 msec
