                         Program Version 5.0.0 -  RELEASE  -
|  1> !BLYP D3BJ RIJCOSX def2-SVPD def2/J TightSCF xyzfile
|  2>
|  3> *xyzfile 0 1 D2.xyz
|  4>
|  5> %MaxCore 64000
|  6>
|  7> %pal nprocs 4
|  8> end
|  9>
| 10> %scf
| 11>   MaxIter 150
| 12> end
| 13>
| 14>
| 15>                          ****END OF INPUT****

CARTESIAN COORDINATES (ANGSTROEM)
---------------------------------
  C     -0.699123    3.489451    3.755163
  H     -0.966716    4.349013    3.140491
  C     -1.080669    3.792957    5.156857
  C      0.776956    3.138391    3.617408
  H     -1.331455    2.656510    3.446323
  H      1.371398    3.888342    4.149744
  H      1.046926    3.232057    2.561331
  C      1.118917    1.731170    4.115155
  H      2.200573    1.654226    4.254882
  C      0.659466    0.635182    3.153306
  H      0.677024    1.576674    5.103150
  H      1.312288    0.638870    2.274207
  H     -0.339563    0.868049    2.772876
  C      0.639957   -0.771175    3.755619
  C     -0.341821   -0.965537    4.915046
  H      1.648266   -1.028665    4.097015
  H      0.398568   -1.482386    2.958453
  H     -0.279892   -2.005646    5.252547
  C     -1.789164   -0.639231    4.557496
  H     -0.032380   -0.352918    5.765118
  H     -2.107151   -1.270102    3.719619
  H     -1.856352    0.391636    4.197604
  C     -2.790700   -0.785275    5.702812
  H     -2.867308   -1.835651    6.001675
  H     -3.774554   -0.486577    5.334807
  C     -2.453797    0.055101    6.941445
  C     -2.078419    1.480421    6.564098
  H     -1.625584   -0.382163    7.498914
  H     -3.325274    0.087746    7.599175
  H     -0.874488    4.762737    5.427344
  H     -0.680793    3.134762    5.839000
  H     -2.057550    3.531691    5.346197
  O     -0.901252    1.858156    6.828104
  F     -2.936582    2.177309    5.964151

 Total Charge           Charge          ....    0
 Multiplicity           Mult            ....    1
 Number of Electrons    NEL             ....  104
 Basis Dimension        Dim             ....  434

ORBITAL ENERGIES
----------------

  NO   OCC          E(Eh)            E(eV)
   0   2.0000     -24.385931      -663.5749
   1   2.0000     -18.804756      -511.7034
   2   2.0000     -10.106413      -275.0095
   3   2.0000      -9.955891      -270.9136
   4   2.0000      -9.941890      -270.5326
   5   2.0000      -9.926429      -270.1119
   6   2.0000      -9.916163      -269.8325
   7   2.0000      -9.912231      -269.7255
   8   2.0000      -9.905298      -269.5369
   9   2.0000      -9.898798      -269.3600
  10   2.0000      -9.896144      -269.2878
  11   2.0000      -9.890303      -269.1288
  12   2.0000      -9.838934      -267.7310
  13   2.0000      -1.210659       -32.9437
  14   2.0000      -0.943680       -25.6788
  15   2.0000      -0.745702       -20.2916
  16   2.0000      -0.718038       -19.5388
  17   2.0000      -0.690930       -18.8012
  18   2.0000      -0.665665       -18.1137
  19   2.0000      -0.625310       -17.0156
  20   2.0000      -0.607736       -16.5373
  21   2.0000      -0.586655       -15.9637
  22   2.0000      -0.549399       -14.9499
  23   2.0000      -0.539379       -14.6772
  24   2.0000      -0.501630       -13.6500
  25   2.0000      -0.497094       -13.5266
  26   2.0000      -0.490325       -13.3424
  27   2.0000      -0.471118       -12.8198
  28   2.0000      -0.453965       -12.3530
  29   2.0000      -0.427701       -11.6383
  30   2.0000      -0.423631       -11.5276
  31   2.0000      -0.404811       -11.0155
  32   2.0000      -0.399287       -10.8652
  33   2.0000      -0.381730       -10.3874
  34   2.0000      -0.371306       -10.1038
  35   2.0000      -0.363955        -9.9037
  36   2.0000      -0.359208        -9.7745
  37   2.0000      -0.352926        -9.6036
  38   2.0000      -0.340810        -9.2739
  39   2.0000      -0.329334        -8.9616
  40   2.0000      -0.324384        -8.8269
  41   2.0000      -0.320625        -8.7246
  42   2.0000      -0.306033        -8.3276
  43   2.0000      -0.300835        -8.1861
  44   2.0000      -0.292770        -7.9667
  45   2.0000      -0.282328        -7.6825
  46   2.0000      -0.278314        -7.5733
  47   2.0000      -0.269099        -7.3226
  48   2.0000      -0.263336        -7.1657
  49   2.0000      -0.254676        -6.9301
  50   2.0000      -0.250651        -6.8206
  51   2.0000      -0.212310        -5.7772
  52   0.0000      -0.080261        -2.1840
  53   0.0000      -0.007921        -0.2155
  54   0.0000       0.012974         0.3530
  55   0.0000       0.014117         0.3841
  56   0.0000       0.021058         0.5730

MULLIKEN ATOMIC CHARGES
-----------------------
   0 C :    0.329556
   1 H :   -0.473341
   2 C :    2.569376
   3 C :    0.851957
   4 H :   -0.409999
   5 H :   -0.254527
   6 H :   -0.288036
   7 C :    1.114226
   8 H :   -0.099576
   9 C :    0.311662
  10 H :   -1.048949
  11 H :   -0.424037
  12 H :   -0.256145
  13 C :    1.054756
  14 C :    0.273798
  15 H :   -0.304328
  16 H :   -0.117869
  17 H :   -0.459250
  18 C :    0.768130
  19 H :   -0.145100
  20 H :   -0.200716
  21 H :   -0.849284
  22 C :    0.768645
  23 H :   -0.349157
  24 H :   -0.087095
  25 C :    0.668384
  26 C :    0.469083
  27 H :   -0.021377
  28 H :   -0.336100
  29 H :   -0.414326
  30 H :   -0.950386
  31 H :   -0.661637
  32 O :   -0.579881
  33 F :   -0.448461
Sum of atomic charges:   -0.0000000

LOEWDIN ATOMIC CHARGES
----------------------
   0 C :   -0.032936
   1 H :    0.014022
   2 C :    0.144907
   3 C :   -0.014045
   4 H :   -0.005173
   5 H :    0.020327
   6 H :    0.010925
   7 C :   -0.000198
   8 H :    0.020898
   9 C :   -0.022854
  10 H :   -0.018504
  11 H :    0.019210
  12 H :   -0.005620
  13 C :   -0.017422
  14 C :   -0.013908
  15 H :    0.018653
  16 H :    0.015668
  17 H :    0.021829
  18 C :   -0.015270
  19 H :   -0.005319
  20 H :    0.028891
  21 H :   -0.005411
  22 C :   -0.006146
  23 H :    0.022928
  24 H :    0.020568
  25 C :    0.068859
  26 C :    0.019034
  27 H :    0.029470
  28 H :    0.031801
  29 H :   -0.021720
  30 H :   -0.129717
  31 H :   -0.081409
  32 O :   -0.105336
  33 F :   -0.007004

  Mayer bond orders larger than 0.100000
B(  0-C ,  1-H ) :   0.6703 B(  0-C ,  2-C ) :   0.6182 B(  0-C ,  3-C ) :   1.1659
B(  0-C ,  4-H ) :   0.5656 B(  0-C ,  5-H ) :   0.1862 B(  0-C ,  6-H ) :   0.2328
B(  0-C ,  7-C ) :   0.2936 B(  0-C , 10-H ) :  -0.2003 B(  0-C , 29-H ) :   0.1635
B(  0-C , 30-H ) :   0.7758 B(  0-C , 31-H ) :   0.5042 B(  1-H ,  3-C ) :   0.1189
B(  1-H ,  5-H ) :   0.1375 B(  1-H ,  8-H ) :   0.1390 B(  1-H , 10-H ) :  -0.1112
B(  1-H , 30-H ) :   0.1404 B(  2-C ,  3-C ) :   0.1494 B(  2-C ,  4-H ) :   0.2873
B(  2-C , 29-H ) :   0.2417 B(  2-C , 30-H ) :  -0.9096 B(  2-C , 31-H ) :  -0.3618
B(  3-C ,  4-H ) :   0.1672 B(  3-C ,  5-H ) :   0.5134 B(  3-C ,  6-H ) :   0.5369
B(  3-C ,  7-C ) :   1.1049 B(  3-C ,  9-C ) :   0.1120 B(  3-C , 10-H ) :   0.3155
B(  3-C , 30-H ) :  -0.1784 B(  4-H ,  7-C ) :  -0.1333 B(  4-H ,  8-H ) :  -0.1174
B(  4-H , 10-H ) :   0.1398 B(  4-H , 12-H ) :   0.1312 B(  4-H , 18-C ) :  -0.1033
B(  4-H , 21-H ) :   0.2505 B(  5-H ,  6-H ) :  -0.2105 B(  5-H ,  7-C ) :   0.2131
B(  5-H , 10-H ) :   0.1521 B(  6-H ,  7-C ) :   0.1661 B(  6-H ,  8-H ) :   0.1221
B(  7-C ,  8-H ) :   0.4954 B(  7-C ,  9-C ) :   1.0279 B(  7-C , 10-H ) :  -0.1789
B(  7-C , 11-H ) :   0.2280 B(  7-C , 12-H ) :   0.1459 B(  8-H ,  9-C ) :   0.2511
B(  9-C , 10-H ) :   0.3865 B(  9-C , 11-H ) :   0.6974 B(  9-C , 12-H ) :   0.7705
B(  9-C , 13-C ) :   1.1511 B(  9-C , 14-C ) :   0.2006 B(  9-C , 15-H ) :   0.1656
B(  9-C , 16-H ) :   0.3182 B( 10-H , 13-C ) :  -0.1232 B( 10-H , 19-H ) :   0.1436
B( 10-H , 30-H ) :   0.1195 B( 11-H , 21-H ) :  -0.1007 B( 12-H , 14-C ) :  -0.1062
B( 13-C , 14-C ) :   1.1029 B( 13-C , 15-H ) :   0.4567 B( 13-C , 16-H ) :   0.5185
B( 14-C , 15-H ) :   0.3951 B( 14-C , 16-H ) :   0.1040 B( 14-C , 17-H ) :   0.7215
B( 14-C , 18-C ) :   1.0902 B( 14-C , 19-H ) :   0.7801 B( 14-C , 20-H ) :   0.2036
B( 14-C , 21-H ) :   0.3778 B( 15-H , 16-H ) :  -0.2004 B( 17-H , 18-C ) :   0.1565
B( 18-C , 19-H ) :   0.1607 B( 18-C , 20-H ) :   0.5562 B( 18-C , 21-H ) :   0.1735
B( 18-C , 22-C ) :   1.1316 B( 18-C , 23-H ) :   0.1825 B( 18-C , 24-H ) :   0.3477
B( 18-C , 25-C ) :   0.2064 B( 20-H , 21-H ) :   0.1026 B( 20-H , 22-C ) :   0.1121
B( 21-H , 22-C ) :   0.2206 B( 22-C , 23-H ) :   0.6271 B( 22-C , 24-H ) :   0.5307
B( 22-C , 25-C ) :   1.0848 B( 22-C , 26-C ) :   0.1529 B( 22-C , 27-H ) :   0.1095
B( 22-C , 28-H ) :   0.2164 B( 23-H , 24-H ) :  -0.2179 B( 23-H , 25-C ) :   0.1826
B( 24-H , 25-C ) :   0.1151 B( 25-C , 26-C ) :   1.1540 B( 25-C , 27-H ) :   0.7356
B( 25-C , 28-H ) :   0.4478 B( 26-C , 27-H ) :   0.2012 B( 26-C , 28-H ) :   0.3489
B( 26-C , 32-O ) :   1.7670 B( 26-C , 33-F ) :   0.6284 B( 27-H , 28-H ) :  -0.1056
B( 29-H , 30-H ) :   0.2622 B( 29-H , 31-H ) :  -0.1006 B( 30-H , 31-H ) :   0.6237
B( 30-H , 32-O ) :   0.2502 B( 31-H , 33-F ) :   0.2632 B( 32-O , 33-F ) :   0.1561

Dispersion correction           -0.074898124
FINAL SINGLE POINT ENERGY      -606.193502820342

DIPOLE MOMENT
-------------
                                X             Y             Z
Electronic contribution:     -8.92167       3.04744       9.45976
Nuclear contribution   :      8.07181      -4.09641      -9.21610
                        -----------------------------------------
Total Dipole Moment    :     -0.84986      -1.04898       0.24366
                        -----------------------------------------
Magnitude (a.u.)       :      1.37185
Magnitude (Debye)      :      3.48697

Rotational constants in cm-1:     0.028400     0.023377     0.015073
Rotational constants in MHz :   851.414727   700.831775   451.871218

                             ****ORCA TERMINATED NORMALLY****
TOTAL RUN TIME: 0 days 0 hours 0 minutes 47 seconds 54 msec
