                         Program Version 5.0.0 -  RELEASE  -
|  1> !wB97X-D3 RIJCOSX def2-TZVPD def2/J TightSCF
|  2> *xyz -1 1
|  3> C         -0.01741        0.08059       -2.77841
|  4> C         -0.90349       -0.87394       -1.98739
|  5> H         -0.50255       -1.89210       -2.08120
|  6> H         -1.91704       -0.89543       -2.40628
|  7> C         -0.96015       -0.52236       -0.48987
|  8> H         -1.69039       -1.20813       -0.02168
|  9> H         -1.41449        0.48633       -0.40668
| 10> O          0.26170       -0.58031        0.13861
| 11> H         -0.01329       -0.20776       -3.80881
| 12> H          0.98025        0.04284       -2.39348
| 13> H         -0.39697        1.07694       -2.68836
| 14> *
| 15>
| 16> %MaxCore 64000
| 17>
| 18> %pal nprocs 18
| 19> end
| 20>
| 21> %scf
| 22>   MaxIter 150
| 23> end
| 24>
| 25>
| 26>                          ****END OF INPUT****

CARTESIAN COORDINATES (ANGSTROEM)
---------------------------------
  C     -0.017410    0.080590   -2.778410
  C     -0.903490   -0.873940   -1.987390
  H     -0.502550   -1.892100   -2.081200
  H     -1.917040   -0.895430   -2.406280
  C     -0.960150   -0.522360   -0.489870
  H     -1.690390   -1.208130   -0.021680
  H     -1.414490    0.486330   -0.406680
  O      0.261700   -0.580310    0.138610
  H     -0.013290   -0.207760   -3.808810
  H      0.980250    0.042840   -2.393480
  H     -0.396970    1.076940   -2.688360

 Total Charge           Charge          ....   -1
 Multiplicity           Mult            ....    1
 Number of Electrons    NEL             ....   34
 Basis Dimension        Dim             ....  214

ORBITAL ENERGIES
----------------

  NO   OCC          E(Eh)            E(eV)
   0   2.0000     -18.896854      -514.2095
   1   2.0000     -10.089794      -274.5573
   2   2.0000     -10.088948      -274.5342
   3   2.0000     -10.083349      -274.3819
   4   2.0000      -0.796503       -21.6739
   5   2.0000      -0.700699       -19.0670
   6   2.0000      -0.580128       -15.7861
   7   2.0000      -0.475077       -12.9275
   8   2.0000      -0.376005       -10.2316
   9   2.0000      -0.367547       -10.0015
  10   2.0000      -0.316895        -8.6231
  11   2.0000      -0.283535        -7.7154
  12   2.0000      -0.254649        -6.9294
  13   2.0000      -0.246971        -6.7204
  14   2.0000      -0.205731        -5.5982
  15   2.0000      -0.064256        -1.7485
  16   2.0000      -0.060897        -1.6571
  17   0.0000       0.201107         5.4724
  18   0.0000       0.219014         5.9597
  19   0.0000       0.230457         6.2711
  20   0.0000       0.252462         6.8699
  21   0.0000       0.275049         7.4845

MULLIKEN ATOMIC CHARGES
-----------------------
   0 C :   -1.089894
   1 C :   -0.149937
   2 H :    0.241205
   3 H :    0.269284
   4 C :   -0.485698
   5 H :    0.157315
   6 H :    0.161528
   7 O :   -0.927880
   8 H :    0.287362
   9 H :    0.255640
  10 H :    0.281075
Sum of atomic charges:   -1.0000000

LOEWDIN ATOMIC CHARGES
----------------------
   0 C :   -0.153970
   1 C :   -0.302558
   2 H :    0.088578
   3 H :    0.078254
   4 C :   -0.566895
   5 H :    0.059878
   6 H :    0.065916
   7 O :   -0.411601
   8 H :    0.038823
   9 H :    0.051827
  10 H :    0.051749

  Mayer bond orders larger than 0.100000
B(  0-C ,  1-C ) :   0.6410 B(  0-C ,  4-C ) :   0.2038 B(  0-C ,  8-H ) :   0.9372
B(  0-C ,  9-H ) :   1.0486 B(  0-C , 10-H ) :   0.9534 B(  1-C ,  2-H ) :   0.9707
B(  1-C ,  3-H ) :   0.9961 B(  1-C ,  4-C ) :   0.7806 B(  4-C ,  5-H ) :   1.0784
B(  4-C ,  6-H ) :   1.0575 B(  4-C ,  7-O ) :   1.1045

Dispersion correction           -0.001939174
FINAL SINGLE POINT ENERGY      -193.759811091777

DIPOLE MOMENT
-------------
                                X             Y             Z
Electronic contribution:      1.19649      -0.48623       2.65199
Nuclear contribution   :     -2.03764       0.64089      -4.61583
                        -----------------------------------------
Total Dipole Moment    :     -0.84115       0.15466      -1.96383
                        -----------------------------------------
Magnitude (a.u.)       :      2.14199
Magnitude (Debye)      :      5.44450

Rotational constants in cm-1:     0.508897     0.174909     0.148249
Rotational constants in MHz : 15256.351998  5243.652192  4444.387232

                             ****ORCA TERMINATED NORMALLY****
TOTAL RUN TIME: 0 days 0 hours 0 minutes 17 seconds 471 msec
