                         Program Version 5.0.0 -  RELEASE  -
|  1> !wB97X-D3 RIJCOSX def2-TZVPD def2/J TightSCF
|  2> *xyz 1 1
|  3> C          4.36645       -0.13321       -1.41606
|  4> C          4.50829       -0.93187       -2.72425
|  5> H          4.75372       -1.97205       -2.48841
|  6> C          3.29416       -0.91821       -3.65657
|  7> H          5.38564       -0.53624       -3.24264
|  8> C          3.05650       -0.32080       -0.70738
|  9> N          2.38983        0.71129       -0.24391
| 10> N          2.51600       -1.50772       -0.55023
| 11> H          2.96768       -2.32291       -0.95631
| 12> H          1.54987       -1.49063       -0.24988
| 13> H          2.74307        1.64947       -0.41280
| 14> H          1.44036        0.50278        0.03703
| 15> H          4.48784        0.93300       -1.61157
| 16> H          5.16967       -0.41443       -0.72982
| 17> H          3.50670       -1.50229       -4.52754
| 18> H          3.07837        0.08892       -3.94644
| 19> H          2.44880       -1.33173       -3.14739
| 20> *
| 21>
| 22> %MaxCore 64000
| 23>
| 24> %pal nprocs 18
| 25> end
| 26>
| 27> %scf
| 28>   MaxIter 150
| 29> end
| 30>
| 31>
| 32>                          ****END OF INPUT****

CARTESIAN COORDINATES (ANGSTROEM)
---------------------------------
  C      4.366450   -0.133210   -1.416060
  C      4.508290   -0.931870   -2.724250
  H      4.753720   -1.972050   -2.488410
  C      3.294160   -0.918210   -3.656570
  H      5.385640   -0.536240   -3.242640
  C      3.056500   -0.320800   -0.707380
  N      2.389830    0.711290   -0.243910
  N      2.516000   -1.507720   -0.550230
  H      2.967680   -2.322910   -0.956310
  H      1.549870   -1.490630   -0.249880
  H      2.743070    1.649470   -0.412800
  H      1.440360    0.502780    0.037030
  H      4.487840    0.933000   -1.611570
  H      5.169670   -0.414430   -0.729820
  H      3.506700   -1.502290   -4.527540
  H      3.078370    0.088920   -3.946440
  H      2.448800   -1.331730   -3.147390

 Total Charge           Charge          ....    1
 Multiplicity           Mult            ....    1
 Number of Electrons    NEL             ....   48
 Basis Dimension        Dim             ....  321

ORBITAL ENERGIES
----------------

  NO   OCC          E(Eh)            E(eV)
   0   2.0000     -14.664873      -399.0515
   1   2.0000     -14.662934      -398.9987
   2   2.0000     -10.596498      -288.3454
   3   2.0000     -10.471962      -284.9566
   4   2.0000     -10.438254      -284.0393
   5   2.0000     -10.402405      -283.0638
   6   2.0000      -1.327825       -36.1320
   7   2.0000      -1.219637       -33.1880
   8   2.0000      -1.091203       -29.6931
   9   2.0000      -1.003328       -27.3020
  10   2.0000      -0.938107       -25.5272
  11   2.0000      -0.898420       -24.4472
  12   2.0000      -0.866535       -23.5796
  13   2.0000      -0.839909       -22.8551
  14   2.0000      -0.799101       -21.7446
  15   2.0000      -0.760902       -20.7052
  16   2.0000      -0.731394       -19.9022
  17   2.0000      -0.691576       -18.8187
  18   2.0000      -0.677378       -18.4324
  19   2.0000      -0.658644       -17.9226
  20   2.0000      -0.602182       -16.3862
  21   2.0000      -0.597547       -16.2601
  22   2.0000      -0.588860       -16.0237
  23   2.0000      -0.578994       -15.7552
  24   0.0000      -0.129421        -3.5217
  25   0.0000      -0.092353        -2.5131
  26   0.0000      -0.054839        -1.4922
  27   0.0000      -0.051882        -1.4118
  28   0.0000      -0.028015        -0.7623

MULLIKEN ATOMIC CHARGES
-----------------------
   0 C :   -0.481190
   1 C :   -0.475140
   2 H :    0.373782
   3 C :   -1.267222
   4 H :    0.304425
   5 C :    0.668933
   6 N :   -0.397236
   7 N :   -0.356574
   8 H :    0.271022
   9 H :    0.196740
  10 H :    0.258928
  11 H :    0.194051
  12 H :    0.358952
  13 H :    0.304536
  14 H :    0.362900
  15 H :    0.353034
  16 H :    0.330058
Sum of atomic charges:    1.0000000

LOEWDIN ATOMIC CHARGES
----------------------
   0 C :   -0.102821
   1 C :   -0.229779
   2 H :    0.111790
   3 C :   -0.086229
   4 H :    0.122701
   5 C :   -0.355611
   6 N :    0.223573
   7 N :    0.222453
   8 H :    0.153867
   9 H :    0.148351
  10 H :    0.155408
  11 H :    0.145868
  12 H :    0.128309
  13 H :    0.143340
  14 H :    0.082402
  15 H :    0.079887
  16 H :    0.056493

  Mayer bond orders larger than 0.100000
B(  0-C ,  1-C ) :   0.8414 B(  0-C ,  5-C ) :   0.8032 B(  0-C , 12-H ) :   0.8771
B(  0-C , 13-H ) :   0.9214 B(  1-C ,  2-H ) :   0.8834 B(  1-C ,  3-C ) :   0.6265
B(  1-C ,  4-H ) :   0.9596 B(  1-C ,  5-C ) :   0.1137 B(  3-C , 14-H ) :   0.9297
B(  3-C , 15-H ) :   0.9599 B(  3-C , 16-H ) :   0.9719 B(  5-C ,  6-N ) :   1.1709
B(  5-C ,  7-N ) :   1.1832 B(  6-N ,  7-N ) :   0.1166 B(  6-N , 10-H ) :   0.9430
B(  6-N , 11-H ) :   1.0138 B(  7-N ,  8-H ) :   0.9180 B(  7-N ,  9-H ) :   1.0174

Dispersion correction           -0.004608190
FINAL SINGLE POINT ENERGY      -268.369800224080

DIPOLE MOMENT
-------------
                                X             Y             Z
Electronic contribution:     -1.78890       0.89550       5.02880
Nuclear contribution   :      0.92830      -0.63755      -3.99475
                        -----------------------------------------
Total Dipole Moment    :     -0.86060       0.25795       1.03405
                        -----------------------------------------
Magnitude (a.u.)       :      1.36983
Magnitude (Debye)      :      3.48182

Rotational constants in cm-1:     0.183706     0.077449     0.071296
Rotational constants in MHz :  5507.368439  2321.870034  2137.394204

                             ****ORCA TERMINATED NORMALLY****
TOTAL RUN TIME: 0 days 0 hours 0 minutes 34 seconds 924 msec
