                         Program Version 5.0.0 -  RELEASE  -
|  1> !wB97X-D3 RIJCOSX def2-TZVPD def2/J TightSCF
|  2> *xyz 0 1
|  3> C         -0.01741        0.08059       -2.77841
|  4> C         -0.90349       -0.87394       -1.98739
|  5> H         -0.50255       -1.89210       -2.08120
|  6> H         -1.91704       -0.89543       -2.40628
|  7> C         -0.96015       -0.52236       -0.48987
|  8> H         -1.69039       -1.20813       -0.02168
|  9> H         -1.41449        0.48633       -0.40668
| 10> F          0.26170       -0.58031        0.13861
| 11> H         -0.01329       -0.20776       -3.80881
| 12> H          0.98025        0.04284       -2.39348
| 13> H         -0.39697        1.07694       -2.68836
| 14> *
| 15>
| 16> %MaxCore 64000
| 17>
| 18> %pal nprocs 18
| 19> end
| 20>
| 21> %scf
| 22>   MaxIter 150
| 23> end
| 24>
| 25>
| 26>                          ****END OF INPUT****

CARTESIAN COORDINATES (ANGSTROEM)
---------------------------------
  C     -0.017410    0.080590   -2.778410
  C     -0.903490   -0.873940   -1.987390
  H     -0.502550   -1.892100   -2.081200
  H     -1.917040   -0.895430   -2.406280
  C     -0.960150   -0.522360   -0.489870
  H     -1.690390   -1.208130   -0.021680
  H     -1.414490    0.486330   -0.406680
  F      0.261700   -0.580310    0.138610
  H     -0.013290   -0.207760   -3.808810
  H      0.980250    0.042840   -2.393480
  H     -0.396970    1.076940   -2.688360

 Total Charge           Charge          ....    0
 Multiplicity           Mult            ....    1
 Number of Electrons    NEL             ....   34
 Basis Dimension        Dim             ....  214

ORBITAL ENERGIES
----------------

  NO   OCC          E(Eh)            E(eV)
   0   2.0000     -24.771288      -674.0610
   1   2.0000     -10.351210      -281.6707
   2   2.0000     -10.280891      -279.7573
   3   2.0000     -10.258442      -279.1464
   4   2.0000      -1.311970       -35.7005
   5   2.0000      -0.907181       -24.6857
   6   2.0000      -0.803748       -21.8711
   7   2.0000      -0.707301       -19.2466
   8   2.0000      -0.610219       -16.6049
   9   2.0000      -0.595339       -16.2000
  10   2.0000      -0.569864       -15.5068
  11   2.0000      -0.536018       -14.5858
  12   2.0000      -0.499858       -13.6018
  13   2.0000      -0.472852       -12.8670
  14   2.0000      -0.447788       -12.1849
  15   2.0000      -0.421178       -11.4608
  16   2.0000      -0.418904       -11.3990
  17   0.0000       0.072789         1.9807
  18   0.0000       0.091855         2.4995
  19   0.0000       0.096332         2.6213
  20   0.0000       0.112368         3.0577
  21   0.0000       0.138162         3.7596

MULLIKEN ATOMIC CHARGES
-----------------------
   0 C :   -1.172952
   1 C :   -0.248461
   2 H :    0.288811
   3 H :    0.290973
   4 C :   -0.255330
   5 H :    0.224786
   6 H :    0.251985
   7 F :   -0.316909
   8 H :    0.302129
   9 H :    0.306490
  10 H :    0.328477
Sum of atomic charges:    0.0000000

LOEWDIN ATOMIC CHARGES
----------------------
   0 C :   -0.115970
   1 C :   -0.244869
   2 H :    0.107910
   3 H :    0.110095
   4 C :   -0.244375
   5 H :    0.113397
   6 H :    0.118370
   7 F :   -0.043794
   8 H :    0.064186
   9 H :    0.067774
  10 H :    0.067277

  Mayer bond orders larger than 0.100000
B(  0-C ,  1-C ) :   0.6679 B(  0-C ,  4-C ) :   0.1604 B(  0-C ,  8-H ) :   0.9732
B(  0-C ,  9-H ) :   0.9837 B(  0-C , 10-H ) :   0.9352 B(  1-C ,  2-H ) :   0.9375
B(  1-C ,  3-H ) :   0.9490 B(  1-C ,  4-C ) :   0.8455 B(  4-C ,  5-H ) :   0.9911
B(  4-C ,  6-H ) :   0.9710 B(  4-C ,  7-F ) :   0.7689

Dispersion correction           -0.001913354
FINAL SINGLE POINT ENERGY      -218.404836128762

DIPOLE MOMENT
-------------
                                X             Y             Z
Electronic contribution:      2.25822      -0.77626       5.89901
Nuclear contribution   :     -2.83598       0.77614      -6.32113
                        -----------------------------------------
Total Dipole Moment    :     -0.57777      -0.00012      -0.42212
                        -----------------------------------------
Magnitude (a.u.)       :      0.71554
Magnitude (Debye)      :      1.81876

Rotational constants in cm-1:     0.494803     0.164634     0.139827
Rotational constants in MHz : 14833.819345  4935.593559  4191.919783

                             ****ORCA TERMINATED NORMALLY****
TOTAL RUN TIME: 0 days 0 hours 0 minutes 13 seconds 943 msec
