                         Program Version 5.0.0 -  RELEASE  -
|  1> !wB97X-D3 RIJCOSX def2-TZVPD def2/J TightSCF
|  2> *xyz 0 1
|  3> C          4.36645       -0.13321       -1.41606
|  4> C          4.50829       -0.93187       -2.72425
|  5> H          4.75372       -1.97205       -2.48841
|  6> C          3.29416       -0.91821       -3.65657
|  7> H          5.38564       -0.53624       -3.24264
|  8> C          3.05650       -0.32080       -0.70738
|  9> C          2.38983        0.71129       -0.24391
| 10> N          2.51600       -1.50772       -0.55023
| 11> H          2.96768       -2.32291       -0.95631
| 12> H          1.54987       -1.49063       -0.24988
| 13> H          2.74307        1.64947       -0.41280
| 14> H          1.44036        0.50278        0.03703
| 15> H          4.48784        0.93300       -1.61157
| 16> H          5.16967       -0.41443       -0.72982
| 17> H          3.50670       -1.50229       -4.52754
| 18> H          3.07837        0.08892       -3.94644
| 19> H          2.44880       -1.33173       -3.14739
| 20> *
| 21>
| 22> %MaxCore 64000
| 23>
| 24> %pal nprocs 18
| 25> end
| 26>
| 27> %scf
| 28>   MaxIter 150
| 29> end
| 30>
| 31>
| 32>                          ****END OF INPUT****

CARTESIAN COORDINATES (ANGSTROEM)
---------------------------------
  C      4.366450   -0.133210   -1.416060
  C      4.508290   -0.931870   -2.724250
  H      4.753720   -1.972050   -2.488410
  C      3.294160   -0.918210   -3.656570
  H      5.385640   -0.536240   -3.242640
  C      3.056500   -0.320800   -0.707380
  C      2.389830    0.711290   -0.243910
  N      2.516000   -1.507720   -0.550230
  H      2.967680   -2.322910   -0.956310
  H      1.549870   -1.490630   -0.249880
  H      2.743070    1.649470   -0.412800
  H      1.440360    0.502780    0.037030
  H      4.487840    0.933000   -1.611570
  H      5.169670   -0.414430   -0.729820
  H      3.506700   -1.502290   -4.527540
  H      3.078370    0.088920   -3.946440
  H      2.448800   -1.331730   -3.147390

 Total Charge           Charge          ....    0
 Multiplicity           Mult            ....    1
 Number of Electrons    NEL             ....   48
 Basis Dimension        Dim             ....  321

ORBITAL ENERGIES
----------------

  NO   OCC          E(Eh)            E(eV)
   0   2.0000     -14.419538      -392.3756
   1   2.0000     -10.293245      -280.0934
   2   2.0000     -10.276584      -279.6401
   3   2.0000     -10.274890      -279.5940
   4   2.0000     -10.255056      -279.0543
   5   2.0000     -10.202820      -277.6329
   6   2.0000      -1.051120       -28.6024
   7   2.0000      -0.909695       -24.7541
   8   2.0000      -0.852248       -23.1908
   9   2.0000      -0.799310       -21.7503
  10   2.0000      -0.713103       -19.4045
  11   2.0000      -0.664912       -18.0932
  12   2.0000      -0.635860       -17.3026
  13   2.0000      -0.562730       -15.3127
  14   2.0000      -0.556275       -15.1370
  15   2.0000      -0.553824       -15.0703
  16   2.0000      -0.493032       -13.4161
  17   2.0000      -0.490983       -13.3603
  18   2.0000      -0.477147       -12.9838
  19   2.0000      -0.459323       -12.4988
  20   2.0000      -0.427303       -11.6275
  21   2.0000      -0.426829       -11.6146
  22   2.0000      -0.413830       -11.2609
  23   2.0000      -0.277222        -7.5436
  24   0.0000       0.066363         1.8058
  25   0.0000       0.084984         2.3125
  26   0.0000       0.091854         2.4995
  27   0.0000       0.094167         2.5624
  28   0.0000       0.114492         3.1155

MULLIKEN ATOMIC CHARGES
-----------------------
   0 C :   -0.379895
   1 C :   -0.449709
   2 H :    0.331541
   3 C :   -1.179856
   4 H :    0.274603
   5 C :    0.780896
   6 C :   -1.585335
   7 N :   -0.386339
   8 H :    0.238250
   9 H :    0.161066
  10 H :    0.347079
  11 H :    0.322919
  12 H :    0.297564
  13 H :    0.253299
  14 H :    0.348722
  15 H :    0.317937
  16 H :    0.307259
Sum of atomic charges:   -0.0000000

LOEWDIN ATOMIC CHARGES
----------------------
   0 C :   -0.152187
   1 C :   -0.254046
   2 H :    0.098228
   3 C :   -0.104986
   4 H :    0.103193
   5 C :   -0.502445
   6 C :    0.015412
   7 N :    0.094050
   8 H :    0.113647
   9 H :    0.114840
  10 H :    0.027026
  11 H :    0.024844
  12 H :    0.113273
  13 H :    0.117650
  14 H :    0.064270
  15 H :    0.071855
  16 H :    0.055375

  Mayer bond orders larger than 0.100000
B(  0-C ,  1-C ) :   0.8509 B(  0-C ,  5-C ) :   0.9000 B(  0-C , 12-H ) :   0.8907
B(  0-C , 13-H ) :   0.9042 B(  1-C ,  2-H ) :   0.8924 B(  1-C ,  3-C ) :   0.6739
B(  1-C ,  4-H ) :   0.9686 B(  3-C , 14-H ) :   0.9231 B(  3-C , 15-H ) :   0.9707
B(  3-C , 16-H ) :   1.0014 B(  5-C ,  6-C ) :   1.0248 B(  5-C ,  7-N ) :   1.0309
B(  5-C , 11-H ) :  -0.1604 B(  6-C ,  7-N ) :   0.1257 B(  6-C , 10-H ) :   0.9153
B(  6-C , 11-H ) :   1.0005 B(  7-N ,  8-H ) :   0.9412 B(  7-N ,  9-H ) :   0.9836

Dispersion correction           -0.004632034
FINAL SINGLE POINT ENERGY      -251.895480672203

DIPOLE MOMENT
-------------
                                X             Y             Z
Electronic contribution:     -0.63178      -0.29568       3.28003
Nuclear contribution   :      0.70803      -0.34641      -3.68680
                        -----------------------------------------
Total Dipole Moment    :      0.07625      -0.64209      -0.40677
                        -----------------------------------------
Magnitude (a.u.)       :      0.76391
Magnitude (Debye)      :      1.94170

Rotational constants in cm-1:     0.186653     0.080341     0.073591
Rotational constants in MHz :  5595.710092  2408.571280  2206.200061

                             ****ORCA TERMINATED NORMALLY****
TOTAL RUN TIME: 0 days 0 hours 0 minutes 39 seconds 72 msec
