                         Program Version 5.0.0 -  RELEASE  -
|  1> !wB97X-D3 RIJCOSX def2-TZVPD def2/J TightSCF
|  2> *xyz 0 1
|  3> C          4.36645       -0.13321       -1.41606
|  4> C          4.50829       -0.93187       -2.72425
|  5> H          4.75372       -1.97205       -2.48841
|  6> C          3.29416       -0.91821       -3.65657
|  7> H          5.38564       -0.53624       -3.24264
|  8> C          3.05650       -0.32080       -0.70738
|  9> N          2.38983        0.71129       -0.24391
| 10> C          2.51600       -1.50772       -0.55023
| 11> H          2.96768       -2.32291       -0.95631
| 12> H          1.54987       -1.49063       -0.24988
| 13> H          2.74307        1.64947       -0.41280
| 14> H          1.44036        0.50278        0.03703
| 15> H          4.48784        0.93300       -1.61157
| 16> H          5.16967       -0.41443       -0.72982
| 17> H          3.50670       -1.50229       -4.52754
| 18> H          3.07837        0.08892       -3.94644
| 19> H          2.44880       -1.33173       -3.14739
| 20> *
| 21>
| 22> %MaxCore 64000
| 23>
| 24> %pal nprocs 18
| 25> end
| 26>
| 27> %scf
| 28>   MaxIter 150
| 29> end
| 30>
| 31>
| 32>                          ****END OF INPUT****

CARTESIAN COORDINATES (ANGSTROEM)
---------------------------------
  C      4.366450   -0.133210   -1.416060
  C      4.508290   -0.931870   -2.724250
  H      4.753720   -1.972050   -2.488410
  C      3.294160   -0.918210   -3.656570
  H      5.385640   -0.536240   -3.242640
  C      3.056500   -0.320800   -0.707380
  N      2.389830    0.711290   -0.243910
  C      2.516000   -1.507720   -0.550230
  H      2.967680   -2.322910   -0.956310
  H      1.549870   -1.490630   -0.249880
  H      2.743070    1.649470   -0.412800
  H      1.440360    0.502780    0.037030
  H      4.487840    0.933000   -1.611570
  H      5.169670   -0.414430   -0.729820
  H      3.506700   -1.502290   -4.527540
  H      3.078370    0.088920   -3.946440
  H      2.448800   -1.331730   -3.147390

 Total Charge           Charge          ....    0
 Multiplicity           Mult            ....    1
 Number of Electrons    NEL             ....   48
 Basis Dimension        Dim             ....  321

ORBITAL ENERGIES
----------------

  NO   OCC          E(Eh)            E(eV)
   0   2.0000     -14.420341      -392.3974
   1   2.0000     -10.293255      -280.0937
   2   2.0000     -10.276586      -279.6401
   3   2.0000     -10.271543      -279.5029
   4   2.0000     -10.247782      -278.8563
   5   2.0000     -10.200041      -277.5572
   6   2.0000      -1.050951       -28.5978
   7   2.0000      -0.910387       -24.7729
   8   2.0000      -0.839999       -22.8575
   9   2.0000      -0.803501       -21.8644
  10   2.0000      -0.716822       -19.5057
  11   2.0000      -0.654488       -17.8095
  12   2.0000      -0.630440       -17.1552
  13   2.0000      -0.584149       -15.8955
  14   2.0000      -0.555011       -15.1026
  15   2.0000      -0.529865       -14.4184
  16   2.0000      -0.500706       -13.6249
  17   2.0000      -0.487997       -13.2791
  18   2.0000      -0.465549       -12.6682
  19   2.0000      -0.456979       -12.4350
  20   2.0000      -0.429948       -11.6995
  21   2.0000      -0.418030       -11.3752
  22   2.0000      -0.416332       -11.3290
  23   2.0000      -0.274736        -7.4760
  24   0.0000       0.069470         1.8904
  25   0.0000       0.085322         2.3217
  26   0.0000       0.090386         2.4595
  27   0.0000       0.094959         2.5840
  28   0.0000       0.115929         3.1546

MULLIKEN ATOMIC CHARGES
-----------------------
   0 C :   -0.434662
   1 C :   -0.323015
   2 H :    0.306405
   3 C :   -1.299763
   4 H :    0.284439
   5 C :    0.806466
   6 N :   -0.430488
   7 C :   -1.545337
   8 H :    0.400902
   9 H :    0.311095
  10 H :    0.206945
  11 H :    0.161864
  12 H :    0.309389
  13 H :    0.221028
  14 H :    0.339791
  15 H :    0.327456
  16 H :    0.357485
Sum of atomic charges:   -0.0000000

LOEWDIN ATOMIC CHARGES
----------------------
   0 C :   -0.150026
   1 C :   -0.250442
   2 H :    0.103321
   3 C :   -0.104486
   4 H :    0.102133
   5 C :   -0.495779
   6 N :    0.093765
   7 C :    0.001388
   8 H :    0.033683
   9 H :    0.029062
  10 H :    0.110815
  11 H :    0.111661
  12 H :    0.106301
  13 H :    0.119864
  14 H :    0.064465
  15 H :    0.069046
  16 H :    0.055228

  Mayer bond orders larger than 0.100000
B(  0-C ,  1-C ) :   0.8511 B(  0-C ,  3-C ) :   0.1253 B(  0-C ,  5-C ) :   0.6571
B(  0-C ,  7-C ) :  -0.1546 B(  0-C , 12-H ) :   0.9708 B(  0-C , 13-H ) :   0.9533
B(  1-C ,  2-H ) :   0.9110 B(  1-C ,  3-C ) :   0.6210 B(  1-C ,  4-H ) :   0.9672
B(  1-C ,  5-C ) :   0.1248 B(  1-C ,  7-C ) :   0.1221 B(  3-C , 14-H ) :   0.9176
B(  3-C , 15-H ) :   0.9594 B(  3-C , 16-H ) :   1.0085 B(  5-C ,  6-N ) :   1.0397
B(  5-C ,  7-C ) :   1.0304 B(  5-C ,  9-H ) :  -0.2076 B(  5-C , 12-H ) :  -0.1320
B(  6-N , 10-H ) :   1.0016 B(  6-N , 11-H ) :   0.9924 B(  7-C ,  8-H ) :   0.8626
B(  7-C ,  9-H ) :   1.0816

Dispersion correction           -0.004569653
FINAL SINGLE POINT ENERGY      -251.893570052782

DIPOLE MOMENT
-------------
                                X             Y             Z
Electronic contribution:     -0.74397       1.57645       3.56404
Nuclear contribution   :      0.73787      -0.87128      -3.75926
                        -----------------------------------------
Total Dipole Moment    :     -0.00610       0.70517      -0.19522
                        -----------------------------------------
Magnitude (a.u.)       :      0.73172
Magnitude (Debye)      :      1.85989

Rotational constants in cm-1:     0.191039     0.078358     0.072723
Rotational constants in MHz :  5727.202281  2349.118247  2180.181745

                             ****ORCA TERMINATED NORMALLY****
TOTAL RUN TIME: 0 days 0 hours 0 minutes 36 seconds 700 msec
