                         Program Version 5.0.0 -  RELEASE  -
|  1> !wB97X-D3 RIJCOSX def2-TZVP def2/J TightSCF
|  2> *xyz -1 1
|  3> C         -0.46129        2.23469       -4.98962
|  4> C          0.84888        2.66797       -4.30235
|  5> C          2.09343        1.86104       -4.65684
|  6> H          2.44481        2.04157       -5.67499
|  7> H          2.90175        2.13786       -3.98034
|  8> S          1.87964        0.07859       -4.46297
|  9> O          3.20757       -0.46611       -4.42026
| 10> O          1.07506       -0.05616       -3.26876
| 11> O          1.13166       -0.31996       -5.67903
| 12> H          0.66843        2.55943       -3.23285
| 13> H          1.03407        3.72943       -4.49708
| 14> H         -0.35183        2.31783       -6.05075
| 15> H         -1.26108        2.86600       -4.66300
| 16> H         -0.68032        1.21949       -4.73211
| 17> *
| 18>
| 19> %MaxCore 64000
| 20>
| 21> %pal nprocs 8
| 22> end
| 23>
| 24> %scf
| 25>   MaxIter 150
| 26> end
| 27>
| 28>
| 29>                          ****END OF INPUT****

CARTESIAN COORDINATES (ANGSTROEM)
---------------------------------
  C     -0.461290    2.234690   -4.989620
  C      0.848880    2.667970   -4.302350
  C      2.093430    1.861040   -4.656840
  H      2.444810    2.041570   -5.674990
  H      2.901750    2.137860   -3.980340
  S      1.879640    0.078590   -4.462970
  O      3.207570   -0.466110   -4.420260
  O      1.075060   -0.056160   -3.268760
  O      1.131660   -0.319960   -5.679030
  H      0.668430    2.559430   -3.232850
  H      1.034070    3.729430   -4.497080
  H     -0.351830    2.317830   -6.050750
  H     -1.261080    2.866000   -4.663000
  H     -0.680320    1.219490   -4.732110

 Total Charge           Charge          ....   -1
 Multiplicity           Mult            ....    1
 Number of Electrons    NEL             ....   66
 Basis Dimension        Dim             ....  265

ORBITAL ENERGIES
----------------

  NO   OCC          E(Eh)            E(eV)
   0   2.0000     -88.931310     -2419.9440
   1   2.0000     -19.009005      -517.2613
   2   2.0000     -19.007021      -517.2073
   3   2.0000     -18.992932      -516.8240
   4   2.0000     -10.138276      -275.8765
   5   2.0000     -10.130551      -275.6663
   6   2.0000     -10.115851      -275.2663
   7   2.0000      -7.994157      -217.5321
   8   2.0000      -5.948551      -161.8683
   9   2.0000      -5.947154      -161.8303
  10   2.0000      -5.946724      -161.8186
  11   2.0000      -1.040251       -28.3067
  12   2.0000      -0.910034       -24.7633
  13   2.0000      -0.884259       -24.0619
  14   2.0000      -0.764968       -20.8158
  15   2.0000      -0.672260       -18.2931
  16   2.0000      -0.572752       -15.5854
  17   2.0000      -0.482465       -13.1286
  18   2.0000      -0.430751       -11.7213
  19   2.0000      -0.413069       -11.2402
  20   2.0000      -0.388493       -10.5714
  21   2.0000      -0.374843       -10.2000
  22   2.0000      -0.356453        -9.6996
  23   2.0000      -0.343490        -9.3468
  24   2.0000      -0.315195        -8.5769
  25   2.0000      -0.303175        -8.2498
  26   2.0000      -0.286001        -7.7825
  27   2.0000      -0.248704        -6.7676
  28   2.0000      -0.246062        -6.6957
  29   2.0000      -0.212131        -5.7724
  30   2.0000      -0.200715        -5.4617
  31   2.0000      -0.188663        -5.1338
  32   2.0000      -0.158248        -4.3062
  33   0.0000       0.244774         6.6606
  34   0.0000       0.284182         7.7330
  35   0.0000       0.293067         7.9747
  36   0.0000       0.306416         8.3380
  37   0.0000       0.320621         8.7245

MULLIKEN ATOMIC CHARGES
-----------------------
   0 C :   -0.332372
   1 C :   -0.145133
   2 C :   -0.255293
   3 H :    0.081128
   4 H :    0.081005
   5 S :    0.864017
   6 O :   -0.559492
   7 O :   -0.564904
   8 O :   -0.598489
   9 H :    0.086466
  10 H :    0.046986
  11 H :    0.078129
  12 H :    0.060151
  13 H :    0.157801
Sum of atomic charges:   -1.0000000

LOEWDIN ATOMIC CHARGES
----------------------
   0 C :   -0.319791
   1 C :   -0.325275
   2 C :   -0.404537
   3 H :    0.118200
   4 H :    0.119054
   5 S :    0.414890
   6 O :   -0.371740
   7 O :   -0.377208
   8 O :   -0.425499
   9 H :    0.132372
  10 H :    0.114271
  11 H :    0.106738
  12 H :    0.095874
  13 H :    0.122651

  Mayer bond orders larger than 0.100000
B(  0-C ,  1-C ) :   0.9858 B(  0-C , 11-H ) :   0.9780 B(  0-C , 12-H ) :   0.9727
B(  0-C , 13-H ) :   0.9696 B(  1-C ,  2-C ) :   0.9832 B(  1-C ,  9-H ) :   0.9761
B(  1-C , 10-H ) :   0.9645 B(  2-C ,  3-H ) :   0.9641 B(  2-C ,  4-H ) :   0.9594
B(  2-C ,  5-S ) :   0.8869 B(  5-S ,  6-O ) :   1.8407 B(  5-S ,  7-O ) :   1.7450
B(  5-S ,  8-O ) :   1.7235

Dispersion correction           -0.004656562
FINAL SINGLE POINT ENERGY      -742.535816350589

DIPOLE MOMENT
-------------
                                X             Y             Z
Electronic contribution:      4.90495      -9.14657       1.04541
Nuclear contribution   :     -5.21326      11.14780      -1.06438
                        -----------------------------------------
Total Dipole Moment    :     -0.30831       2.00123      -0.01896
                        -----------------------------------------
Magnitude (a.u.)       :      2.02493
Magnitude (Debye)      :      5.14697

Rotational constants in cm-1:     0.135673     0.057896     0.054396
Rotational constants in MHz :  4067.361083  1735.682437  1630.763840

                             ****ORCA TERMINATED NORMALLY****
TOTAL RUN TIME: 0 days 0 hours 0 minutes 28 seconds 104 msec
