                         Program Version 5.0.0 -  RELEASE  -
|  1> !wB97X-D3 RIJCOSX def2-TZVP def2/J TightSCF
|  2> *xyz 1 1
|  3> C         -0.46129        2.23469       -4.98962
|  4> C          0.84888        2.66797       -4.30235
|  5> C          2.09343        1.86104       -4.65684
|  6> C         -0.42384        2.39877       -6.47432
|  7> N         -0.95947        3.49265       -7.00740
|  8> N          0.14558        1.48689       -7.20399
|  9> H          0.56537        0.69681       -6.72386
| 10> H          0.22068        1.58177       -8.20752
| 11> H         -1.40624        4.18151       -6.40326
| 12> H         -0.93421        3.68160       -7.99947
| 13> H          0.66843        2.55943       -3.23285
| 14> H          1.03407        3.72943       -4.49708
| 15> H         -1.28888        2.82674       -4.59500
| 16> H         -0.65170        1.18634       -4.75655
| 17> H          2.29129        1.95234       -5.70442
| 18> H          1.93270        0.83176       -4.41261
| 19> H          2.92953        2.23285       -4.10223
| 20> *
| 21>
| 22> %MaxCore 64000
| 23>
| 24> %pal nprocs 8
| 25> end
| 26>
| 27> %scf
| 28>   MaxIter 150
| 29> end
| 30>
| 31>
| 32>                          ****END OF INPUT****

CARTESIAN COORDINATES (ANGSTROEM)
---------------------------------
  C     -0.461290    2.234690   -4.989620
  C      0.848880    2.667970   -4.302350
  C      2.093430    1.861040   -4.656840
  C     -0.423840    2.398770   -6.474320
  N     -0.959470    3.492650   -7.007400
  N      0.145580    1.486890   -7.203990
  H      0.565370    0.696810   -6.723860
  H      0.220680    1.581770   -8.207520
  H     -1.406240    4.181510   -6.403260
  H     -0.934210    3.681600   -7.999470
  H      0.668430    2.559430   -3.232850
  H      1.034070    3.729430   -4.497080
  H     -1.288880    2.826740   -4.595000
  H     -0.651700    1.186340   -4.756550
  H      2.291290    1.952340   -5.704420
  H      1.932700    0.831760   -4.412610
  H      2.929530    2.232850   -4.102230

 Total Charge           Charge          ....    1
 Multiplicity           Mult            ....    1
 Number of Electrons    NEL             ....   48
 Basis Dimension        Dim             ....  252

ORBITAL ENERGIES
----------------

  NO   OCC          E(Eh)            E(eV)
   0   2.0000     -14.664855      -399.0510
   1   2.0000     -14.661241      -398.9526
   2   2.0000     -10.595987      -288.3315
   3   2.0000     -10.468724      -284.8685
   4   2.0000     -10.435216      -283.9567
   5   2.0000     -10.401214      -283.0314
   6   2.0000      -1.319179       -35.8967
   7   2.0000      -1.221528       -33.2395
   8   2.0000      -1.089623       -29.6501
   9   2.0000      -1.003706       -27.3122
  10   2.0000      -0.939404       -25.5625
  11   2.0000      -0.892510       -24.2864
  12   2.0000      -0.873561       -23.7708
  13   2.0000      -0.837351       -22.7855
  14   2.0000      -0.795842       -21.6560
  15   2.0000      -0.754292       -20.5253
  16   2.0000      -0.721937       -19.6449
  17   2.0000      -0.704784       -19.1781
  18   2.0000      -0.671408       -18.2699
  19   2.0000      -0.657202       -17.8834
  20   2.0000      -0.602131       -16.3848
  21   2.0000      -0.591606       -16.0984
  22   2.0000      -0.590110       -16.0577
  23   2.0000      -0.576418       -15.6851
  24   0.0000      -0.120252        -3.2722
  25   0.0000      -0.070741        -1.9250
  26   0.0000      -0.026662        -0.7255
  27   0.0000      -0.023904        -0.6505
  28   0.0000       0.000418         0.0114

MULLIKEN ATOMIC CHARGES
-----------------------
   0 C :   -0.295368
   1 C :   -0.160751
   2 C :   -0.424343
   3 C :    0.351924
   4 N :   -0.399617
   5 N :   -0.376694
   6 H :    0.319889
   7 H :    0.295289
   8 H :    0.313428
   9 H :    0.294318
  10 H :    0.156564
  11 H :    0.133080
  12 H :    0.167248
  13 H :    0.190692
  14 H :    0.117561
  15 H :    0.145494
  16 H :    0.171286
Sum of atomic charges:    1.0000000

LOEWDIN ATOMIC CHARGES
----------------------
   0 C :   -0.201939
   1 C :   -0.265046
   2 C :   -0.294373
   3 C :   -0.285856
   4 N :    0.097282
   5 N :    0.123718
   6 H :    0.213934
   7 H :    0.202496
   8 H :    0.211554
   9 H :    0.196388
  10 H :    0.155934
  11 H :    0.145026
  12 H :    0.163357
  13 H :    0.166625
  14 H :    0.112402
  15 H :    0.122493
  16 H :    0.136004

  Mayer bond orders larger than 0.100000
B(  0-C ,  1-C ) :   0.9305 B(  0-C ,  3-C ) :   0.9651 B(  0-C , 12-H ) :   0.9646
B(  0-C , 13-H ) :   0.9684 B(  1-C ,  2-C ) :   0.9567 B(  1-C , 10-H ) :   0.9636
B(  1-C , 11-H ) :   0.9536 B(  2-C , 14-H ) :   0.9669 B(  2-C , 15-H ) :   0.9743
B(  2-C , 16-H ) :   0.9699 B(  3-C ,  4-N ) :   1.4404 B(  3-C ,  5-N ) :   1.4743
B(  4-N ,  8-H ) :   0.8791 B(  4-N ,  9-H ) :   0.8888 B(  5-N ,  6-H ) :   0.8779
B(  5-N ,  7-H ) :   0.8851

Dispersion correction           -0.004586189
FINAL SINGLE POINT ENERGY      -268.376806005585

DIPOLE MOMENT
-------------
                                X             Y             Z
Electronic contribution:     -3.55701       0.63293      -4.30782
Nuclear contribution   :      2.80679      -0.44323       2.95915
                        -----------------------------------------
Total Dipole Moment    :     -0.75022       0.18969      -1.34867
                        -----------------------------------------
Magnitude (a.u.)       :      1.55490
Magnitude (Debye)      :      3.95224

Rotational constants in cm-1:     0.187834     0.079484     0.065778
Rotational constants in MHz :  5631.136036  2382.861517  1971.985559

                             ****ORCA TERMINATED NORMALLY****
TOTAL RUN TIME: 0 days 0 hours 0 minutes 28 seconds 979 msec
