                         Program Version 5.0.0 -  RELEASE  -
|  1> !wB97X-D3 RIJCOSX def2-TZVP def2/J TightSCF xyzfile
|  2>
|  3> *xyzfile 0 1 B.xyz
|  4>
|  5> %MaxCore 64000
|  6>
|  7> %pal nprocs 18
|  8> end
|  9>
| 10> %scf
| 11>   MaxIter 150
| 12> end
| 13>
| 14>
| 15>                          ****END OF INPUT****

CARTESIAN COORDINATES (ANGSTROEM)
---------------------------------
  C     -0.461293    2.234686   -4.989619
  C      0.848883    2.667967   -4.302351
  C      2.093434    1.861037   -4.656845
  H      2.444814    2.041567   -5.674990
  H      2.901748    2.137864   -3.980338
  S      1.879644    0.078594   -4.462965
  C     -0.423841    2.398772   -6.474317
  N     -0.959467    3.492647   -7.007401
  N      0.145585    1.486891   -7.203987
  H      0.565371    0.696807   -6.723858
  H      0.220682    1.581768   -8.207520
  H     -1.406243    4.181507   -6.403261
  H     -0.934215    3.681601   -7.999468
  O      3.207574   -0.466111   -4.420259
  O      1.075064   -0.056160   -3.268758
  O      1.131661   -0.319960   -5.679031
  H      0.668432    2.559427   -3.232850
  H      1.034074    3.729426   -4.497081
  H     -1.288884    2.826737   -4.594997
  H     -0.651696    1.186343   -4.756552

 Total Charge           Charge          ....    0
 Multiplicity           Mult            ....    1
 Number of Electrons    NEL             ....   88
 Basis Dimension        Dim             ....  376

ORBITAL ENERGIES
----------------

  NO   OCC          E(Eh)            E(eV)
   0   2.0000     -89.083127     -2424.0751
   1   2.0000     -19.165108      -521.5091
   2   2.0000     -19.151153      -521.1294
   3   2.0000     -19.149035      -521.0717
   4   2.0000     -14.530851      -395.4045
   5   2.0000     -14.498584      -394.5265
   6   2.0000     -10.452770      -284.4343
   7   2.0000     -10.326373      -280.9949
   8   2.0000     -10.305553      -280.4284
   9   2.0000     -10.280746      -279.7533
  10   2.0000      -8.146012      -221.6643
  11   2.0000      -6.100641      -166.0069
  12   2.0000      -6.099405      -165.9732
  13   2.0000      -6.097938      -165.9333
  14   2.0000      -1.192136       -32.4397
  15   2.0000      -1.175895       -31.9977
  16   2.0000      -1.080390       -29.3989
  17   2.0000      -1.051657       -28.6171
  18   2.0000      -1.050169       -28.5766
  19   2.0000      -0.951583       -25.8939
  20   2.0000      -0.870239       -23.6804
  21   2.0000      -0.802741       -21.8437
  22   2.0000      -0.757873       -20.6228
  23   2.0000      -0.735197       -20.0057
  24   2.0000      -0.710435       -19.3319
  25   2.0000      -0.664107       -18.0713
  26   2.0000      -0.624619       -16.9967
  27   2.0000      -0.617039       -16.7905
  28   2.0000      -0.585394       -15.9294
  29   2.0000      -0.572069       -15.5668
  30   2.0000      -0.545480       -14.8433
  31   2.0000      -0.534782       -14.5522
  32   2.0000      -0.512084       -13.9345
  33   2.0000      -0.504159       -13.7189
  34   2.0000      -0.486403       -13.2357
  35   2.0000      -0.469003       -12.7622
  36   2.0000      -0.453101       -12.3295
  37   2.0000      -0.439426       -11.9574
  38   2.0000      -0.401035       -10.9127
  39   2.0000      -0.395521       -10.7627
  40   2.0000      -0.363040        -9.8788
  41   2.0000      -0.353029        -9.6064
  42   2.0000      -0.342728        -9.3261
  43   2.0000      -0.311858        -8.4861
  44   0.0000       0.020592         0.5603
  45   0.0000       0.046267         1.2590
  46   0.0000       0.085803         2.3348
  47   0.0000       0.110493         3.0067
  48   0.0000       0.131181         3.5696

MULLIKEN ATOMIC CHARGES
-----------------------
   0 C :   -0.280595
   1 C :   -0.173903
   2 C :   -0.352427
   3 H :    0.120434
   4 H :    0.146989
   5 S :    0.908122
   6 C :    0.323706
   7 N :   -0.432737
   8 N :   -0.352971
   9 H :    0.320490
  10 H :    0.249064
  11 H :    0.289857
  12 H :    0.269641
  13 O :   -0.504915
  14 O :   -0.523930
  15 O :   -0.605679
  16 H :    0.152246
  17 H :    0.103817
  18 H :    0.124476
  19 H :    0.218315
Sum of atomic charges:    0.0000000

LOEWDIN ATOMIC CHARGES
----------------------
   0 C :   -0.208826
   1 C :   -0.273542
   2 C :   -0.390100
   3 H :    0.123217
   4 H :    0.140248
   5 S :    0.439137
   6 C :   -0.296947
   7 N :    0.056635
   8 N :    0.127673
   9 H :    0.153162
  10 H :    0.182934
  11 H :    0.197976
  12 H :    0.183185
  13 O :   -0.321544
  14 O :   -0.341077
  15 O :   -0.383483
  16 H :    0.156455
  17 H :    0.133699
  18 H :    0.147862
  19 H :    0.173337

  Mayer bond orders larger than 0.100000
B(  0-C ,  1-C ) :   0.9353 B(  0-C ,  6-C ) :   0.9676 B(  0-C , 18-H ) :   0.9715
B(  0-C , 19-H ) :   0.9401 B(  1-C ,  2-C ) :   0.9818 B(  1-C , 16-H ) :   0.9549
B(  1-C , 17-H ) :   0.9562 B(  2-C ,  3-H ) :   0.9575 B(  2-C ,  4-H ) :   0.9620
B(  2-C ,  5-S ) :   0.9015 B(  5-S , 13-O ) :   1.9014 B(  5-S , 14-O ) :   1.7678
B(  5-S , 15-O ) :   1.4790 B(  6-C ,  7-N ) :   1.3512 B(  6-C ,  8-N ) :   1.5891
B(  7-N , 11-H ) :   0.8927 B(  7-N , 12-H ) :   0.9004 B(  8-N ,  9-H ) :   0.7423
B(  8-N , 10-H ) :   0.9063 B(  9-H , 15-O ) :   0.2081

Dispersion correction           -0.008674276
FINAL SINGLE POINT ENERGY      -891.907168779162

DIPOLE MOMENT
-------------
                                X             Y             Z
Electronic contribution:      3.08569      -7.62634       1.05918
Nuclear contribution   :     -5.91573      12.15027      -4.18945
                        -----------------------------------------
Total Dipole Moment    :     -2.83003       4.52394      -3.13028
                        -----------------------------------------
Magnitude (a.u.)       :      6.18658
Magnitude (Debye)      :     15.72503

Rotational constants in cm-1:     0.082044     0.024757     0.022371
Rotational constants in MHz :  2459.631375   742.181961   670.660570

                             ****ORCA TERMINATED NORMALLY****
TOTAL RUN TIME: 0 days 0 hours 0 minutes 32 seconds 679 msec
