                         Program Version 5.0.0 -  RELEASE  -
|  1> !wB97X-D3 RIJCOSX def2-TZVP def2/J TightSCF
|  2> *xyz 0 1
|  3> C         -0.46129        2.23469       -4.98962
|  4> C          0.84888        2.66797       -4.30235
|  5> C          2.09343        1.86104       -4.65684
|  6> H          2.44481        2.04157       -5.67499
|  7> H          2.90175        2.13786       -3.98034
|  8> S          1.87964        0.07859       -4.46297
|  9> F          3.20757       -0.46611       -4.42026
| 10> O          1.07506       -0.05616       -3.26876
| 11> O          1.13166       -0.31996       -5.67903
| 12> H          0.66843        2.55943       -3.23285
| 13> H          1.03407        3.72943       -4.49708
| 14> H         -0.35183        2.31783       -6.05075
| 15> H         -1.26108        2.86600       -4.66300
| 16> H         -0.68032        1.21949       -4.73211
| 17> *
| 18>
| 19> %MaxCore 64000
| 20>
| 21> %pal nprocs 8
| 22> end
| 23>
| 24> %scf
| 25>   MaxIter 150
| 26> end
| 27>
| 28>
| 29>                          ****END OF INPUT****

CARTESIAN COORDINATES (ANGSTROEM)
---------------------------------
  C     -0.461290    2.234690   -4.989620
  C      0.848880    2.667970   -4.302350
  C      2.093430    1.861040   -4.656840
  H      2.444810    2.041570   -5.674990
  H      2.901750    2.137860   -3.980340
  S      1.879640    0.078590   -4.462970
  F      3.207570   -0.466110   -4.420260
  O      1.075060   -0.056160   -3.268760
  O      1.131660   -0.319960   -5.679030
  H      0.668430    2.559430   -3.232850
  H      1.034070    3.729430   -4.497080
  H     -0.351830    2.317830   -6.050750
  H     -1.261080    2.866000   -4.663000
  H     -0.680320    1.219490   -4.732110

 Total Charge           Charge          ....    0
 Multiplicity           Mult            ....    1
 Number of Electrons    NEL             ....   66
 Basis Dimension        Dim             ....  265

ORBITAL ENERGIES
----------------

  NO   OCC          E(Eh)            E(eV)
   0   2.0000     -89.195399     -2427.1302
   1   2.0000     -24.911710      -677.8821
   2   2.0000     -19.243319      -523.6373
   3   2.0000     -19.230158      -523.2792
   4   2.0000     -10.332030      -281.1488
   5   2.0000     -10.298257      -280.2298
   6   2.0000     -10.258730      -279.1542
   7   2.0000      -8.258903      -224.7362
   8   2.0000      -6.216051      -169.1474
   9   2.0000      -6.209991      -168.9824
  10   2.0000      -6.209548      -168.9704
  11   2.0000      -1.507369       -41.0176
  12   2.0000      -1.220618       -33.2147
  13   2.0000      -1.119091       -30.4520
  14   2.0000      -0.941771       -25.6269
  15   2.0000      -0.866511       -23.5790
  16   2.0000      -0.817519       -22.2458
  17   2.0000      -0.742171       -20.1955
  18   2.0000      -0.697525       -18.9806
  19   2.0000      -0.687530       -18.7086
  20   2.0000      -0.658072       -17.9070
  21   2.0000      -0.593840       -16.1592
  22   2.0000      -0.582033       -15.8379
  23   2.0000      -0.551893       -15.0178
  24   2.0000      -0.544849       -14.8261
  25   2.0000      -0.518731       -14.1154
  26   2.0000      -0.485253       -13.2044
  27   2.0000      -0.465165       -12.6578
  28   2.0000      -0.462149       -12.5757
  29   2.0000      -0.442129       -12.0310
  30   2.0000      -0.429456       -11.6861
  31   2.0000      -0.409781       -11.1507
  32   2.0000      -0.401712       -10.9311
  33   0.0000       0.102562         2.7909
  34   0.0000       0.115493         3.1427
  35   0.0000       0.144453         3.9308
  36   0.0000       0.147166         4.0046
  37   0.0000       0.157639         4.2896

MULLIKEN ATOMIC CHARGES
-----------------------
   0 C :   -0.351114
   1 C :   -0.201949
   2 C :   -0.268596
   3 H :    0.150978
   4 H :    0.140545
   5 S :    0.879148
   6 F :   -0.093920
   7 O :   -0.420880
   8 O :   -0.453162
   9 H :    0.124885
  10 H :    0.118379
  11 H :    0.110857
  12 H :    0.116897
  13 H :    0.147931
Sum of atomic charges:    0.0000000

LOEWDIN ATOMIC CHARGES
----------------------
   0 C :   -0.301291
   1 C :   -0.303115
   2 C :   -0.374197
   3 H :    0.139483
   4 H :    0.135840
   5 S :    0.535390
   6 F :    0.106765
   7 O :   -0.264983
   8 O :   -0.309996
   9 H :    0.143732
  10 H :    0.140238
  11 H :    0.115829
  12 H :    0.115673
  13 H :    0.120631

  Mayer bond orders larger than 0.100000
B(  0-C ,  1-C ) :   0.9893 B(  0-C , 11-H ) :   0.9752 B(  0-C , 12-H ) :   0.9737
B(  0-C , 13-H ) :   0.9699 B(  1-C ,  2-C ) :   0.9810 B(  1-C ,  9-H ) :   0.9710
B(  1-C , 10-H ) :   0.9583 B(  2-C ,  3-H ) :   0.9413 B(  2-C ,  4-H ) :   0.9434
B(  2-C ,  5-S ) :   0.9212 B(  5-S ,  6-F ) :   1.1571 B(  5-S ,  7-O ) :   1.8968
B(  5-S ,  8-O ) :   1.8695

Dispersion correction           -0.004635921
FINAL SINGLE POINT ENERGY      -767.050777518573

DIPOLE MOMENT
-------------
                                X             Y             Z
Electronic contribution:      8.12710     -11.27798       1.23821
Nuclear contribution   :     -7.07796      12.41139      -1.18012
                        -----------------------------------------
Total Dipole Moment    :      1.04914       1.13340       0.05809
                        -----------------------------------------
Magnitude (a.u.)       :      1.54553
Magnitude (Debye)      :      3.92844

Rotational constants in cm-1:     0.134396     0.055628     0.052255
Rotational constants in MHz :  4029.100214  1667.685325  1566.551712

                             ****ORCA TERMINATED NORMALLY****
TOTAL RUN TIME: 0 days 0 hours 0 minutes 29 seconds 414 msec
