                         Program Version 5.0.0 -  RELEASE  -
|  1> !wB97X-D3 RIJCOSX def2-TZVP def2/J TightSCF
|  2> *xyz 0 1
|  3> C         -0.46129        2.23469       -4.98962
|  4> C          0.84888        2.66797       -4.30235
|  5> C          2.09343        1.86104       -4.65684
|  6> C         -0.42384        2.39877       -6.47432
|  7> C         -0.95947        3.49265       -7.00740
|  8> N          0.14558        1.48689       -7.20399
|  9> H          0.56537        0.69681       -6.72386
| 10> H          0.22068        1.58177       -8.20752
| 11> H         -1.40624        4.18151       -6.40326
| 12> H         -0.93421        3.68160       -7.99947
| 13> H          0.66843        2.55943       -3.23285
| 14> H          1.03407        3.72943       -4.49708
| 15> H         -1.28888        2.82674       -4.59500
| 16> H         -0.65170        1.18634       -4.75655
| 17> H          2.29129        1.95234       -5.70442
| 18> H          1.93270        0.83176       -4.41261
| 19> H          2.92953        2.23285       -4.10223
| 20> *
| 21>
| 22> %MaxCore 64000
| 23>
| 24> %pal nprocs 8
| 25> end
| 26>
| 27> %scf
| 28>   MaxIter 150
| 29> end
| 30>
| 31>
| 32>                          ****END OF INPUT****

CARTESIAN COORDINATES (ANGSTROEM)
---------------------------------
  C     -0.461290    2.234690   -4.989620
  C      0.848880    2.667970   -4.302350
  C      2.093430    1.861040   -4.656840
  C     -0.423840    2.398770   -6.474320
  C     -0.959470    3.492650   -7.007400
  N      0.145580    1.486890   -7.203990
  H      0.565370    0.696810   -6.723860
  H      0.220680    1.581770   -8.207520
  H     -1.406240    4.181510   -6.403260
  H     -0.934210    3.681600   -7.999470
  H      0.668430    2.559430   -3.232850
  H      1.034070    3.729430   -4.497080
  H     -1.288880    2.826740   -4.595000
  H     -0.651700    1.186340   -4.756550
  H      2.291290    1.952340   -5.704420
  H      1.932700    0.831760   -4.412610
  H      2.929530    2.232850   -4.102230

 Total Charge           Charge          ....    0
 Multiplicity           Mult            ....    1
 Number of Electrons    NEL             ....   48
 Basis Dimension        Dim             ....  252

ORBITAL ENERGIES
----------------

  NO   OCC          E(Eh)            E(eV)
   0   2.0000     -14.421252      -392.4222
   1   2.0000     -10.294070      -280.1159
   2   2.0000     -10.272503      -279.5290
   3   2.0000     -10.270270      -279.4683
   4   2.0000     -10.256688      -279.0987
   5   2.0000     -10.200916      -277.5810
   6   2.0000      -1.052586       -28.6423
   7   2.0000      -0.909899       -24.7596
   8   2.0000      -0.850033       -23.1306
   9   2.0000      -0.793433       -21.5904
  10   2.0000      -0.715695       -19.4751
  11   2.0000      -0.669725       -18.2242
  12   2.0000      -0.628606       -17.1052
  13   2.0000      -0.587974       -15.9996
  14   2.0000      -0.551542       -15.0082
  15   2.0000      -0.532947       -14.5022
  16   2.0000      -0.507188       -13.8013
  17   2.0000      -0.486156       -13.2290
  18   2.0000      -0.470845       -12.8123
  19   2.0000      -0.456437       -12.4203
  20   2.0000      -0.431549       -11.7431
  21   2.0000      -0.418955       -11.4004
  22   2.0000      -0.415750       -11.3131
  23   2.0000      -0.272558        -7.4167
  24   0.0000       0.104701         2.8491
  25   0.0000       0.126930         3.4539
  26   0.0000       0.144986         3.9453
  27   0.0000       0.147972         4.0265
  28   0.0000       0.166148         4.5211

MULLIKEN ATOMIC CHARGES
-----------------------
   0 C :   -0.250288
   1 C :   -0.123465
   2 C :   -0.400549
   3 C :    0.233401
   4 C :   -0.450852
   5 N :   -0.486145
   6 H :    0.245888
   7 H :    0.242982
   8 H :    0.102894
   9 H :    0.096928
  10 H :    0.092503
  11 H :    0.104728
  12 H :    0.124700
  13 H :    0.112977
  14 H :    0.124473
  15 H :    0.109035
  16 H :    0.120789
Sum of atomic charges:   -0.0000000

LOEWDIN ATOMIC CHARGES
----------------------
   0 C :   -0.216382
   1 C :   -0.280338
   2 C :   -0.311286
   3 C :   -0.373698
   4 C :   -0.281590
   5 N :    0.012223
   6 H :    0.174240
   7 H :    0.176573
   8 H :    0.105239
   9 H :    0.093744
  10 H :    0.132611
  11 H :    0.136767
  12 H :    0.151173
  13 H :    0.137275
  14 H :    0.114499
  15 H :    0.111902
  16 H :    0.117047

  Mayer bond orders larger than 0.100000
B(  0-C ,  1-C ) :   0.9534 B(  0-C ,  3-C ) :   0.9318 B(  0-C , 12-H ) :   0.9855
B(  0-C , 13-H ) :   0.9969 B(  1-C ,  2-C ) :   0.9602 B(  1-C , 10-H ) :   0.9754
B(  1-C , 11-H ) :   0.9655 B(  2-C , 14-H ) :   0.9749 B(  2-C , 15-H ) :   0.9820
B(  2-C , 16-H ) :   0.9790 B(  3-C ,  4-C ) :   1.7452 B(  3-C ,  5-N ) :   1.1740
B(  4-C ,  8-H ) :   0.9985 B(  4-C ,  9-H ) :   0.9966 B(  5-N ,  6-H ) :   0.9208
B(  5-N ,  7-H ) :   0.9162

Dispersion correction           -0.004595727
FINAL SINGLE POINT ENERGY      -251.901443605425

DIPOLE MOMENT
-------------
                                X             Y             Z
Electronic contribution:     -2.06994      -0.47006      -2.63122
Nuclear contribution   :      2.52905      -0.17478       2.67366
                        -----------------------------------------
Total Dipole Moment    :      0.45911      -0.64484       0.04244
                        -----------------------------------------
Magnitude (a.u.)       :      0.79272
Magnitude (Debye)      :      2.01494

Rotational constants in cm-1:     0.190920     0.082419     0.067855
Rotational constants in MHz :  5723.626725  2470.870287  2034.242308

                             ****ORCA TERMINATED NORMALLY****
TOTAL RUN TIME: 0 days 0 hours 0 minutes 31 seconds 358 msec
