                         Program Version 5.0.0 -  RELEASE  -
|  1> !wB97X-D3 RIJCOSX def2-TZVP def2/J TightSCF
|  2> *xyz 0 1
|  3> C         -0.46129        2.23469       -4.98962
|  4> C          0.84888        2.66797       -4.30235
|  5> C          2.09343        1.86104       -4.65684
|  6> H          2.44481        2.04157       -5.67499
|  7> H          2.90175        2.13786       -3.98034
|  8> S          1.87964        0.07859       -4.46297
|  9> O          3.20757       -0.46611       -4.42026
| 10> F          1.07506       -0.05616       -3.26876
| 11> O          1.13166       -0.31996       -5.67903
| 12> H          0.66843        2.55943       -3.23285
| 13> H          1.03407        3.72943       -4.49708
| 14> H         -0.35183        2.31783       -6.05075
| 15> H         -1.26108        2.86600       -4.66300
| 16> H         -0.68032        1.21949       -4.73211
| 17> *
| 18>
| 19> %MaxCore 64000
| 20>
| 21> %pal nprocs 8
| 22> end
| 23>
| 24> %scf
| 25>   MaxIter 150
| 26> end
| 27>
| 28>
| 29>                          ****END OF INPUT****

CARTESIAN COORDINATES (ANGSTROEM)
---------------------------------
  C     -0.461290    2.234690   -4.989620
  C      0.848880    2.667970   -4.302350
  C      2.093430    1.861040   -4.656840
  H      2.444810    2.041570   -5.674990
  H      2.901750    2.137860   -3.980340
  S      1.879640    0.078590   -4.462970
  O      3.207570   -0.466110   -4.420260
  F      1.075060   -0.056160   -3.268760
  O      1.131660   -0.319960   -5.679030
  H      0.668430    2.559430   -3.232850
  H      1.034070    3.729430   -4.497080
  H     -0.351830    2.317830   -6.050750
  H     -1.261080    2.866000   -4.663000
  H     -0.680320    1.219490   -4.732110

 Total Charge           Charge          ....    0
 Multiplicity           Mult            ....    1
 Number of Electrons    NEL             ....   66
 Basis Dimension        Dim             ....  265

ORBITAL ENERGIES
----------------

  NO   OCC          E(Eh)            E(eV)
   0   2.0000     -89.194296     -2427.1002
   1   2.0000     -24.906404      -677.7377
   2   2.0000     -19.245811      -523.7051
   3   2.0000     -19.229141      -523.2515
   4   2.0000     -10.331807      -281.1428
   5   2.0000     -10.305053      -280.4148
   6   2.0000     -10.270554      -279.4760
   7   2.0000      -8.257775      -224.7055
   8   2.0000      -6.215272      -169.1261
   9   2.0000      -6.208757      -168.9489
  10   2.0000      -6.208225      -168.9344
  11   2.0000      -1.499014       -40.7903
  12   2.0000      -1.223539       -33.2942
  13   2.0000      -1.121393       -30.5147
  14   2.0000      -0.948942       -25.8220
  15   2.0000      -0.864141       -23.5145
  16   2.0000      -0.820215       -22.3192
  17   2.0000      -0.744581       -20.2611
  18   2.0000      -0.699650       -19.0384
  19   2.0000      -0.691689       -18.8218
  20   2.0000      -0.647885       -17.6298
  21   2.0000      -0.592992       -16.1361
  22   2.0000      -0.581818       -15.8321
  23   2.0000      -0.560001       -15.2384
  24   2.0000      -0.543418       -14.7872
  25   2.0000      -0.529899       -14.4193
  26   2.0000      -0.489163       -13.3108
  27   2.0000      -0.481857       -13.1120
  28   2.0000      -0.469919       -12.7871
  29   2.0000      -0.452556       -12.3147
  30   2.0000      -0.427079       -11.6214
  31   2.0000      -0.411850       -11.2070
  32   2.0000      -0.400901       -10.9091
  33   0.0000       0.091648         2.4939
  34   0.0000       0.126690         3.4474
  35   0.0000       0.138399         3.7660
  36   0.0000       0.147419         4.0115
  37   0.0000       0.151618         4.1257

MULLIKEN ATOMIC CHARGES
-----------------------
   0 C :   -0.331611
   1 C :   -0.225859
   2 C :   -0.267211
   3 H :    0.166108
   4 H :    0.152968
   5 S :    0.882157
   6 O :   -0.414070
   7 F :   -0.102411
   8 O :   -0.454199
   9 H :    0.113637
  10 H :    0.121526
  11 H :    0.120909
  12 H :    0.121352
  13 H :    0.116703
Sum of atomic charges:   -0.0000000

LOEWDIN ATOMIC CHARGES
----------------------
   0 C :   -0.303463
   1 C :   -0.314923
   2 C :   -0.365624
   3 H :    0.149517
   4 H :    0.140542
   5 S :    0.537568
   6 O :   -0.257597
   7 F :    0.099240
   8 O :   -0.310262
   9 H :    0.136100
  10 H :    0.140560
  11 H :    0.119502
  12 H :    0.116313
  13 H :    0.112527

  Mayer bond orders larger than 0.100000
B(  0-C ,  1-C ) :   0.9821 B(  0-C , 11-H ) :   0.9743 B(  0-C , 12-H ) :   0.9730
B(  0-C , 13-H ) :   0.9734 B(  1-C ,  2-C ) :   0.9738 B(  1-C ,  9-H ) :   0.9775
B(  1-C , 10-H ) :   0.9610 B(  2-C ,  3-H ) :   0.9436 B(  2-C ,  4-H ) :   0.9490
B(  2-C ,  5-S ) :   0.9146 B(  5-S ,  6-O ) :   1.9594 B(  5-S ,  7-F ) :   1.1276
B(  5-S ,  8-O ) :   1.8612

Dispersion correction           -0.004631075
FINAL SINGLE POINT ENERGY      -767.054458784865

DIPOLE MOMENT
-------------
                                X             Y             Z
Electronic contribution:      4.41714     -10.50379       3.19219
Nuclear contribution   :     -4.78457      11.97051      -2.41849
                        -----------------------------------------
Total Dipole Moment    :     -0.36743       1.46672       0.77370
                        -----------------------------------------
Magnitude (a.u.)       :      1.69849
Magnitude (Debye)      :      4.31723

Rotational constants in cm-1:     0.129206     0.056639     0.054229
Rotational constants in MHz :  3873.509495  1697.990779  1625.734877

                             ****ORCA TERMINATED NORMALLY****
TOTAL RUN TIME: 0 days 0 hours 0 minutes 31 seconds 901 msec
