                         Program Version 5.0.0 -  RELEASE  -
|  1> !wB97X-D3 RIJCOSX def2-TZVP def2/J TightSCF
|  2> *xyz 0 1
|  3> C         -0.46129        2.23469       -4.98962
|  4> C          0.84888        2.66797       -4.30235
|  5> C          2.09343        1.86104       -4.65684
|  6> C         -0.42384        2.39877       -6.47432
|  7> N         -0.95947        3.49265       -7.00740
|  8> C          0.14558        1.48689       -7.20399
|  9> H          0.56537        0.69681       -6.72386
| 10> H          0.22068        1.58177       -8.20752
| 11> H         -1.40624        4.18151       -6.40326
| 12> H         -0.93421        3.68160       -7.99947
| 13> H          0.66843        2.55943       -3.23285
| 14> H          1.03407        3.72943       -4.49708
| 15> H         -1.28888        2.82674       -4.59500
| 16> H         -0.65170        1.18634       -4.75655
| 17> H          2.29129        1.95234       -5.70442
| 18> H          1.93270        0.83176       -4.41261
| 19> H          2.92953        2.23285       -4.10223
| 20> *
| 21>
| 22> %MaxCore 64000
| 23>
| 24> %pal nprocs 8
| 25> end
| 26>
| 27> %scf
| 28>   MaxIter 150
| 29> end
| 30>
| 31>
| 32>                          ****END OF INPUT****

CARTESIAN COORDINATES (ANGSTROEM)
---------------------------------
  C     -0.461290    2.234690   -4.989620
  C      0.848880    2.667970   -4.302350
  C      2.093430    1.861040   -4.656840
  C     -0.423840    2.398770   -6.474320
  N     -0.959470    3.492650   -7.007400
  C      0.145580    1.486890   -7.203990
  H      0.565370    0.696810   -6.723860
  H      0.220680    1.581770   -8.207520
  H     -1.406240    4.181510   -6.403260
  H     -0.934210    3.681600   -7.999470
  H      0.668430    2.559430   -3.232850
  H      1.034070    3.729430   -4.497080
  H     -1.288880    2.826740   -4.595000
  H     -0.651700    1.186340   -4.756550
  H      2.291290    1.952340   -5.704420
  H      1.932700    0.831760   -4.412610
  H      2.929530    2.232850   -4.102230

 Total Charge           Charge          ....    0
 Multiplicity           Mult            ....    1
 Number of Electrons    NEL             ....   48
 Basis Dimension        Dim             ....  252

ORBITAL ENERGIES
----------------

  NO   OCC          E(Eh)            E(eV)
   0   2.0000     -14.417874      -392.3303
   1   2.0000     -10.291314      -280.0409
   2   2.0000     -10.271961      -279.5143
   3   2.0000     -10.268944      -279.4322
   4   2.0000     -10.246491      -278.8212
   5   2.0000     -10.199338      -277.5381
   6   2.0000      -1.039491       -28.2860
   7   2.0000      -0.909790       -24.7567
   8   2.0000      -0.846520       -23.0350
   9   2.0000      -0.799097       -21.7445
  10   2.0000      -0.706338       -19.2204
  11   2.0000      -0.667835       -18.1727
  12   2.0000      -0.620901       -16.8956
  13   2.0000      -0.581108       -15.8128
  14   2.0000      -0.552559       -15.0359
  15   2.0000      -0.534404       -14.5419
  16   2.0000      -0.491484       -13.3740
  17   2.0000      -0.488045       -13.2804
  18   2.0000      -0.470008       -12.7896
  19   2.0000      -0.457027       -12.4363
  20   2.0000      -0.426891       -11.6163
  21   2.0000      -0.417038       -11.3482
  22   2.0000      -0.409357       -11.1392
  23   2.0000      -0.277564        -7.5529
  24   0.0000       0.105886         2.8813
  25   0.0000       0.127280         3.4635
  26   0.0000       0.145153         3.9498
  27   0.0000       0.151643         4.1264
  28   0.0000       0.167364         4.5542

MULLIKEN ATOMIC CHARGES
-----------------------
   0 C :   -0.237847
   1 C :   -0.131624
   2 C :   -0.382640
   3 C :    0.257398
   4 N :   -0.513711
   5 C :   -0.465030
   6 H :    0.125153
   7 H :    0.095177
   8 H :    0.237582
   9 H :    0.240642
  10 H :    0.094761
  11 H :    0.091737
  12 H :    0.095438
  13 H :    0.130930
  14 H :    0.140745
  15 H :    0.107275
  16 H :    0.114016
Sum of atomic charges:    0.0000000

LOEWDIN ATOMIC CHARGES
----------------------
   0 C :   -0.215738
   1 C :   -0.280919
   2 C :   -0.305350
   3 C :   -0.364513
   4 N :   -0.014206
   5 C :   -0.267233
   6 H :    0.110338
   7 H :    0.098653
   8 H :    0.170262
   9 H :    0.169919
  10 H :    0.132678
  11 H :    0.132382
  12 H :    0.135948
  13 H :    0.149878
  14 H :    0.119455
  15 H :    0.114161
  16 H :    0.114285

  Mayer bond orders larger than 0.100000
B(  0-C ,  1-C ) :   0.9602 B(  0-C ,  3-C ) :   0.9249 B(  0-C , 12-H ) :   0.9843
B(  0-C , 13-H ) :   0.9992 B(  1-C ,  2-C ) :   0.9718 B(  1-C , 10-H ) :   0.9784
B(  1-C , 11-H ) :   0.9667 B(  2-C , 14-H ) :   0.9763 B(  2-C , 15-H ) :   0.9815
B(  2-C , 16-H ) :   0.9791 B(  3-C ,  4-N ) :   1.1382 B(  3-C ,  5-C ) :   1.7490
B(  4-N ,  8-H ) :   0.9210 B(  4-N ,  9-H ) :   0.9195 B(  5-C ,  6-H ) :   1.0080
B(  5-C ,  7-H ) :   0.9979

Dispersion correction           -0.004539968
FINAL SINGLE POINT ENERGY      -251.901254270981

DIPOLE MOMENT
-------------
                                X             Y             Z
Electronic contribution:     -3.08486       1.31362      -2.48554
Nuclear contribution   :      2.79043      -0.64920       2.62716
                        -----------------------------------------
Total Dipole Moment    :     -0.29443       0.66442       0.14162
                        -----------------------------------------
Magnitude (a.u.)       :      0.74040
Magnitude (Debye)      :      1.88195

Rotational constants in cm-1:     0.196182     0.080190     0.067215
Rotational constants in MHz :  5881.393438  2404.041106  2015.067205

                             ****ORCA TERMINATED NORMALLY****
TOTAL RUN TIME: 0 days 0 hours 0 minutes 29 seconds 510 msec
