                         Program Version 5.0.0 -  RELEASE  -
|  1> !wB97X-D3 RIJCOSX def2-TZVP def2/J TightSCF
|  2> *xyz 0 1
|  3> C         -0.46129        2.23469       -4.98962
|  4> C          0.84888        2.66797       -4.30235
|  5> C          2.09343        1.86104       -4.65684
|  6> H          2.44481        2.04157       -5.67499
|  7> H          2.90175        2.13786       -3.98034
|  8> S          1.87964        0.07859       -4.46297
|  9> O          3.20757       -0.46611       -4.42026
| 10> O          1.07506       -0.05616       -3.26876
| 11> F          1.13166       -0.31996       -5.67903
| 12> H          0.66843        2.55943       -3.23285
| 13> H          1.03407        3.72943       -4.49708
| 14> H         -0.35183        2.31783       -6.05075
| 15> H         -1.26108        2.86600       -4.66300
| 16> H         -0.68032        1.21949       -4.73211
| 17> *
| 18>
| 19> %MaxCore 64000
| 20>
| 21> %pal nprocs 8
| 22> end
| 23>
| 24> %scf
| 25>   MaxIter 150
| 26> end
| 27>
| 28>
| 29>                          ****END OF INPUT****

CARTESIAN COORDINATES (ANGSTROEM)
---------------------------------
  C     -0.461290    2.234690   -4.989620
  C      0.848880    2.667970   -4.302350
  C      2.093430    1.861040   -4.656840
  H      2.444810    2.041570   -5.674990
  H      2.901750    2.137860   -3.980340
  S      1.879640    0.078590   -4.462970
  O      3.207570   -0.466110   -4.420260
  O      1.075060   -0.056160   -3.268760
  F      1.131660   -0.319960   -5.679030
  H      0.668430    2.559430   -3.232850
  H      1.034070    3.729430   -4.497080
  H     -0.351830    2.317830   -6.050750
  H     -1.261080    2.866000   -4.663000
  H     -0.680320    1.219490   -4.732110

 Total Charge           Charge          ....    0
 Multiplicity           Mult            ....    1
 Number of Electrons    NEL             ....   66
 Basis Dimension        Dim             ....  265

ORBITAL ENERGIES
----------------

  NO   OCC          E(Eh)            E(eV)
   0   2.0000     -89.192736     -2427.0577
   1   2.0000     -24.886740      -677.2026
   2   2.0000     -19.245708      -523.7023
   3   2.0000     -19.242444      -523.6135
   4   2.0000     -10.331347      -281.1302
   5   2.0000     -10.300094      -280.2798
   6   2.0000     -10.273233      -279.5489
   7   2.0000      -8.256207      -224.6628
   8   2.0000      -6.213684      -169.0829
   9   2.0000      -6.207420      -168.9125
  10   2.0000      -6.206568      -168.8893
  11   2.0000      -1.468110       -39.9493
  12   2.0000      -1.232431       -33.5362
  13   2.0000      -1.140684       -31.0396
  14   2.0000      -0.945981       -25.7415
  15   2.0000      -0.861049       -23.4303
  16   2.0000      -0.808717       -22.0063
  17   2.0000      -0.742349       -20.2003
  18   2.0000      -0.675183       -18.3727
  19   2.0000      -0.669688       -18.2231
  20   2.0000      -0.653290       -17.7769
  21   2.0000      -0.599791       -16.3211
  22   2.0000      -0.577044       -15.7022
  23   2.0000      -0.557619       -15.1736
  24   2.0000      -0.549593       -14.9552
  25   2.0000      -0.532806       -14.4984
  26   2.0000      -0.495022       -13.4702
  27   2.0000      -0.479824       -13.0567
  28   2.0000      -0.467527       -12.7221
  29   2.0000      -0.449828       -12.2404
  30   2.0000      -0.435989       -11.8639
  31   2.0000      -0.420577       -11.4445
  32   2.0000      -0.417693       -11.3660
  33   0.0000       0.099277         2.7015
  34   0.0000       0.122940         3.3454
  35   0.0000       0.137030         3.7288
  36   0.0000       0.146636         3.9902
  37   0.0000       0.160695         4.3727

MULLIKEN ATOMIC CHARGES
-----------------------
   0 C :   -0.371239
   1 C :   -0.180620
   2 C :   -0.292239
   3 H :    0.148310
   4 H :    0.167615
   5 S :    0.888980
   6 O :   -0.421942
   7 O :   -0.428272
   8 F :   -0.124236
   9 H :    0.130206
  10 H :    0.116118
  11 H :    0.111821
  12 H :    0.126251
  13 H :    0.129248
Sum of atomic charges:   -0.0000000

LOEWDIN ATOMIC CHARGES
----------------------
   0 C :   -0.306986
   1 C :   -0.309531
   2 C :   -0.369044
   3 H :    0.136732
   4 H :    0.150585
   5 S :    0.542469
   6 O :   -0.260858
   7 O :   -0.267621
   8 F :    0.054037
   9 H :    0.144780
  10 H :    0.138776
  11 H :    0.113273
  12 H :    0.119558
  13 H :    0.113832

  Mayer bond orders larger than 0.100000
B(  0-C ,  1-C ) :   0.9730 B(  0-C , 11-H ) :   0.9761 B(  0-C , 12-H ) :   0.9761
B(  0-C , 13-H ) :   0.9721 B(  1-C ,  2-C ) :   0.9689 B(  1-C ,  9-H ) :   0.9685
B(  1-C , 10-H ) :   0.9578 B(  2-C ,  3-H ) :   0.9486 B(  2-C ,  4-H ) :   0.9456
B(  2-C ,  5-S ) :   0.9137 B(  5-S ,  6-O ) :   1.9565 B(  5-S ,  7-O ) :   1.8887
B(  5-S ,  8-F ) :   1.1003

Dispersion correction           -0.004617727
FINAL SINGLE POINT ENERGY      -767.070981326097

DIPOLE MOMENT
-------------
                                X             Y             Z
Electronic contribution:      4.49954     -10.96814      -0.94529
Nuclear contribution   :     -4.84544      12.25421       0.17361
                        -----------------------------------------
Total Dipole Moment    :     -0.34590       1.28608      -0.77168
                        -----------------------------------------
Magnitude (a.u.)       :      1.53920
Magnitude (Debye)      :      3.91233

Rotational constants in cm-1:     0.128954     0.057447     0.053381
Rotational constants in MHz :  3865.954571  1722.226669  1600.330369

                             ****ORCA TERMINATED NORMALLY****
TOTAL RUN TIME: 0 days 0 hours 0 minutes 30 seconds 400 msec
