                         Program Version 5.0.0 -  RELEASE  -
|  1> !wB97X-D3 RIJCOSX def2-TZVP def2/J TightSCF xyzfile
|  2>
|  3> *xyzfile 0 1 D5.xyz
|  4>
|  5> %MaxCore 64000
|  6>
|  7> %pal nprocs 18
|  8> end
|  9>
| 10> %scf
| 11>   MaxIter 150
| 12> end
| 13>
| 14>
| 15>                          ****END OF INPUT****

CARTESIAN COORDINATES (ANGSTROEM)
---------------------------------
  C     -0.461293    2.234686   -4.989619
  C      0.848883    2.667967   -4.302351
  C      2.093434    1.861037   -4.656845
  H      2.444814    2.041567   -5.674990
  H      2.901748    2.137864   -3.980338
  S      1.879644    0.078594   -4.462965
  C     -0.423841    2.398772   -6.474317
  C     -0.959467    3.492647   -7.007401
  N      0.145585    1.486891   -7.203987
  H      0.565371    0.696807   -6.723858
  H      0.220682    1.581768   -8.207520
  H     -1.406243    4.181507   -6.403261
  H     -0.934215    3.681601   -7.999468
  O      3.207574   -0.466111   -4.420259
  O      1.075064   -0.056160   -3.268758
  F      1.131661   -0.319960   -5.679031
  H      0.668432    2.559427   -3.232850
  H      1.034074    3.729426   -4.497081
  H     -1.288884    2.826737   -4.594997
  H     -0.651696    1.186343   -4.756552

 Total Charge           Charge          ....    0
 Multiplicity           Mult            ....    1
 Number of Electrons    NEL             ....   88
 Basis Dimension        Dim             ....  376

ORBITAL ENERGIES
----------------

  NO   OCC          E(Eh)            E(eV)
   0   2.0000     -89.205548     -2427.4064
   1   2.0000     -24.913740      -677.9373
   2   2.0000     -19.258149      -524.0409
   3   2.0000     -19.254401      -523.9389
   4   2.0000     -14.424092      -392.4995
   5   2.0000     -10.338115      -281.3144
   6   2.0000     -10.305254      -280.4202
   7   2.0000     -10.303885      -280.3830
   8   2.0000     -10.289940      -280.0035
   9   2.0000     -10.211694      -277.8743
  10   2.0000      -8.269488      -225.0242
  11   2.0000      -6.227311      -169.4538
  12   2.0000      -6.220335      -169.2639
  13   2.0000      -6.219648      -169.2452
  14   2.0000      -1.498875       -40.7865
  15   2.0000      -1.246118       -33.9086
  16   2.0000      -1.152518       -31.3616
  17   2.0000      -1.063236       -28.9321
  18   2.0000      -0.954212       -25.9654
  19   2.0000      -0.886949       -24.1351
  20   2.0000      -0.859016       -23.3750
  21   2.0000      -0.812480       -22.1087
  22   2.0000      -0.767667       -20.8893
  23   2.0000      -0.713432       -19.4135
  24   2.0000      -0.697982       -18.9931
  25   2.0000      -0.680183       -18.5087
  26   2.0000      -0.661992       -18.0137
  27   2.0000      -0.638702       -17.3800
  28   2.0000      -0.606048       -16.4914
  29   2.0000      -0.590377       -16.0650
  30   2.0000      -0.576030       -15.6746
  31   2.0000      -0.569760       -15.5040
  32   2.0000      -0.548020       -14.9124
  33   2.0000      -0.523257       -14.2385
  34   2.0000      -0.504208       -13.7202
  35   2.0000      -0.494707       -13.4617
  36   2.0000      -0.486003       -13.2248
  37   2.0000      -0.474134       -12.9018
  38   2.0000      -0.449583       -12.2338
  39   2.0000      -0.446274       -12.1437
  40   2.0000      -0.435986       -11.8638
  41   2.0000      -0.429637       -11.6910
  42   2.0000      -0.424666       -11.5557
  43   2.0000      -0.283218        -7.7068
  44   0.0000       0.089994         2.4489
  45   0.0000       0.113494         3.0883
  46   0.0000       0.116220         3.1625
  47   0.0000       0.125039         3.4025
  48   0.0000       0.135298         3.6817

MULLIKEN ATOMIC CHARGES
-----------------------
   0 C :   -0.322637
   1 C :   -0.150048
   2 C :   -0.360468
   3 H :    0.174616
   4 H :    0.177277
   5 S :    0.895165
   6 C :    0.239839
   7 C :   -0.453060
   8 N :   -0.492122
   9 H :    0.242895
  10 H :    0.241576
  11 H :    0.104629
  12 H :    0.102352
  13 O :   -0.413057
  14 O :   -0.415138
  15 F :   -0.135576
  16 H :    0.137095
  17 H :    0.132164
  18 H :    0.138974
  19 H :    0.155525
Sum of atomic charges:   -0.0000000

LOEWDIN ATOMIC CHARGES
----------------------
   0 C :   -0.216732
   1 C :   -0.271140
   2 C :   -0.363283
   3 H :    0.140536
   4 H :    0.152188
   5 S :    0.546915
   6 C :   -0.378991
   7 C :   -0.276839
   8 N :    0.003573
   9 H :    0.141669
  10 H :    0.175867
  11 H :    0.105490
  12 H :    0.095281
  13 O :   -0.252161
  14 O :   -0.257275
  15 F :    0.065002
  16 H :    0.147291
  17 H :    0.147996
  18 H :    0.155798
  19 H :    0.138816

  Mayer bond orders larger than 0.100000
B(  0-C ,  1-C ) :   0.9389 B(  0-C ,  6-C ) :   0.9024 B(  0-C , 18-H ) :   0.9816
B(  0-C , 19-H ) :   1.0063 B(  1-C ,  2-C ) :   0.9739 B(  1-C , 16-H ) :   0.9676
B(  1-C , 17-H ) :   0.9455 B(  2-C ,  3-H ) :   0.9379 B(  2-C ,  4-H ) :   0.9445
B(  2-C ,  5-S ) :   0.9237 B(  5-S , 13-O ) :   1.9664 B(  5-S , 14-O ) :   1.9008
B(  5-S , 15-F ) :   1.0291 B(  6-C ,  7-C ) :   1.7411 B(  6-C ,  8-N ) :   1.1787
B(  7-C , 11-H ) :   0.9979 B(  7-C , 12-H ) :   0.9975 B(  8-N ,  9-H ) :   0.8963
B(  8-N , 10-H ) :   0.9174

Dispersion correction           -0.008651607
FINAL SINGLE POINT ENERGY      -899.807906957911

DIPOLE MOMENT
-------------
                                X             Y             Z
Electronic contribution:      6.43985     -13.45791       3.15142
Nuclear contribution   :     -6.26130      13.99605      -3.80018
                        -----------------------------------------
Total Dipole Moment    :      0.17854       0.53814      -0.64876
                        -----------------------------------------
Magnitude (a.u.)       :      0.86161
Magnitude (Debye)      :      2.19003

Rotational constants in cm-1:     0.079895     0.025630     0.022948
Rotational constants in MHz :  2395.188639   768.373696   687.955250

                             ****ORCA TERMINATED NORMALLY****
TOTAL RUN TIME: 0 days 0 hours 0 minutes 38 seconds 466 msec
