                         Program Version 5.0.0 -  RELEASE  -
|  1> !PBE0 D3BJ RIJCOSX def2-SVPD def2/J TightSCF
|  2> *xyz -1 1
|  3> C         -1.10433        0.25137       -2.86006
|  4> C         -0.71189        0.84252       -4.21834
|  5> H          0.15463        1.49980       -4.13091
|  6> H         -1.53813        1.45922       -4.58267
|  7> C         -0.39762       -0.20587       -5.28802
|  8> O          0.61717       -0.00535       -5.99827
|  9> O         -1.13317       -1.22138       -5.34147
| 10> C         -0.19626       -0.86337       -2.32576
| 11> H         -1.14384        1.06671       -2.12968
| 12> H         -2.11440       -0.15683       -2.93032
| 13> H         -0.15538       -1.66172       -3.03700
| 14> H         -0.58845       -1.22999       -1.40020
| 15> H          0.78852       -0.47602       -2.16737
| 16> *
| 17>
| 18> %MaxCore 64000
| 19>
| 20> %pal nprocs 4
| 21> end
| 22>
| 23> %scf
| 24>   MaxIter 150
| 25> end
| 26>
| 27>
| 28>                          ****END OF INPUT****

CARTESIAN COORDINATES (ANGSTROEM)
---------------------------------
  C     -1.104330    0.251370   -2.860060
  C     -0.711890    0.842520   -4.218340
  H      0.154630    1.499800   -4.130910
  H     -1.538130    1.459220   -4.582670
  C     -0.397620   -0.205870   -5.288020
  O      0.617170   -0.005350   -5.998270
  O     -1.133170   -1.221380   -5.341470
  C     -0.196260   -0.863370   -2.325760
  H     -1.143840    1.066710   -2.129680
  H     -2.114400   -0.156830   -2.930320
  H     -0.155380   -1.661720   -3.037000
  H     -0.588450   -1.229990   -1.400200
  H      0.788520   -0.476020   -2.167370

 Total Charge           Charge          ....   -1
 Multiplicity           Mult            ....    1
 Number of Electrons    NEL             ....   48
 Basis Dimension        Dim             ....  182

ORBITAL ENERGIES
----------------

  NO   OCC          E(Eh)            E(eV)
   0   2.0000     -18.957278      -515.8538
   1   2.0000     -18.956313      -515.8275
   2   2.0000     -10.118824      -275.3472
   3   2.0000     -10.084760      -274.4203
   4   2.0000     -10.074050      -274.1288
   5   2.0000     -10.060394      -273.7572
   6   2.0000      -0.843698       -22.9582
   7   2.0000      -0.748939       -20.3797
   8   2.0000      -0.651444       -17.7267
   9   2.0000      -0.557389       -15.1673
  10   2.0000      -0.458364       -12.4727
  11   2.0000      -0.338563        -9.2128
  12   2.0000      -0.317427        -8.6376
  13   2.0000      -0.304062        -8.2739
  14   2.0000      -0.269852        -7.3430
  15   2.0000      -0.248506        -6.7622
  16   2.0000      -0.228469        -6.2170
  17   2.0000      -0.219518        -5.9734
  18   2.0000      -0.207639        -5.6501
  19   2.0000      -0.188351        -5.1253
  20   2.0000      -0.176693        -4.8081
  21   2.0000      -0.066140        -1.7998
  22   2.0000      -0.058042        -1.5794
  23   2.0000      -0.045534        -1.2391
  24   0.0000       0.153821         4.1857
  25   0.0000       0.177953         4.8423
  26   0.0000       0.195327         5.3151
  27   0.0000       0.205075         5.5804
  28   0.0000       0.225637         6.1399

MULLIKEN ATOMIC CHARGES
-----------------------
   0 C :   -0.524679
   1 C :   -0.014220
   2 H :    0.063209
   3 H :    0.027072
   4 C :    0.570902
   5 O :   -0.753827
   6 O :   -0.810544
   7 C :    0.500631
   8 H :   -0.105626
   9 H :    0.061596
  10 H :   -0.015418
  11 H :   -0.013075
  12 H :    0.013979
Sum of atomic charges:   -1.0000000

LOEWDIN ATOMIC CHARGES
----------------------
   0 C :   -0.095023
   1 C :   -0.004360
   2 H :    0.003475
   3 H :    0.012671
   4 C :   -0.294940
   5 O :   -0.332688
   6 O :   -0.322280
   7 C :    0.109959
   8 H :   -0.001665
   9 H :    0.011172
  10 H :   -0.026522
  11 H :   -0.035407
  12 H :   -0.024392

  Mayer bond orders larger than 0.100000
B(  0-C ,  1-C ) :   1.2087 B(  0-C ,  2-H ) :   0.1243 B(  0-C ,  3-H ) :   0.1151
B(  0-C ,  7-C ) :   1.3420 B(  0-C ,  8-H ) :   0.9986 B(  0-C ,  9-H ) :   0.9028
B(  0-C , 10-H ) :   0.1930 B(  0-C , 11-H ) :   0.1981 B(  0-C , 12-H ) :   0.1811
B(  1-C ,  2-H ) :   0.8891 B(  1-C ,  3-H ) :   0.8526 B(  1-C ,  4-C ) :   1.0471
B(  1-C ,  8-H ) :   0.1055 B(  1-C ,  9-H ) :   0.1109 B(  2-H ,  4-C ) :   0.1903
B(  4-C ,  5-O ) :   1.3228 B(  4-C ,  6-O ) :   1.3848 B(  7-C , 10-H ) :   0.8770
B(  7-C , 11-H ) :   0.7796 B(  7-C , 12-H ) :   0.8201

Dispersion correction           -0.008326297
FINAL SINGLE POINT ENERGY      -306.605118478223

DIPOLE MOMENT
-------------
                                X             Y             Z
Electronic contribution:      0.66270      -1.02904      -7.13058
Nuclear contribution   :     -1.15173       1.87787       9.37659
                        -----------------------------------------
Total Dipole Moment    :     -0.48903       0.84883       2.24601
                        -----------------------------------------
Magnitude (a.u.)       :      2.45035
Magnitude (Debye)      :      6.22830

Rotational constants in cm-1:     0.203160     0.081703     0.075834
Rotational constants in MHz :  6090.598467  2449.397428  2273.436534

                             ****ORCA TERMINATED NORMALLY****
TOTAL RUN TIME: 0 days 0 hours 0 minutes 17 seconds 955 msec
