                         Program Version 5.0.0 -  RELEASE  -
|  1> !PBE0 D3BJ RIJCOSX def2-SVPD def2/J TightSCF
|  2> *xyz 1 1
|  3> C          2.23447       -2.98975       -2.39762
|  4> N          2.75680       -2.94555       -3.76503
|  5> C          1.98721       -2.59045       -4.81898
|  6> N          0.74322       -3.01749       -4.91352
|  7> N          2.49964       -1.84860       -5.80324
|  8> H          3.30978       -1.29282       -5.55895
|  9> H          1.80103       -1.30430       -6.28913
| 10> H          3.71612       -2.62880       -3.82953
| 11> H          0.39583       -3.62775       -4.18502
| 12> H          0.03920       -2.45438       -5.37137
| 13> C          2.19120       -1.61950       -1.71549
| 14> H          2.87278       -3.66637       -1.82801
| 15> H          1.24619       -3.44744       -2.40784
| 16> C          1.29873       -0.55431       -2.35977
| 17> H          1.87292       -1.78796       -0.68131
| 18> H          3.21681       -1.23843       -1.65443
| 19> H          1.61097       -0.39090       -3.37007
| 20> H          1.37981        0.35955       -1.80916
| 21> H          0.28197       -0.88750       -2.35015
| 22> *
| 23>
| 24> %MaxCore 64000
| 25>
| 26> %pal nprocs 4
| 27> end
| 28>
| 29> %scf
| 30>   MaxIter 150
| 31> end
| 32>
| 33>
| 34>                          ****END OF INPUT****

CARTESIAN COORDINATES (ANGSTROEM)
---------------------------------
  C      2.234470   -2.989750   -2.397620
  N      2.756800   -2.945550   -3.765030
  C      1.987210   -2.590450   -4.818980
  N      0.743220   -3.017490   -4.913520
  N      2.499640   -1.848600   -5.803240
  H      3.309780   -1.292820   -5.558950
  H      1.801030   -1.304300   -6.289130
  H      3.716120   -2.628800   -3.829530
  H      0.395830   -3.627750   -4.185020
  H      0.039200   -2.454380   -5.371370
  C      2.191200   -1.619500   -1.715490
  H      2.872780   -3.666370   -1.828010
  H      1.246190   -3.447440   -2.407840
  C      1.298730   -0.554310   -2.359770
  H      1.872920   -1.787960   -0.681310
  H      3.216810   -1.238430   -1.654430
  H      1.610970   -0.390900   -3.370070
  H      1.379810    0.359550   -1.809160
  H      0.281970   -0.887500   -2.350150

 Total Charge           Charge          ....    1
 Multiplicity           Mult            ....    1
 Number of Electrons    NEL             ....   56
 Basis Dimension        Dim             ....  236

ORBITAL ENERGIES
----------------

  NO   OCC          E(Eh)            E(eV)
   0   2.0000     -14.624414      -397.9505
   1   2.0000     -14.621056      -397.8592
   2   2.0000     -14.619993      -397.8302
   3   2.0000     -10.570858      -287.6477
   4   2.0000     -10.439878      -284.0835
   5   2.0000     -10.383409      -282.5469
   6   2.0000     -10.362626      -281.9814
   7   2.0000      -1.239545       -33.7297
   8   2.0000      -1.123875       -30.5822
   9   2.0000      -1.118587       -30.4383
  10   2.0000      -0.958812       -26.0906
  11   2.0000      -0.886435       -24.1211
  12   2.0000      -0.843540       -22.9539
  13   2.0000      -0.802408       -21.8346
  14   2.0000      -0.784204       -21.3393
  15   2.0000      -0.747588       -20.3429
  16   2.0000      -0.715045       -19.4574
  17   2.0000      -0.699814       -19.0429
  18   2.0000      -0.665908       -18.1203
  19   2.0000      -0.640859       -17.4387
  20   2.0000      -0.612515       -16.6674
  21   2.0000      -0.601558       -16.3692
  22   2.0000      -0.573070       -15.5940
  23   2.0000      -0.535025       -14.5588
  24   2.0000      -0.510191       -13.8830
  25   2.0000      -0.505696       -13.7607
  26   2.0000      -0.495881       -13.4936
  27   2.0000      -0.460218       -12.5232
  28   0.0000      -0.189842        -5.1659
  29   0.0000      -0.144310        -3.9269
  30   0.0000      -0.117071        -3.1857
  31   0.0000      -0.105051        -2.8586
  32   0.0000      -0.084680        -2.3043

MULLIKEN ATOMIC CHARGES
-----------------------
   0 C :    0.688853
   1 N :   -0.558700
   2 C :    1.287156
   3 N :   -0.097323
   4 N :   -0.163840
   5 H :    0.018331
   6 H :    0.054806
   7 H :   -0.152624
   8 H :    0.036972
   9 H :   -0.013063
  10 C :   -0.466372
  11 H :   -0.188946
  12 H :   -0.025290
  13 C :    0.624912
  14 H :    0.029791
  15 H :    0.025388
  16 H :   -0.128523
  17 H :   -0.026955
  18 H :    0.055428
Sum of atomic charges:    1.0000000

LOEWDIN ATOMIC CHARGES
----------------------
   0 C :    0.072594
   1 N :    0.052769
   2 C :   -0.054059
   3 N :    0.283200
   4 N :    0.269273
   5 H :    0.035640
   6 H :    0.035948
   7 H :    0.052226
   8 H :    0.026996
   9 H :    0.049462
  10 C :   -0.048473
  11 H :    0.042561
  12 H :    0.020197
  13 C :    0.135978
  14 H :    0.041350
  15 H :    0.031255
  16 H :   -0.038783
  17 H :    0.001061
  18 H :   -0.009194

  Mayer bond orders larger than 0.100000
B(  0-C ,  1-N ) :   0.8651 B(  0-C , 10-C ) :   1.1475 B(  0-C , 11-H ) :   0.8935
B(  0-C , 12-H ) :   0.8057 B(  0-C , 14-H ) :   0.1270 B(  0-C , 15-H ) :   0.1039
B(  1-N ,  2-C ) :   0.9863 B(  1-N ,  3-N ) :   0.1146 B(  1-N ,  4-N ) :   0.1629
B(  1-N ,  7-H ) :   1.2117 B(  1-N , 11-H ) :   0.1870 B(  1-N , 12-H ) :   0.1215
B(  2-C ,  3-N ) :   0.9365 B(  2-C ,  4-N ) :   0.8765 B(  2-C ,  7-H ) :  -0.1680
B(  2-C ,  9-H ) :  -0.1043 B(  3-N ,  4-N ) :   0.1587 B(  3-N ,  8-H ) :   0.9649
B(  3-N ,  9-H ) :   1.1889 B(  4-N ,  5-H ) :   1.0075 B(  4-N ,  6-H ) :   0.9987
B(  8-H ,  9-H ) :  -0.1491 B( 10-C , 12-H ) :   0.1201 B( 10-C , 13-C ) :   1.3125
B( 10-C , 14-H ) :   0.9328 B( 10-C , 15-H ) :   0.9466 B( 10-C , 16-H ) :   0.2042
B( 10-C , 17-H ) :   0.1857 B( 10-C , 18-H ) :   0.2049 B( 13-C , 16-H ) :   0.8649
B( 13-C , 17-H ) :   0.8115 B( 13-C , 18-H ) :   0.7643 B( 16-H , 18-H ) :   0.1142

Dispersion correction           -0.014124611
FINAL SINGLE POINT ENERGY      -323.124359055952

DIPOLE MOMENT
-------------
                                X             Y             Z
Electronic contribution:      1.23822      -3.56759      -5.57674
Nuclear contribution   :     -1.48325       3.81474       4.74728
                        -----------------------------------------
Total Dipole Moment    :     -0.24503       0.24715      -0.82947
                        -----------------------------------------
Magnitude (a.u.)       :      0.89952
Magnitude (Debye)      :      2.28640

Rotational constants in cm-1:     0.127669     0.058023     0.053953
Rotational constants in MHz :  3827.411023  1739.493733  1617.466565

                             ****ORCA TERMINATED NORMALLY****
TOTAL RUN TIME: 0 days 0 hours 0 minutes 30 seconds 702 msec
