                         Program Version 5.0.0 -  RELEASE  -
|  1> !PBE0 D3BJ RIJCOSX def2-SVPD def2/J TightSCF
|  2> *xyz 0 1
|  3> C         -1.10433        0.25137       -2.86006
|  4> C         -0.71189        0.84252       -4.21834
|  5> H          0.15463        1.49980       -4.13091
|  6> H         -1.53813        1.45922       -4.58267
|  7> C         -0.39762       -0.20587       -5.28802
|  8> F          0.61717       -0.00535       -5.99827
|  9> O         -1.13317       -1.22138       -5.34147
| 10> C         -0.19626       -0.86337       -2.32576
| 11> H         -1.14384        1.06671       -2.12968
| 12> H         -2.11440       -0.15683       -2.93032
| 13> H         -0.15538       -1.66172       -3.03700
| 14> H         -0.58845       -1.22999       -1.40020
| 15> H          0.78852       -0.47602       -2.16737
| 16> *
| 17>
| 18> %MaxCore 64000
| 19>
| 20> %pal nprocs 4
| 21> end
| 22>
| 23> %scf
| 24>   MaxIter 150
| 25> end
| 26>
| 27>
| 28>                          ****END OF INPUT****

CARTESIAN COORDINATES (ANGSTROEM)
---------------------------------
  C     -1.104330    0.251370   -2.860060
  C     -0.711890    0.842520   -4.218340
  H      0.154630    1.499800   -4.130910
  H     -1.538130    1.459220   -4.582670
  C     -0.397620   -0.205870   -5.288020
  F      0.617170   -0.005350   -5.998270
  O     -1.133170   -1.221380   -5.341470
  C     -0.196260   -0.863370   -2.325760
  H     -1.143840    1.066710   -2.129680
  H     -2.114400   -0.156830   -2.930320
  H     -0.155380   -1.661720   -3.037000
  H     -0.588450   -1.229990   -1.400200
  H      0.788520   -0.476020   -2.167370

 Total Charge           Charge          ....    0
 Multiplicity           Mult            ....    1
 Number of Electrons    NEL             ....   48
 Basis Dimension        Dim             ....  182

ORBITAL ENERGIES
----------------

  NO   OCC          E(Eh)            E(eV)
   0   2.0000     -24.857034      -676.3943
   1   2.0000     -19.227520      -523.2074
   2   2.0000     -10.416146      -283.4378
   3   2.0000     -10.265824      -279.3473
   4   2.0000     -10.247709      -278.8543
   5   2.0000     -10.221965      -278.1538
   6   2.0000      -1.341025       -36.4911
   7   2.0000      -1.056062       -28.7369
   8   2.0000      -0.829525       -22.5725
   9   2.0000      -0.747168       -20.3315
  10   2.0000      -0.683443       -18.5974
  11   2.0000      -0.627311       -17.0700
  12   2.0000      -0.570359       -15.5203
  13   2.0000      -0.551118       -14.9967
  14   2.0000      -0.527080       -14.3426
  15   2.0000      -0.482444       -13.1280
  16   2.0000      -0.470091       -12.7918
  17   2.0000      -0.432530       -11.7697
  18   2.0000      -0.419029       -11.4024
  19   2.0000      -0.384480       -10.4622
  20   2.0000      -0.370284       -10.0759
  21   2.0000      -0.362761        -9.8712
  22   2.0000      -0.355828        -9.6826
  23   2.0000      -0.310601        -8.4519
  24   0.0000      -0.029891        -0.8134
  25   0.0000       0.021084         0.5737
  26   0.0000       0.049399         1.3442
  27   0.0000       0.055032         1.4975
  28   0.0000       0.066762         1.8167

MULLIKEN ATOMIC CHARGES
-----------------------
   0 C :   -0.483387
   1 C :   -0.100319
   2 H :    0.107761
   3 H :    0.093400
   4 C :    0.877325
   5 F :   -0.399051
   6 O :   -0.608819
   7 C :    0.521736
   8 H :   -0.072778
   9 H :    0.072142
  10 H :   -0.038162
  11 H :    0.007923
  12 H :    0.022230
Sum of atomic charges:   -0.0000000

LOEWDIN ATOMIC CHARGES
----------------------
   0 C :   -0.065432
   1 C :    0.037425
   2 H :    0.026521
   3 H :    0.043101
   4 C :    0.002740
   5 F :   -0.037369
   6 O :   -0.137593
   7 C :    0.129170
   8 H :    0.025316
   9 H :    0.027859
  10 H :   -0.024940
  11 H :   -0.012679
  12 H :   -0.014120

  Mayer bond orders larger than 0.100000
B(  0-C ,  1-C ) :   1.2495 B(  0-C ,  2-H ) :   0.1208 B(  0-C ,  3-H ) :   0.1196
B(  0-C ,  7-C ) :   1.3666 B(  0-C ,  8-H ) :   0.9793 B(  0-C ,  9-H ) :   0.8991
B(  0-C , 10-H ) :   0.1779 B(  0-C , 11-H ) :   0.1854 B(  0-C , 12-H ) :   0.1726
B(  1-C ,  2-H ) :   0.8764 B(  1-C ,  3-H ) :   0.8354 B(  1-C ,  4-C ) :   1.1100
B(  1-C ,  9-H ) :   0.1028 B(  2-H ,  4-C ) :   0.1030 B(  4-C ,  5-F ) :   0.6514
B(  4-C ,  6-O ) :   1.7077 B(  7-C , 10-H ) :   0.8796 B(  7-C , 11-H ) :   0.7835
B(  7-C , 12-H ) :   0.8209

Dispersion correction           -0.008005148
FINAL SINGLE POINT ENERGY      -331.124250423901

DIPOLE MOMENT
-------------
                                X             Y             Z
Electronic contribution:      2.60832      -0.67348     -10.67577
Nuclear contribution   :     -2.39146       1.63977      11.24418
                        -----------------------------------------
Total Dipole Moment    :      0.21686       0.96628       0.56841
                        -----------------------------------------
Magnitude (a.u.)       :      1.14185
Magnitude (Debye)      :      2.90235

Rotational constants in cm-1:     0.198868     0.077542     0.072498
Rotational constants in MHz :  5961.919605  2324.650173  2173.425242

                             ****ORCA TERMINATED NORMALLY****
TOTAL RUN TIME: 0 days 0 hours 0 minutes 16 seconds 82 msec
