                         Program Version 5.0.0 -  RELEASE  -
|  1> !PBE0 D3BJ RIJCOSX def2-SVPD def2/J TightSCF
|  2> *xyz 0 1
|  3> C          2.23447       -2.98975       -2.39762
|  4> C          2.75680       -2.94555       -3.76503
|  5> C          1.98721       -2.59045       -4.81898
|  6> N          0.74322       -3.01749       -4.91352
|  7> N          2.49964       -1.84860       -5.80324
|  8> H          3.30978       -1.29282       -5.55895
|  9> H          1.80103       -1.30430       -6.28913
| 10> H          3.71612       -2.62880       -3.82953
| 11> H          0.39583       -3.62775       -4.18502
| 12> H          0.03920       -2.45438       -5.37137
| 13> C          2.19120       -1.61950       -1.71549
| 14> H          2.87278       -3.66637       -1.82801
| 15> H          1.24619       -3.44744       -2.40784
| 16> C          1.29873       -0.55431       -2.35977
| 17> H          1.87292       -1.78796       -0.68131
| 18> H          3.21681       -1.23843       -1.65443
| 19> H          1.61097       -0.39090       -3.37007
| 20> H          1.37981        0.35955       -1.80916
| 21> H          0.28197       -0.88750       -2.35015
| 22> *
| 23>
| 24> %MaxCore 64000
| 25>
| 26> %pal nprocs 4
| 27> end
| 28>
| 29> %scf
| 30>   MaxIter 150
| 31> end
| 32>
| 33>
| 34>                          ****END OF INPUT****

CARTESIAN COORDINATES (ANGSTROEM)
---------------------------------
  C      2.234470   -2.989750   -2.397620
  C      2.756800   -2.945550   -3.765030
  C      1.987210   -2.590450   -4.818980
  N      0.743220   -3.017490   -4.913520
  N      2.499640   -1.848600   -5.803240
  H      3.309780   -1.292820   -5.558950
  H      1.801030   -1.304300   -6.289130
  H      3.716120   -2.628800   -3.829530
  H      0.395830   -3.627750   -4.185020
  H      0.039200   -2.454380   -5.371370
  C      2.191200   -1.619500   -1.715490
  H      2.872780   -3.666370   -1.828010
  H      1.246190   -3.447440   -2.407840
  C      1.298730   -0.554310   -2.359770
  H      1.872920   -1.787960   -0.681310
  H      3.216810   -1.238430   -1.654430
  H      1.610970   -0.390900   -3.370070
  H      1.379810    0.359550   -1.809160
  H      0.281970   -0.887500   -2.350150

 Total Charge           Charge          ....    0
 Multiplicity           Mult            ....    1
 Number of Electrons    NEL             ....   56
 Basis Dimension        Dim             ....  236

ORBITAL ENERGIES
----------------

  NO   OCC          E(Eh)            E(eV)
   0   2.0000     -14.404033      -391.9537
   1   2.0000     -14.400567      -391.8593
   2   2.0000     -10.282266      -279.7947
   3   2.0000     -10.215606      -277.9808
   4   2.0000     -10.211216      -277.8613
   5   2.0000     -10.208668      -277.7920
   6   2.0000     -10.160834      -276.4904
   7   2.0000      -0.992070       -26.9956
   8   2.0000      -0.898113       -24.4389
   9   2.0000      -0.805127       -21.9086
  10   2.0000      -0.739310       -20.1176
  11   2.0000      -0.677545       -18.4369
  12   2.0000      -0.617763       -16.8102
  13   2.0000      -0.583606       -15.8807
  14   2.0000      -0.560857       -15.2617
  15   2.0000      -0.524210       -14.2645
  16   2.0000      -0.487367       -13.2619
  17   2.0000      -0.465596       -12.6695
  18   2.0000      -0.454151       -12.3581
  19   2.0000      -0.427218       -11.6252
  20   2.0000      -0.401685       -10.9304
  21   2.0000      -0.390453       -10.6248
  22   2.0000      -0.365975        -9.9587
  23   2.0000      -0.352507        -9.5922
  24   2.0000      -0.329544        -8.9673
  25   2.0000      -0.324859        -8.8399
  26   2.0000      -0.290081        -7.8935
  27   2.0000      -0.173239        -4.7141
  28   0.0000       0.012429         0.3382
  29   0.0000       0.043455         1.1825
  30   0.0000       0.048151         1.3102
  31   0.0000       0.052818         1.4373
  32   0.0000       0.066827         1.8184

MULLIKEN ATOMIC CHARGES
-----------------------
   0 C :    0.030036
   1 C :   -0.159751
   2 C :    0.495012
   3 N :   -0.111298
   4 N :   -0.145814
   5 H :    0.057519
   6 H :    0.022218
   7 H :   -0.087892
   8 H :    0.019751
   9 H :   -0.102903
  10 C :   -0.436976
  11 H :   -0.005771
  12 H :   -0.090541
  13 C :    0.648418
  14 H :   -0.034744
  15 H :    0.000175
  16 H :   -0.082069
  17 H :   -0.064964
  18 H :    0.049596
Sum of atomic charges:   -0.0000000

LOEWDIN ATOMIC CHARGES
----------------------
   0 C :   -0.074449
   1 C :   -0.018038
   2 C :   -0.247176
   3 N :    0.197381
   4 N :    0.188885
   5 H :    0.004357
   6 H :   -0.009888
   7 H :   -0.053719
   8 H :   -0.001691
   9 H :    0.000187
  10 C :   -0.075120
  11 H :    0.012882
  12 H :   -0.003115
  13 C :    0.120274
  14 H :    0.015466
  15 H :    0.020920
  16 H :   -0.036294
  17 H :   -0.021035
  18 H :   -0.019826

  Mayer bond orders larger than 0.100000
B(  0-C ,  1-C ) :   1.2528 B(  0-C ,  2-C ) :   0.1150 B(  0-C ,  7-H ) :   0.2896
B(  0-C , 10-C ) :   1.1744 B(  0-C , 11-H ) :   0.8445 B(  0-C , 12-H ) :   0.8384
B(  0-C , 14-H ) :   0.1835 B(  0-C , 15-H ) :   0.1521 B(  1-C ,  2-C ) :   1.7311
B(  1-C ,  3-N ) :   0.1179 B(  1-C ,  4-N ) :   0.2553 B(  1-C ,  7-H ) :   0.6769
B(  1-C , 11-H ) :   0.1707 B(  1-C , 12-H ) :   0.1801 B(  2-C ,  3-N ) :   0.9218
B(  2-C ,  4-N ) :   0.8394 B(  2-C ,  7-H ) :   0.2463 B(  3-N ,  4-N ) :   0.1326
B(  3-N ,  8-H ) :   0.9771 B(  3-N ,  9-H ) :   1.2021 B(  4-N ,  5-H ) :   0.9434
B(  4-N ,  6-H ) :   0.8891 B(  8-H ,  9-H ) :  -0.1332 B( 10-C , 12-H ) :   0.1196
B( 10-C , 13-C ) :   1.3172 B( 10-C , 14-H ) :   0.9223 B( 10-C , 15-H ) :   0.9387
B( 10-C , 16-H ) :   0.2147 B( 10-C , 17-H ) :   0.2048 B( 10-C , 18-H ) :   0.1983
B( 13-C , 16-H ) :   0.8600 B( 13-C , 17-H ) :   0.7827 B( 13-C , 18-H ) :   0.7728
B( 16-H , 18-H ) :   0.1155

Dispersion correction           -0.014614821
FINAL SINGLE POINT ENERGY      -306.667727370191

DIPOLE MOMENT
-------------
                                X             Y             Z
Electronic contribution:      0.58179      -2.84946      -5.03621
Nuclear contribution   :     -1.30515       3.65216       4.73330
                        -----------------------------------------
Total Dipole Moment    :     -0.72336       0.80270      -0.30290
                        -----------------------------------------
Magnitude (a.u.)       :      1.12220
Magnitude (Debye)      :      2.85240

Rotational constants in cm-1:     0.129987     0.058163     0.054282
Rotational constants in MHz :  3896.918182  1743.696851  1627.337267

                             ****ORCA TERMINATED NORMALLY****
TOTAL RUN TIME: 0 days 0 hours 0 minutes 31 seconds 603 msec
