                         Program Version 5.0.0 -  RELEASE  -
|  1> !PBE0 D3BJ RIJCOSX def2-SVPD def2/J TightSCF
|  2> *xyz 0 1
|  3> C         -1.10433        0.25137       -2.86006
|  4> C         -0.71189        0.84252       -4.21834
|  5> H          0.15463        1.49980       -4.13091
|  6> H         -1.53813        1.45922       -4.58267
|  7> C         -0.39762       -0.20587       -5.28802
|  8> O          0.61717       -0.00535       -5.99827
|  9> F         -1.13317       -1.22138       -5.34147
| 10> C         -0.19626       -0.86337       -2.32576
| 11> H         -1.14384        1.06671       -2.12968
| 12> H         -2.11440       -0.15683       -2.93032
| 13> H         -0.15538       -1.66172       -3.03700
| 14> H         -0.58845       -1.22999       -1.40020
| 15> H          0.78852       -0.47602       -2.16737
| 16> *
| 17>
| 18> %MaxCore 64000
| 19>
| 20> %pal nprocs 4
| 21> end
| 22>
| 23> %scf
| 24>   MaxIter 150
| 25> end
| 26>
| 27>
| 28>                          ****END OF INPUT****

CARTESIAN COORDINATES (ANGSTROEM)
---------------------------------
  C     -1.104330    0.251370   -2.860060
  C     -0.711890    0.842520   -4.218340
  H      0.154630    1.499800   -4.130910
  H     -1.538130    1.459220   -4.582670
  C     -0.397620   -0.205870   -5.288020
  O      0.617170   -0.005350   -5.998270
  F     -1.133170   -1.221380   -5.341470
  C     -0.196260   -0.863370   -2.325760
  H     -1.143840    1.066710   -2.129680
  H     -2.114400   -0.156830   -2.930320
  H     -0.155380   -1.661720   -3.037000
  H     -0.588450   -1.229990   -1.400200
  H      0.788520   -0.476020   -2.167370

 Total Charge           Charge          ....    0
 Multiplicity           Mult            ....    1
 Number of Electrons    NEL             ....   48
 Basis Dimension        Dim             ....  182

ORBITAL ENERGIES
----------------

  NO   OCC          E(Eh)            E(eV)
   0   2.0000     -24.857693      -676.4122
   1   2.0000     -19.226070      -523.1680
   2   2.0000     -10.415078      -283.4087
   3   2.0000     -10.264677      -279.3161
   4   2.0000     -10.252761      -278.9918
   5   2.0000     -10.230132      -278.3761
   6   2.0000      -1.341401       -36.5014
   7   2.0000      -1.054375       -28.6910
   8   2.0000      -0.835084       -22.7238
   9   2.0000      -0.747567       -20.3423
  10   2.0000      -0.683859       -18.6087
  11   2.0000      -0.633163       -17.2292
  12   2.0000      -0.572326       -15.5738
  13   2.0000      -0.562462       -15.3054
  14   2.0000      -0.510894       -13.9021
  15   2.0000      -0.489179       -13.3112
  16   2.0000      -0.471292       -12.8245
  17   2.0000      -0.436124       -11.8675
  18   2.0000      -0.419509       -11.4154
  19   2.0000      -0.392874       -10.6906
  20   2.0000      -0.379360       -10.3229
  21   2.0000      -0.367460        -9.9991
  22   2.0000      -0.357934        -9.7399
  23   2.0000      -0.305228        -8.3057
  24   0.0000      -0.026796        -0.7292
  25   0.0000       0.017467         0.4753
  26   0.0000       0.050369         1.3706
  27   0.0000       0.054364         1.4793
  28   0.0000       0.063371         1.7244

MULLIKEN ATOMIC CHARGES
-----------------------
   0 C :   -0.482113
   1 C :   -0.074546
   2 H :    0.083631
   3 H :    0.081392
   4 C :    0.908925
   5 O :   -0.561928
   6 F :   -0.454089
   7 C :    0.524385
   8 H :   -0.084417
   9 H :    0.055141
  10 H :   -0.039093
  11 H :    0.008028
  12 H :    0.034683
Sum of atomic charges:   -0.0000000

LOEWDIN ATOMIC CHARGES
----------------------
   0 C :   -0.074334
   1 C :    0.043267
   2 H :    0.037881
   3 H :    0.040944
   4 C :   -0.003303
   5 O :   -0.140351
   6 F :   -0.035662
   7 C :    0.128784
   8 H :    0.025454
   9 H :    0.022762
  10 H :   -0.023793
  11 H :   -0.012466
  12 H :   -0.009184

  Mayer bond orders larger than 0.100000
B(  0-C ,  1-C ) :   1.2142 B(  0-C ,  2-H ) :   0.1167 B(  0-C ,  3-H ) :   0.1088
B(  0-C ,  7-C ) :   1.3644 B(  0-C ,  8-H ) :   0.9880 B(  0-C ,  9-H ) :   0.9058
B(  0-C , 10-H ) :   0.1750 B(  0-C , 11-H ) :   0.1901 B(  0-C , 12-H ) :   0.1771
B(  1-C ,  2-H ) :   0.9110 B(  1-C ,  3-H ) :   0.8461 B(  1-C ,  4-C ) :   1.0575
B(  1-C ,  6-F ) :   0.1012 B(  2-H ,  4-C ) :   0.1273 B(  4-C ,  5-O ) :   1.6863
B(  4-C ,  6-F ) :   0.6231 B(  5-O ,  6-F ) :   0.1055 B(  7-C , 10-H ) :   0.8778
B(  7-C , 11-H ) :   0.7828 B(  7-C , 12-H ) :   0.8225

Dispersion correction           -0.007940309
FINAL SINGLE POINT ENERGY      -331.123373804648

DIPOLE MOMENT
-------------
                                X             Y             Z
Electronic contribution:     -0.35743      -2.71896      -9.50482
Nuclear contribution   :     -0.41432       3.01336      10.50227
                        -----------------------------------------
Total Dipole Moment    :     -0.77175       0.29440       0.99745
                        -----------------------------------------
Magnitude (a.u.)       :      1.29506
Magnitude (Debye)      :      3.29177

Rotational constants in cm-1:     0.192167     0.080512     0.073747
Rotational constants in MHz :  5761.018137  2413.690728  2210.882638

                             ****ORCA TERMINATED NORMALLY****
TOTAL RUN TIME: 0 days 0 hours 0 minutes 16 seconds 709 msec
