                         Program Version 5.0.0 -  RELEASE  -
|  1> !PBE0 D3BJ RIJCOSX def2-SVPD def2/J TightSCF
|  2> *xyz 0 1
|  3> C          2.23447       -2.98975       -2.39762
|  4> N          2.75680       -2.94555       -3.76503
|  5> C          1.98721       -2.59045       -4.81898
|  6> C          0.74322       -3.01749       -4.91352
|  7> N          2.49964       -1.84860       -5.80324
|  8> H          3.30978       -1.29282       -5.55895
|  9> H          1.80103       -1.30430       -6.28913
| 10> H          3.71612       -2.62880       -3.82953
| 11> H          0.39583       -3.62775       -4.18502
| 12> H          0.03920       -2.45438       -5.37137
| 13> C          2.19120       -1.61950       -1.71549
| 14> H          2.87278       -3.66637       -1.82801
| 15> H          1.24619       -3.44744       -2.40784
| 16> C          1.29873       -0.55431       -2.35977
| 17> H          1.87292       -1.78796       -0.68131
| 18> H          3.21681       -1.23843       -1.65443
| 19> H          1.61097       -0.39090       -3.37007
| 20> H          1.37981        0.35955       -1.80916
| 21> H          0.28197       -0.88750       -2.35015
| 22> *
| 23>
| 24> %MaxCore 64000
| 25>
| 26> %pal nprocs 4
| 27> end
| 28>
| 29> %scf
| 30>   MaxIter 150
| 31> end
| 32>
| 33>
| 34>                          ****END OF INPUT****

CARTESIAN COORDINATES (ANGSTROEM)
---------------------------------
  C      2.234470   -2.989750   -2.397620
  N      2.756800   -2.945550   -3.765030
  C      1.987210   -2.590450   -4.818980
  C      0.743220   -3.017490   -4.913520
  N      2.499640   -1.848600   -5.803240
  H      3.309780   -1.292820   -5.558950
  H      1.801030   -1.304300   -6.289130
  H      3.716120   -2.628800   -3.829530
  H      0.395830   -3.627750   -4.185020
  H      0.039200   -2.454380   -5.371370
  C      2.191200   -1.619500   -1.715490
  H      2.872780   -3.666370   -1.828010
  H      1.246190   -3.447440   -2.407840
  C      1.298730   -0.554310   -2.359770
  H      1.872920   -1.787960   -0.681310
  H      3.216810   -1.238430   -1.654430
  H      1.610970   -0.390900   -3.370070
  H      1.379810    0.359550   -1.809160
  H      0.281970   -0.887500   -2.350150

 Total Charge           Charge          ....    0
 Multiplicity           Mult            ....    1
 Number of Electrons    NEL             ....   56
 Basis Dimension        Dim             ....  236

ORBITAL ENERGIES
----------------

  NO   OCC          E(Eh)            E(eV)
   0   2.0000     -14.401039      -391.8722
   1   2.0000     -14.398621      -391.8064
   2   2.0000     -10.279003      -279.7059
   3   2.0000     -10.264962      -279.3238
   4   2.0000     -10.234351      -278.4908
   5   2.0000     -10.216973      -278.0180
   6   2.0000     -10.151415      -276.2340
   7   2.0000      -0.988874       -26.9086
   8   2.0000      -0.907762       -24.7015
   9   2.0000      -0.795750       -21.6534
  10   2.0000      -0.737775       -20.0759
  11   2.0000      -0.704476       -19.1698
  12   2.0000      -0.620311       -16.8795
  13   2.0000      -0.576869       -15.6974
  14   2.0000      -0.560071       -15.2403
  15   2.0000      -0.526737       -14.3332
  16   2.0000      -0.485876       -13.2214
  17   2.0000      -0.470410       -12.8005
  18   2.0000      -0.442661       -12.0454
  19   2.0000      -0.426562       -11.6073
  20   2.0000      -0.414474       -11.2784
  21   2.0000      -0.394261       -10.7284
  22   2.0000      -0.380496       -10.3538
  23   2.0000      -0.369732       -10.0609
  24   2.0000      -0.357153        -9.7186
  25   2.0000      -0.346948        -9.4409
  26   2.0000      -0.266456        -7.2506
  27   2.0000      -0.187695        -5.1074
  28   0.0000       0.015635         0.4255
  29   0.0000       0.039807         1.0832
  30   0.0000       0.045527         1.2388
  31   0.0000       0.058187         1.5834
  32   0.0000       0.064386         1.7520

MULLIKEN ATOMIC CHARGES
-----------------------
   0 C :    0.676984
   1 N :   -0.520621
   2 C :    0.588079
   3 C :    0.250417
   4 N :   -0.153128
   5 H :   -0.032864
   6 H :    0.060411
   7 H :   -0.260878
   8 H :   -0.077936
   9 H :   -0.310890
  10 C :   -0.513690
  11 H :   -0.213306
  12 H :   -0.013619
  13 C :    0.653684
  14 H :   -0.005686
  15 H :    0.005412
  16 H :   -0.151096
  17 H :   -0.015767
  18 H :    0.034495
Sum of atomic charges:    0.0000000

LOEWDIN ATOMIC CHARGES
----------------------
   0 C :    0.048879
   1 N :   -0.008518
   2 C :   -0.256868
   3 C :    0.155835
   4 N :    0.185623
   5 H :   -0.013505
   6 H :    0.002845
   7 H :    0.014048
   8 H :   -0.099615
   9 H :   -0.086684
  10 C :   -0.069237
  11 H :    0.019777
  12 H :    0.011724
  13 C :    0.125496
  14 H :    0.020032
  15 H :    0.016507
  16 H :   -0.033977
  17 H :   -0.019177
  18 H :   -0.013185

  Mayer bond orders larger than 0.100000
B(  0-C ,  1-N ) :   0.8760 B(  0-C , 10-C ) :   1.1094 B(  0-C , 11-H ) :   0.9050
B(  0-C , 12-H ) :   0.7813 B(  0-C , 14-H ) :   0.1389 B(  0-C , 15-H ) :   0.1074
B(  1-N ,  2-C ) :   0.9148 B(  1-N ,  3-C ) :   0.2798 B(  1-N ,  4-N ) :   0.1320
B(  1-N ,  7-H ) :   1.1752 B(  1-N , 11-H ) :   0.1675 B(  1-N , 12-H ) :   0.1251
B(  2-C ,  3-C ) :   1.8121 B(  2-C ,  4-N ) :   0.7870 B(  2-C ,  7-H ) :  -0.1414
B(  2-C ,  8-H ) :   0.2758 B(  2-C ,  9-H ) :   0.1562 B(  3-C ,  4-N ) :   0.2104
B(  3-C ,  8-H ) :   0.5652 B(  3-C ,  9-H ) :   0.9204 B(  4-N ,  5-H ) :   0.9449
B(  4-N ,  6-H ) :   0.9322 B(  8-H ,  9-H ) :   0.1633 B( 10-C , 12-H ) :   0.1263
B( 10-C , 13-C ) :   1.3070 B( 10-C , 14-H ) :   0.9429 B( 10-C , 15-H ) :   0.9557
B( 10-C , 16-H ) :   0.2201 B( 10-C , 17-H ) :   0.1806 B( 10-C , 18-H ) :   0.2062
B( 13-C , 16-H ) :   0.8754 B( 13-C , 17-H ) :   0.7772 B( 13-C , 18-H ) :   0.7670
B( 16-H , 18-H ) :   0.1397

Dispersion correction           -0.014558751
FINAL SINGLE POINT ENERGY      -306.659665479623

DIPOLE MOMENT
-------------
                                X             Y             Z
Electronic contribution:      2.35450      -2.70444      -3.90250
Nuclear contribution   :     -1.74624       3.63640       4.48172
                        -----------------------------------------
Total Dipole Moment    :      0.60827       0.93196       0.57922
                        -----------------------------------------
Magnitude (a.u.)       :      1.25461
Magnitude (Debye)      :      3.18895

Rotational constants in cm-1:     0.131012     0.059513     0.054636
Rotational constants in MHz :  3927.631151  1784.169731  1637.945644

                             ****ORCA TERMINATED NORMALLY****
TOTAL RUN TIME: 0 days 0 hours 0 minutes 31 seconds 468 msec
