                         Program Version 5.0.0 -  RELEASE  -
|  1> !PBE0 D3BJ RIJCOSX def2-SVPD def2/J TightSCF
|  2> *xyz 0 1
|  3> C          2.23447       -2.98975       -2.39762
|  4> N          2.75680       -2.94555       -3.76503
|  5> C          1.98721       -2.59045       -4.81898
|  6> N          0.74322       -3.01749       -4.91352
|  7> C          2.49964       -1.84860       -5.80324
|  8> H          3.30978       -1.29282       -5.55895
|  9> H          1.80103       -1.30430       -6.28913
| 10> H          3.71612       -2.62880       -3.82953
| 11> H          0.39583       -3.62775       -4.18502
| 12> H          0.03920       -2.45438       -5.37137
| 13> C          2.19120       -1.61950       -1.71549
| 14> H          2.87278       -3.66637       -1.82801
| 15> H          1.24619       -3.44744       -2.40784
| 16> C          1.29873       -0.55431       -2.35977
| 17> H          1.87292       -1.78796       -0.68131
| 18> H          3.21681       -1.23843       -1.65443
| 19> H          1.61097       -0.39090       -3.37007
| 20> H          1.37981        0.35955       -1.80916
| 21> H          0.28197       -0.88750       -2.35015
| 22> *
| 23>
| 24> %MaxCore 64000
| 25>
| 26> %pal nprocs 4
| 27> end
| 28>
| 29> %scf
| 30>   MaxIter 150
| 31> end
| 32>
| 33>
| 34>                          ****END OF INPUT****

CARTESIAN COORDINATES (ANGSTROEM)
---------------------------------
  C      2.234470   -2.989750   -2.397620
  N      2.756800   -2.945550   -3.765030
  C      1.987210   -2.590450   -4.818980
  N      0.743220   -3.017490   -4.913520
  C      2.499640   -1.848600   -5.803240
  H      3.309780   -1.292820   -5.558950
  H      1.801030   -1.304300   -6.289130
  H      3.716120   -2.628800   -3.829530
  H      0.395830   -3.627750   -4.185020
  H      0.039200   -2.454380   -5.371370
  C      2.191200   -1.619500   -1.715490
  H      2.872780   -3.666370   -1.828010
  H      1.246190   -3.447440   -2.407840
  C      1.298730   -0.554310   -2.359770
  H      1.872920   -1.787960   -0.681310
  H      3.216810   -1.238430   -1.654430
  H      1.610970   -0.390900   -3.370070
  H      1.379810    0.359550   -1.809160
  H      0.281970   -0.887500   -2.350150

 Total Charge           Charge          ....    0
 Multiplicity           Mult            ....    1
 Number of Electrons    NEL             ....   56
 Basis Dimension        Dim             ....  236

ORBITAL ENERGIES
----------------

  NO   OCC          E(Eh)            E(eV)
   0   2.0000     -14.401259      -391.8782
   1   2.0000     -14.400087      -391.8463
   2   2.0000     -10.283139      -279.8184
   3   2.0000     -10.273045      -279.5438
   4   2.0000     -10.237381      -278.5733
   5   2.0000     -10.219001      -278.0731
   6   2.0000     -10.147292      -276.1218
   7   2.0000      -0.990819       -26.9616
   8   2.0000      -0.907485       -24.6939
   9   2.0000      -0.803049       -21.8521
  10   2.0000      -0.745286       -20.2803
  11   2.0000      -0.691174       -18.8078
  12   2.0000      -0.619714       -16.8633
  13   2.0000      -0.612432       -16.6651
  14   2.0000      -0.557416       -15.1681
  15   2.0000      -0.509689       -13.8693
  16   2.0000      -0.502535       -13.6747
  17   2.0000      -0.466527       -12.6948
  18   2.0000      -0.461592       -12.5606
  19   2.0000      -0.420312       -11.4373
  20   2.0000      -0.406734       -11.0678
  21   2.0000      -0.394067       -10.7231
  22   2.0000      -0.381221       -10.3736
  23   2.0000      -0.372179       -10.1275
  24   2.0000      -0.356940        -9.7128
  25   2.0000      -0.354546        -9.6477
  26   2.0000      -0.268192        -7.2979
  27   2.0000      -0.183803        -5.0015
  28   0.0000       0.016761         0.4561
  29   0.0000       0.037656         1.0247
  30   0.0000       0.040963         1.1147
  31   0.0000       0.053091         1.4447
  32   0.0000       0.062906         1.7118

MULLIKEN ATOMIC CHARGES
-----------------------
   0 C :    0.680422
   1 N :   -0.574861
   2 C :    0.450027
   3 N :    0.028530
   4 C :    0.393183
   5 H :   -0.115649
   6 H :   -0.326018
   7 H :   -0.152675
   8 H :   -0.063450
   9 H :   -0.062947
  10 C :   -0.505010
  11 H :   -0.225195
  12 H :   -0.051850
  13 C :    0.597818
  14 H :   -0.004747
  15 H :    0.000708
  16 H :   -0.039859
  17 H :   -0.089912
  18 H :    0.061486
Sum of atomic charges:    0.0000000

LOEWDIN ATOMIC CHARGES
----------------------
   0 C :    0.041556
   1 N :   -0.004636
   2 C :   -0.252809
   3 N :    0.198488
   4 C :    0.135003
   5 H :   -0.101414
   6 H :   -0.101022
   7 H :    0.027860
   8 H :   -0.016192
   9 H :    0.016341
  10 C :   -0.069608
  11 H :    0.018506
  12 H :    0.005484
  13 C :    0.127439
  14 H :    0.018643
  15 H :    0.020457
  16 H :   -0.028837
  17 H :   -0.017798
  18 H :   -0.017461

  Mayer bond orders larger than 0.100000
B(  0-C ,  1-N ) :   0.8989 B(  0-C , 10-C ) :   1.1237 B(  0-C , 11-H ) :   0.8964
B(  0-C , 12-H ) :   0.8068 B(  0-C , 14-H ) :   0.1240 B(  0-C , 15-H ) :   0.1232
B(  1-N ,  2-C ) :   0.9280 B(  1-N ,  4-C ) :   0.1931 B(  1-N ,  7-H ) :   1.1439
B(  1-N , 11-H ) :   0.1883 B(  1-N , 12-H ) :   0.1382 B(  2-C ,  3-N ) :   0.9582
B(  2-C ,  4-C ) :   1.9939 B(  2-C ,  5-H ) :   0.2361 B(  2-C ,  6-H ) :   0.2700
B(  2-C ,  7-H ) :  -0.1134 B(  3-N ,  4-C ) :   0.2152 B(  3-N ,  8-H ) :   0.9747
B(  3-N ,  9-H ) :   1.1007 B(  4-C ,  5-H ) :   0.7258 B(  4-C ,  6-H ) :   0.7447
B(  5-H ,  6-H ) :   0.2463 B(  8-H ,  9-H ) :  -0.1397 B( 10-C , 12-H ) :   0.1285
B( 10-C , 13-C ) :   1.3189 B( 10-C , 14-H ) :   0.9578 B( 10-C , 15-H ) :   0.9332
B( 10-C , 16-H ) :   0.2132 B( 10-C , 17-H ) :   0.1957 B( 10-C , 18-H ) :   0.2017
B( 13-C , 16-H ) :   0.8637 B( 13-C , 17-H ) :   0.8104 B( 13-C , 18-H ) :   0.7696

Dispersion correction           -0.014515996
FINAL SINGLE POINT ENERGY      -306.655586089354

DIPOLE MOMENT
-------------
                                X             Y             Z
Electronic contribution:      0.75627      -3.82791      -3.03625
Nuclear contribution   :     -1.36148       3.89245       4.28682
                        -----------------------------------------
Total Dipole Moment    :     -0.60521       0.06454       1.25058
                        -----------------------------------------
Magnitude (a.u.)       :      1.39082
Magnitude (Debye)      :      3.53519

Rotational constants in cm-1:     0.130039     0.059901     0.055416
Rotational constants in MHz :  3898.472533  1795.778295  1661.317267

                             ****ORCA TERMINATED NORMALLY****
TOTAL RUN TIME: 0 days 0 hours 0 minutes 30 seconds 438 msec
