                         Program Version 5.0.0 -  RELEASE  -
|  1> !PBE0 D3BJ RIJCOSX def2-SVPD def2/J TightSCF xyzfile
|  2>
|  3> *xyzfile 0 1 D4.xyz
|  4>
|  5> %MaxCore 64000
|  6>
|  7> %pal nprocs 4
|  8> end
|  9>
| 10> %scf
| 11>   MaxIter 150
| 12> end
| 13>
| 14>
| 15>                          ****END OF INPUT****

CARTESIAN COORDINATES (ANGSTROEM)
---------------------------------
  C      2.234473   -2.989754   -2.397622
  C      2.756799   -2.945553   -3.765029
  C     -1.104325    0.251374   -2.860056
  C     -0.711893    0.842517   -4.218344
  H      0.154626    1.499800   -4.130909
  H     -1.538134    1.459222   -4.582671
  C     -0.397624   -0.205875   -5.288018
  C      1.987208   -2.590451   -4.818975
  N      0.743221   -3.017493   -4.913524
  N      2.499636   -1.848598   -5.803241
  H      3.309780   -1.292818   -5.558947
  H      1.801025   -1.304298   -6.289129
  H      3.716116   -2.628797   -3.829533
  H      0.395828   -3.627747   -4.185024
  H      0.039201   -2.454383   -5.371367
  O      0.617165   -0.005348   -5.998273
  F     -1.133173   -1.221380   -5.341465
  C      2.191199   -1.619503   -1.715492
  H      2.872783   -3.666368   -1.828014
  H      1.246188   -3.447444   -2.407842
  C      1.298729   -0.554314   -2.359773
  H      1.872917   -1.787955   -0.681310
  H      3.216809   -1.238432   -1.654428
  C     -0.196255   -0.863365   -2.325763
  H      1.612531   -0.371346   -3.393065
  H      1.480944    0.388638   -1.834444
  H     -0.404105   -1.761825   -2.909448
  H     -0.490439   -1.087880   -1.294131
  H     -1.143842    1.066711   -2.129680
  H     -2.114401   -0.156834   -2.930323

 Total Charge           Charge          ....    0
 Multiplicity           Mult            ....    1
 Number of Electrons    NEL             ....  102
 Basis Dimension        Dim             ....  402

ORBITAL ENERGIES
----------------

  NO   OCC          E(Eh)            E(eV)
   0   2.0000     -24.892638      -677.3631
   1   2.0000     -19.258433      -524.0486
   2   2.0000     -14.388329      -391.5263
   3   2.0000     -14.371227      -391.0610
   4   2.0000     -10.443173      -284.1732
   5   2.0000     -10.278448      -279.6908
   6   2.0000     -10.269069      -279.4356
   7   2.0000     -10.257906      -279.1318
   8   2.0000     -10.239014      -278.6177
   9   2.0000     -10.228046      -278.3193
  10   2.0000     -10.216607      -278.0080
  11   2.0000     -10.207108      -277.7495
  12   2.0000     -10.148267      -276.1484
  13   2.0000      -1.378394       -37.5080
  14   2.0000      -1.089456       -29.6456
  15   2.0000      -0.975962       -26.5573
  16   2.0000      -0.880709       -23.9653
  17   2.0000      -0.853570       -23.2268
  18   2.0000      -0.808994       -22.0139
  19   2.0000      -0.771407       -20.9911
  20   2.0000      -0.725837       -19.7510
  21   2.0000      -0.708530       -19.2801
  22   2.0000      -0.673988       -18.3401
  23   2.0000      -0.632013       -17.1980
  24   2.0000      -0.617837       -16.8122
  25   2.0000      -0.601233       -16.3604
  26   2.0000      -0.590829       -16.0773
  27   2.0000      -0.577711       -15.7203
  28   2.0000      -0.543795       -14.7974
  29   2.0000      -0.534507       -14.5447
  30   2.0000      -0.505736       -13.7618
  31   2.0000      -0.499558       -13.5937
  32   2.0000      -0.491946       -13.3865
  33   2.0000      -0.468319       -12.7436
  34   2.0000      -0.457695       -12.4545
  35   2.0000      -0.454016       -12.3544
  36   2.0000      -0.446456       -12.1487
  37   2.0000      -0.420139       -11.4326
  38   2.0000      -0.414203       -11.2710
  39   2.0000      -0.408482       -11.1154
  40   2.0000      -0.399580       -10.8731
  41   2.0000      -0.377987       -10.2855
  42   2.0000      -0.374927       -10.2023
  43   2.0000      -0.360593        -9.8122
  44   2.0000      -0.352451        -9.5907
  45   2.0000      -0.339876        -9.2485
  46   2.0000      -0.330990        -9.0067
  47   2.0000      -0.321655        -8.7527
  48   2.0000      -0.318483        -8.6664
  49   2.0000      -0.271031        -7.3751
  50   2.0000      -0.160477        -4.3668
  51   0.0000      -0.055189        -1.5018
  52   0.0000       0.008868         0.2413
  53   0.0000       0.032525         0.8850
  54   0.0000       0.039220         1.0672
  55   0.0000       0.041436         1.1275

MULLIKEN ATOMIC CHARGES
-----------------------
   0 C :    0.125271
   1 C :   -0.154681
   2 C :    0.395448
   3 C :    0.002005
   4 H :    0.253998
   5 H :   -0.158176
   6 C :    0.798433
   7 C :    0.504109
   8 N :    0.086582
   9 N :   -0.091315
  10 H :    0.116593
  11 H :   -0.101727
  12 H :   -0.095930
  13 H :    0.071815
  14 H :   -0.378245
  15 O :   -0.561652
  16 F :   -0.507673
  17 C :    0.317605
  18 H :   -0.106566
  19 H :   -0.076791
  20 C :   -0.186865
  21 H :    0.039639
  22 H :   -0.013509
  23 C :   -0.161044
  24 H :    0.010202
  25 H :   -0.067859
  26 H :   -0.068106
  27 H :   -0.059506
  28 H :   -0.032832
  29 H :    0.100778
Sum of atomic charges:    0.0000000

LOEWDIN ATOMIC CHARGES
----------------------
   0 C :   -0.067630
   1 C :   -0.018220
   2 C :   -0.024051
   3 C :    0.060308
   4 H :    0.039824
   5 H :    0.042768
   6 C :    0.037761
   7 C :   -0.220887
   8 N :    0.226275
   9 N :    0.210858
  10 H :    0.010405
  11 H :   -0.088417
  12 H :   -0.056099
  13 H :    0.003406
  14 H :   -0.067427
  15 O :   -0.129031
  16 F :   -0.034671
  17 C :   -0.026983
  18 H :    0.012048
  19 H :   -0.008053
  20 C :   -0.027586
  21 H :    0.018046
  22 H :    0.025037
  23 C :   -0.030781
  24 H :    0.007300
  25 H :    0.026404
  26 H :   -0.007247
  27 H :    0.031397
  28 H :    0.030162
  29 H :    0.025085

  Mayer bond orders larger than 0.100000
B(  0-C ,  1-C ) :   1.2151 B(  0-C ,  7-C ) :   0.1161 B(  0-C , 12-H ) :   0.3300
B(  0-C , 17-C ) :   1.1619 B(  0-C , 18-H ) :   0.7928 B(  0-C , 19-H ) :   0.8182
B(  0-C , 21-H ) :   0.1876 B(  0-C , 22-H ) :   0.1812 B(  1-C ,  7-C ) :   1.6068
B(  1-C ,  8-N ) :   0.1383 B(  1-C ,  9-N ) :   0.3216 B(  1-C , 12-H ) :   0.5711
B(  1-C , 18-H ) :   0.1916 B(  1-C , 19-H ) :   0.1820 B(  2-C ,  3-C ) :   1.1950
B(  2-C ,  5-H ) :   0.1626 B(  2-C , 23-C ) :   1.2746 B(  2-C , 28-H ) :   0.8330
B(  2-C , 29-H ) :   0.6777 B(  3-C ,  4-H ) :   0.8109 B(  3-C ,  5-H ) :   0.8367
B(  3-C ,  6-C ) :   1.1872 B(  3-C , 16-F ) :   0.1025 B(  3-C , 28-H ) :   0.1200
B(  4-H ,  6-C ) :   0.1660 B(  5-H ,  6-C ) :   0.1796 B(  6-C , 15-O ) :   1.5631
B(  6-C , 16-F ) :   0.4814 B(  7-C ,  8-N ) :   0.9133 B(  7-C ,  9-N ) :   0.7971
B(  7-C , 11-H ) :   0.1169 B(  7-C , 12-H ) :   0.3215 B(  8-N ,  9-N ) :   0.1145
B(  8-N , 13-H ) :   0.9038 B(  8-N , 14-H ) :   1.1712 B(  9-N , 10-H ) :   0.8754
B(  9-N , 11-H ) :   0.7968 B( 11-H , 15-O ) :   0.1249 B( 13-H , 14-H ) :  -0.1958
B( 17-C , 19-H ) :   0.1108 B( 17-C , 20-C ) :   1.2591 B( 17-C , 21-H ) :   0.7864
B( 17-C , 22-H ) :   0.7311 B( 17-C , 24-H ) :   0.1044 B( 20-C , 21-H ) :   0.1494
B( 20-C , 22-H ) :   0.2434 B( 20-C , 23-C ) :   1.3091 B( 20-C , 24-H ) :   0.9337
B( 20-C , 25-H ) :   0.8233 B( 20-C , 26-H ) :   0.1223 B( 20-C , 27-H ) :   0.1959
B( 21-H , 22-H ) :  -0.1004 B( 23-C , 24-H ) :   0.1103 B( 23-C , 25-H ) :   0.1942
B( 23-C , 26-H ) :   0.9410 B( 23-C , 27-H ) :   0.8272 B( 23-C , 28-H ) :   0.1563
B( 23-C , 29-H ) :   0.2149

Dispersion correction           -0.030725295
FINAL SINGLE POINT ENERGY      -636.601197525574

DIPOLE MOMENT
-------------
                                X             Y             Z
Electronic contribution:     -6.00277       0.21338     -13.41571
Nuclear contribution   :      4.38568       1.15960      13.97148
                        -----------------------------------------
Total Dipole Moment    :     -1.61709       1.37298       0.55577
                        -----------------------------------------
Magnitude (a.u.)       :      2.19293
Magnitude (Debye)      :      5.57398

Rotational constants in cm-1:     0.032892     0.023844     0.017123
Rotational constants in MHz :   986.091711   714.821905   513.334630

                             ****ORCA TERMINATED NORMALLY****
TOTAL RUN TIME: 0 days 0 hours 2 minutes 20 seconds 587 msec
