                         Program Version 5.0.0 -  RELEASE  -
|  1> !LC-BLYP RIJCOSX def2-SVP def2/J TightSCF
|  2> *xyz -1 1
|  3> C         -0.10608        1.76991       -4.08984
|  4> C         -0.25875        1.00432       -5.40983
|  5> C          0.39596       -0.37070       -5.33994
|  6> H          0.23915        1.56939       -6.20125
|  7> H         -1.30936        0.88869       -5.68245
|  8> O         -0.32633       -1.39040       -5.49128
|  9> O          1.61941       -0.40073       -5.03683
| 10> H         -0.57627        2.72718       -4.17630
| 11> H          0.93321        1.90140       -3.87192
| 12> H         -0.56868        1.21534       -3.30031
| 13> *
| 14> %MaxCore 64000
| 15>
| 16> %pal nprocs 4
| 17> end
| 18>
| 19> %scf
| 20>   MaxIter 150
| 21> end
| 22>
| 23>
| 24>                          ****END OF INPUT****

CARTESIAN COORDINATES (ANGSTROEM)
---------------------------------
  C     -0.106080    1.769910   -4.089840
  C     -0.258750    1.004320   -5.409830
  C      0.395960   -0.370700   -5.339940
  H      0.239150    1.569390   -6.201250
  H     -1.309360    0.888690   -5.682450
  O     -0.326330   -1.390400   -5.491280
  O      1.619410   -0.400730   -5.036830
  H     -0.576270    2.727180   -4.176300
  H      0.933210    1.901400   -3.871920
  H     -0.568680    1.215340   -3.300310

 Total Charge           Charge          ....   -1
 Multiplicity           Mult            ....    1
 Number of Electrons    NEL             ....   40
 Basis Dimension        Dim             ....   95

ORBITAL ENERGIES
----------------

  NO   OCC          E(Eh)            E(eV)
   0   2.0000     -18.644180      -507.3339
   1   2.0000     -18.643779      -507.3230
   2   2.0000      -9.933958      -270.3167
   3   2.0000      -9.913373      -269.7566
   4   2.0000      -9.892795      -269.1966
   5   2.0000      -0.861251       -23.4358
   6   2.0000      -0.763821       -20.7846
   7   2.0000      -0.693677       -18.8759
   8   2.0000      -0.560697       -15.2573
   9   2.0000      -0.404530       -11.0078
  10   2.0000      -0.384283       -10.4569
  11   2.0000      -0.335912        -9.1406
  12   2.0000      -0.311135        -8.4664
  13   2.0000      -0.293013        -7.9733
  14   2.0000      -0.279391        -7.6026
  15   2.0000      -0.243926        -6.6376
  16   2.0000      -0.235723        -6.4143
  17   2.0000      -0.103661        -2.8208
  18   2.0000      -0.102473        -2.7884
  19   2.0000      -0.084000        -2.2858
  20   0.0000       0.288509         7.8507
  21   0.0000       0.340334         9.2610
  22   0.0000       0.356156         9.6915
  23   0.0000       0.357362         9.7243
  24   0.0000       0.369947        10.0668

MULLIKEN ATOMIC CHARGES
-----------------------
   0 C :    0.023109
   1 C :    0.051493
   2 C :   -0.122316
   3 H :   -0.052168
   4 H :   -0.066390
   5 O :   -0.365469
   6 O :   -0.382262
   7 H :   -0.056806
   8 H :   -0.010584
   9 H :   -0.018607
Sum of atomic charges:   -1.0000000

LOEWDIN ATOMIC CHARGES
----------------------
   0 C :   -0.073023
   1 C :   -0.096685
   2 C :   -0.087563
   3 H :    0.005539
   4 H :   -0.002901
   5 O :   -0.378988
   6 O :   -0.388875
   7 H :   -0.004771
   8 H :    0.013672
   9 H :    0.013595

  Mayer bond orders larger than 0.100000
B(  0-C ,  1-C ) :   1.1021 B(  0-C ,  7-H ) :   0.9624 B(  0-C ,  8-H ) :   0.9585
B(  0-C ,  9-H ) :   0.9710 B(  1-C ,  2-C ) :   0.9204 B(  1-C ,  3-H ) :   0.9291
B(  1-C ,  4-H ) :   0.9284 B(  2-C ,  5-O ) :   1.9417 B(  2-C ,  6-O ) :   1.8842
B(  5-O ,  6-O ) :   0.1205

FINAL SINGLE POINT ENERGY      -267.005822367259

DIPOLE MOMENT
-------------
                                X             Y             Z
Electronic contribution:      1.81917      -5.51261      -1.70832
Nuclear contribution   :     -2.46071       7.20791       1.95694
                        -----------------------------------------
Total Dipole Moment    :     -0.64154       1.69531       0.24861
                        -----------------------------------------
Magnitude (a.u.)       :      1.82960
Magnitude (Debye)      :      4.65048

Rotational constants in cm-1:     0.309435     0.135317     0.107436
Rotational constants in MHz :  9276.637721  4056.700783  3220.846587

                             ****ORCA TERMINATED NORMALLY****
TOTAL RUN TIME: 0 days 0 hours 0 minutes 12 seconds 640 msec
