                         Program Version 5.0.0 -  RELEASE  -
|  1> !LC-BLYP RIJCOSX def2-SVP def2/J TightSCF
|  2> *xyz 1 1
|  3> C          0.81607       -2.10149       -2.18655
|  4> H          1.69623       -2.36869       -1.60046
|  5> N          1.10055       -2.46749       -3.59927
|  6> C          0.51624       -0.61363       -2.03937
|  7> H         -0.02007       -2.71285       -1.84084
|  8> H          1.70061       -1.75723       -4.07838
|  9> H          0.29386       -2.35977       -4.25632
| 10> H          1.50132       -3.42848       -3.69491
| 11> H         -0.34841       -0.36504       -2.61858
| 12> H          1.35358       -0.04503       -2.38643
| 13> H          0.33317       -0.38682       -1.00984
| 14> *
| 15> %MaxCore 64000
| 16>
| 17> %pal nprocs 4
| 18> end
| 19>
| 20> %scf
| 21>   MaxIter 150
| 22> end
| 23>
| 24>
| 25>                          ****END OF INPUT****

CARTESIAN COORDINATES (ANGSTROEM)
---------------------------------
  C      0.816070   -2.101490   -2.186550
  H      1.696230   -2.368690   -1.600460
  N      1.100550   -2.467490   -3.599270
  C      0.516240   -0.613630   -2.039370
  H     -0.020070   -2.712850   -1.840840
  H      1.700610   -1.757230   -4.078380
  H      0.293860   -2.359770   -4.256320
  H      1.501320   -3.428480   -3.694910
  H     -0.348410   -0.365040   -2.618580
  H      1.353580   -0.045030   -2.386430
  H      0.333170   -0.386820   -1.009840

 Total Charge           Charge          ....    1
 Multiplicity           Mult            ....    1
 Number of Electrons    NEL             ....   26
 Basis Dimension        Dim             ....   82

ORBITAL ENERGIES
----------------

  NO   OCC          E(Eh)            E(eV)
   0   2.0000     -14.526116      -395.2757
   1   2.0000     -10.338153      -281.3155
   2   2.0000     -10.260567      -279.2042
   3   2.0000      -1.304318       -35.4923
   4   2.0000      -1.068054       -29.0632
   5   2.0000      -0.954639       -25.9770
   6   2.0000      -0.893101       -24.3025
   7   2.0000      -0.878793       -23.9132
   8   2.0000      -0.804806       -21.8999
   9   2.0000      -0.739681       -20.1278
  10   2.0000      -0.682477       -18.5711
  11   2.0000      -0.667235       -18.1564
  12   2.0000      -0.646895       -17.6029
  13   0.0000      -0.115636        -3.1466
  14   0.0000      -0.053583        -1.4581
  15   0.0000      -0.050535        -1.3751
  16   0.0000      -0.019607        -0.5335
  17   0.0000       0.026597         0.7238

MULLIKEN ATOMIC CHARGES
-----------------------
   0 C :   -0.038486
   1 H :    0.103243
   2 N :   -0.018210
   3 C :   -0.039488
   4 H :    0.106721
   5 H :    0.213728
   6 H :    0.217429
   7 H :    0.238633
   8 H :    0.059417
   9 H :    0.059544
  10 H :    0.097468
Sum of atomic charges:    1.0000000

LOEWDIN ATOMIC CHARGES
----------------------
   0 C :    0.036421
   1 H :    0.060735
   2 N :    0.267195
   3 C :   -0.055240
   4 H :    0.061493
   5 H :    0.154557
   6 H :    0.156469
   7 H :    0.161537
   8 H :    0.043762
   9 H :    0.043508
  10 H :    0.069563

  Mayer bond orders larger than 0.100000
B(  0-C ,  1-H ) :   0.9508 B(  0-C ,  2-N ) :   0.9342 B(  0-C ,  3-C ) :   1.1064
B(  0-C ,  4-H ) :   0.9504 B(  2-N ,  5-H ) :   0.9272 B(  2-N ,  6-H ) :   0.9270
B(  2-N ,  7-H ) :   0.9226 B(  3-C ,  8-H ) :   0.9705 B(  3-C ,  9-H ) :   0.9658
B(  3-C , 10-H ) :   0.9535

FINAL SINGLE POINT ENERGY      -135.031117060627

DIPOLE MOMENT
-------------
                                X             Y             Z
Electronic contribution:      0.43692      -1.47272      -1.13807
Nuclear contribution   :     -0.07506       0.54337      -0.16191
                        -----------------------------------------
Total Dipole Moment    :      0.36186      -0.92935      -1.29998
                        -----------------------------------------
Magnitude (a.u.)       :      1.63847
Magnitude (Debye)      :      4.16466

Rotational constants in cm-1:     0.999557     0.280801     0.246932
Rotational constants in MHz : 29965.963633  8418.199581  7402.841054

                             ****ORCA TERMINATED NORMALLY****
TOTAL RUN TIME: 0 days 0 hours 0 minutes 10 seconds 38 msec
