                         Program Version 5.0.0 -  RELEASE  -
|  1> !LC-BLYP RIJCOSX def2-SVP def2/J TightSCF
|  2> *xyz 0 1
|  3> C         -0.10608        1.76991       -4.08984
|  4> C         -0.25875        1.00432       -5.40983
|  5> C          0.39596       -0.37070       -5.33994
|  6> H          0.23915        1.56939       -6.20125
|  7> H         -1.30936        0.88869       -5.68245
|  8> F         -0.32633       -1.39040       -5.49128
|  9> O          1.61941       -0.40073       -5.03683
| 10> H         -0.57627        2.72718       -4.17630
| 11> H          0.93321        1.90140       -3.87192
| 12> H         -0.56868        1.21534       -3.30031
| 13> *
| 14> %MaxCore 64000
| 15>
| 16> %pal nprocs 4
| 17> end
| 18>
| 19> %scf
| 20>   MaxIter 150
| 21> end
| 22>
| 23>
| 24>                          ****END OF INPUT****

CARTESIAN COORDINATES (ANGSTROEM)
---------------------------------
  C     -0.106080    1.769910   -4.089840
  C     -0.258750    1.004320   -5.409830
  C      0.395960   -0.370700   -5.339940
  H      0.239150    1.569390   -6.201250
  H     -1.309360    0.888690   -5.682450
  F     -0.326330   -1.390400   -5.491280
  O      1.619410   -0.400730   -5.036830
  H     -0.576270    2.727180   -4.176300
  H      0.933210    1.901400   -3.871920
  H     -0.568680    1.215340   -3.300310

 Total Charge           Charge          ....    0
 Multiplicity           Mult            ....    1
 Number of Electrons    NEL             ....   40
 Basis Dimension        Dim             ....   95

ORBITAL ENERGIES
----------------

  NO   OCC          E(Eh)            E(eV)
   0   2.0000     -24.524668      -667.3501
   1   2.0000     -18.947444      -515.5862
   2   2.0000     -10.254202      -279.0310
   3   2.0000     -10.112639      -275.1789
   4   2.0000     -10.088718      -274.5280
   5   2.0000      -1.368447       -37.2373
   6   2.0000      -1.101632       -29.9769
   7   2.0000      -0.899696       -24.4820
   8   2.0000      -0.782321       -21.2880
   9   2.0000      -0.729745       -19.8574
  10   2.0000      -0.645520       -17.5655
  11   2.0000      -0.628178       -17.0936
  12   2.0000      -0.599021       -16.3002
  13   2.0000      -0.564280       -15.3548
  14   2.0000      -0.527475       -14.3533
  15   2.0000      -0.495352       -13.4792
  16   2.0000      -0.471465       -12.8292
  17   2.0000      -0.467420       -12.7192
  18   2.0000      -0.437020       -11.8919
  19   2.0000      -0.381064       -10.3693
  20   0.0000       0.064997         1.7687
  21   0.0000       0.132871         3.6156
  22   0.0000       0.178734         4.8636
  23   0.0000       0.183125         4.9831
  24   0.0000       0.203691         5.5427

MULLIKEN ATOMIC CHARGES
-----------------------
   0 C :    0.003493
   1 C :   -0.039890
   2 C :    0.107232
   3 H :    0.054665
   4 H :    0.018443
   5 F :   -0.024886
   6 O :   -0.203994
   7 H :    0.022375
   8 H :    0.041672
   9 H :    0.020890
Sum of atomic charges:   -0.0000000

LOEWDIN ATOMIC CHARGES
----------------------
   0 C :   -0.050526
   1 C :   -0.079538
   2 C :    0.069869
   3 H :    0.053987
   4 H :    0.030992
   5 F :    0.060729
   6 O :   -0.181747
   7 H :    0.031430
   8 H :    0.035298
   9 H :    0.029506

  Mayer bond orders larger than 0.100000
B(  0-C ,  1-C ) :   1.0982 B(  0-C ,  7-H ) :   0.9678 B(  0-C ,  8-H ) :   0.9682
B(  0-C ,  9-H ) :   0.9762 B(  1-C ,  2-C ) :   0.9947 B(  1-C ,  3-H ) :   0.9306
B(  1-C ,  4-H ) :   0.9356 B(  2-C ,  5-F ) :   1.2654 B(  2-C ,  6-O ) :   2.1247

FINAL SINGLE POINT ENERGY      -291.550828056370

DIPOLE MOMENT
-------------
                                X             Y             Z
Electronic contribution:      0.91263      -8.26104      -2.57492
Nuclear contribution   :     -1.80992       8.85192       2.42184
                        -----------------------------------------
Total Dipole Moment    :     -0.89729       0.59089      -0.15308
                        -----------------------------------------
Magnitude (a.u.)       :      1.08522
Magnitude (Debye)      :      2.75842

Rotational constants in cm-1:     0.298360     0.128849     0.102271
Rotational constants in MHz :  8944.606599  3862.796179  3066.020510

                             ****ORCA TERMINATED NORMALLY****
TOTAL RUN TIME: 0 days 0 hours 0 minutes 12 seconds 448 msec
