                         Program Version 5.0.0 -  RELEASE  -
|  1> !LC-BLYP RIJCOSX def2-SVP def2/J TightSCF
|  2> *xyz 0 1
|  3> C          0.81607       -2.10149       -2.18655
|  4> H          1.69623       -2.36869       -1.60046
|  5> C          1.10055       -2.46749       -3.59927
|  6> C          0.51624       -0.61363       -2.03937
|  7> H         -0.02007       -2.71285       -1.84084
|  8> H          1.70061       -1.75723       -4.07838
|  9> H          0.29386       -2.35977       -4.25632
| 10> H          1.50132       -3.42848       -3.69491
| 11> H         -0.34841       -0.36504       -2.61858
| 12> H          1.35358       -0.04503       -2.38643
| 13> H          0.33317       -0.38682       -1.00984
| 14> *
| 15> %MaxCore 64000
| 16>
| 17> %pal nprocs 4
| 18> end
| 19>
| 20> %scf
| 21>   MaxIter 150
| 22> end
| 23>
| 24>
| 25>                          ****END OF INPUT****

CARTESIAN COORDINATES (ANGSTROEM)
---------------------------------
  C      0.816070   -2.101490   -2.186550
  H      1.696230   -2.368690   -1.600460
  C      1.100550   -2.467490   -3.599270
  C      0.516240   -0.613630   -2.039370
  H     -0.020070   -2.712850   -1.840840
  H      1.700610   -1.757230   -4.078380
  H      0.293860   -2.359770   -4.256320
  H      1.501320   -3.428480   -3.694910
  H     -0.348410   -0.365040   -2.618580
  H      1.353580   -0.045030   -2.386430
  H      0.333170   -0.386820   -1.009840

 Total Charge           Charge          ....    0
 Multiplicity           Mult            ....    1
 Number of Electrons    NEL             ....   26
 Basis Dimension        Dim             ....   82

ORBITAL ENERGIES
----------------

  NO   OCC          E(Eh)            E(eV)
   0   2.0000     -10.071987      -274.0727
   1   2.0000     -10.063733      -273.8481
   2   2.0000     -10.052025      -273.5295
   3   2.0000      -0.891050       -24.2467
   4   2.0000      -0.788104       -21.4454
   5   2.0000      -0.689654       -18.7664
   6   2.0000      -0.564715       -15.3667
   7   2.0000      -0.548824       -14.9343
   8   2.0000      -0.512643       -13.9497
   9   2.0000      -0.473791       -12.8925
  10   2.0000      -0.437700       -11.9104
  11   2.0000      -0.433733       -11.8025
  12   2.0000      -0.414484       -11.2787
  13   0.0000       0.134393         3.6570
  14   0.0000       0.184151         5.0110
  15   0.0000       0.185792         5.0557
  16   0.0000       0.189020         5.1435
  17   0.0000       0.221429         6.0254

MULLIKEN ATOMIC CHARGES
-----------------------
   0 C :   -0.035125
   1 H :    0.003251
   2 C :    0.037377
   3 C :    0.002151
   4 H :    0.005321
   5 H :   -0.021362
   6 H :   -0.017404
   7 H :    0.002752
   8 H :    0.006986
   9 H :    0.008322
  10 H :    0.007732
Sum of atomic charges:   -0.0000000

LOEWDIN ATOMIC CHARGES
----------------------
   0 C :   -0.047083
   1 H :    0.024016
   2 C :   -0.070727
   3 C :   -0.064929
   4 H :    0.024057
   5 H :    0.020363
   6 H :    0.020735
   7 H :    0.021773
   8 H :    0.023389
   9 H :    0.023593
  10 H :    0.024813

  Mayer bond orders larger than 0.100000
B(  0-C ,  1-H ) :   0.9541 B(  0-C ,  2-C ) :   1.1131 B(  0-C ,  3-C ) :   1.1068
B(  0-C ,  4-H ) :   0.9538 B(  2-C ,  5-H ) :   0.9596 B(  2-C ,  6-H ) :   0.9585
B(  2-C ,  7-H ) :   0.9649 B(  3-C ,  8-H ) :   0.9754 B(  3-C ,  9-H ) :   0.9721
B(  3-C , 10-H ) :   0.9678

FINAL SINGLE POINT ENERGY      -118.645123283065

DIPOLE MOMENT
-------------
                                X             Y             Z
Electronic contribution:     -0.01944      -0.29771       0.46023
Nuclear contribution   :      0.01737       0.30387      -0.47422
                        -----------------------------------------
Total Dipole Moment    :     -0.00207       0.00617      -0.01398
                        -----------------------------------------
Magnitude (a.u.)       :      0.01542
Magnitude (Debye)      :      0.03920

Rotational constants in cm-1:     1.006891     0.295208     0.258491
Rotational constants in MHz : 30185.831813  8850.104914  7749.351732

                             ****ORCA TERMINATED NORMALLY****
TOTAL RUN TIME: 0 days 0 hours 0 minutes 9 seconds 679 msec
