                         Program Version 5.0.0 -  RELEASE  -
|  1> !LC-BLYP RIJCOSX def2-SVP def2/J TightSCF
|  2> *xyz 0 1
|  3> C         -0.10608        1.76991       -4.08984
|  4> C         -0.25875        1.00432       -5.40983
|  5> C          0.39596       -0.37070       -5.33994
|  6> H          0.23915        1.56939       -6.20125
|  7> H         -1.30936        0.88869       -5.68245
|  8> O         -0.32633       -1.39040       -5.49128
|  9> F          1.61941       -0.40073       -5.03683
| 10> H         -0.57627        2.72718       -4.17630
| 11> H          0.93321        1.90140       -3.87192
| 12> H         -0.56868        1.21534       -3.30031
| 13> *
| 14> %MaxCore 64000
| 15>
| 16> %pal nprocs 4
| 17> end
| 18>
| 19> %scf
| 20>   MaxIter 150
| 21> end
| 22>
| 23>
| 24>                          ****END OF INPUT****

CARTESIAN COORDINATES (ANGSTROEM)
---------------------------------
  C     -0.106080    1.769910   -4.089840
  C     -0.258750    1.004320   -5.409830
  C      0.395960   -0.370700   -5.339940
  H      0.239150    1.569390   -6.201250
  H     -1.309360    0.888690   -5.682450
  O     -0.326330   -1.390400   -5.491280
  F      1.619410   -0.400730   -5.036830
  H     -0.576270    2.727180   -4.176300
  H      0.933210    1.901400   -3.871920
  H     -0.568680    1.215340   -3.300310

 Total Charge           Charge          ....    0
 Multiplicity           Mult            ....    1
 Number of Electrons    NEL             ....   40
 Basis Dimension        Dim             ....   95

ORBITAL ENERGIES
----------------

  NO   OCC          E(Eh)            E(eV)
   0   2.0000     -24.524065      -667.3337
   1   2.0000     -18.947449      -515.5863
   2   2.0000     -10.253159      -279.0026
   3   2.0000     -10.112016      -275.1619
   4   2.0000     -10.093814      -274.6666
   5   2.0000      -1.367421       -37.2094
   6   2.0000      -1.100868       -29.9561
   7   2.0000      -0.904420       -24.6105
   8   2.0000      -0.779737       -21.2177
   9   2.0000      -0.733112       -19.9490
  10   2.0000      -0.647194       -17.6110
  11   2.0000      -0.632130       -17.2011
  12   2.0000      -0.592559       -16.1244
  13   2.0000      -0.562851       -15.3159
  14   2.0000      -0.529746       -14.4151
  15   2.0000      -0.498360       -13.5611
  16   2.0000      -0.476347       -12.9621
  17   2.0000      -0.471685       -12.8352
  18   2.0000      -0.441322       -12.0090
  19   2.0000      -0.377447       -10.2708
  20   0.0000       0.069277         1.8851
  21   0.0000       0.128414         3.4943
  22   0.0000       0.175645         4.7795
  23   0.0000       0.184357         5.0166
  24   0.0000       0.205827         5.6008

MULLIKEN ATOMIC CHARGES
-----------------------
   0 C :   -0.018014
   1 C :   -0.032126
   2 C :    0.103528
   3 H :    0.037427
   4 H :    0.045348
   5 O :   -0.189691
   6 F :   -0.034363
   7 H :    0.028985
   8 H :    0.026549
   9 H :    0.032356
Sum of atomic charges:    0.0000000

LOEWDIN ATOMIC CHARGES
----------------------
   0 C :   -0.058804
   1 C :   -0.076079
   2 C :    0.068446
   3 H :    0.043343
   4 H :    0.047288
   5 O :   -0.174797
   6 F :    0.055661
   7 H :    0.034304
   8 H :    0.028427
   9 H :    0.032210

  Mayer bond orders larger than 0.100000
B(  0-C ,  1-C ) :   1.0819 B(  0-C ,  7-H ) :   0.9676 B(  0-C ,  8-H ) :   0.9719
B(  0-C ,  9-H ) :   0.9759 B(  1-C ,  2-C ) :   1.0043 B(  1-C ,  3-H ) :   0.9286
B(  1-C ,  4-H ) :   0.9463 B(  2-C ,  5-O ) :   2.1595 B(  2-C ,  6-F ) :   1.2427

FINAL SINGLE POINT ENERGY      -291.551811543314

DIPOLE MOMENT
-------------
                                X             Y             Z
Electronic contribution:      4.09164      -6.62156      -1.82004
Nuclear contribution   :     -3.93139       7.77287       1.92635
                        -----------------------------------------
Total Dipole Moment    :      0.16026       1.15132       0.10631
                        -----------------------------------------
Magnitude (a.u.)       :      1.16727
Magnitude (Debye)      :      2.96696

Rotational constants in cm-1:     0.286068     0.133630     0.103472
Rotational constants in MHz :  8576.109806  4006.118234  3102.010802

                             ****ORCA TERMINATED NORMALLY****
TOTAL RUN TIME: 0 days 0 hours 0 minutes 11 seconds 960 msec
