                         Program Version 5.0.0 -  RELEASE  -
|  1> !LC-BLYP RIJCOSX def2-TZVP def2/J TightSCF xyzfile
|  2>
|  3> *xyzfile 0 1 D1.xyz
|  4>
|  5> %MaxCore 64000
|  6>
|  7> %pal nprocs 18
|  8> end
|  9>
| 10> %scf
| 11>   MaxIter 150
| 12> end
| 13>
| 14>
| 15>                          ****END OF INPUT****

CARTESIAN COORDINATES (ANGSTROEM)
---------------------------------
  C      0.816067   -2.101491   -2.186546
  H      1.696232   -2.368691   -1.600457
  C      1.100552   -2.467492   -3.599269
  C      0.516243   -0.613634   -2.039373
  H     -0.020066   -2.712849   -1.840844
  C     -0.868621   -0.193925   -2.546303
  C     -0.984801    1.284739   -2.928686
  H     -0.764939    1.904116   -2.051568
  H     -2.032613    1.478953   -3.178952
  C     -0.106085    1.769914   -4.089836
  H     -0.347744    2.822196   -4.262942
  H      0.949683    1.745875   -3.808781
  C     -0.258747    1.004323   -5.409829
  C      0.395958   -0.370696   -5.339939
  H      0.239150    1.569393   -6.201253
  H     -1.309360    0.888694   -5.682455
  H      1.700606   -1.757225   -4.078378
  H      0.293855   -2.359766   -4.256324
  H      1.501324   -3.428479   -3.694915
  F     -0.326329   -1.390398   -5.491279
  O      1.619412   -0.400726   -5.036827
  H     -1.607271   -0.412651   -1.768955
  H     -1.157234   -0.796164   -3.409254
  H      1.299044   -0.056805   -2.558982
  H      0.612393   -0.365579   -0.979171

 Total Charge           Charge          ....    0
 Multiplicity           Mult            ....    1
 Number of Electrons    NEL             ....   80
 Basis Dimension        Dim             ....  400

ORBITAL ENERGIES
----------------

  NO   OCC          E(Eh)            E(eV)
   0   2.0000     -24.532339      -667.5589
   1   2.0000     -18.950950      -515.6816
   2   2.0000     -10.258681      -279.1529
   3   2.0000     -10.103715      -274.9361
   4   2.0000     -10.082745      -274.3654
   5   2.0000     -10.071125      -274.0492
   6   2.0000     -10.063561      -273.8434
   7   2.0000     -10.049820      -273.4695
   8   2.0000     -10.040498      -273.2158
   9   2.0000      -9.991608      -271.8855
  10   2.0000      -1.411425       -38.4068
  11   2.0000      -1.139518       -31.0079
  12   2.0000      -0.937476       -25.5100
  13   2.0000      -0.904352       -24.6087
  14   2.0000      -0.855157       -23.2700
  15   2.0000      -0.816140       -22.2083
  16   2.0000      -0.771656       -20.9978
  17   2.0000      -0.747772       -20.3479
  18   2.0000      -0.709483       -19.3060
  19   2.0000      -0.668425       -18.1888
  20   2.0000      -0.664634       -18.0856
  21   2.0000      -0.646661       -17.5965
  22   2.0000      -0.632155       -17.2018
  23   2.0000      -0.585819       -15.9409
  24   2.0000      -0.564725       -15.3670
  25   2.0000      -0.550231       -14.9726
  26   2.0000      -0.543827       -14.7983
  27   2.0000      -0.528952       -14.3935
  28   2.0000      -0.515396       -14.0246
  29   2.0000      -0.502483       -13.6733
  30   2.0000      -0.483503       -13.1568
  31   2.0000      -0.468667       -12.7531
  32   2.0000      -0.464731       -12.6460
  33   2.0000      -0.449400       -12.2288
  34   2.0000      -0.435435       -11.8488
  35   2.0000      -0.423901       -11.5349
  36   2.0000      -0.414838       -11.2883
  37   2.0000      -0.403371       -10.9763
  38   2.0000      -0.393480       -10.7071
  39   2.0000      -0.361186        -9.8284
  40   0.0000       0.039246         1.0679
  41   0.0000       0.092308         2.5118
  42   0.0000       0.118486         3.2242
  43   0.0000       0.124767         3.3951
  44   0.0000       0.126588         3.4446

MULLIKEN ATOMIC CHARGES
-----------------------
   0 C :   -0.158704
   1 H :    0.109546
   2 C :   -0.506100
   3 C :   -0.286790
   4 H :    0.101305
   5 C :   -0.302336
   6 C :   -0.236610
   7 H :    0.132785
   8 H :    0.132875
   9 C :   -0.302821
  10 H :    0.141356
  11 H :    0.172407
  12 C :   -0.233714
  13 C :    0.262311
  14 H :    0.166212
  15 H :    0.143911
  16 H :    0.192603
  17 H :    0.127366
  18 H :    0.121149
  19 F :   -0.057422
  20 O :   -0.270072
  21 H :    0.134096
  22 H :    0.138100
  23 H :    0.158367
  24 H :    0.120179
Sum of atomic charges:    0.0000000

LOEWDIN ATOMIC CHARGES
----------------------
   0 C :   -0.311326
   1 H :    0.138558
   2 C :   -0.351204
   3 C :   -0.276678
   4 H :    0.135251
   5 C :   -0.275451
   6 C :   -0.277236
   7 H :    0.145193
   8 H :    0.141056
   9 C :   -0.268142
  10 H :    0.146136
  11 H :    0.148753
  12 C :   -0.238069
  13 C :   -0.511329
  14 H :    0.164548
  15 H :    0.148313
  16 H :    0.118608
  17 H :    0.107885
  18 H :    0.109880
  19 F :    0.346089
  20 O :    0.095147
  21 H :    0.143346
  22 H :    0.140173
  23 H :    0.142868
  24 H :    0.137633

  Mayer bond orders larger than 0.100000
B(  0-C ,  1-H ) :   0.9834 B(  0-C ,  2-C ) :   0.9015 B(  0-C ,  3-C ) :   0.9394
B(  0-C ,  4-H ) :   0.9825 B(  2-C , 16-H ) :   0.9420 B(  2-C , 17-H ) :   0.9813
B(  2-C , 18-H ) :   0.9833 B(  3-C ,  5-C ) :   0.8664 B(  3-C , 23-H ) :   0.9971
B(  3-C , 24-H ) :   0.9762 B(  5-C ,  6-C ) :   0.9264 B(  5-C , 21-H ) :   0.9778
B(  5-C , 22-H ) :   0.9873 B(  6-C ,  7-H ) :   0.9807 B(  6-C ,  8-H ) :   0.9869
B(  6-C ,  9-C ) :   0.9253 B(  9-C , 10-H ) :   0.9815 B(  9-C , 11-H ) :   0.9734
B(  9-C , 12-C ) :   0.8980 B( 12-C , 13-C ) :   0.9583 B( 12-C , 14-H ) :   0.9567
B( 12-C , 15-H ) :   0.9604 B( 13-C , 19-F ) :   1.1893 B( 13-C , 20-O ) :   2.0382

FINAL SINGLE POINT ENERGY      -487.892661736093

DIPOLE MOMENT
-------------
                                X             Y             Z
Electronic contribution:      0.33966      -1.96684     -10.58106
Nuclear contribution   :     -1.21560       2.80077      10.24180
                        -----------------------------------------
Total Dipole Moment    :     -0.87595       0.83393      -0.33925
                        -----------------------------------------
Magnitude (a.u.)       :      1.25611
Magnitude (Debye)      :      3.19277

Rotational constants in cm-1:     0.051255     0.042531     0.028894
Rotational constants in MHz :  1536.587743  1275.050721   866.218876

                             ****ORCA TERMINATED NORMALLY****
TOTAL RUN TIME: 0 days 0 hours 0 minutes 46 seconds 463 msec
