                         Program Version 5.0.0 -  RELEASE  -
|  1> !LC-BLYP RIJCOSX def2-TZVP def2/J TightSCF xyzfile
|  2>
|  3> *xyzfile 0 1 D2.xyz
|  4>
|  5> %MaxCore 64000
|  6>
|  7> %pal nprocs 18
|  8> end
|  9>
| 10> %scf
| 11>   MaxIter 150
| 12> end
| 13>
| 14>
| 15>                          ****END OF INPUT****

CARTESIAN COORDINATES (ANGSTROEM)
---------------------------------
  C      0.816067   -2.101491   -2.186546
  H      1.696232   -2.368691   -1.600457
  C      1.100552   -2.467492   -3.599269
  C      0.516243   -0.613634   -2.039373
  H     -0.020066   -2.712849   -1.840844
  C     -0.868621   -0.193925   -2.546303
  C     -0.984801    1.284739   -2.928686
  H     -0.764939    1.904116   -2.051568
  H     -2.032613    1.478953   -3.178952
  C     -0.106085    1.769914   -4.089836
  H     -0.347744    2.822196   -4.262942
  H      0.949683    1.745875   -3.808781
  C     -0.258747    1.004323   -5.409829
  C      0.395958   -0.370696   -5.339939
  H      0.239150    1.569393   -6.201253
  H     -1.309360    0.888694   -5.682455
  H      1.700606   -1.757225   -4.078378
  H      0.293855   -2.359766   -4.256324
  H      1.501324   -3.428479   -3.694915
  O     -0.326329   -1.390398   -5.491279
  F      1.619412   -0.400726   -5.036827
  H     -1.607271   -0.412651   -1.768955
  H     -1.157234   -0.796164   -3.409254
  H      1.299044   -0.056805   -2.558982
  H      0.612393   -0.365579   -0.979171

 Total Charge           Charge          ....    0
 Multiplicity           Mult            ....    1
 Number of Electrons    NEL             ....   80
 Basis Dimension        Dim             ....  400

ORBITAL ENERGIES
----------------

  NO   OCC          E(Eh)            E(eV)
   0   2.0000     -24.532433      -667.5615
   1   2.0000     -18.950753      -515.6762
   2   2.0000     -10.258111      -279.1374
   3   2.0000     -10.103531      -274.9311
   4   2.0000     -10.086855      -274.4773
   5   2.0000     -10.071175      -274.0506
   6   2.0000     -10.058280      -273.6997
   7   2.0000     -10.053783      -273.5773
   8   2.0000     -10.041568      -273.2450
   9   2.0000      -9.992833      -271.9188
  10   2.0000      -1.411233       -38.4016
  11   2.0000      -1.139034       -30.9947
  12   2.0000      -0.940021       -25.5793
  13   2.0000      -0.906080       -24.6557
  14   2.0000      -0.855924       -23.2909
  15   2.0000      -0.815416       -22.1886
  16   2.0000      -0.770696       -20.9717
  17   2.0000      -0.748506       -20.3679
  18   2.0000      -0.710911       -19.3449
  19   2.0000      -0.672183       -18.2910
  20   2.0000      -0.667952       -18.1759
  21   2.0000      -0.652573       -17.7574
  22   2.0000      -0.616716       -16.7817
  23   2.0000      -0.587243       -15.9797
  24   2.0000      -0.563162       -15.3244
  25   2.0000      -0.551223       -14.9995
  26   2.0000      -0.545975       -14.8567
  27   2.0000      -0.534246       -14.5376
  28   2.0000      -0.518157       -14.0998
  29   2.0000      -0.494161       -13.4468
  30   2.0000      -0.487863       -13.2754
  31   2.0000      -0.477653       -12.9976
  32   2.0000      -0.468994       -12.7620
  33   2.0000      -0.448973       -12.2172
  34   2.0000      -0.429980       -11.7003
  35   2.0000      -0.427854       -11.6425
  36   2.0000      -0.414095       -11.2681
  37   2.0000      -0.398884       -10.8542
  38   2.0000      -0.397829       -10.8255
  39   2.0000      -0.361618        -9.8401
  40   0.0000       0.041027         1.1164
  41   0.0000       0.090374         2.4592
  42   0.0000       0.117790         3.2052
  43   0.0000       0.120931         3.2907
  44   0.0000       0.127995         3.4829

MULLIKEN ATOMIC CHARGES
-----------------------
   0 C :   -0.153779
   1 H :    0.107117
   2 C :   -0.498838
   3 C :   -0.288965
   4 H :    0.106556
   5 C :   -0.321766
   6 C :   -0.223766
   7 H :    0.130393
   8 H :    0.135083
   9 C :   -0.327591
  10 H :    0.145876
  11 H :    0.162875
  12 C :   -0.228026
  13 C :    0.263646
  14 H :    0.159263
  15 H :    0.159523
  16 H :    0.121502
  17 H :    0.194066
  18 H :    0.120485
  19 O :   -0.257476
  20 F :   -0.067882
  21 H :    0.130119
  22 H :    0.175068
  23 H :    0.133355
  24 H :    0.123162
Sum of atomic charges:    0.0000000

LOEWDIN ATOMIC CHARGES
----------------------
   0 C :   -0.311106
   1 H :    0.136601
   2 C :   -0.349147
   3 C :   -0.278054
   4 H :    0.138099
   5 C :   -0.276711
   6 C :   -0.276713
   7 H :    0.143916
   8 H :    0.142815
   9 C :   -0.275354
  10 H :    0.147013
  11 H :    0.142397
  12 C :   -0.233232
  13 C :   -0.511303
  14 H :    0.158304
  15 H :    0.159940
  16 H :    0.110899
  17 H :    0.116681
  18 H :    0.110644
  19 O :    0.089471
  20 F :    0.349612
  21 H :    0.142368
  22 H :    0.149145
  23 H :    0.135238
  24 H :    0.138476

  Mayer bond orders larger than 0.100000
B(  0-C ,  1-H ) :   0.9840 B(  0-C ,  2-C ) :   0.8979 B(  0-C ,  3-C ) :   0.9427
B(  0-C ,  4-H ) :   0.9823 B(  2-C , 16-H ) :   0.9743 B(  2-C , 17-H ) :   0.9537
B(  2-C , 18-H ) :   0.9829 B(  3-C ,  5-C ) :   0.8641 B(  3-C , 23-H ) :   1.0019
B(  3-C , 24-H ) :   0.9772 B(  5-C ,  6-C ) :   0.9177 B(  5-C , 21-H ) :   0.9766
B(  5-C , 22-H ) :   0.9837 B(  6-C ,  7-H ) :   0.9817 B(  6-C ,  8-H ) :   0.9848
B(  6-C ,  9-C ) :   0.9213 B(  9-C , 10-H ) :   0.9837 B(  9-C , 11-H ) :   0.9818
B(  9-C , 12-C ) :   0.8781 B( 12-C , 13-C ) :   0.9615 B( 12-C , 14-H ) :   0.9578
B( 12-C , 15-H ) :   0.9707 B( 13-C , 19-O ) :   2.0751 B( 13-C , 20-F ) :   1.1728

FINAL SINGLE POINT ENERGY      -487.892657585315

DIPOLE MOMENT
-------------
                                X             Y             Z
Electronic contribution:      3.58947      -0.30453      -9.81389
Nuclear contribution   :     -3.57245       1.60200       9.69133
                        -----------------------------------------
Total Dipole Moment    :      0.01703       1.29747      -0.12256
                        -----------------------------------------
Magnitude (a.u.)       :      1.30336
Magnitude (Debye)      :      3.31287

Rotational constants in cm-1:     0.051520     0.042563     0.028962
Rotational constants in MHz :  1544.537298  1275.996546   868.258224

                             ****ORCA TERMINATED NORMALLY****
TOTAL RUN TIME: 0 days 0 hours 0 minutes 47 seconds 333 msec
