                         Program Version 5.0.0 -  RELEASE  -
|  1> !LC-BLYP RIJCOSX def2-SVPD def2/J TightSCF
|  2> *xyz -1 1
|  3> C          0.61188        1.65763       -4.50029
|  4> C          1.69499        1.54179       -5.57045
|  5> H          2.69733        1.73466       -5.18400
|  6> H          1.50666        2.27224       -6.35808
|  7> S          1.78029       -0.03313       -6.42874
|  8> O          2.56929        0.21366       -7.60736
|  9> O          0.41688       -0.46297       -6.61859
| 10> O          2.50513       -0.93326       -5.48257
| 11> H         -0.34424        1.45871       -4.93752
| 12> H          0.61845        2.64655       -4.09174
| 13> H          0.80247        0.94882       -3.72173
| 14> *
| 15> %MaxCore 64000
| 16>
| 17> %pal nprocs 4
| 18> end
| 19>
| 20> %scf
| 21>   MaxIter 150
| 22> end
| 23>
| 24>
| 25>                          ****END OF INPUT****

CARTESIAN COORDINATES (ANGSTROEM)
---------------------------------
  C      0.611880    1.657630   -4.500290
  C      1.694990    1.541790   -5.570450
  H      2.697330    1.734660   -5.184000
  H      1.506660    2.272240   -6.358080
  S      1.780290   -0.033130   -6.428740
  O      2.569290    0.213660   -7.607360
  O      0.416880   -0.462970   -6.618590
  O      2.505130   -0.933260   -5.482570
  H     -0.344240    1.458710   -4.937520
  H      0.618450    2.646550   -4.091740
  H      0.802470    0.948820   -3.721730

 Total Charge           Charge          ....   -1
 Multiplicity           Mult            ....    1
 Number of Electrons    NEL             ....   58
 Basis Dimension        Dim             ....  176

ORBITAL ENERGIES
----------------

  NO   OCC          E(Eh)            E(eV)
   0   2.0000     -88.309679     -2403.0285
   1   2.0000     -18.742500      -510.0093
   2   2.0000     -18.741700      -509.9876
   3   2.0000     -18.722887      -509.4757
   4   2.0000      -9.951412      -270.7917
   5   2.0000      -9.945792      -270.6388
   6   2.0000      -7.858766      -213.8479
   7   2.0000      -5.893136      -160.3604
   8   2.0000      -5.892947      -160.3552
   9   2.0000      -5.892461      -160.3420
  10   2.0000      -1.033628       -28.1264
  11   2.0000      -0.892203       -24.2781
  12   2.0000      -0.858208       -23.3530
  13   2.0000      -0.742645       -20.2084
  14   2.0000      -0.617692       -16.8083
  15   2.0000      -0.489182       -13.3113
  16   2.0000      -0.429522       -11.6879
  17   2.0000      -0.426516       -11.6061
  18   2.0000      -0.386520       -10.5178
  19   2.0000      -0.370548       -10.0831
  20   2.0000      -0.362897        -9.8749
  21   2.0000      -0.335490        -9.1291
  22   2.0000      -0.317080        -8.6282
  23   2.0000      -0.257944        -7.0190
  24   2.0000      -0.256161        -6.9705
  25   2.0000      -0.221334        -6.0228
  26   2.0000      -0.211072        -5.7436
  27   2.0000      -0.197115        -5.3638
  28   2.0000      -0.163599        -4.4518
  29   0.0000       0.189260         5.1500
  30   0.0000       0.212611         5.7855
  31   0.0000       0.216593         5.8938
  32   0.0000       0.223680         6.0866
  33   0.0000       0.244212         6.6454

MULLIKEN ATOMIC CHARGES
-----------------------
   0 C :    1.011770
   1 C :   -0.198417
   2 H :   -0.150242
   3 H :   -0.102601
   4 S :    1.093705
   5 O :   -0.701393
   6 O :   -0.720161
   7 O :   -0.774719
   8 H :   -0.128653
   9 H :   -0.194075
  10 H :   -0.135214
Sum of atomic charges:   -1.0000000

LOEWDIN ATOMIC CHARGES
----------------------
   0 C :    0.094050
   1 C :   -0.148433
   2 H :    0.012172
   3 H :    0.004552
   4 S :    0.800477
   5 O :   -0.558177
   6 O :   -0.553623
   7 O :   -0.590565
   8 H :   -0.020611
   9 H :   -0.029120
  10 H :   -0.010723

  Mayer bond orders larger than 0.100000
B(  0-C ,  1-C ) :   1.2766 B(  0-C ,  3-H ) :   0.1114 B(  0-C ,  8-H ) :   0.7602
B(  0-C ,  9-H ) :   0.6706 B(  0-C , 10-H ) :   0.7522 B(  1-C ,  2-H ) :   0.9521
B(  1-C ,  3-H ) :   0.9577 B(  1-C ,  4-S ) :   0.9177 B(  1-C ,  8-H ) :   0.2336
B(  1-C ,  9-H ) :   0.2671 B(  1-C , 10-H ) :   0.2172 B(  4-S ,  5-O ) :   1.4091
B(  4-S ,  6-O ) :   1.3632 B(  4-S ,  7-O ) :   1.3169

FINAL SINGLE POINT ENERGY      -701.944014480594

DIPOLE MOMENT
-------------
                                X             Y             Z
Electronic contribution:      2.21084      -5.51165      -4.93915
Nuclear contribution   :     -2.69163       7.29476       5.86550
                        -----------------------------------------
Total Dipole Moment    :     -0.48079       1.78311       0.92635
                        -----------------------------------------
Magnitude (a.u.)       :      2.06610
Magnitude (Debye)      :      5.25161

Rotational constants in cm-1:     0.163060     0.082831     0.081111
Rotational constants in MHz :  4888.419330  2483.225008  2431.646841

                             ****ORCA TERMINATED NORMALLY****
TOTAL RUN TIME: 0 days 0 hours 0 minutes 20 seconds 339 msec
