                         Program Version 5.0.0 -  RELEASE  -
|  1> !LC-BLYP RIJCOSX def2-SVPD def2/J TightSCF
|  2> *xyz 1 1
|  3> C          1.96337       -1.74915       -1.89689
|  4> N          2.73849       -2.01517       -3.09711
|  5> C          4.04974       -2.15472       -3.15204
|  6> N          4.65821       -1.98629       -4.31866
|  7> N          4.76423       -2.45444       -2.05049
|  8> H          4.28736       -2.77626       -1.21750
|  9> H          5.75082       -2.65835       -2.12599
| 10> H          2.34518       -1.69027       -3.97145
| 11> H          4.10900       -1.59268       -5.07176
| 12> H          5.64910       -2.15646       -4.42724
| 13> C          2.08852       -0.30091       -1.41520
| 14> H          2.23127       -2.45162       -1.10264
| 15> H          0.93025       -1.97780       -2.15544
| 16> H          1.82118        0.36368       -2.21003
| 17> H          3.09792       -0.11068       -1.11551
| 18> H          1.43391       -0.14382       -0.58352
| 19> *
| 20> %MaxCore 64000
| 21>
| 22> %pal nprocs 4
| 23> end
| 24>
| 25> %scf
| 26>   MaxIter 150
| 27> end
| 28>
| 29>
| 30>                          ****END OF INPUT****

CARTESIAN COORDINATES (ANGSTROEM)
---------------------------------
  C      1.963370   -1.749150   -1.896890
  N      2.738490   -2.015170   -3.097110
  C      4.049740   -2.154720   -3.152040
  N      4.658210   -1.986290   -4.318660
  N      4.764230   -2.454440   -2.050490
  H      4.287360   -2.776260   -1.217500
  H      5.750820   -2.658350   -2.125990
  H      2.345180   -1.690270   -3.971450
  H      4.109000   -1.592680   -5.071760
  H      5.649100   -2.156460   -4.427240
  C      2.088520   -0.300910   -1.415200
  H      2.231270   -2.451620   -1.102640
  H      0.930250   -1.977800   -2.155440
  H      1.821180    0.363680   -2.210030
  H      3.097920   -0.110680   -1.115510
  H      1.433910   -0.143820   -0.583520

 Total Charge           Charge          ....    1
 Multiplicity           Mult            ....    1
 Number of Electrons    NEL             ....   48
 Basis Dimension        Dim             ....  200

ORBITAL ENERGIES
----------------

  NO   OCC          E(Eh)            E(eV)
   0   2.0000     -14.414332      -392.2339
   1   2.0000     -14.413062      -392.1994
   2   2.0000     -14.412195      -392.1758
   3   2.0000     -10.424796      -283.6731
   4   2.0000     -10.292656      -280.0774
   5   2.0000     -10.221542      -278.1423
   6   2.0000      -1.313482       -35.7417
   7   2.0000      -1.201431       -32.6926
   8   2.0000      -1.187846       -32.3229
   9   2.0000      -1.034941       -28.1622
  10   2.0000      -0.945045       -25.7160
  11   2.0000      -0.911230       -24.7958
  12   2.0000      -0.892718       -24.2921
  13   2.0000      -0.849774       -23.1235
  14   2.0000      -0.799416       -21.7532
  15   2.0000      -0.789269       -21.4771
  16   2.0000      -0.767327       -20.8800
  17   2.0000      -0.735173       -20.0051
  18   2.0000      -0.705224       -19.1901
  19   2.0000      -0.668711       -18.1965
  20   2.0000      -0.632249       -17.2044
  21   2.0000      -0.610812       -16.6210
  22   2.0000      -0.578971       -15.7546
  23   2.0000      -0.549096       -14.9417
  24   0.0000      -0.097432        -2.6513
  25   0.0000      -0.093287        -2.5385
  26   0.0000      -0.063050        -1.7157
  27   0.0000      -0.055395        -1.5074
  28   0.0000      -0.025417        -0.6916

MULLIKEN ATOMIC CHARGES
-----------------------
   0 C :    0.393278
   1 N :   -0.200619
   2 C :    0.975942
   3 N :    0.142333
   4 N :    0.214181
   5 H :   -0.076215
   6 H :   -0.187216
   7 H :   -0.176549
   8 H :   -0.047045
   9 H :   -0.110184
  10 C :    0.936800
  11 H :   -0.180147
  12 H :   -0.373711
  13 H :   -0.118073
  14 H :   -0.129559
  15 H :   -0.063215
Sum of atomic charges:    1.0000000

LOEWDIN ATOMIC CHARGES
----------------------
   0 C :    0.022464
   1 N :    0.054266
   2 C :   -0.063110
   3 N :    0.274615
   4 N :    0.291031
   5 H :    0.021785
   6 H :    0.037438
   7 H :    0.058392
   8 H :    0.039004
   9 H :    0.044385
  10 C :    0.151758
  11 H :    0.031066
  12 H :    0.045406
  13 H :   -0.002832
  14 H :   -0.012808
  15 H :    0.007142

  Mayer bond orders larger than 0.100000
B(  0-C ,  1-N ) :   1.0302 B(  0-C ,  7-H ) :  -0.1314 B(  0-C , 10-C ) :   1.2255
B(  0-C , 11-H ) :   0.8716 B(  0-C , 12-H ) :   0.7982 B(  0-C , 13-H ) :   0.2665
B(  0-C , 14-H ) :   0.2078 B(  0-C , 15-H ) :   0.1912 B(  1-N ,  2-C ) :   1.1156
B(  1-N ,  3-N ) :   0.2953 B(  1-N ,  4-N ) :   0.2096 B(  1-N ,  7-H ) :   1.2091
B(  1-N , 11-H ) :   0.1288 B(  1-N , 12-H ) :   0.2276 B(  2-C ,  3-N ) :   0.9532
B(  2-C ,  4-N ) :   1.0359 B(  2-C ,  5-H ) :  -0.1383 B(  2-C ,  6-H ) :  -0.1720
B(  2-C ,  7-H ) :  -0.2323 B(  2-C ,  8-H ) :  -0.1516 B(  2-C ,  9-H ) :  -0.1483
B(  3-N ,  4-N ) :   0.1490 B(  3-N ,  8-H ) :   1.1662 B(  3-N ,  9-H ) :   1.2562
B(  4-N ,  5-H ) :   1.1038 B(  4-N ,  6-H ) :   1.2686 B(  5-H ,  6-H ) :  -0.2224
B(  8-H ,  9-H ) :  -0.1903 B( 10-C , 13-H ) :   0.7387 B( 10-C , 14-H ) :   0.7866
B( 10-C , 15-H ) :   0.7489

FINAL SINGLE POINT ENERGY      -283.481663259731

DIPOLE MOMENT
-------------
                                X             Y             Z
Electronic contribution:      3.01336      -2.71503      -3.09325
Nuclear contribution   :     -2.17768       2.37118       2.44574
                        -----------------------------------------
Total Dipole Moment    :      0.83568      -0.34385      -0.64751
                        -----------------------------------------
Magnitude (a.u.)       :      1.11169
Magnitude (Debye)      :      2.82570

Rotational constants in cm-1:     0.215650     0.075183     0.066454
Rotational constants in MHz :  6465.033740  2253.919004  1992.232519

                             ****ORCA TERMINATED NORMALLY****
TOTAL RUN TIME: 0 days 0 hours 0 minutes 24 seconds 541 msec
