                         Program Version 5.0.0 -  RELEASE  -
|  1> !LC-BLYP RIJCOSX def2-SVPD def2/J TightSCF
|  2> *xyz 0 1
|  3> C          0.61188        1.65763       -4.50029
|  4> C          1.69499        1.54179       -5.57045
|  5> H          2.69733        1.73466       -5.18400
|  6> H          1.50666        2.27224       -6.35808
|  7> S          1.78029       -0.03313       -6.42874
|  8> F          2.56929        0.21366       -7.60736
|  9> O          0.41688       -0.46297       -6.61859
| 10> O          2.50513       -0.93326       -5.48257
| 11> H         -0.34424        1.45871       -4.93752
| 12> H          0.61845        2.64655       -4.09174
| 13> H          0.80247        0.94882       -3.72173
| 14> *
| 15> %MaxCore 64000
| 16>
| 17> %pal nprocs 4
| 18> end
| 19>
| 20> %scf
| 21>   MaxIter 150
| 22> end
| 23>
| 24>
| 25>                          ****END OF INPUT****

CARTESIAN COORDINATES (ANGSTROEM)
---------------------------------
  C      0.611880    1.657630   -4.500290
  C      1.694990    1.541790   -5.570450
  H      2.697330    1.734660   -5.184000
  H      1.506660    2.272240   -6.358080
  S      1.780290   -0.033130   -6.428740
  F      2.569290    0.213660   -7.607360
  O      0.416880   -0.462970   -6.618590
  O      2.505130   -0.933260   -5.482570
  H     -0.344240    1.458710   -4.937520
  H      0.618450    2.646550   -4.091740
  H      0.802470    0.948820   -3.721730

 Total Charge           Charge          ....    0
 Multiplicity           Mult            ....    1
 Number of Electrons    NEL             ....   58
 Basis Dimension        Dim             ....  176

ORBITAL ENERGIES
----------------

  NO   OCC          E(Eh)            E(eV)
   0   2.0000     -88.567774     -2410.0516
   1   2.0000     -24.598399      -669.3565
   2   2.0000     -18.975587      -516.3520
   3   2.0000     -18.955708      -515.8110
   4   2.0000     -10.153391      -276.2878
   5   2.0000     -10.108078      -275.0548
   6   2.0000      -8.117775      -220.8959
   7   2.0000      -6.156605      -167.5297
   8   2.0000      -6.149713      -167.3422
   9   2.0000      -6.148234      -167.3020
  10   2.0000      -1.465176       -39.8695
  11   2.0000      -1.206585       -32.8328
  12   2.0000      -1.094832       -29.7919
  13   2.0000      -0.934461       -25.4280
  14   2.0000      -0.846757       -23.0414
  15   2.0000      -0.787555       -21.4305
  16   2.0000      -0.698119       -18.9968
  17   2.0000      -0.697848       -18.9894
  18   2.0000      -0.663962       -18.0673
  19   2.0000      -0.606032       -16.4910
  20   2.0000      -0.592552       -16.1242
  21   2.0000      -0.546992       -14.8844
  22   2.0000      -0.539484       -14.6801
  23   2.0000      -0.514624       -14.0036
  24   2.0000      -0.492389       -13.3986
  25   2.0000      -0.490488       -13.3469
  26   2.0000      -0.438847       -11.9416
  27   2.0000      -0.420190       -11.4340
  28   2.0000      -0.405047       -11.0219
  29   0.0000       0.044509         1.2112
  30   0.0000       0.070614         1.9215
  31   0.0000       0.078944         2.1482
  32   0.0000       0.081915         2.2290
  33   0.0000       0.107016         2.9121

MULLIKEN ATOMIC CHARGES
-----------------------
   0 C :    1.019055
   1 C :   -0.235765
   2 H :   -0.098370
   3 H :   -0.054639
   4 S :    1.281663
   5 F :   -0.339683
   6 O :   -0.570167
   7 O :   -0.623782
   8 H :   -0.105514
   9 H :   -0.157295
  10 H :   -0.115505
Sum of atomic charges:   -0.0000000

LOEWDIN ATOMIC CHARGES
----------------------
   0 C :    0.137537
   1 C :   -0.112418
   2 H :    0.031361
   3 H :    0.022072
   4 S :    1.068297
   5 F :   -0.236428
   6 O :   -0.442605
   7 O :   -0.473404
   8 H :   -0.002733
   9 H :    0.001389
  10 H :    0.006933

  Mayer bond orders larger than 0.100000
B(  0-C ,  1-C ) :   1.3359 B(  0-C ,  3-H ) :   0.1124 B(  0-C ,  8-H ) :   0.7546
B(  0-C ,  9-H ) :   0.6816 B(  0-C , 10-H ) :   0.7523 B(  1-C ,  2-H ) :   0.9518
B(  1-C ,  3-H ) :   0.9345 B(  1-C ,  4-S ) :   0.9547 B(  1-C ,  8-H ) :   0.2288
B(  1-C ,  9-H ) :   0.2583 B(  1-C , 10-H ) :   0.2121 B(  4-S ,  5-F ) :   0.7747
B(  4-S ,  6-O ) :   1.5756 B(  4-S ,  7-O ) :   1.5205

FINAL SINGLE POINT ENERGY      -726.411886934494

DIPOLE MOMENT
-------------
                                X             Y             Z
Electronic contribution:      3.85978      -5.55911      -7.51399
Nuclear contribution   :     -3.66946       7.33549       7.42434
                        -----------------------------------------
Total Dipole Moment    :      0.19032       1.77638      -0.08965
                        -----------------------------------------
Magnitude (a.u.)       :      1.78880
Magnitude (Debye)      :      4.54676

Rotational constants in cm-1:     0.158379     0.080294     0.077843
Rotational constants in MHz :  4748.076444  2407.152850  2333.668303

                             ****ORCA TERMINATED NORMALLY****
TOTAL RUN TIME: 0 days 0 hours 0 minutes 19 seconds 368 msec
