                         Program Version 5.0.0 -  RELEASE  -
|  1> !LC-BLYP RIJCOSX def2-SVPD def2/J TightSCF
|  2> *xyz 0 1
|  3> C          1.96337       -1.74915       -1.89689
|  4> C          2.73849       -2.01517       -3.09711
|  5> C          4.04974       -2.15472       -3.15204
|  6> N          4.65821       -1.98629       -4.31866
|  7> N          4.76423       -2.45444       -2.05049
|  8> H          4.28736       -2.77626       -1.21750
|  9> H          5.75082       -2.65835       -2.12599
| 10> H          2.34518       -1.69027       -3.97145
| 11> H          4.10900       -1.59268       -5.07176
| 12> H          5.64910       -2.15646       -4.42724
| 13> C          2.08852       -0.30091       -1.41520
| 14> H          2.23127       -2.45162       -1.10264
| 15> H          0.93025       -1.97780       -2.15544
| 16> H          1.82118        0.36368       -2.21003
| 17> H          3.09792       -0.11068       -1.11551
| 18> H          1.43391       -0.14382       -0.58352
| 19> *
| 20> %MaxCore 64000
| 21>
| 22> %pal nprocs 4
| 23> end
| 24>
| 25> %scf
| 26>   MaxIter 150
| 27> end
| 28>
| 29>
| 30>                          ****END OF INPUT****

CARTESIAN COORDINATES (ANGSTROEM)
---------------------------------
  C      1.963370   -1.749150   -1.896890
  C      2.738490   -2.015170   -3.097110
  C      4.049740   -2.154720   -3.152040
  N      4.658210   -1.986290   -4.318660
  N      4.764230   -2.454440   -2.050490
  H      4.287360   -2.776260   -1.217500
  H      5.750820   -2.658350   -2.125990
  H      2.345180   -1.690270   -3.971450
  H      4.109000   -1.592680   -5.071760
  H      5.649100   -2.156460   -4.427240
  C      2.088520   -0.300910   -1.415200
  H      2.231270   -2.451620   -1.102640
  H      0.930250   -1.977800   -2.155440
  H      1.821180    0.363680   -2.210030
  H      3.097920   -0.110680   -1.115510
  H      1.433910   -0.143820   -0.583520

 Total Charge           Charge          ....    0
 Multiplicity           Mult            ....    1
 Number of Electrons    NEL             ....   48
 Basis Dimension        Dim             ....  200

ORBITAL ENERGIES
----------------

  NO   OCC          E(Eh)            E(eV)
   0   2.0000     -14.190658      -386.1474
   1   2.0000     -14.187511      -386.0618
   2   2.0000     -10.130729      -275.6711
   3   2.0000     -10.059676      -273.7377
   4   2.0000     -10.049368      -273.4572
   5   2.0000     -10.006087      -272.2795
   6   2.0000      -1.054744       -28.7010
   7   2.0000      -0.964175       -26.2365
   8   2.0000      -0.876684       -23.8558
   9   2.0000      -0.795793       -21.6546
  10   2.0000      -0.719738       -19.5851
  11   2.0000      -0.685212       -18.6456
  12   2.0000      -0.648884       -17.6570
  13   2.0000      -0.613238       -16.6871
  14   2.0000      -0.574977       -15.6459
  15   2.0000      -0.543453       -14.7881
  16   2.0000      -0.527674       -14.3587
  17   2.0000      -0.492168       -13.3926
  18   2.0000      -0.482178       -13.1207
  19   2.0000      -0.458234       -12.4692
  20   2.0000      -0.426729       -11.6119
  21   2.0000      -0.414518       -11.2796
  22   2.0000      -0.366754        -9.9799
  23   2.0000      -0.253910        -6.9092
  24   0.0000       0.069615         1.8943
  25   0.0000       0.095225         2.5912
  26   0.0000       0.102779         2.7968
  27   0.0000       0.113624         3.0919
  28   0.0000       0.135295         3.6816

MULLIKEN ATOMIC CHARGES
-----------------------
   0 C :   -0.001952
   1 C :   -0.281874
   2 C :    0.586600
   3 N :    0.191877
   4 N :    0.140109
   5 H :   -0.049489
   6 H :   -0.311227
   7 H :   -0.260309
   8 H :   -0.037846
   9 H :   -0.214458
  10 C :    0.929502
  11 H :   -0.162374
  12 H :   -0.169025
  13 H :   -0.128335
  14 H :   -0.136046
  15 H :   -0.095153
Sum of atomic charges:   -0.0000000

LOEWDIN ATOMIC CHARGES
----------------------
   0 C :   -0.112363
   1 C :   -0.052612
   2 C :   -0.241603
   3 N :    0.189713
   4 N :    0.212416
   5 H :   -0.009082
   6 H :   -0.012674
   7 H :   -0.046811
   8 H :    0.005136
   9 H :   -0.007266
  10 C :    0.111818
  11 H :    0.007079
  12 H :    0.017061
  13 H :   -0.015386
  14 H :   -0.022599
  15 H :   -0.022827

  Mayer bond orders larger than 0.100000
B(  0-C ,  1-C ) :   1.2673 B(  0-C ,  7-H ) :   0.3420 B(  0-C , 10-C ) :   1.2144
B(  0-C , 11-H ) :   0.8221 B(  0-C , 12-H ) :   0.7272 B(  0-C , 13-H ) :   0.2661
B(  0-C , 14-H ) :   0.2255 B(  0-C , 15-H ) :   0.2095 B(  1-C ,  2-C ) :   1.7352
B(  1-C ,  3-N ) :   0.3264 B(  1-C ,  4-N ) :   0.2655 B(  1-C ,  7-H ) :   0.7123
B(  1-C , 11-H ) :   0.2497 B(  1-C , 12-H ) :   0.3270 B(  2-C ,  3-N ) :   0.9756
B(  2-C ,  4-N ) :   0.9927 B(  2-C ,  6-H ) :  -0.2071 B(  2-C ,  7-H ) :   0.3166
B(  3-N ,  4-N ) :   0.1010 B(  3-N ,  8-H ) :   1.1480 B(  3-N ,  9-H ) :   1.2523
B(  4-N ,  5-H ) :   1.0649 B(  4-N ,  6-H ) :   1.3519 B(  5-H ,  6-H ) :  -0.2250
B(  8-H ,  9-H ) :  -0.1864 B( 10-C , 13-H ) :   0.7606 B( 10-C , 14-H ) :   0.7818
B( 10-C , 15-H ) :   0.7378

FINAL SINGLE POINT ENERGY      -267.015153195212

DIPOLE MOMENT
-------------
                                X             Y             Z
Electronic contribution:      3.27475      -2.43444      -2.51631
Nuclear contribution   :     -2.31778       2.31977       2.35294
                        -----------------------------------------
Total Dipole Moment    :      0.95697      -0.11467      -0.16337
                        -----------------------------------------
Magnitude (a.u.)       :      0.97756
Magnitude (Debye)      :      2.48477

Rotational constants in cm-1:     0.219415     0.075373     0.066689
Rotational constants in MHz :  6577.897266  2259.621393  1999.290981

                             ****ORCA TERMINATED NORMALLY****
TOTAL RUN TIME: 0 days 0 hours 0 minutes 26 seconds 791 msec
