                         Program Version 5.0.0 -  RELEASE  -
|  1> !LC-BLYP RIJCOSX def2-SVPD def2/J TightSCF
|  2> *xyz 0 1
|  3> C          0.61188        1.65763       -4.50029
|  4> C          1.69499        1.54179       -5.57045
|  5> H          2.69733        1.73466       -5.18400
|  6> H          1.50666        2.27224       -6.35808
|  7> S          1.78029       -0.03313       -6.42874
|  8> O          2.56929        0.21366       -7.60736
|  9> F          0.41688       -0.46297       -6.61859
| 10> O          2.50513       -0.93326       -5.48257
| 11> H         -0.34424        1.45871       -4.93752
| 12> H          0.61845        2.64655       -4.09174
| 13> H          0.80247        0.94882       -3.72173
| 14> *
| 15> %MaxCore 64000
| 16>
| 17> %pal nprocs 4
| 18> end
| 19>
| 20> %scf
| 21>   MaxIter 150
| 22> end
| 23>
| 24>
| 25>                          ****END OF INPUT****

CARTESIAN COORDINATES (ANGSTROEM)
---------------------------------
  C      0.611880    1.657630   -4.500290
  C      1.694990    1.541790   -5.570450
  H      2.697330    1.734660   -5.184000
  H      1.506660    2.272240   -6.358080
  S      1.780290   -0.033130   -6.428740
  O      2.569290    0.213660   -7.607360
  F      0.416880   -0.462970   -6.618590
  O      2.505130   -0.933260   -5.482570
  H     -0.344240    1.458710   -4.937520
  H      0.618450    2.646550   -4.091740
  H      0.802470    0.948820   -3.721730

 Total Charge           Charge          ....    0
 Multiplicity           Mult            ....    1
 Number of Electrons    NEL             ....   58
 Basis Dimension        Dim             ....  176

ORBITAL ENERGIES
----------------

  NO   OCC          E(Eh)            E(eV)
   0   2.0000     -88.567433     -2410.0424
   1   2.0000     -24.597896      -669.3428
   2   2.0000     -18.975051      -516.3374
   3   2.0000     -18.955797      -515.8134
   4   2.0000     -10.153099      -276.2799
   5   2.0000     -10.114074      -275.2180
   6   2.0000      -8.117439      -220.8867
   7   2.0000      -6.156411      -167.5245
   8   2.0000      -6.149324      -167.3316
   9   2.0000      -6.147835      -167.2911
  10   2.0000      -1.463501       -39.8239
  11   2.0000      -1.207564       -32.8595
  12   2.0000      -1.094580       -29.7850
  13   2.0000      -0.938297       -25.5324
  14   2.0000      -0.842185       -22.9170
  15   2.0000      -0.792932       -21.5768
  16   2.0000      -0.711066       -19.3491
  17   2.0000      -0.696028       -18.9399
  18   2.0000      -0.652964       -17.7680
  19   2.0000      -0.606837       -16.5129
  20   2.0000      -0.585819       -15.9410
  21   2.0000      -0.560475       -15.2513
  22   2.0000      -0.543707       -14.7950
  23   2.0000      -0.518816       -14.1177
  24   2.0000      -0.501113       -13.6360
  25   2.0000      -0.487138       -13.2557
  26   2.0000      -0.437496       -11.9049
  27   2.0000      -0.420218       -11.4347
  28   2.0000      -0.405276       -11.0281
  29   0.0000       0.042196         1.1482
  30   0.0000       0.073291         1.9944
  31   0.0000       0.078208         2.1281
  32   0.0000       0.081956         2.2301
  33   0.0000       0.107746         2.9319

MULLIKEN ATOMIC CHARGES
-----------------------
   0 C :    1.028747
   1 C :   -0.205668
   2 H :   -0.102162
   3 H :   -0.059292
   4 S :    1.252081
   5 O :   -0.547834
   6 F :   -0.348364
   7 O :   -0.622405
   8 H :   -0.122037
   9 H :   -0.157955
  10 H :   -0.115111
Sum of atomic charges:   -0.0000000

LOEWDIN ATOMIC CHARGES
----------------------
   0 C :    0.123331
   1 C :   -0.100736
   2 H :    0.043436
   3 H :    0.025796
   4 S :    1.065130
   5 O :   -0.442736
   6 F :   -0.236268
   7 O :   -0.472613
   8 H :   -0.008419
   9 H :    0.000257
  10 H :    0.002822

  Mayer bond orders larger than 0.100000
B(  0-C ,  1-C ) :   1.2927 B(  0-C ,  3-H ) :   0.1031 B(  0-C ,  8-H ) :   0.7521
B(  0-C ,  9-H ) :   0.6762 B(  0-C , 10-H ) :   0.7612 B(  1-C ,  2-H ) :   0.9536
B(  1-C ,  3-H ) :   0.9629 B(  1-C ,  4-S ) :   0.9780 B(  1-C ,  8-H ) :   0.2173
B(  1-C ,  9-H ) :   0.2611 B(  1-C , 10-H ) :   0.2107 B(  4-S ,  5-O ) :   1.6207
B(  4-S ,  6-F ) :   0.7527 B(  4-S ,  7-O ) :   1.5337

FINAL SINGLE POINT ENERGY      -726.411814094636

DIPOLE MOMENT
-------------
                                X             Y             Z
Electronic contribution:      0.22122      -6.68765      -5.81487
Nuclear contribution   :     -1.42658       8.04056       6.39401
                        -----------------------------------------
Total Dipole Moment    :     -1.20536       1.35291       0.57914
                        -----------------------------------------
Magnitude (a.u.)       :      1.90228
Magnitude (Debye)      :      4.83521

Rotational constants in cm-1:     0.153659     0.082363     0.078978
Rotational constants in MHz :  4606.587369  2469.179541  2367.702074

                             ****ORCA TERMINATED NORMALLY****
TOTAL RUN TIME: 0 days 0 hours 0 minutes 19 seconds 149 msec
