                         Program Version 5.0.0 -  RELEASE  -
|  1> !LC-BLYP RIJCOSX def2-SVPD def2/J TightSCF
|  2> *xyz 0 1
|  3> C          1.96337       -1.74915       -1.89689
|  4> N          2.73849       -2.01517       -3.09711
|  5> C          4.04974       -2.15472       -3.15204
|  6> C          4.65821       -1.98629       -4.31866
|  7> N          4.76423       -2.45444       -2.05049
|  8> H          4.28736       -2.77626       -1.21750
|  9> H          5.75082       -2.65835       -2.12599
| 10> H          2.34518       -1.69027       -3.97145
| 11> H          4.10900       -1.59268       -5.07176
| 12> H          5.64910       -2.15646       -4.42724
| 13> C          2.08852       -0.30091       -1.41520
| 14> H          2.23127       -2.45162       -1.10264
| 15> H          0.93025       -1.97780       -2.15544
| 16> H          1.82118        0.36368       -2.21003
| 17> H          3.09792       -0.11068       -1.11551
| 18> H          1.43391       -0.14382       -0.58352
| 19> *
| 20> %MaxCore 64000
| 21>
| 22> %pal nprocs 4
| 23> end
| 24>
| 25> %scf
| 26>   MaxIter 150
| 27> end
| 28>
| 29>
| 30>                          ****END OF INPUT****

CARTESIAN COORDINATES (ANGSTROEM)
---------------------------------
  C      1.963370   -1.749150   -1.896890
  N      2.738490   -2.015170   -3.097110
  C      4.049740   -2.154720   -3.152040
  C      4.658210   -1.986290   -4.318660
  N      4.764230   -2.454440   -2.050490
  H      4.287360   -2.776260   -1.217500
  H      5.750820   -2.658350   -2.125990
  H      2.345180   -1.690270   -3.971450
  H      4.109000   -1.592680   -5.071760
  H      5.649100   -2.156460   -4.427240
  C      2.088520   -0.300910   -1.415200
  H      2.231270   -2.451620   -1.102640
  H      0.930250   -1.977800   -2.155440
  H      1.821180    0.363680   -2.210030
  H      3.097920   -0.110680   -1.115510
  H      1.433910   -0.143820   -0.583520

 Total Charge           Charge          ....    0
 Multiplicity           Mult            ....    1
 Number of Electrons    NEL             ....   48
 Basis Dimension        Dim             ....  200

ORBITAL ENERGIES
----------------

  NO   OCC          E(Eh)            E(eV)
   0   2.0000     -14.188935      -386.1006
   1   2.0000     -14.186804      -386.0426
   2   2.0000     -10.132343      -275.7151
   3   2.0000     -10.125112      -275.5183
   4   2.0000     -10.074330      -274.1365
   5   2.0000      -9.997786      -272.0536
   6   2.0000      -1.063720       -28.9453
   7   2.0000      -0.977430       -26.5972
   8   2.0000      -0.874561       -23.7980
   9   2.0000      -0.803486       -21.8640
  10   2.0000      -0.733351       -19.9555
  11   2.0000      -0.704224       -19.1629
  12   2.0000      -0.642287       -17.4775
  13   2.0000      -0.601213       -16.3598
  14   2.0000      -0.582605       -15.8535
  15   2.0000      -0.541962       -14.7475
  16   2.0000      -0.538717       -14.6592
  17   2.0000      -0.504542       -13.7293
  18   2.0000      -0.484696       -13.1893
  19   2.0000      -0.475632       -12.9426
  20   2.0000      -0.462645       -12.5892
  21   2.0000      -0.455107       -12.3841
  22   2.0000      -0.353889        -9.6298
  23   2.0000      -0.257976        -7.0199
  24   0.0000       0.066307         1.8043
  25   0.0000       0.095659         2.6030
  26   0.0000       0.099417         2.7053
  27   0.0000       0.103295         2.8108
  28   0.0000       0.134992         3.6733

MULLIKEN ATOMIC CHARGES
-----------------------
   0 C :    0.404768
   1 N :   -0.144096
   2 C :    0.456786
   3 C :    0.512594
   4 N :    0.333958
   5 H :   -0.170155
   6 H :   -0.210982
   7 H :   -0.208882
   8 H :   -0.347024
   9 H :   -0.532483
  10 C :    0.910866
  11 H :   -0.210090
  12 H :   -0.415871
  13 H :   -0.140410
  14 H :   -0.125102
  15 H :   -0.113876
Sum of atomic charges:   -0.0000000

LOEWDIN ATOMIC CHARGES
----------------------
   0 C :   -0.008661
   1 N :   -0.005881
   2 C :   -0.260172
   3 C :    0.138092
   4 N :    0.211161
   5 H :   -0.024234
   6 H :    0.004253
   7 H :    0.031775
   8 H :   -0.098524
   9 H :   -0.097377
  10 C :    0.124476
  11 H :    0.013123
  12 H :    0.022348
  13 H :   -0.013949
  14 H :   -0.019472
  15 H :   -0.016960

  Mayer bond orders larger than 0.100000
B(  0-C ,  1-N ) :   0.9759 B(  0-C ,  7-H ) :  -0.1389 B(  0-C , 10-C ) :   1.2018
B(  0-C , 11-H ) :   0.8666 B(  0-C , 12-H ) :   0.7968 B(  0-C , 13-H ) :   0.2757
B(  0-C , 14-H ) :   0.2061 B(  0-C , 15-H ) :   0.1998 B(  1-N ,  2-C ) :   1.1464
B(  1-N ,  3-C ) :   0.2929 B(  1-N ,  4-N ) :   0.1288 B(  1-N ,  7-H ) :   1.1576
B(  1-N , 11-H ) :   0.1442 B(  1-N , 12-H ) :   0.2201 B(  2-C ,  3-C ) :   1.3011
B(  2-C ,  4-N ) :   1.0520 B(  2-C ,  6-H ) :  -0.1139 B(  2-C ,  7-H ) :  -0.1681
B(  2-C ,  9-H ) :   0.1414 B(  3-C ,  4-N ) :   0.2046 B(  3-C ,  8-H ) :   0.8153
B(  3-C ,  9-H ) :   0.7230 B(  4-N ,  5-H ) :   1.0611 B(  4-N ,  6-H ) :   1.2270
B(  5-H ,  6-H ) :  -0.2201 B( 10-C , 13-H ) :   0.7383 B( 10-C , 14-H ) :   0.7889
B( 10-C , 15-H ) :   0.7632

FINAL SINGLE POINT ENERGY      -267.009500822468

DIPOLE MOMENT
-------------
                                X             Y             Z
Electronic contribution:      1.39877      -2.33510      -1.20683
Nuclear contribution   :     -1.91052       2.32590       2.09379
                        -----------------------------------------
Total Dipole Moment    :     -0.51175      -0.00921       0.88697
                        -----------------------------------------
Magnitude (a.u.)       :      1.02405
Magnitude (Debye)      :      2.60293

Rotational constants in cm-1:     0.219448     0.077923     0.068804
Rotational constants in MHz :  6578.886179  2336.083179  2062.700476

                             ****ORCA TERMINATED NORMALLY****
TOTAL RUN TIME: 0 days 0 hours 0 minutes 25 seconds 799 msec
