                         Program Version 5.0.0 -  RELEASE  -
|  1> !LC-BLYP RIJCOSX def2-SVPD def2/J TightSCF
|  2> *xyz 0 1
|  3> C          0.61188        1.65763       -4.50029
|  4> C          1.69499        1.54179       -5.57045
|  5> H          2.69733        1.73466       -5.18400
|  6> H          1.50666        2.27224       -6.35808
|  7> S          1.78029       -0.03313       -6.42874
|  8> O          2.56929        0.21366       -7.60736
|  9> O          0.41688       -0.46297       -6.61859
| 10> F          2.50513       -0.93326       -5.48257
| 11> H         -0.34424        1.45871       -4.93752
| 12> H          0.61845        2.64655       -4.09174
| 13> H          0.80247        0.94882       -3.72173
| 14> *
| 15> %MaxCore 64000
| 16>
| 17> %pal nprocs 4
| 18> end
| 19>
| 20> %scf
| 21>   MaxIter 150
| 22> end
| 23>
| 24>
| 25>                          ****END OF INPUT****

CARTESIAN COORDINATES (ANGSTROEM)
---------------------------------
  C      0.611880    1.657630   -4.500290
  C      1.694990    1.541790   -5.570450
  H      2.697330    1.734660   -5.184000
  H      1.506660    2.272240   -6.358080
  S      1.780290   -0.033130   -6.428740
  O      2.569290    0.213660   -7.607360
  O      0.416880   -0.462970   -6.618590
  F      2.505130   -0.933260   -5.482570
  H     -0.344240    1.458710   -4.937520
  H      0.618450    2.646550   -4.091740
  H      0.802470    0.948820   -3.721730

 Total Charge           Charge          ....    0
 Multiplicity           Mult            ....    1
 Number of Electrons    NEL             ....   58
 Basis Dimension        Dim             ....  176

ORBITAL ENERGIES
----------------

  NO   OCC          E(Eh)            E(eV)
   0   2.0000     -88.565228     -2409.9824
   1   2.0000     -24.570702      -668.6028
   2   2.0000     -18.975260      -516.3431
   3   2.0000     -18.974440      -516.3207
   4   2.0000     -10.151890      -276.2470
   5   2.0000     -10.108860      -275.0761
   6   2.0000      -8.115046      -220.8216
   7   2.0000      -6.153692      -167.4505
   8   2.0000      -6.147249      -167.2751
   9   2.0000      -6.145749      -167.2343
  10   2.0000      -1.420410       -38.6513
  11   2.0000      -1.217756       -33.1368
  12   2.0000      -1.122412       -30.5424
  13   2.0000      -0.934698       -25.4344
  14   2.0000      -0.828590       -22.5471
  15   2.0000      -0.779844       -21.2206
  16   2.0000      -0.687059       -18.6958
  17   2.0000      -0.665699       -18.1146
  18   2.0000      -0.654490       -17.8096
  19   2.0000      -0.605061       -16.4646
  20   2.0000      -0.587010       -15.9733
  21   2.0000      -0.564327       -15.3561
  22   2.0000      -0.541079       -14.7235
  23   2.0000      -0.511702       -13.9241
  24   2.0000      -0.508993       -13.8504
  25   2.0000      -0.485991       -13.2245
  26   2.0000      -0.445940       -12.1346
  27   2.0000      -0.436264       -11.8713
  28   2.0000      -0.425728       -11.5846
  29   0.0000       0.045666         1.2426
  30   0.0000       0.075559         2.0561
  31   0.0000       0.079211         2.1554
  32   0.0000       0.081164         2.2086
  33   0.0000       0.108357         2.9485

MULLIKEN ATOMIC CHARGES
-----------------------
   0 C :    1.046496
   1 C :   -0.229064
   2 H :   -0.109984
   3 H :   -0.050355
   4 S :    1.263047
   5 O :   -0.564983
   6 O :   -0.587482
   7 F :   -0.371336
   8 H :   -0.103828
   9 H :   -0.157157
  10 H :   -0.135355
Sum of atomic charges:   -0.0000000

LOEWDIN ATOMIC CHARGES
----------------------
   0 C :    0.124970
   1 C :   -0.103280
   2 H :    0.029950
   3 H :    0.036229
   4 S :    1.063384
   5 O :   -0.444119
   6 O :   -0.440993
   7 F :   -0.261003
   8 H :   -0.003853
   9 H :   -0.000641
  10 H :   -0.000644

  Mayer bond orders larger than 0.100000
B(  0-C ,  1-C ) :   1.3085 B(  0-C ,  8-H ) :   0.7603 B(  0-C ,  9-H ) :   0.6745
B(  0-C , 10-H ) :   0.7404 B(  1-C ,  2-H ) :   0.9471 B(  1-C ,  3-H ) :   0.9552
B(  1-C ,  4-S ) :   0.9774 B(  1-C ,  8-H ) :   0.2312 B(  1-C ,  9-H ) :   0.2576
B(  1-C , 10-H ) :   0.2144 B(  4-S ,  5-O ) :   1.6153 B(  4-S ,  6-O ) :   1.5801
B(  4-S ,  7-F ) :   0.6878 B(  5-O ,  6-O ) :   0.1011

FINAL SINGLE POINT ENERGY      -726.435888383117

DIPOLE MOMENT
-------------
                                X             Y             Z
Electronic contribution:      3.77170      -7.52749      -3.87648
Nuclear contribution   :     -3.60260       8.53062       5.21025
                        -----------------------------------------
Total Dipole Moment    :      0.16910       1.00313       1.33376
                        -----------------------------------------
Magnitude (a.u.)       :      1.67743
Magnitude (Debye)      :      4.26370

Rotational constants in cm-1:     0.154011     0.080858     0.079602
Rotational constants in MHz :  4617.134198  2424.070332  2386.404775

                             ****ORCA TERMINATED NORMALLY****
TOTAL RUN TIME: 0 days 0 hours 0 minutes 18 seconds 763 msec
