                         Program Version 5.0.0 -  RELEASE  -
|  1> !LC-BLYP RIJCOSX def2-SVPD def2/J TightSCF
|  2> *xyz 0 1
|  3> C          1.96337       -1.74915       -1.89689
|  4> N          2.73849       -2.01517       -3.09711
|  5> C          4.04974       -2.15472       -3.15204
|  6> N          4.65821       -1.98629       -4.31866
|  7> C          4.76423       -2.45444       -2.05049
|  8> H          4.28736       -2.77626       -1.21750
|  9> H          5.75082       -2.65835       -2.12599
| 10> H          2.34518       -1.69027       -3.97145
| 11> H          4.10900       -1.59268       -5.07176
| 12> H          5.64910       -2.15646       -4.42724
| 13> C          2.08852       -0.30091       -1.41520
| 14> H          2.23127       -2.45162       -1.10264
| 15> H          0.93025       -1.97780       -2.15544
| 16> H          1.82118        0.36368       -2.21003
| 17> H          3.09792       -0.11068       -1.11551
| 18> H          1.43391       -0.14382       -0.58352
| 19> *
| 20> %MaxCore 64000
| 21>
| 22> %pal nprocs 4
| 23> end
| 24>
| 25> %scf
| 26>   MaxIter 150
| 27> end
| 28>
| 29>
| 30>                          ****END OF INPUT****

CARTESIAN COORDINATES (ANGSTROEM)
---------------------------------
  C      1.963370   -1.749150   -1.896890
  N      2.738490   -2.015170   -3.097110
  C      4.049740   -2.154720   -3.152040
  N      4.658210   -1.986290   -4.318660
  C      4.764230   -2.454440   -2.050490
  H      4.287360   -2.776260   -1.217500
  H      5.750820   -2.658350   -2.125990
  H      2.345180   -1.690270   -3.971450
  H      4.109000   -1.592680   -5.071760
  H      5.649100   -2.156460   -4.427240
  C      2.088520   -0.300910   -1.415200
  H      2.231270   -2.451620   -1.102640
  H      0.930250   -1.977800   -2.155440
  H      1.821180    0.363680   -2.210030
  H      3.097920   -0.110680   -1.115510
  H      1.433910   -0.143820   -0.583520

 Total Charge           Charge          ....    0
 Multiplicity           Mult            ....    1
 Number of Electrons    NEL             ....   48
 Basis Dimension        Dim             ....  200

ORBITAL ENERGIES
----------------

  NO   OCC          E(Eh)            E(eV)
   0   2.0000     -14.191586      -386.1727
   1   2.0000     -14.190844      -386.1525
   2   2.0000     -10.134574      -275.7758
   3   2.0000     -10.118286      -275.3326
   4   2.0000     -10.067540      -273.9517
   5   2.0000      -9.998530      -272.0738
   6   2.0000      -1.069454       -29.1013
   7   2.0000      -0.982101       -26.7243
   8   2.0000      -0.856685       -23.3116
   9   2.0000      -0.809980       -22.0407
  10   2.0000      -0.747630       -20.3440
  11   2.0000      -0.665200       -18.1010
  12   2.0000      -0.654651       -17.8140
  13   2.0000      -0.628051       -17.0901
  14   2.0000      -0.574106       -15.6222
  15   2.0000      -0.544490       -14.8163
  16   2.0000      -0.524250       -14.2656
  17   2.0000      -0.500906       -13.6304
  18   2.0000      -0.481490       -13.1020
  19   2.0000      -0.469667       -12.7803
  20   2.0000      -0.465741       -12.6734
  21   2.0000      -0.444392       -12.0925
  22   2.0000      -0.350844        -9.5470
  23   2.0000      -0.260102        -7.0777
  24   0.0000       0.067691         1.8420
  25   0.0000       0.091109         2.4792
  26   0.0000       0.102550         2.7905
  27   0.0000       0.105707         2.8764
  28   0.0000       0.135900         3.6980

MULLIKEN ATOMIC CHARGES
-----------------------
   0 C :    0.367535
   1 N :   -0.140600
   2 C :    0.476290
   3 N :    0.261324
   4 C :    0.534167
   5 H :   -0.191517
   6 H :   -0.697410
   7 H :   -0.297843
   8 H :   -0.180486
   9 H :   -0.130905
  10 C :    0.942801
  11 H :   -0.080290
  12 H :   -0.435037
  13 H :   -0.153235
  14 H :   -0.158484
  15 H :   -0.116309
Sum of atomic charges:    0.0000000

LOEWDIN ATOMIC CHARGES
----------------------
   0 C :   -0.000589
   1 N :   -0.008417
   2 C :   -0.260202
   3 N :    0.196375
   4 C :    0.152472
   5 H :   -0.110489
   6 H :   -0.103549
   7 H :    0.018594
   8 H :   -0.010180
   9 H :    0.011201
  10 C :    0.127122
  11 H :    0.020991
  12 H :    0.021814
  13 H :   -0.018429
  14 H :   -0.020628
  15 H :   -0.016087

  Mayer bond orders larger than 0.100000
B(  0-C ,  1-N ) :   0.9916 B(  0-C ,  4-C ) :   0.1032 B(  0-C ,  7-H ) :  -0.1186
B(  0-C , 10-C ) :   1.1824 B(  0-C , 11-H ) :   0.8626 B(  0-C , 12-H ) :   0.8447
B(  0-C , 13-H ) :   0.2657 B(  0-C , 14-H ) :   0.2171 B(  0-C , 15-H ) :   0.2045
B(  1-N ,  2-C ) :   1.0279 B(  1-N ,  3-N ) :   0.1774 B(  1-N ,  4-C ) :   0.3705
B(  1-N ,  7-H ) :   1.2094 B(  1-N , 12-H ) :   0.1890 B(  2-C ,  3-N ) :   0.9880
B(  2-C ,  4-C ) :   1.5964 B(  2-C ,  5-H ) :   0.2965 B(  2-C ,  6-H ) :   0.1105
B(  2-C ,  7-H ) :  -0.2196 B(  3-N ,  4-C ) :   0.2160 B(  3-N ,  8-H ) :   1.1681
B(  3-N ,  9-H ) :   1.2377 B(  4-C ,  5-H ) :   0.5636 B(  4-C ,  6-H ) :   0.8353
B(  5-H , 11-H ) :   0.1083 B(  8-H ,  9-H ) :  -0.1859 B( 10-C , 13-H ) :   0.7439
B( 10-C , 14-H ) :   0.7998 B( 10-C , 15-H ) :   0.7601 B( 11-H , 12-H ) :  -0.1199

FINAL SINGLE POINT ENERGY      -267.009187836073

DIPOLE MOMENT
-------------
                                X             Y             Z
Electronic contribution:      1.33892      -1.82738      -3.41693
Nuclear contribution   :     -1.88803       2.22658       2.57497
                        -----------------------------------------
Total Dipole Moment    :     -0.54911       0.39920      -0.84195
                        -----------------------------------------
Magnitude (a.u.)       :      1.08156
Magnitude (Debye)      :      2.74911

Rotational constants in cm-1:     0.226509     0.075782     0.067928
Rotational constants in MHz :  6790.555051  2271.890226  2036.439218

                             ****ORCA TERMINATED NORMALLY****
TOTAL RUN TIME: 0 days 0 hours 0 minutes 24 seconds 651 msec
