                         Program Version 5.0.0 -  RELEASE  -
|  1> !LC-BLYP RIJCOSX def2-SVPD def2/J TightSCF xyzfile
|  2>
|  3> *xyzfile 0 1 D3.xyz
|  4>
|  5> %MaxCore 64000
|  6>
|  7> %pal nprocs 4
|  8> end
|  9>
| 10> %scf
| 11>   MaxIter 150
| 12> end
| 13>
| 14>
| 15>                          ****END OF INPUT****

CARTESIAN COORDINATES (ANGSTROEM)
---------------------------------
  C      1.963365   -1.749150   -1.896887
  N      2.738490   -2.015170   -3.097113
  C      0.611877    1.657634   -4.500288
  C      1.694991    1.541794   -5.570447
  H      2.697326    1.734659   -5.183996
  H      1.506656    2.272239   -6.358076
  S      1.780287   -0.033128   -6.428739
  C      4.049736   -2.154717   -3.152044
  N      4.658206   -1.986293   -4.318655
  C      4.764231   -2.454435   -2.050491
  H      4.287363   -2.776259   -1.217496
  H      5.750825   -2.658351   -2.125988
  H      2.345176   -1.690274   -3.971447
  H      4.109004   -1.592677   -5.071760
  H      5.649095   -2.156462   -4.427237
  F      2.569287    0.213657   -7.607360
  O      0.416880   -0.462969   -6.618595
  C      2.088520   -0.300912   -1.415204
  H      2.231272   -2.451616   -1.102643
  H      0.930249   -1.977801   -2.155438
  C      0.680356    0.655418   -3.348038
  H     -0.356865    1.549231   -4.991128
  H      0.650228    2.675438   -4.096000
  C      1.968993    0.733582   -2.535654
  H      3.051356   -0.168602   -0.911868
  H      1.316501   -0.136231   -0.657252
  O      2.505129   -0.933263   -5.482570
  H      2.824195    0.624726   -3.208464
  H      2.058919    1.730331   -2.093112
  H      0.542252   -0.344731   -3.766662
  H     -0.174219    0.829692   -2.685182

 Total Charge           Charge          ....    0
 Multiplicity           Mult            ....    1
 Number of Electrons    NEL             ....  120
 Basis Dimension        Dim             ....  432

ORBITAL ENERGIES
----------------

  NO   OCC          E(Eh)            E(eV)
   0   2.0000     -88.597878     -2410.8708
   1   2.0000     -24.622589      -670.0147
   2   2.0000     -19.000591      -517.0324
   3   2.0000     -18.991730      -516.7912
   4   2.0000     -14.156131      -385.2079
   5   2.0000     -14.155429      -385.1888
   6   2.0000     -10.167468      -276.6709
   7   2.0000     -10.125762      -275.5360
   8   2.0000     -10.110268      -275.1144
   9   2.0000     -10.100253      -274.8419
  10   2.0000     -10.096395      -274.7369
  11   2.0000     -10.084015      -274.4000
  12   2.0000     -10.071974      -274.0723
  13   2.0000      -9.975761      -271.4543
  14   2.0000      -8.146350      -221.6735
  15   2.0000      -6.185141      -168.3063
  16   2.0000      -6.178757      -168.1325
  17   2.0000      -6.176655      -168.0753
  18   2.0000      -1.488931       -40.5159
  19   2.0000      -1.235564       -33.6214
  20   2.0000      -1.131264       -30.7833
  21   2.0000      -1.041626       -28.3441
  22   2.0000      -0.963468       -26.2173
  23   2.0000      -0.954968       -25.9860
  24   2.0000      -0.904134       -24.6027
  25   2.0000      -0.867444       -23.6043
  26   2.0000      -0.831501       -22.6263
  27   2.0000      -0.793237       -21.5851
  28   2.0000      -0.786252       -21.3950
  29   2.0000      -0.749003       -20.3814
  30   2.0000      -0.724740       -19.7212
  31   2.0000      -0.711363       -19.3572
  32   2.0000      -0.697435       -18.9782
  33   2.0000      -0.676919       -18.4199
  34   2.0000      -0.646689       -17.5973
  35   2.0000      -0.632460       -17.2101
  36   2.0000      -0.624458       -16.9924
  37   2.0000      -0.617145       -16.7934
  38   2.0000      -0.602900       -16.4057
  39   2.0000      -0.588708       -16.0196
  40   2.0000      -0.565888       -15.3986
  41   2.0000      -0.564541       -15.3619
  42   2.0000      -0.548008       -14.9120
  43   2.0000      -0.530522       -14.4362
  44   2.0000      -0.525498       -14.2995
  45   2.0000      -0.521567       -14.1926
  46   2.0000      -0.494178       -13.4473
  47   2.0000      -0.488461       -13.2917
  48   2.0000      -0.476004       -12.9527
  49   2.0000      -0.469542       -12.7769
  50   2.0000      -0.465463       -12.6659
  51   2.0000      -0.451932       -12.2977
  52   2.0000      -0.449495       -12.2314
  53   2.0000      -0.443250       -12.0614
  54   2.0000      -0.435475       -11.8499
  55   2.0000      -0.429003       -11.6738
  56   2.0000      -0.424781       -11.5589
  57   2.0000      -0.412447       -11.2232
  58   2.0000      -0.322970        -8.7885
  59   2.0000      -0.236671        -6.4401
  60   0.0000       0.031482         0.8567
  61   0.0000       0.056465         1.5365
  62   0.0000       0.062211         1.6929
  63   0.0000       0.075369         2.0509
  64   0.0000       0.084600         2.3021

MULLIKEN ATOMIC CHARGES
-----------------------
   0 C :    1.036310
   1 N :    0.452047
   2 C :    0.603791
   3 C :    0.270964
   4 H :    0.035492
   5 H :   -0.176364
   6 S :    1.389224
   7 C :    0.491956
   8 N :    0.678894
   9 C :    0.578502
  10 H :   -0.096661
  11 H :   -0.811811
  12 H :   -1.004060
  13 H :   -0.416076
  14 H :   -0.276488
  15 F :   -0.389812
  16 O :   -0.594011
  17 C :    0.686083
  18 H :   -0.443119
  19 H :   -0.260353
  20 C :    0.212389
  21 H :   -0.088216
  22 H :   -0.109371
  23 C :    0.216621
  24 H :   -0.205267
  25 H :   -0.119392
  26 O :   -0.711237
  27 H :   -0.066393
  28 H :   -0.414580
  29 H :   -0.192899
  30 H :   -0.276164
Sum of atomic charges:    0.0000000

LOEWDIN ATOMIC CHARGES
----------------------
   0 C :    0.049749
   1 N :    0.023967
   2 C :   -0.027766
   3 C :   -0.053673
   4 H :    0.030356
   5 H :    0.028012
   6 S :    1.144751
   7 C :   -0.239432
   8 N :    0.217905
   9 C :    0.143447
  10 H :   -0.117485
  11 H :   -0.110332
  12 H :   -0.088486
  13 H :   -0.099142
  14 H :    0.007722
  15 F :   -0.217655
  16 O :   -0.415142
  17 C :   -0.019371
  18 H :    0.018815
  19 H :    0.021115
  20 C :   -0.031457
  21 H :    0.035741
  22 H :    0.046130
  23 C :   -0.038364
  24 H :    0.023202
  25 H :    0.025676
  26 O :   -0.454720
  27 H :    0.012204
  28 H :    0.030436
  29 H :    0.011606
  30 H :    0.042189

  Mayer bond orders larger than 0.100000
B(  0-C ,  1-N ) :   1.0567 B(  0-C ,  7-C ) :  -0.1095 B(  0-C ,  9-C ) :   0.1007
B(  0-C , 12-H ) :  -0.4154 B(  0-C , 17-C ) :   0.9938 B(  0-C , 18-H ) :   0.8220
B(  0-C , 19-H ) :   0.6406 B(  0-C , 23-C ) :   0.1653 B(  0-C , 25-H ) :   0.1133
B(  1-N ,  7-C ) :   0.9763 B(  1-N ,  9-C ) :   0.5015 B(  1-N , 12-H ) :   0.8166
B(  1-N , 13-H ) :   0.1189 B(  1-N , 19-H ) :   0.1621 B(  2-C ,  3-C ) :   1.2599
B(  2-C ,  4-H ) :   0.1122 B(  2-C ,  5-H ) :   0.2150 B(  2-C , 20-C ) :   1.2227
B(  2-C , 21-H ) :   0.5771 B(  2-C , 22-H ) :   0.7353 B(  3-C ,  4-H ) :   0.8643
B(  3-C ,  5-H ) :   0.7398 B(  3-C ,  6-S ) :   0.9931 B(  3-C , 21-H ) :   0.1224
B(  3-C , 22-H ) :   0.1701 B(  6-S , 15-F ) :   0.7300 B(  6-S , 16-O ) :   1.5584
B(  6-S , 26-O ) :   1.3970 B(  7-C ,  8-N ) :   0.9136 B(  7-C ,  9-C ) :   1.3933
B(  7-C , 10-H ) :   0.3471 B(  7-C , 11-H ) :   0.2554 B(  7-C , 12-H ) :  -0.4106
B(  7-C , 14-H ) :  -0.1708 B(  7-C , 19-H ) :   0.1041 B(  8-N ,  9-C ) :   0.2139
B(  8-N , 13-H ) :   1.0285 B(  8-N , 14-H ) :   1.2802 B(  9-C , 10-H ) :   0.5258
B(  9-C , 11-H ) :   0.6247 B(  9-C , 12-H ) :  -0.1470 B(  9-C , 19-H ) :  -0.1053
B( 10-H , 18-H ) :   0.1738 B( 10-H , 19-H ) :  -0.1314 B( 12-H , 19-H ) :   0.1290
B( 12-H , 23-C ) :  -0.1011 B( 12-H , 26-O ) :   0.2383 B( 12-H , 27-H ) :   0.1239
B( 12-H , 28-H ) :  -0.1233 B( 13-H , 14-H ) :  -0.2093 B( 13-H , 26-O ) :   0.2252
B( 16-O , 26-O ) :   0.1282 B( 17-C , 18-H ) :   0.1171 B( 17-C , 19-H ) :   0.1043
B( 17-C , 23-C ) :   1.2221 B( 17-C , 24-H ) :   0.7076 B( 17-C , 25-H ) :   0.7765
B( 17-C , 27-H ) :   0.1042 B( 18-H , 19-H ) :  -0.2547 B( 19-H , 23-C ) :  -0.1009
B( 19-H , 29-H ) :   0.1030 B( 20-C , 21-H ) :   0.3361 B( 20-C , 23-C ) :   1.1596
B( 20-C , 27-H ) :   0.1474 B( 20-C , 28-H ) :   0.1636 B( 20-C , 29-H ) :   0.9252
B( 20-C , 30-H ) :   0.7805 B( 21-H , 22-H ) :  -0.1207 B( 23-C , 24-H ) :   0.2793
B( 23-C , 25-H ) :   0.1318 B( 23-C , 27-H ) :   0.8293 B( 23-C , 28-H ) :   0.8173
B( 23-C , 29-H ) :   0.1087 B( 23-C , 30-H ) :   0.1510 B( 24-H , 25-H ) :  -0.1349

FINAL SINGLE POINT ENERGY     -1070.598522916184

DIPOLE MOMENT
-------------
                                X             Y             Z
Electronic contribution:     -1.13638      -0.15171     -24.50670
Nuclear contribution   :      0.44707       2.53104      23.12246
                        -----------------------------------------
Total Dipole Moment    :     -0.68931       2.37934      -1.38423
                        -----------------------------------------
Magnitude (a.u.)       :      2.83769
Magnitude (Debye)      :      7.21284

Rotational constants in cm-1:     0.028906     0.014696     0.011110
Rotational constants in MHz :   866.591909   440.585554   333.081943

                             ****ORCA TERMINATED NORMALLY****
TOTAL RUN TIME: 0 days 0 hours 3 minutes 24 seconds 143 msec
