                         Program Version 5.0.0 -  RELEASE  -
|  1> !LC-BLYP RIJCOSX def2-SVPD def2/J TightSCF xyzfile
|  2>
|  3> *xyzfile 0 1 D9.xyz
|  4>
|  5> %MaxCore 64000
|  6>
|  7> %pal nprocs 4
|  8> end
|  9>
| 10> %scf
| 11>   MaxIter 150
| 12> end
| 13>
| 14>
| 15>                          ****END OF INPUT****

CARTESIAN COORDINATES (ANGSTROEM)
---------------------------------
  C      1.963365   -1.749150   -1.896887
  N      2.738490   -2.015170   -3.097113
  C      0.611877    1.657634   -4.500288
  C      1.694991    1.541794   -5.570447
  H      2.697326    1.734659   -5.183996
  H      1.506656    2.272239   -6.358076
  S      1.780287   -0.033128   -6.428739
  C      4.049736   -2.154717   -3.152044
  N      4.658206   -1.986293   -4.318655
  C      4.764231   -2.454435   -2.050491
  H      4.287363   -2.776259   -1.217496
  H      5.750825   -2.658351   -2.125988
  H      2.345176   -1.690274   -3.971447
  H      4.109004   -1.592677   -5.071760
  H      5.649095   -2.156462   -4.427237
  O      2.569287    0.213657   -7.607360
  O      0.416880   -0.462969   -6.618595
  C      2.088520   -0.300912   -1.415204
  H      2.231272   -2.451616   -1.102643
  H      0.930249   -1.977801   -2.155438
  C      0.680356    0.655418   -3.348038
  H     -0.356865    1.549231   -4.991128
  H      0.650228    2.675438   -4.096000
  C      1.968993    0.733582   -2.535654
  H      3.051356   -0.168602   -0.911868
  H      1.316501   -0.136231   -0.657252
  F      2.505129   -0.933263   -5.482570
  H      2.824195    0.624726   -3.208464
  H      2.058919    1.730331   -2.093112
  H      0.542252   -0.344731   -3.766662
  H     -0.174219    0.829692   -2.685182

 Total Charge           Charge          ....    0
 Multiplicity           Mult            ....    1
 Number of Electrons    NEL             ....  120
 Basis Dimension        Dim             ....  432

ORBITAL ENERGIES
----------------

  NO   OCC          E(Eh)            E(eV)
   0   2.0000     -88.584167     -2410.4977
   1   2.0000     -24.604527      -669.5232
   2   2.0000     -18.992047      -516.7999
   3   2.0000     -18.991703      -516.7905
   4   2.0000     -14.186670      -386.0389
   5   2.0000     -14.185889      -386.0177
   6   2.0000     -10.160467      -276.4804
   7   2.0000     -10.133659      -275.7509
   8   2.0000     -10.123037      -275.4618
   9   2.0000     -10.118824      -275.3472
  10   2.0000     -10.106434      -275.0101
  11   2.0000     -10.097204      -274.7589
  12   2.0000     -10.086246      -274.4607
  13   2.0000      -9.997788      -272.0536
  14   2.0000      -8.132923      -221.3081
  15   2.0000      -6.172068      -167.9505
  16   2.0000      -6.164942      -167.7566
  17   2.0000      -6.163316      -167.7124
  18   2.0000      -1.455517       -39.6066
  19   2.0000      -1.237062       -33.6622
  20   2.0000      -1.138868       -30.9902
  21   2.0000      -1.070018       -29.1167
  22   2.0000      -0.984065       -26.7778
  23   2.0000      -0.959939       -26.1213
  24   2.0000      -0.908985       -24.7348
  25   2.0000      -0.872238       -23.7348
  26   2.0000      -0.843032       -22.9401
  27   2.0000      -0.803513       -21.8647
  28   2.0000      -0.801850       -21.8195
  29   2.0000      -0.750750       -20.4290
  30   2.0000      -0.716922       -19.5084
  31   2.0000      -0.711106       -19.3502
  32   2.0000      -0.692421       -18.8417
  33   2.0000      -0.673788       -18.3347
  34   2.0000      -0.653065       -17.7708
  35   2.0000      -0.649005       -17.6603
  36   2.0000      -0.626980       -17.0610
  37   2.0000      -0.618155       -16.8209
  38   2.0000      -0.611273       -16.6336
  39   2.0000      -0.593921       -16.1614
  40   2.0000      -0.580628       -15.7997
  41   2.0000      -0.570945       -15.5362
  42   2.0000      -0.554394       -15.0858
  43   2.0000      -0.545726       -14.8500
  44   2.0000      -0.534767       -14.5518
  45   2.0000      -0.519394       -14.1334
  46   2.0000      -0.507752       -13.8166
  47   2.0000      -0.504707       -13.7338
  48   2.0000      -0.485477       -13.2105
  49   2.0000      -0.477665       -12.9979
  50   2.0000      -0.473994       -12.8980
  51   2.0000      -0.467069       -12.7096
  52   2.0000      -0.461329       -12.5534
  53   2.0000      -0.450566       -12.2605
  54   2.0000      -0.443141       -12.0585
  55   2.0000      -0.440730       -11.9929
  56   2.0000      -0.437578       -11.9071
  57   2.0000      -0.426756       -11.6126
  58   2.0000      -0.349571        -9.5123
  59   2.0000      -0.259663        -7.0658
  60   0.0000       0.044770         1.2182
  61   0.0000       0.063167         1.7188
  62   0.0000       0.064586         1.7575
  63   0.0000       0.073117         1.9896
  64   0.0000       0.092108         2.5064

MULLIKEN ATOMIC CHARGES
-----------------------
   0 C :    1.049371
   1 N :    0.423729
   2 C :    0.663802
   3 C :    0.289862
   4 H :    0.035527
   5 H :   -0.246559
   6 S :    1.294344
   7 C :    0.490970
   8 N :    0.713203
   9 C :    0.584438
  10 H :   -0.081535
  11 H :   -0.797942
  12 H :   -0.982061
  13 H :   -0.452494
  14 H :   -0.245411
  15 O :   -0.556614
  16 O :   -0.619067
  17 C :    0.675311
  18 H :   -0.431487
  19 H :   -0.260931
  20 C :    0.216288
  21 H :   -0.098735
  22 H :   -0.105701
  23 C :    0.183697
  24 H :   -0.204832
  25 H :   -0.124932
  26 F :   -0.483221
  27 H :   -0.060527
  28 H :   -0.394772
  29 H :   -0.240631
  30 H :   -0.233091
Sum of atomic charges:   -0.0000000

LOEWDIN ATOMIC CHARGES
----------------------
   0 C :    0.051768
   1 N :    0.018177
   2 C :   -0.038065
   3 C :   -0.048141
   4 H :    0.028196
   5 H :    0.040755
   6 S :    1.088568
   7 C :   -0.240729
   8 N :    0.219463
   9 C :    0.154559
  10 H :   -0.110558
  11 H :   -0.102793
  12 H :   -0.061129
  13 H :   -0.067545
  14 H :    0.016469
  15 O :   -0.423570
  16 O :   -0.421313
  17 C :   -0.017811
  18 H :    0.022168
  19 H :    0.023274
  20 C :   -0.035607
  21 H :    0.035803
  22 H :    0.043709
  23 C :   -0.040748
  24 H :    0.024688
  25 H :    0.028589
  26 F :   -0.281815
  27 H :    0.009007
  28 H :    0.033907
  29 H :    0.007062
  30 H :    0.043660

  Mayer bond orders larger than 0.100000
B(  0-C ,  1-N ) :   1.0435 B(  0-C ,  7-C ) :  -0.1084 B(  0-C ,  9-C ) :   0.1012
B(  0-C , 12-H ) :  -0.4070 B(  0-C , 17-C ) :   0.9931 B(  0-C , 18-H ) :   0.8173
B(  0-C , 19-H ) :   0.6417 B(  0-C , 23-C ) :   0.1621 B(  0-C , 25-H ) :   0.1000
B(  1-N ,  7-C ) :   0.9798 B(  1-N ,  9-C ) :   0.5094 B(  1-N , 12-H ) :   0.8538
B(  1-N , 13-H ) :   0.1089 B(  1-N , 19-H ) :   0.1771 B(  1-N , 26-F ) :  -0.1008
B(  2-C ,  3-C ) :   1.2189 B(  2-C ,  4-H ) :   0.1258 B(  2-C ,  5-H ) :   0.1928
B(  2-C , 20-C ) :   1.2284 B(  2-C , 21-H ) :   0.5744 B(  2-C , 22-H ) :   0.7155
B(  3-C ,  4-H ) :   0.8717 B(  3-C ,  5-H ) :   0.7350 B(  3-C ,  6-S ) :   1.0082
B(  3-C , 20-C ) :   0.1057 B(  3-C , 21-H ) :   0.1353 B(  3-C , 22-H ) :   0.1577
B(  5-H ,  6-S ) :   0.1194 B(  6-S , 15-O ) :   1.6274 B(  6-S , 16-O ) :   1.5344
B(  6-S , 26-F ) :   0.6803 B(  7-C ,  8-N ) :   0.8924 B(  7-C ,  9-C ) :   1.4183
B(  7-C , 10-H ) :   0.3497 B(  7-C , 11-H ) :   0.2300 B(  7-C , 12-H ) :  -0.4469
B(  7-C , 14-H ) :  -0.1691 B(  7-C , 19-H ) :   0.1058 B(  8-N ,  9-C ) :   0.2300
B(  8-N , 13-H ) :   1.0146 B(  8-N , 14-H ) :   1.2615 B(  9-C , 10-H ) :   0.5180
B(  9-C , 11-H ) :   0.6560 B(  9-C , 12-H ) :  -0.1570 B( 10-H , 18-H ) :   0.1773
B( 10-H , 19-H ) :  -0.1312 B( 12-H , 19-H ) :   0.1188 B( 12-H , 27-H ) :   0.1011
B( 12-H , 28-H ) :  -0.1018 B( 13-H , 14-H ) :  -0.1832 B( 13-H , 26-F ) :   0.2261
B( 17-C , 18-H ) :   0.1192 B( 17-C , 19-H ) :   0.1024 B( 17-C , 23-C ) :   1.2095
B( 17-C , 24-H ) :   0.7138 B( 17-C , 25-H ) :   0.7891 B( 17-C , 27-H ) :   0.1144
B( 18-H , 19-H ) :  -0.2589 B( 19-H , 29-H ) :   0.1009 B( 20-C , 21-H ) :   0.3381
B( 20-C , 23-C ) :   1.1772 B( 20-C , 27-H ) :   0.1261 B( 20-C , 28-H ) :   0.1641
B( 20-C , 29-H ) :   0.9123 B( 20-C , 30-H ) :   0.7696 B( 21-H , 22-H ) :  -0.1211
B( 23-C , 24-H ) :   0.2788 B( 23-C , 25-H ) :   0.1347 B( 23-C , 27-H ) :   0.8319
B( 23-C , 28-H ) :   0.8413 B( 23-C , 30-H ) :   0.1711 B( 24-H , 25-H ) :  -0.1312

FINAL SINGLE POINT ENERGY     -1070.608259241483

DIPOLE MOMENT
-------------
                                X             Y             Z
Electronic contribution:     -1.05742      -2.32028     -20.27757
Nuclear contribution   :      0.52036       3.84122      20.69523
                        -----------------------------------------
Total Dipole Moment    :     -0.53706       1.52094       0.41766
                        -----------------------------------------
Magnitude (a.u.)       :      1.66618
Magnitude (Debye)      :      4.23508

Rotational constants in cm-1:     0.029184     0.014996     0.011314
Rotational constants in MHz :   874.907122   449.569665   339.178205

                             ****ORCA TERMINATED NORMALLY****
TOTAL RUN TIME: 0 days 0 hours 3 minutes 28 seconds 66 msec
