                         Program Version 5.0.0 -  RELEASE  -
|  1> !LC-BLYP RIJCOSX def2-SVPD def2/J TightSCF
|  2> *xyz -1 1
|  3> C         -0.25875        1.00432       -5.40983
|  4> C          0.39596       -0.37070       -5.33994
|  5> O         -0.32633       -1.39040       -5.49128
|  6> O          1.61941       -0.40073       -5.03683
|  7> H         -1.28979        0.89539       -5.67439
|  8> H          0.23798        1.59877       -6.14792
|  9> H         -0.18395        1.48386       -4.45623
| 10> *
| 11> %MaxCore 64000
| 12>
| 13> %pal nprocs 4
| 14> end
| 15>
| 16> %scf
| 17>   MaxIter 150
| 18> end
| 19>
| 20>
| 21>                          ****END OF INPUT****

CARTESIAN COORDINATES (ANGSTROEM)
---------------------------------
  C     -0.258750    1.004320   -5.409830
  C      0.395960   -0.370700   -5.339940
  O     -0.326330   -1.390400   -5.491280
  O      1.619410   -0.400730   -5.036830
  H     -1.289790    0.895390   -5.674390
  H      0.237980    1.598770   -6.147920
  H     -0.183950    1.483860   -4.456230

 Total Charge           Charge          ....   -1
 Multiplicity           Mult            ....    1
 Number of Electrons    NEL             ....   32
 Basis Dimension        Dim             ....  110

ORBITAL ENERGIES
----------------

  NO   OCC          E(Eh)            E(eV)
   0   2.0000     -18.694615      -508.7063
   1   2.0000     -18.692020      -508.6357
   2   2.0000      -9.975367      -271.4435
   3   2.0000      -9.901010      -269.4202
   4   2.0000      -0.903175       -24.5766
   5   2.0000      -0.806961       -21.9585
   6   2.0000      -0.650792       -17.7089
   7   2.0000      -0.407779       -11.0962
   8   2.0000      -0.369816       -10.0632
   9   2.0000      -0.351518        -9.5653
  10   2.0000      -0.329481        -8.9656
  11   2.0000      -0.286078        -7.7846
  12   2.0000      -0.272016        -7.4019
  13   2.0000      -0.147425        -4.0116
  14   2.0000      -0.143740        -3.9114
  15   2.0000      -0.125633        -3.4187
  16   0.0000       0.220832         6.0091
  17   0.0000       0.257520         7.0075
  18   0.0000       0.280309         7.6276
  19   0.0000       0.291747         7.9388
  20   0.0000       0.316405         8.6098

MULLIKEN ATOMIC CHARGES
-----------------------
   0 C :    0.707634
   1 C :   -0.195706
   2 O :   -0.531174
   3 O :   -0.561502
   4 H :   -0.148878
   5 H :   -0.132921
   6 H :   -0.137454
Sum of atomic charges:   -1.0000000

LOEWDIN ATOMIC CHARGES
----------------------
   0 C :    0.130981
   1 C :   -0.374666
   2 O :   -0.324544
   3 O :   -0.330828
   4 H :   -0.038784
   5 H :   -0.032483
   6 H :   -0.029676

  Mayer bond orders larger than 0.100000
B(  0-C ,  1-C ) :   1.1851 B(  0-C ,  4-H ) :   0.8127 B(  0-C ,  5-H ) :   0.7625
B(  0-C ,  6-H ) :   0.7784 B(  1-C ,  2-O ) :   1.6242 B(  1-C ,  3-O ) :   1.6300
B(  1-C ,  4-H ) :   0.2852 B(  1-C ,  5-H ) :   0.1995 B(  1-C ,  6-H ) :   0.1852

FINAL SINGLE POINT ENERGY      -227.894511434756

DIPOLE MOMENT
-------------
                                X             Y             Z
Electronic contribution:      1.49681      -3.17448       0.18060
Nuclear contribution   :     -2.15615       4.52621      -0.30445
                        -----------------------------------------
Total Dipole Moment    :     -0.65933       1.35173      -0.12385
                        -----------------------------------------
Magnitude (a.u.)       :      1.50905
Magnitude (Debye)      :      3.83569

Rotational constants in cm-1:     0.393591     0.332639     0.186460
Rotational constants in MHz : 11799.557437  9972.275109  5589.926304

                             ****ORCA TERMINATED NORMALLY****
TOTAL RUN TIME: 0 days 0 hours 0 minutes 8 seconds 882 msec
