                         Program Version 5.0.0 -  RELEASE  -
|  1> !LC-BLYP RIJCOSX def2-SVPD def2/J TightSCF
|  2> *xyz 0 1
|  3> C         -0.25875        1.00432       -5.40983
|  4> C          0.39596       -0.37070       -5.33994
|  5> F         -0.32633       -1.39040       -5.49128
|  6> O          1.61941       -0.40073       -5.03683
|  7> H         -1.28979        0.89539       -5.67439
|  8> H          0.23798        1.59877       -6.14792
|  9> H         -0.18395        1.48386       -4.45623
| 10> *
| 11> %MaxCore 64000
| 12>
| 13> %pal nprocs 4
| 14> end
| 15>
| 16> %scf
| 17>   MaxIter 150
| 18> end
| 19>
| 20>
| 21>                          ****END OF INPUT****

CARTESIAN COORDINATES (ANGSTROEM)
---------------------------------
  C     -0.258750    1.004320   -5.409830
  C      0.395960   -0.370700   -5.339940
  F     -0.326330   -1.390400   -5.491280
  O      1.619410   -0.400730   -5.036830
  H     -1.289790    0.895390   -5.674390
  H      0.237980    1.598770   -6.147920
  H     -0.183950    1.483860   -4.456230

 Total Charge           Charge          ....    0
 Multiplicity           Mult            ....    1
 Number of Electrons    NEL             ....   32
 Basis Dimension        Dim             ....  110

ORBITAL ENERGIES
----------------

  NO   OCC          E(Eh)            E(eV)
   0   2.0000     -24.551427      -668.0783
   1   2.0000     -18.970320      -516.2086
   2   2.0000     -10.278299      -279.6867
   3   2.0000     -10.116594      -275.2865
   4   2.0000      -1.390589       -37.8399
   5   2.0000      -1.120519       -30.4909
   6   2.0000      -0.880632       -23.9632
   7   2.0000      -0.764452       -20.8018
   8   2.0000      -0.662232       -18.0202
   9   2.0000      -0.654590       -17.8123
  10   2.0000      -0.609276       -16.5792
  11   2.0000      -0.552378       -15.0310
  12   2.0000      -0.539498       -14.6805
  13   2.0000      -0.508396       -13.8342
  14   2.0000      -0.460228       -12.5234
  15   2.0000      -0.400135       -10.8882
  16   0.0000       0.044084         1.1996
  17   0.0000       0.061804         1.6818
  18   0.0000       0.103327         2.8117
  19   0.0000       0.137386         3.7385
  20   0.0000       0.140120         3.8129

MULLIKEN ATOMIC CHARGES
-----------------------
   0 C :    0.650756
   1 C :    0.173927
   2 F :   -0.254317
   3 O :   -0.347153
   4 H :   -0.112263
   5 H :   -0.057438
   6 H :   -0.053511
Sum of atomic charges:    0.0000000

LOEWDIN ATOMIC CHARGES
----------------------
   0 C :    0.202986
   1 C :   -0.073803
   2 F :   -0.016814
   3 O :   -0.123155
   4 H :   -0.008248
   5 H :    0.008770
   6 H :    0.010264

  Mayer bond orders larger than 0.100000
B(  0-C ,  1-C ) :   1.2430 B(  0-C ,  4-H ) :   0.8321 B(  0-C ,  5-H ) :   0.7571
B(  0-C ,  6-H ) :   0.7741 B(  1-C ,  2-F ) :   0.9293 B(  1-C ,  3-O ) :   1.9427
B(  1-C ,  4-H ) :   0.1898 B(  1-C ,  5-H ) :   0.1783 B(  1-C ,  6-H ) :   0.1607

FINAL SINGLE POINT ENERGY      -252.411653359824

DIPOLE MOMENT
-------------
                                X             Y             Z
Electronic contribution:      0.42409      -5.02230      -0.09999
Nuclear contribution   :     -1.44986       5.66477      -0.12483
                        -----------------------------------------
Total Dipole Moment    :     -1.02577       0.64247      -0.22482
                        -----------------------------------------
Magnitude (a.u.)       :      1.23106
Magnitude (Debye)      :      3.12911

Rotational constants in cm-1:     0.371735     0.317798     0.176902
Rotational constants in MHz : 11144.324945  9527.341239  5303.391856

                             ****ORCA TERMINATED NORMALLY****
TOTAL RUN TIME: 0 days 0 hours 0 minutes 8 seconds 802 msec
