                         Program Version 5.0.0 -  RELEASE  -
|  1> !LC-BLYP RIJCOSX def2-SVPD def2/J TightSCF
|  2> *xyz 0 1
|  3> C          0.81607       -2.10149       -2.18655
|  4> C          1.10055       -2.46749       -3.59927
|  5> H          1.70061       -1.75723       -4.07838
|  6> H          0.29386       -2.35977       -4.25632
|  7> H          1.50132       -3.42848       -3.69491
|  8> H          0.40947       -1.11246       -2.14929
|  9> H          1.72290       -2.13590       -1.61965
| 10> H          0.11112       -2.79271       -1.77405
| 11> *
| 12> %MaxCore 64000
| 13>
| 14> %pal nprocs 4
| 15> end
| 16>
| 17> %scf
| 18>   MaxIter 150
| 19> end
| 20>
| 21>
| 22>                          ****END OF INPUT****

CARTESIAN COORDINATES (ANGSTROEM)
---------------------------------
  C      0.816070   -2.101490   -2.186550
  C      1.100550   -2.467490   -3.599270
  H      1.700610   -1.757230   -4.078380
  H      0.293860   -2.359770   -4.256320
  H      1.501320   -3.428480   -3.694910
  H      0.409470   -1.112460   -2.149290
  H      1.722900   -2.135900   -1.619650
  H      0.111120   -2.792710   -1.774050

 Total Charge           Charge          ....    0
 Multiplicity           Mult            ....    1
 Number of Electrons    NEL             ....   18
 Basis Dimension        Dim             ....   88

ORBITAL ENERGIES
----------------

  NO   OCC          E(Eh)            E(eV)
   0   2.0000     -10.064399      -273.8662
   1   2.0000     -10.055799      -273.6322
   2   2.0000      -0.870355       -23.6836
   3   2.0000      -0.726060       -19.7571
   4   2.0000      -0.559249       -15.2179
   5   2.0000      -0.540840       -14.7170
   6   2.0000      -0.477508       -12.9937
   7   2.0000      -0.449457       -12.2303
   8   2.0000      -0.428639       -11.6638
   9   0.0000       0.079127         2.1532
  10   0.0000       0.108564         2.9542
  11   0.0000       0.159047         4.3279
  12   0.0000       0.164570         4.4782
  13   0.0000       0.181320         4.9340

MULLIKEN ATOMIC CHARGES
-----------------------
   0 C :    0.548880
   1 C :    0.620183
   2 H :   -0.247927
   3 H :   -0.261904
   4 H :   -0.241102
   5 H :   -0.130518
   6 H :   -0.140681
   7 H :   -0.146930
Sum of atomic charges:    0.0000000

LOEWDIN ATOMIC CHARGES
----------------------
   0 C :    0.065958
   1 C :    0.054658
   2 H :   -0.029058
   3 H :   -0.029381
   4 H :   -0.021286
   5 H :   -0.012979
   6 H :   -0.013306
   7 H :   -0.014606

  Mayer bond orders larger than 0.100000
B(  0-C ,  1-C ) :   1.4120 B(  0-C ,  2-H ) :   0.1595 B(  0-C ,  3-H ) :   0.1445
B(  0-C ,  4-H ) :   0.1682 B(  0-C ,  5-H ) :   0.8136 B(  0-C ,  6-H ) :   0.7905
B(  0-C ,  7-H ) :   0.8074 B(  1-C ,  2-H ) :   0.7130 B(  1-C ,  3-H ) :   0.7168
B(  1-C ,  4-H ) :   0.7711 B(  1-C ,  5-H ) :   0.1887 B(  1-C ,  6-H ) :   0.1845
B(  1-C ,  7-H ) :   0.1776 B(  2-H ,  3-H ) :   0.2716

FINAL SINGLE POINT ENERGY       -79.488567779170

DIPOLE MOMENT
-------------
                                X             Y             Z
Electronic contribution:      0.00417      -0.06855       0.12256
Nuclear contribution   :     -0.00793       0.09023      -0.16124
                        -----------------------------------------
Total Dipole Moment    :     -0.00376       0.02168      -0.03868
                        -----------------------------------------
Magnitude (a.u.)       :      0.04450
Magnitude (Debye)      :      0.11311

Rotational constants in cm-1:     2.876169     0.710562     0.698917
Rotational constants in MHz : 86225.370734 21302.115394 20952.991121

                             ****ORCA TERMINATED NORMALLY****
TOTAL RUN TIME: 0 days 0 hours 0 minutes 5 seconds 193 msec
