                         Program Version 5.0.0 -  RELEASE  -
|  1> !LC-BLYP RIJCOSX def2-SVPD def2/J TightSCF
|  2> *xyz 0 1
|  3> C         -0.25875        1.00432       -5.40983
|  4> C          0.39596       -0.37070       -5.33994
|  5> O         -0.32633       -1.39040       -5.49128
|  6> F          1.61941       -0.40073       -5.03683
|  7> H         -1.28979        0.89539       -5.67439
|  8> H          0.23798        1.59877       -6.14792
|  9> H         -0.18395        1.48386       -4.45623
| 10> *
| 11> %MaxCore 64000
| 12>
| 13> %pal nprocs 4
| 14> end
| 15>
| 16> %scf
| 17>   MaxIter 150
| 18> end
| 19>
| 20>
| 21>                          ****END OF INPUT****

CARTESIAN COORDINATES (ANGSTROEM)
---------------------------------
  C     -0.258750    1.004320   -5.409830
  C      0.395960   -0.370700   -5.339940
  O     -0.326330   -1.390400   -5.491280
  F      1.619410   -0.400730   -5.036830
  H     -1.289790    0.895390   -5.674390
  H      0.237980    1.598770   -6.147920
  H     -0.183950    1.483860   -4.456230

 Total Charge           Charge          ....    0
 Multiplicity           Mult            ....    1
 Number of Electrons    NEL             ....   32
 Basis Dimension        Dim             ....  110

ORBITAL ENERGIES
----------------

  NO   OCC          E(Eh)            E(eV)
   0   2.0000     -24.549380      -668.0226
   1   2.0000     -18.972103      -516.2572
   2   2.0000     -10.278185      -279.6836
   3   2.0000     -10.116417      -275.2817
   4   2.0000      -1.388339       -37.7786
   5   2.0000      -1.122011       -30.5315
   6   2.0000      -0.881676       -23.9916
   7   2.0000      -0.762594       -20.7512
   8   2.0000      -0.661781       -18.0080
   9   2.0000      -0.653256       -17.7760
  10   2.0000      -0.608748       -16.5649
  11   2.0000      -0.550953       -14.9922
  12   2.0000      -0.539879       -14.6909
  13   2.0000      -0.508487       -13.8366
  14   2.0000      -0.464468       -12.6388
  15   2.0000      -0.401047       -10.9130
  16   0.0000       0.047414         1.2902
  17   0.0000       0.062348         1.6966
  18   0.0000       0.103240         2.8093
  19   0.0000       0.134736         3.6663
  20   0.0000       0.142415         3.8753

MULLIKEN ATOMIC CHARGES
-----------------------
   0 C :    0.666916
   1 C :    0.185713
   2 O :   -0.319698
   3 F :   -0.281727
   4 H :   -0.124927
   5 H :   -0.064396
   6 H :   -0.061882
Sum of atomic charges:   -0.0000000

LOEWDIN ATOMIC CHARGES
----------------------
   0 C :    0.203199
   1 C :   -0.076403
   2 O :   -0.118590
   3 F :   -0.019873
   4 H :    0.004300
   5 H :    0.002067
   6 H :    0.005299

  Mayer bond orders larger than 0.100000
B(  0-C ,  1-C ) :   1.2230 B(  0-C ,  4-H ) :   0.8308 B(  0-C ,  5-H ) :   0.7625
B(  0-C ,  6-H ) :   0.7733 B(  1-C ,  2-O ) :   1.9714 B(  1-C ,  3-F ) :   0.8882
B(  1-C ,  4-H ) :   0.2451 B(  1-C ,  5-H ) :   0.1607 B(  1-C ,  6-H ) :   0.1518

FINAL SINGLE POINT ENERGY      -252.414092257736

DIPOLE MOMENT
-------------
                                X             Y             Z
Electronic contribution:      3.59476      -3.40873       0.64134
Nuclear contribution   :     -3.46039       4.64214      -0.59441
                        -----------------------------------------
Total Dipole Moment    :      0.13437       1.23342       0.04693
                        -----------------------------------------
Magnitude (a.u.)       :      1.24160
Magnitude (Debye)      :      3.15590

Rotational constants in cm-1:     0.366844     0.321935     0.177045
Rotational constants in MHz : 10997.709774  9651.373819  5307.687677

                             ****ORCA TERMINATED NORMALLY****
TOTAL RUN TIME: 0 days 0 hours 0 minutes 8 seconds 787 msec
