                         Program Version 5.0.0 -  RELEASE  -
|  1> !LC-BLYP RIJCOSX def2-SVPD def2/J TightSCF xyzfile
|  2>
|  3> *xyzfile 0 1 D2.xyz
|  4>
|  5> %MaxCore 64000
|  6>
|  7> %pal nprocs 4
|  8> end
|  9>
| 10> %scf
| 11>   MaxIter 150
| 12> end
| 13>
| 14>
| 15>                          ****END OF INPUT****

CARTESIAN COORDINATES (ANGSTROEM)
---------------------------------
  C      0.816067   -2.101491   -2.186546
  H      1.696232   -2.368691   -1.600457
  C      1.100552   -2.467492   -3.599269
  C      0.516243   -0.613634   -2.039373
  H     -0.020066   -2.712849   -1.840844
  C     -0.868621   -0.193925   -2.546303
  C     -0.984801    1.284739   -2.928686
  H     -0.764939    1.904116   -2.051568
  H     -2.032613    1.478953   -3.178952
  C     -0.106085    1.769914   -4.089836
  H     -0.347744    2.822196   -4.262942
  H      0.949683    1.745875   -3.808781
  C     -0.258747    1.004323   -5.409829
  C      0.395958   -0.370696   -5.339939
  H      0.239150    1.569393   -6.201253
  H     -1.309360    0.888694   -5.682455
  H      1.700606   -1.757225   -4.078378
  H      0.293855   -2.359766   -4.256324
  H      1.501324   -3.428479   -3.694915
  O     -0.326329   -1.390398   -5.491279
  F      1.619412   -0.400726   -5.036827
  H     -1.607271   -0.412651   -1.768955
  H     -1.157234   -0.796164   -3.409254
  H      1.299044   -0.056805   -2.558982
  H      0.612393   -0.365579   -0.979171

 Total Charge           Charge          ....    0
 Multiplicity           Mult            ....    1
 Number of Electrons    NEL             ....   80
 Basis Dimension        Dim             ....  326

ORBITAL ENERGIES
----------------

  NO   OCC          E(Eh)            E(eV)
   0   2.0000     -24.557325      -668.2388
   1   2.0000     -18.974624      -516.3258
   2   2.0000     -10.279329      -279.7148
   3   2.0000     -10.121069      -275.4083
   4   2.0000     -10.104492      -274.9572
   5   2.0000     -10.088411      -274.5196
   6   2.0000     -10.075568      -274.1702
   7   2.0000     -10.071029      -274.0466
   8   2.0000     -10.059077      -273.7214
   9   2.0000     -10.011925      -272.4383
  10   2.0000      -1.400577       -38.1116
  11   2.0000      -1.132944       -30.8290
  12   2.0000      -0.935321       -25.4514
  13   2.0000      -0.901252       -24.5243
  14   2.0000      -0.850886       -23.1538
  15   2.0000      -0.811323       -22.0772
  16   2.0000      -0.769571       -20.9411
  17   2.0000      -0.744828       -20.2678
  18   2.0000      -0.709149       -19.2969
  19   2.0000      -0.673952       -18.3392
  20   2.0000      -0.666808       -18.1448
  21   2.0000      -0.652681       -17.7603
  22   2.0000      -0.616514       -16.7762
  23   2.0000      -0.588629       -16.0174
  24   2.0000      -0.563726       -15.3398
  25   2.0000      -0.551998       -15.0206
  26   2.0000      -0.546998       -14.8846
  27   2.0000      -0.535790       -14.5796
  28   2.0000      -0.520838       -14.1727
  29   2.0000      -0.496043       -13.4980
  30   2.0000      -0.489409       -13.3175
  31   2.0000      -0.479703       -13.0534
  32   2.0000      -0.469778       -12.7833
  33   2.0000      -0.449923       -12.2430
  34   2.0000      -0.431668       -11.7463
  35   2.0000      -0.429403       -11.6846
  36   2.0000      -0.415415       -11.3040
  37   2.0000      -0.400154       -10.8887
  38   2.0000      -0.399014       -10.8577
  39   2.0000      -0.363555        -9.8928
  40   0.0000       0.035309         0.9608
  41   0.0000       0.065130         1.7723
  42   0.0000       0.087313         2.3759
  43   0.0000       0.088846         2.4176
  44   0.0000       0.092494         2.5169

MULLIKEN ATOMIC CHARGES
-----------------------
   0 C :    0.332401
   1 H :   -0.182238
   2 C :    1.814312
   3 C :    0.387637
   4 H :   -0.252848
   5 C :    0.468615
   6 C :    0.493816
   7 H :   -0.154578
   8 H :   -0.012397
   9 C :    0.248433
  10 H :   -0.315736
  11 H :   -0.027967
  12 C :    0.482697
  13 C :    0.185850
  14 H :   -0.068665
  15 H :   -0.104055
  16 H :   -0.512239
  17 H :   -0.489011
  18 H :   -0.356371
  19 O :   -0.380405
  20 F :   -0.377527
  21 H :   -0.194903
  22 H :   -0.478378
  23 H :   -0.153529
  24 H :   -0.352914
Sum of atomic charges:   -0.0000000

LOEWDIN ATOMIC CHARGES
----------------------
   0 C :   -0.058453
   1 H :    0.024555
   2 C :    0.119486
   3 C :   -0.032976
   4 H :    0.030540
   5 C :   -0.022392
   6 C :   -0.033237
   7 H :    0.031048
   8 H :    0.028913
   9 C :   -0.031566
  10 H :    0.029580
  11 H :    0.018332
  12 C :    0.060554
  13 C :   -0.011372
  14 H :    0.044746
  15 H :    0.047483
  16 H :   -0.074186
  17 H :   -0.101529
  18 H :   -0.007011
  19 O :   -0.109781
  20 F :   -0.018575
  21 H :    0.032951
  22 H :    0.001739
  23 H :    0.006576
  24 H :    0.024576

  Mayer bond orders larger than 0.100000
B(  0-C ,  1-H ) :   0.7108 B(  0-C ,  2-C ) :   0.9405 B(  0-C ,  3-C ) :   1.1656
B(  0-C ,  4-H ) :   0.7526 B(  0-C , 16-H ) :   0.3760 B(  0-C , 17-H ) :   0.3005
B(  0-C , 18-H ) :   0.1944 B(  0-C , 23-H ) :   0.1926 B(  1-H ,  3-C ) :   0.2180
B(  1-H ,  4-H ) :  -0.1626 B(  2-C ,  3-C ) :   0.1959 B(  2-C ,  4-H ) :   0.1483
B(  2-C , 18-H ) :   0.4971 B(  2-C , 23-H ) :  -0.2032 B(  2-C , 24-H ) :   0.1388
B(  3-C ,  5-C ) :   1.0956 B(  3-C , 21-H ) :   0.2699 B(  3-C , 22-H ) :   0.1379
B(  3-C , 23-H ) :   0.7443 B(  3-C , 24-H ) :   0.8406 B(  5-C ,  6-C ) :   1.2061
B(  5-C ,  7-H ) :   0.1778 B(  5-C ,  8-H ) :   0.2500 B(  5-C ,  9-C ) :   0.1499
B(  5-C , 21-H ) :   0.6903 B(  5-C , 22-H ) :   0.7023 B(  5-C , 23-H ) :   0.1214
B(  5-C , 24-H ) :   0.2238 B(  6-C ,  7-H ) :   0.7656 B(  6-C ,  8-H ) :   0.5960
B(  6-C ,  9-C ) :   1.2213 B(  6-C , 10-H ) :   0.1703 B(  6-C , 11-H ) :   0.1082
B(  6-C , 21-H ) :   0.1312 B(  6-C , 22-H ) :   0.1084 B(  7-H ,  8-H ) :  -0.1011
B(  7-H ,  9-C ) :   0.1702 B(  8-H ,  9-C ) :   0.1647 B(  9-C , 10-H ) :   0.8482
B(  9-C , 11-H ) :   0.7774 B(  9-C , 12-C ) :   1.1826 B(  9-C , 13-C ) :   0.1104
B(  9-C , 14-H ) :   0.1909 B( 10-H , 11-H ) :  -0.1574 B( 10-H , 12-C ) :   0.1269
B( 12-C , 13-C ) :   1.2098 B( 12-C , 14-H ) :   0.6496 B( 12-C , 15-H ) :   0.8190
B( 13-C , 14-H ) :   0.2015 B( 13-C , 15-H ) :   0.2531 B( 13-C , 16-H ) :   0.1418
B( 13-C , 17-H ) :   0.1216 B( 13-C , 19-O ) :   1.9450 B( 13-C , 20-F ) :   0.8117
B( 16-H , 17-H ) :   0.5014 B( 16-H , 20-F ) :   0.2097 B( 16-H , 23-H ) :   0.2740
B( 16-H , 24-H ) :  -0.2133 B( 17-H , 19-O ) :   0.2319 B( 18-H , 23-H ) :  -0.1703
B( 19-O , 20-F ) :   0.1194 B( 23-H , 24-H ) :  -0.1400

FINAL SINGLE POINT ENERGY      -487.367976848589

DIPOLE MOMENT
-------------
                                X             Y             Z
Electronic contribution:      3.59033      -0.29516      -9.80141
Nuclear contribution   :     -3.57245       1.60200       9.69133
                        -----------------------------------------
Total Dipole Moment    :      0.01788       1.30684      -0.11008
                        -----------------------------------------
Magnitude (a.u.)       :      1.31159
Magnitude (Debye)      :      3.33379

Rotational constants in cm-1:     0.051520     0.042563     0.028962
Rotational constants in MHz :  1544.537298  1275.996546   868.258224

                             ****ORCA TERMINATED NORMALLY****
TOTAL RUN TIME: 0 days 0 hours 1 minutes 58 seconds 336 msec
