                         Program Version 5.0.0 -  RELEASE  -
|  1> !CAM-B3LYP RIJCOSX def2-SVPD def2/J TightSCF
|  2> *xyz -1 1
|  3> C         -0.46129        2.23469       -4.98962
|  4> C          0.84888        2.66797       -4.30235
|  5> C          2.09343        1.86104       -4.65684
|  6> H          2.44481        2.04157       -5.67499
|  7> H          2.90175        2.13786       -3.98034
|  8> S          1.87964        0.07859       -4.46297
|  9> O          3.20757       -0.46611       -4.42026
| 10> O          1.07506       -0.05616       -3.26876
| 11> O          1.13166       -0.31996       -5.67903
| 12> H          0.66843        2.55943       -3.23285
| 13> H          1.03407        3.72943       -4.49708
| 14> H         -0.35183        2.31783       -6.05075
| 15> H         -1.26108        2.86600       -4.66300
| 16> H         -0.68032        1.21949       -4.73211
| 17> *
| 18>
| 19> %MaxCore 64000
| 20>
| 21> %pal nprocs 8
| 22> end
| 23>
| 24> %scf
| 25>   MaxIter 150
| 26> end
| 27>
| 28>
| 29>                          ****END OF INPUT****

CARTESIAN COORDINATES (ANGSTROEM)
---------------------------------
  C     -0.461290    2.234690   -4.989620
  C      0.848880    2.667970   -4.302350
  C      2.093430    1.861040   -4.656840
  H      2.444810    2.041570   -5.674990
  H      2.901750    2.137860   -3.980340
  S      1.879640    0.078590   -4.462970
  O      3.207570   -0.466110   -4.420260
  O      1.075060   -0.056160   -3.268760
  O      1.131660   -0.319960   -5.679030
  H      0.668430    2.559430   -3.232850
  H      1.034070    3.729430   -4.497080
  H     -0.351830    2.317830   -6.050750
  H     -1.261080    2.866000   -4.663000
  H     -0.680320    1.219490   -4.732110

 Total Charge           Charge          ....   -1
 Multiplicity           Mult            ....    1
 Number of Electrons    NEL             ....   66
 Basis Dimension        Dim             ....  212

ORBITAL ENERGIES
----------------

  NO   OCC          E(Eh)            E(eV)
   0   2.0000     -88.965806     -2420.8826
   1   2.0000     -19.001717      -517.0630
   2   2.0000     -18.999439      -517.0010
   3   2.0000     -18.985878      -516.6320
   4   2.0000     -10.126761      -275.5632
   5   2.0000     -10.120800      -275.4010
   6   2.0000     -10.105232      -274.9773
   7   2.0000      -8.018813      -218.2030
   8   2.0000      -5.988812      -162.9639
   9   2.0000      -5.988605      -162.9582
  10   2.0000      -5.988173      -162.9465
  11   2.0000      -1.023101       -27.8400
  12   2.0000      -0.881857       -23.9965
  13   2.0000      -0.855380       -23.2761
  14   2.0000      -0.730978       -19.8909
  15   2.0000      -0.639567       -17.4035
  16   2.0000      -0.541543       -14.7361
  17   2.0000      -0.455490       -12.3945
  18   2.0000      -0.406683       -11.0664
  19   2.0000      -0.388492       -10.5714
  20   2.0000      -0.367824       -10.0090
  21   2.0000      -0.352927        -9.6036
  22   2.0000      -0.336040        -9.1441
  23   2.0000      -0.322058        -8.7636
  24   2.0000      -0.290955        -7.9173
  25   2.0000      -0.281041        -7.6475
  26   2.0000      -0.262567        -7.1448
  27   2.0000      -0.226974        -6.1763
  28   2.0000      -0.224381        -6.1057
  29   2.0000      -0.190577        -5.1859
  30   2.0000      -0.179249        -4.8776
  31   2.0000      -0.167350        -4.5538
  32   2.0000      -0.137877        -3.7518
  33   0.0000       0.165890         4.5141
  34   0.0000       0.187701         5.1076
  35   0.0000       0.193968         5.2781
  36   0.0000       0.200104         5.4451
  37   0.0000       0.219974         5.9858

MULLIKEN ATOMIC CHARGES
-----------------------
   0 C :    0.966950
   1 C :   -0.101638
   2 C :    0.240816
   3 H :   -0.101736
   4 H :   -0.104977
   5 S :    1.284604
   6 O :   -0.810919
   7 O :   -0.808845
   8 O :   -0.817782
   9 H :   -0.009065
  10 H :   -0.291879
  11 H :   -0.135467
  12 H :   -0.199033
  13 H :   -0.111027
Sum of atomic charges:   -1.0000000

LOEWDIN ATOMIC CHARGES
----------------------
   0 C :    0.120275
   1 C :   -0.093081
   2 C :   -0.090333
   3 H :    0.008161
   4 H :   -0.000038
   5 S :    0.859911
   6 O :   -0.570053
   7 O :   -0.567828
   8 O :   -0.590499
   9 H :    0.010108
  10 H :    0.004239
  11 H :   -0.020486
  12 H :   -0.035249
  13 H :   -0.035127

  Mayer bond orders larger than 0.100000
B(  0-C ,  1-C ) :   1.2570 B(  0-C ,  9-H ) :   0.1087 B(  0-C , 11-H ) :   0.7171
B(  0-C , 12-H ) :   0.7068 B(  0-C , 13-H ) :   0.7734 B(  1-C ,  2-C ) :   1.2289
B(  1-C ,  3-H ) :   0.1426 B(  1-C ,  4-H ) :   0.1539 B(  1-C ,  9-H ) :   0.8373
B(  1-C , 10-H ) :   0.8778 B(  1-C , 11-H ) :   0.2296 B(  1-C , 12-H ) :   0.2339
B(  1-C , 13-H ) :   0.2290 B(  2-C ,  3-H ) :   0.9036 B(  2-C ,  4-H ) :   0.8910
B(  2-C ,  5-S ) :   0.9128 B(  2-C ,  9-H ) :   0.1364 B(  2-C , 10-H ) :   0.1336
B(  5-S ,  6-O ) :   1.3773 B(  5-S ,  7-O ) :   1.2833 B(  5-S ,  8-O ) :   1.2586

FINAL SINGLE POINT ENERGY      -741.932020400234

DIPOLE MOMENT
-------------
                                X             Y             Z
Electronic contribution:      4.87391      -8.99134       1.03676
Nuclear contribution   :     -5.21326      11.14780      -1.06438
                        -----------------------------------------
Total Dipole Moment    :     -0.33935       2.15647      -0.02762
                        -----------------------------------------
Magnitude (a.u.)       :      2.18318
Magnitude (Debye)      :      5.54920

Rotational constants in cm-1:     0.135673     0.057896     0.054396
Rotational constants in MHz :  4067.361083  1735.682437  1630.763840

                             ****ORCA TERMINATED NORMALLY****
TOTAL RUN TIME: 0 days 0 hours 0 minutes 20 seconds 795 msec
