                         Program Version 5.0.0 -  RELEASE  -
|  1> !CAM-B3LYP RIJCOSX def2-SVPD def2/J TightSCF
|  2> *xyz 1 1
|  3> C         -0.46129        2.23469       -4.98962
|  4> C          0.84888        2.66797       -4.30235
|  5> C          2.09343        1.86104       -4.65684
|  6> C         -0.42384        2.39877       -6.47432
|  7> N         -0.95947        3.49265       -7.00740
|  8> N          0.14558        1.48689       -7.20399
|  9> H          0.56537        0.69681       -6.72386
| 10> H          0.22068        1.58177       -8.20752
| 11> H         -1.40624        4.18151       -6.40326
| 12> H         -0.93421        3.68160       -7.99947
| 13> H          0.66843        2.55943       -3.23285
| 14> H          1.03407        3.72943       -4.49708
| 15> H         -1.28888        2.82674       -4.59500
| 16> H         -0.65170        1.18634       -4.75655
| 17> H          2.29129        1.95234       -5.70442
| 18> H          1.93270        0.83176       -4.41261
| 19> H          2.92953        2.23285       -4.10223
| 20> *
| 21>
| 22> %MaxCore 64000
| 23>
| 24> %pal nprocs 8
| 25> end
| 26>
| 27> %scf
| 28>   MaxIter 150
| 29> end
| 30>
| 31>
| 32>                          ****END OF INPUT****

CARTESIAN COORDINATES (ANGSTROEM)
---------------------------------
  C     -0.461290    2.234690   -4.989620
  C      0.848880    2.667970   -4.302350
  C      2.093430    1.861040   -4.656840
  C     -0.423840    2.398770   -6.474320
  N     -0.959470    3.492650   -7.007400
  N      0.145580    1.486890   -7.203990
  H      0.565370    0.696810   -6.723860
  H      0.220680    1.581770   -8.207520
  H     -1.406240    4.181510   -6.403260
  H     -0.934210    3.681600   -7.999470
  H      0.668430    2.559430   -3.232850
  H      1.034070    3.729430   -4.497080
  H     -1.288880    2.826740   -4.595000
  H     -0.651700    1.186340   -4.756550
  H      2.291290    1.952340   -5.704420
  H      1.932700    0.831760   -4.412610
  H      2.929530    2.232850   -4.102230

 Total Charge           Charge          ....    1
 Multiplicity           Mult            ....    1
 Number of Electrons    NEL             ....   48
 Basis Dimension        Dim             ....  208

ORBITAL ENERGIES
----------------

  NO   OCC          E(Eh)            E(eV)
   0   2.0000     -14.651270      -398.6813
   1   2.0000     -14.647328      -398.5741
   2   2.0000     -10.581659      -287.9416
   3   2.0000     -10.452737      -284.4334
   4   2.0000     -10.419592      -283.5315
   5   2.0000     -10.387852      -282.6678
   6   2.0000      -1.278865       -34.7997
   7   2.0000      -1.180822       -32.1318
   8   2.0000      -1.050813       -28.5941
   9   2.0000      -0.965386       -26.2695
  10   2.0000      -0.905713       -24.6457
  11   2.0000      -0.860346       -23.4112
  12   2.0000      -0.845857       -23.0169
  13   2.0000      -0.803309       -21.8592
  14   2.0000      -0.769372       -20.9357
  15   2.0000      -0.725544       -19.7430
  16   2.0000      -0.693291       -18.8654
  17   2.0000      -0.676371       -18.4050
  18   2.0000      -0.643259       -17.5040
  19   2.0000      -0.628703       -17.1079
  20   2.0000      -0.575265       -15.6538
  21   2.0000      -0.564211       -15.3530
  22   2.0000      -0.562476       -15.3058
  23   2.0000      -0.549392       -14.9497
  24   0.0000      -0.160311        -4.3623
  25   0.0000      -0.121058        -3.2941
  26   0.0000      -0.080932        -2.2023
  27   0.0000      -0.076112        -2.0711
  28   0.0000      -0.052355        -1.4246

MULLIKEN ATOMIC CHARGES
-----------------------
   0 C :    0.197550
   1 C :   -0.173883
   2 C :    0.974357
   3 C :    0.682158
   4 N :    0.093885
   5 N :    0.178095
   6 H :    0.074768
   7 H :   -0.161351
   8 H :    0.029391
   9 H :   -0.151556
  10 H :   -0.096102
  11 H :   -0.129905
  12 H :   -0.099365
  13 H :   -0.015504
  14 H :   -0.164381
  15 H :   -0.070447
  16 H :   -0.167710
Sum of atomic charges:    1.0000000

LOEWDIN ATOMIC CHARGES
----------------------
   0 C :    0.045220
   1 C :   -0.038773
   2 C :    0.135651
   3 C :   -0.043682
   4 N :    0.283566
   5 N :    0.291641
   6 H :    0.050208
   7 H :    0.055196
   8 H :    0.053876
   9 H :    0.043447
  10 H :    0.038486
  11 H :    0.033463
  12 H :    0.039765
  13 H :    0.047114
  14 H :   -0.031136
  15 H :   -0.006486
  16 H :    0.002444

  Mayer bond orders larger than 0.100000
B(  0-C ,  1-C ) :   1.1803 B(  0-C ,  3-C ) :   1.0711 B(  0-C ,  4-N ) :   0.1201
B(  0-C ,  5-N ) :   0.1229 B(  0-C , 10-H ) :   0.1295 B(  0-C , 11-H ) :   0.1011
B(  0-C , 12-H ) :   0.8694 B(  0-C , 13-H ) :   0.8158 B(  1-C ,  2-C ) :   1.2898
B(  1-C , 10-H ) :   0.8767 B(  1-C , 11-H ) :   0.9507 B(  1-C , 12-H ) :   0.1215
B(  1-C , 13-H ) :   0.1418 B(  1-C , 14-H ) :   0.2291 B(  1-C , 15-H ) :   0.2308
B(  1-C , 16-H ) :   0.2386 B(  2-C , 10-H ) :   0.1016 B(  2-C , 14-H ) :   0.7543
B(  2-C , 15-H ) :   0.7423 B(  2-C , 16-H ) :   0.7458 B(  3-C ,  4-N ) :   1.0787
B(  3-C ,  5-N ) :   1.1782 B(  3-C ,  7-H ) :  -0.1901 B(  3-C ,  9-H ) :  -0.1723
B(  3-C , 12-H ) :   0.1063 B(  4-N ,  5-N ) :   0.1532 B(  4-N ,  8-H ) :   1.1048
B(  4-N ,  9-H ) :   1.3007 B(  5-N ,  6-H ) :   1.0356 B(  5-N ,  7-H ) :   1.3381
B(  6-H ,  7-H ) :  -0.1946 B(  8-H ,  9-H ) :  -0.1843

FINAL SINGLE POINT ENERGY      -268.020653243445

DIPOLE MOMENT
-------------
                                X             Y             Z
Electronic contribution:     -3.55366       0.62719      -4.30093
Nuclear contribution   :      2.80679      -0.44323       2.95915
                        -----------------------------------------
Total Dipole Moment    :     -0.74687       0.18395      -1.34178
                        -----------------------------------------
Magnitude (a.u.)       :      1.54662
Magnitude (Debye)      :      3.93119

Rotational constants in cm-1:     0.187834     0.079484     0.065778
Rotational constants in MHz :  5631.136036  2382.861517  1971.985559

                             ****ORCA TERMINATED NORMALLY****
TOTAL RUN TIME: 0 days 0 hours 0 minutes 21 seconds 166 msec
