                         Program Version 5.0.0 -  RELEASE  -
|  1> !CAM-B3LYP RIJCOSX def2-SVPD def2/J TightSCF xyzfile
|  2>
|  3> *xyzfile 0 1 B.xyz
|  4>
|  5> %MaxCore 64000
|  6>
|  7> %pal nprocs 4
|  8> end
|  9>
| 10> %scf
| 11>   MaxIter 150
| 12> end
| 13>
| 14>
| 15>                          ****END OF INPUT****

CARTESIAN COORDINATES (ANGSTROEM)
---------------------------------
  C     -0.461293    2.234686   -4.989619
  C      0.848883    2.667967   -4.302351
  C      2.093434    1.861037   -4.656845
  H      2.444814    2.041567   -5.674990
  H      2.901748    2.137864   -3.980338
  S      1.879644    0.078594   -4.462965
  C     -0.423841    2.398772   -6.474317
  N     -0.959467    3.492647   -7.007401
  N      0.145585    1.486891   -7.203987
  H      0.565371    0.696807   -6.723858
  H      0.220682    1.581768   -8.207520
  H     -1.406243    4.181507   -6.403261
  H     -0.934215    3.681601   -7.999468
  O      3.207574   -0.466111   -4.420259
  O      1.075064   -0.056160   -3.268758
  O      1.131661   -0.319960   -5.679031
  H      0.668432    2.559427   -3.232850
  H      1.034074    3.729426   -4.497081
  H     -1.288884    2.826737   -4.594997
  H     -0.651696    1.186343   -4.756552

 Total Charge           Charge          ....    0
 Multiplicity           Mult            ....    1
 Number of Electrons    NEL             ....   88
 Basis Dimension        Dim             ....  296

ORBITAL ENERGIES
----------------

  NO   OCC          E(Eh)            E(eV)
   0   2.0000     -89.115892     -2424.9667
   1   2.0000     -19.153990      -521.2066
   2   2.0000     -19.140475      -520.8388
   3   2.0000     -19.138636      -520.7888
   4   2.0000     -14.518169      -395.0595
   5   2.0000     -14.485159      -394.1612
   6   2.0000     -10.439514      -284.0736
   7   2.0000     -10.311877      -280.6004
   8   2.0000     -10.292326      -280.0684
   9   2.0000     -10.269118      -279.4369
  10   2.0000      -8.168238      -222.2691
  11   2.0000      -6.138767      -167.0444
  12   2.0000      -6.137860      -167.0197
  13   2.0000      -6.137375      -167.0065
  14   2.0000      -1.171839       -31.8874
  15   2.0000      -1.136963       -30.9383
  16   2.0000      -1.041502       -28.3407
  17   2.0000      -1.020953       -27.7816
  18   2.0000      -1.017288       -27.6818
  19   2.0000      -0.915356       -24.9081
  20   2.0000      -0.836150       -22.7528
  21   2.0000      -0.770743       -20.9730
  22   2.0000      -0.728382       -19.8203
  23   2.0000      -0.709001       -19.2929
  24   2.0000      -0.680341       -18.5130
  25   2.0000      -0.638412       -17.3721
  26   2.0000      -0.597138       -16.2490
  27   2.0000      -0.590344       -16.0641
  28   2.0000      -0.558773       -15.2050
  29   2.0000      -0.546646       -14.8750
  30   2.0000      -0.520838       -14.1727
  31   2.0000      -0.512345       -13.9416
  32   2.0000      -0.489659       -13.3243
  33   2.0000      -0.481186       -13.0937
  34   2.0000      -0.461399       -12.5553
  35   2.0000      -0.446141       -12.1401
  36   2.0000      -0.428976       -11.6730
  37   2.0000      -0.413961       -11.2645
  38   2.0000      -0.376882       -10.2555
  39   2.0000      -0.371378       -10.1057
  40   2.0000      -0.339531        -9.2391
  41   2.0000      -0.329185        -8.9576
  42   2.0000      -0.318542        -8.6680
  43   2.0000      -0.288768        -7.8578
  44   0.0000      -0.021943        -0.5971
  45   0.0000      -0.008482        -0.2308
  46   0.0000       0.029531         0.8036
  47   0.0000       0.048921         1.3312
  48   0.0000       0.060563         1.6480

MULLIKEN ATOMIC CHARGES
-----------------------
   0 C :    0.290857
   1 C :    0.311526
   2 C :    0.296562
   3 H :    0.017126
   4 H :   -0.219731
   5 S :    1.398435
   6 C :    0.602980
   7 N :    0.129996
   8 N :    0.544912
   9 H :   -0.244456
  10 H :   -0.203952
  11 H :   -0.033744
  12 H :   -0.208015
  13 O :   -0.759711
  14 O :   -0.792254
  15 O :   -0.868577
  16 H :    0.087513
  17 H :   -0.272619
  18 H :   -0.152059
  19 H :    0.075212
Sum of atomic charges:    0.0000000

LOEWDIN ATOMIC CHARGES
----------------------
   0 C :    0.056110
   1 C :   -0.013552
   2 C :   -0.065544
   3 H :    0.009061
   4 H :    0.019568
   5 S :    0.937812
   6 C :   -0.038403
   7 N :    0.251749
   8 N :    0.312295
   9 H :   -0.121032
  10 H :    0.044640
  11 H :    0.035805
  12 H :    0.026087
  13 O :   -0.515404
  14 O :   -0.526977
  15 O :   -0.531023
  16 H :    0.034048
  17 H :    0.023102
  18 H :    0.030790
  19 H :    0.030869

  Mayer bond orders larger than 0.100000
B(  0-C ,  1-C ) :   1.1835 B(  0-C ,  6-C ) :   1.1065 B(  0-C , 16-H ) :   0.1577
B(  0-C , 18-H ) :   0.7414 B(  0-C , 19-H ) :   0.8194 B(  1-C ,  2-C ) :   1.2866
B(  1-C ,  3-H ) :   0.1356 B(  1-C ,  4-H ) :   0.2006 B(  1-C , 16-H ) :   0.7858
B(  1-C , 17-H ) :   0.8215 B(  1-C , 18-H ) :   0.1647 B(  1-C , 19-H ) :   0.1477
B(  2-C ,  3-H ) :   0.8765 B(  2-C ,  4-H ) :   0.7888 B(  2-C ,  5-S ) :   0.8869
B(  2-C , 15-O ) :   0.1330 B(  2-C , 16-H ) :   0.1560 B(  2-C , 17-H ) :   0.1291
B(  4-H ,  5-S ) :   0.1095 B(  5-S , 13-O ) :   1.4168 B(  5-S , 14-O ) :   1.3326
B(  5-S , 15-O ) :   1.1374 B(  6-C ,  7-N ) :   1.0191 B(  6-C ,  8-N ) :   1.1790
B(  6-C , 10-H ) :  -0.2320 B(  6-C , 11-H ) :  -0.1275 B(  6-C , 12-H ) :  -0.1657
B(  6-C , 18-H ) :   0.1451 B(  7-N ,  8-N ) :   0.1438 B(  7-N , 11-H ) :   1.1701
B(  7-N , 12-H ) :   1.3194 B(  8-N ,  9-H ) :   1.1225 B(  8-N , 10-H ) :   1.2875
B(  9-H , 10-H ) :  -0.2359 B(  9-H , 15-O ) :   0.2361 B( 11-H , 12-H ) :  -0.1864

FINAL SINGLE POINT ENERGY      -891.119314525475

DIPOLE MOMENT
-------------
                                X             Y             Z
Electronic contribution:      3.06708      -7.54320       1.05289
Nuclear contribution   :     -5.91573      12.15027      -4.18945
                        -----------------------------------------
Total Dipole Moment    :     -2.84865       4.60707      -3.13657
                        -----------------------------------------
Magnitude (a.u.)       :      6.25923
Magnitude (Debye)      :     15.90970

Rotational constants in cm-1:     0.082044     0.024757     0.022371
Rotational constants in MHz :  2459.631375   742.181961   670.660570

                             ****ORCA TERMINATED NORMALLY****
TOTAL RUN TIME: 0 days 0 hours 1 minutes 36 seconds 455 msec
