                         Program Version 5.0.0 -  RELEASE  -
|  1> !CAM-B3LYP RIJCOSX def2-SVPD def2/J TightSCF
|  2> *xyz 0 1
|  3> C         -0.46129        2.23469       -4.98962
|  4> C          0.84888        2.66797       -4.30235
|  5> C          2.09343        1.86104       -4.65684
|  6> H          2.44481        2.04157       -5.67499
|  7> H          2.90175        2.13786       -3.98034
|  8> S          1.87964        0.07859       -4.46297
|  9> F          3.20757       -0.46611       -4.42026
| 10> O          1.07506       -0.05616       -3.26876
| 11> O          1.13166       -0.31996       -5.67903
| 12> H          0.66843        2.55943       -3.23285
| 13> H          1.03407        3.72943       -4.49708
| 14> H         -0.35183        2.31783       -6.05075
| 15> H         -1.26108        2.86600       -4.66300
| 16> H         -0.68032        1.21949       -4.73211
| 17> *
| 18>
| 19> %MaxCore 64000
| 20>
| 21> %pal nprocs 8
| 22> end
| 23>
| 24> %scf
| 25>   MaxIter 150
| 26> end
| 27>
| 28>
| 29>                          ****END OF INPUT****

CARTESIAN COORDINATES (ANGSTROEM)
---------------------------------
  C     -0.461290    2.234690   -4.989620
  C      0.848880    2.667970   -4.302350
  C      2.093430    1.861040   -4.656840
  H      2.444810    2.041570   -5.674990
  H      2.901750    2.137860   -3.980340
  S      1.879640    0.078590   -4.462970
  F      3.207570   -0.466110   -4.420260
  O      1.075060   -0.056160   -3.268760
  O      1.131660   -0.319960   -5.679030
  H      0.668430    2.559430   -3.232850
  H      1.034070    3.729430   -4.497080
  H     -0.351830    2.317830   -6.050750
  H     -1.261080    2.866000   -4.663000
  H     -0.680320    1.219490   -4.732110

 Total Charge           Charge          ....    0
 Multiplicity           Mult            ....    1
 Number of Electrons    NEL             ....   66
 Basis Dimension        Dim             ....  212

ORBITAL ENERGIES
----------------

  NO   OCC          E(Eh)            E(eV)
   0   2.0000     -89.223172     -2427.8859
   1   2.0000     -24.900379      -677.5738
   2   2.0000     -19.231219      -523.3081
   3   2.0000     -19.218044      -522.9496
   4   2.0000     -10.320618      -280.8383
   5   2.0000     -10.285156      -279.8733
   6   2.0000     -10.246966      -278.8341
   7   2.0000      -8.277144      -225.2325
   8   2.0000      -6.251159      -170.1027
   9   2.0000      -6.244767      -169.9287
  10   2.0000      -6.243385      -169.8912
  11   2.0000      -1.470441       -40.0127
  12   2.0000      -1.195299       -32.5257
  13   2.0000      -1.087480       -29.5918
  14   2.0000      -0.908254       -24.7149
  15   2.0000      -0.835671       -22.7398
  16   2.0000      -0.787782       -21.4366
  17   2.0000      -0.713515       -19.4157
  18   2.0000      -0.673987       -18.3401
  19   2.0000      -0.659762       -17.9530
  20   2.0000      -0.630954       -17.1691
  21   2.0000      -0.568512       -15.4700
  22   2.0000      -0.557218       -15.1627
  23   2.0000      -0.527655       -14.3582
  24   2.0000      -0.521062       -14.1788
  25   2.0000      -0.493483       -13.4284
  26   2.0000      -0.460698       -12.5362
  27   2.0000      -0.440787       -11.9944
  28   2.0000      -0.436274       -11.8716
  29   2.0000      -0.416441       -11.3319
  30   2.0000      -0.405312       -11.0291
  31   2.0000      -0.385713       -10.4958
  32   2.0000      -0.377301       -10.2669
  33   0.0000       0.025331         0.6893
  34   0.0000       0.049229         1.3396
  35   0.0000       0.060256         1.6397
  36   0.0000       0.063414         1.7256
  37   0.0000       0.084705         2.3049

MULLIKEN ATOMIC CHARGES
-----------------------
   0 C :    0.985793
   1 C :   -0.095298
   2 C :    0.203539
   3 H :   -0.049270
   4 H :   -0.050164
   5 S :    1.473975
   6 F :   -0.440812
   7 O :   -0.664763
   8 O :   -0.675076
   9 H :    0.006701
  10 H :   -0.259642
  11 H :   -0.121880
  12 H :   -0.177899
  13 H :   -0.135203
Sum of atomic charges:   -0.0000000

LOEWDIN ATOMIC CHARGES
----------------------
   0 C :    0.141978
   1 C :   -0.063405
   2 C :   -0.054430
   3 H :    0.027264
   4 H :    0.016703
   5 S :    1.123585
   6 F :   -0.250707
   7 O :   -0.462182
   8 O :   -0.481725
   9 H :    0.023974
  10 H :    0.031442
  11 H :   -0.008898
  12 H :   -0.013546
  13 H :   -0.030052

  Mayer bond orders larger than 0.100000
B(  0-C ,  1-C ) :   1.2725 B(  0-C ,  9-H ) :   0.1053 B(  0-C , 11-H ) :   0.7206
B(  0-C , 12-H ) :   0.7130 B(  0-C , 13-H ) :   0.7742 B(  1-C ,  2-C ) :   1.2761
B(  1-C ,  3-H ) :   0.1356 B(  1-C ,  4-H ) :   0.1627 B(  1-C ,  9-H ) :   0.8352
B(  1-C , 10-H ) :   0.8801 B(  1-C , 11-H ) :   0.2231 B(  1-C , 12-H ) :   0.2257
B(  1-C , 13-H ) :   0.2161 B(  2-C ,  3-H ) :   0.9083 B(  2-C ,  4-H ) :   0.8543
B(  2-C ,  5-S ) :   0.9486 B(  2-C ,  9-H ) :   0.1329 B(  2-C , 10-H ) :   0.1309
B(  5-S ,  6-F ) :   0.7075 B(  5-S ,  7-O ) :   1.4869 B(  5-S ,  8-O ) :   1.4587

FINAL SINGLE POINT ENERGY      -766.412410216595

DIPOLE MOMENT
-------------
                                X             Y             Z
Electronic contribution:      8.10688     -11.17420       1.23184
Nuclear contribution   :     -7.07796      12.41139      -1.18012
                        -----------------------------------------
Total Dipole Moment    :      1.02892       1.23719       0.05172
                        -----------------------------------------
Magnitude (a.u.)       :      1.60996
Magnitude (Debye)      :      4.09220

Rotational constants in cm-1:     0.134396     0.055628     0.052255
Rotational constants in MHz :  4029.100214  1667.685325  1566.551712

                             ****ORCA TERMINATED NORMALLY****
TOTAL RUN TIME: 0 days 0 hours 0 minutes 20 seconds 199 msec
