                         Program Version 5.0.0 -  RELEASE  -
|  1> !CAM-B3LYP RIJCOSX def2-SVPD def2/J TightSCF
|  2> *xyz 0 1
|  3> C         -0.46129        2.23469       -4.98962
|  4> C          0.84888        2.66797       -4.30235
|  5> C          2.09343        1.86104       -4.65684
|  6> C         -0.42384        2.39877       -6.47432
|  7> C         -0.95947        3.49265       -7.00740
|  8> N          0.14558        1.48689       -7.20399
|  9> H          0.56537        0.69681       -6.72386
| 10> H          0.22068        1.58177       -8.20752
| 11> H         -1.40624        4.18151       -6.40326
| 12> H         -0.93421        3.68160       -7.99947
| 13> H          0.66843        2.55943       -3.23285
| 14> H          1.03407        3.72943       -4.49708
| 15> H         -1.28888        2.82674       -4.59500
| 16> H         -0.65170        1.18634       -4.75655
| 17> H          2.29129        1.95234       -5.70442
| 18> H          1.93270        0.83176       -4.41261
| 19> H          2.92953        2.23285       -4.10223
| 20> *
| 21>
| 22> %MaxCore 64000
| 23>
| 24> %pal nprocs 8
| 25> end
| 26>
| 27> %scf
| 28>   MaxIter 150
| 29> end
| 30>
| 31>
| 32>                          ****END OF INPUT****

CARTESIAN COORDINATES (ANGSTROEM)
---------------------------------
  C     -0.461290    2.234690   -4.989620
  C      0.848880    2.667970   -4.302350
  C      2.093430    1.861040   -4.656840
  C     -0.423840    2.398770   -6.474320
  C     -0.959470    3.492650   -7.007400
  N      0.145580    1.486890   -7.203990
  H      0.565370    0.696810   -6.723860
  H      0.220680    1.581770   -8.207520
  H     -1.406240    4.181510   -6.403260
  H     -0.934210    3.681600   -7.999470
  H      0.668430    2.559430   -3.232850
  H      1.034070    3.729430   -4.497080
  H     -1.288880    2.826740   -4.595000
  H     -0.651700    1.186340   -4.756550
  H      2.291290    1.952340   -5.704420
  H      1.932700    0.831760   -4.412610
  H      2.929530    2.232850   -4.102230

 Total Charge           Charge          ....    0
 Multiplicity           Mult            ....    1
 Number of Electrons    NEL             ....   48
 Basis Dimension        Dim             ....  208

ORBITAL ENERGIES
----------------

  NO   OCC          E(Eh)            E(eV)
   0   2.0000     -14.407876      -392.0582
   1   2.0000     -10.278985      -279.7054
   2   2.0000     -10.256296      -279.0880
   3   2.0000     -10.254586      -279.0415
   4   2.0000     -10.243145      -278.7301
   5   2.0000     -10.189652      -277.2745
   6   2.0000      -1.011862       -27.5342
   7   2.0000      -0.870325       -23.6828
   8   2.0000      -0.811003       -22.0685
   9   2.0000      -0.755269       -20.5519
  10   2.0000      -0.679646       -18.4941
  11   2.0000      -0.637189       -17.3388
  12   2.0000      -0.598168       -16.2770
  13   2.0000      -0.558055       -15.1855
  14   2.0000      -0.521767       -14.1980
  15   2.0000      -0.503773       -13.7084
  16   2.0000      -0.478747       -13.0274
  17   2.0000      -0.459199       -12.4954
  18   2.0000      -0.442482       -12.0405
  19   2.0000      -0.428243       -11.6531
  20   2.0000      -0.404339       -11.0026
  21   2.0000      -0.391632       -10.6568
  22   2.0000      -0.389191       -10.5904
  23   2.0000      -0.245724        -6.6865
  24   0.0000       0.046989         1.2786
  25   0.0000       0.072778         1.9804
  26   0.0000       0.076798         2.0898
  27   0.0000       0.081784         2.2255
  28   0.0000       0.102668         2.7937

MULLIKEN ATOMIC CHARGES
-----------------------
   0 C :    0.419264
   1 C :   -0.199993
   2 C :    0.958278
   3 C :   -0.101731
   4 C :    0.588561
   5 N :    0.327668
   6 H :   -0.077385
   7 H :   -0.227512
   8 H :   -0.216999
   9 H :   -0.596499
  10 H :   -0.127830
  11 H :   -0.172286
  12 H :   -0.023613
  13 H :   -0.121920
  14 H :   -0.149942
  15 H :   -0.081339
  16 H :   -0.196722
Sum of atomic charges:    0.0000000

LOEWDIN ATOMIC CHARGES
----------------------
   0 C :    0.005038
   1 C :   -0.060966
   2 C :    0.114983
   3 C :   -0.264999
   4 C :    0.177454
   5 N :    0.176234
   6 H :    0.001256
   7 H :    0.015376
   8 H :   -0.083567
   9 H :   -0.092113
  10 H :    0.014609
  11 H :    0.024179
  12 H :    0.023523
  13 H :    0.020650
  14 H :   -0.033206
  15 H :   -0.019453
  16 H :   -0.018997

  Mayer bond orders larger than 0.100000
B(  0-C ,  1-C ) :   1.1501 B(  0-C ,  3-C ) :   1.1277 B(  0-C ,  4-C ) :   0.1880
B(  0-C ,  5-N ) :   0.1265 B(  0-C , 10-H ) :   0.1148 B(  0-C , 11-H ) :   0.1260
B(  0-C , 12-H ) :   0.8152 B(  0-C , 13-H ) :   0.6989 B(  1-C ,  2-C ) :   1.2683
B(  1-C , 10-H ) :   0.8706 B(  1-C , 11-H ) :   0.9641 B(  1-C , 12-H ) :   0.1321
B(  1-C , 13-H ) :   0.1676 B(  1-C , 14-H ) :   0.2358 B(  1-C , 15-H ) :   0.2417
B(  1-C , 16-H ) :   0.2474 B(  2-C , 10-H ) :   0.1019 B(  2-C , 14-H ) :   0.7793
B(  2-C , 15-H ) :   0.7348 B(  2-C , 16-H ) :   0.7204 B(  3-C ,  4-C ) :   1.6297
B(  3-C ,  5-N ) :   1.1946 B(  3-C ,  7-H ) :  -0.1178 B(  3-C ,  9-H ) :   0.1656
B(  3-C , 12-H ) :   0.1683 B(  3-C , 13-H ) :   0.1954 B(  4-C ,  5-N ) :   0.2848
B(  4-C ,  8-H ) :   0.9124 B(  4-C ,  9-H ) :   0.5943 B(  5-N ,  6-H ) :   1.0155
B(  5-N ,  7-H ) :   1.2916 B(  6-H ,  7-H ) :  -0.1746

FINAL SINGLE POINT ENERGY      -251.559576411016

DIPOLE MOMENT
-------------
                                X             Y             Z
Electronic contribution:     -2.08485      -0.44423      -2.62822
Nuclear contribution   :      2.52905      -0.17478       2.67366
                        -----------------------------------------
Total Dipole Moment    :      0.44420      -0.61901       0.04544
                        -----------------------------------------
Magnitude (a.u.)       :      0.76325
Magnitude (Debye)      :      1.94003

Rotational constants in cm-1:     0.190920     0.082419     0.067855
Rotational constants in MHz :  5723.626725  2470.870287  2034.242308

                             ****ORCA TERMINATED NORMALLY****
TOTAL RUN TIME: 0 days 0 hours 0 minutes 20 seconds 731 msec
