                         Program Version 5.0.0 -  RELEASE  -
|  1> !CAM-B3LYP RIJCOSX def2-SVPD def2/J TightSCF
|  2> *xyz 0 1
|  3> C         -0.46129        2.23469       -4.98962
|  4> C          0.84888        2.66797       -4.30235
|  5> C          2.09343        1.86104       -4.65684
|  6> H          2.44481        2.04157       -5.67499
|  7> H          2.90175        2.13786       -3.98034
|  8> S          1.87964        0.07859       -4.46297
|  9> O          3.20757       -0.46611       -4.42026
| 10> F          1.07506       -0.05616       -3.26876
| 11> O          1.13166       -0.31996       -5.67903
| 12> H          0.66843        2.55943       -3.23285
| 13> H          1.03407        3.72943       -4.49708
| 14> H         -0.35183        2.31783       -6.05075
| 15> H         -1.26108        2.86600       -4.66300
| 16> H         -0.68032        1.21949       -4.73211
| 17> *
| 18>
| 19> %MaxCore 64000
| 20>
| 21> %pal nprocs 8
| 22> end
| 23>
| 24> %scf
| 25>   MaxIter 150
| 26> end
| 27>
| 28>
| 29>                          ****END OF INPUT****

CARTESIAN COORDINATES (ANGSTROEM)
---------------------------------
  C     -0.461290    2.234690   -4.989620
  C      0.848880    2.667970   -4.302350
  C      2.093430    1.861040   -4.656840
  H      2.444810    2.041570   -5.674990
  H      2.901750    2.137860   -3.980340
  S      1.879640    0.078590   -4.462970
  O      3.207570   -0.466110   -4.420260
  F      1.075060   -0.056160   -3.268760
  O      1.131660   -0.319960   -5.679030
  H      0.668430    2.559430   -3.232850
  H      1.034070    3.729430   -4.497080
  H     -0.351830    2.317830   -6.050750
  H     -1.261080    2.866000   -4.663000
  H     -0.680320    1.219490   -4.732110

 Total Charge           Charge          ....    0
 Multiplicity           Mult            ....    1
 Number of Electrons    NEL             ....   66
 Basis Dimension        Dim             ....  212

ORBITAL ENERGIES
----------------

  NO   OCC          E(Eh)            E(eV)
   0   2.0000     -89.222202     -2427.8595
   1   2.0000     -24.895430      -677.4391
   2   2.0000     -19.233704      -523.3757
   3   2.0000     -19.216607      -522.9105
   4   2.0000     -10.320267      -280.8288
   5   2.0000     -10.292092      -280.0621
   6   2.0000     -10.258797      -279.1561
   7   2.0000      -8.276089      -225.2038
   8   2.0000      -6.250340      -170.0804
   9   2.0000      -6.243604      -169.8971
  10   2.0000      -6.242267      -169.8607
  11   2.0000      -1.462042       -39.7842
  12   2.0000      -1.198018       -32.5997
  13   2.0000      -1.089842       -29.6561
  14   2.0000      -0.915113       -24.9015
  15   2.0000      -0.832249       -22.6467
  16   2.0000      -0.791157       -21.5285
  17   2.0000      -0.714922       -19.4540
  18   2.0000      -0.673621       -18.3302
  19   2.0000      -0.667969       -18.1764
  20   2.0000      -0.620553       -16.8861
  21   2.0000      -0.566869       -15.4253
  22   2.0000      -0.556807       -15.1515
  23   2.0000      -0.536909       -14.6100
  24   2.0000      -0.519179       -14.1276
  25   2.0000      -0.504523       -13.7288
  26   2.0000      -0.464020       -12.6266
  27   2.0000      -0.455416       -12.3925
  28   2.0000      -0.445748       -12.1294
  29   2.0000      -0.427092       -11.6218
  30   2.0000      -0.402944       -10.9647
  31   2.0000      -0.387537       -10.5454
  32   2.0000      -0.376349       -10.2410
  33   0.0000       0.022918         0.6236
  34   0.0000       0.052759         1.4357
  35   0.0000       0.059069         1.6074
  36   0.0000       0.060831         1.6553
  37   0.0000       0.080783         2.1982

MULLIKEN ATOMIC CHARGES
-----------------------
   0 C :    1.012243
   1 C :   -0.077975
   2 C :    0.237739
   3 H :   -0.056044
   4 H :   -0.067246
   5 S :    1.413685
   6 O :   -0.656591
   7 F :   -0.402288
   8 O :   -0.674873
   9 H :   -0.023537
  10 H :   -0.261735
  11 H :   -0.118518
  12 H :   -0.172382
  13 H :   -0.152480
Sum of atomic charges:    0.0000000

LOEWDIN ATOMIC CHARGES
----------------------
   0 C :    0.137905
   1 C :   -0.076915
   2 C :   -0.042077
   3 H :    0.039566
   4 H :    0.020850
   5 S :    1.115582
   6 O :   -0.457115
   7 F :   -0.252566
   8 O :   -0.480431
   9 H :    0.018861
  10 H :    0.030001
  11 H :   -0.005203
  12 H :   -0.013204
  13 H :   -0.035252

  Mayer bond orders larger than 0.100000
B(  0-C ,  1-C ) :   1.2727 B(  0-C ,  9-H ) :   0.1016 B(  0-C , 11-H ) :   0.7212
B(  0-C , 12-H ) :   0.7138 B(  0-C , 13-H ) :   0.7625 B(  1-C ,  2-C ) :   1.2207
B(  1-C ,  3-H ) :   0.1380 B(  1-C ,  4-H ) :   0.1467 B(  1-C ,  9-H ) :   0.8402
B(  1-C , 10-H ) :   0.8852 B(  1-C , 11-H ) :   0.2300 B(  1-C , 12-H ) :   0.2260
B(  1-C , 13-H ) :   0.2220 B(  2-C ,  3-H ) :   0.9021 B(  2-C ,  4-H ) :   0.9018
B(  2-C ,  5-S ) :   0.9809 B(  2-C ,  9-H ) :   0.1250 B(  2-C , 10-H ) :   0.1267
B(  5-S ,  6-O ) :   1.5939 B(  5-S ,  7-F ) :   0.6734 B(  5-S ,  8-O ) :   1.4890
B( 11-H , 13-H ) :   0.1068

FINAL SINGLE POINT ENERGY      -766.416228190277

DIPOLE MOMENT
-------------
                                X             Y             Z
Electronic contribution:      4.40140     -10.40448       3.17806
Nuclear contribution   :     -4.78457      11.97051      -2.41849
                        -----------------------------------------
Total Dipole Moment    :     -0.38316       1.56603       0.75956
                        -----------------------------------------
Magnitude (a.u.)       :      1.78219
Magnitude (Debye)      :      4.52997

Rotational constants in cm-1:     0.129206     0.056639     0.054229
Rotational constants in MHz :  3873.509495  1697.990779  1625.734877

                             ****ORCA TERMINATED NORMALLY****
TOTAL RUN TIME: 0 days 0 hours 0 minutes 20 seconds 71 msec
