                         Program Version 5.0.0 -  RELEASE  -
|  1> !CAM-B3LYP RIJCOSX def2-SVPD def2/J TightSCF
|  2> *xyz 0 1
|  3> C         -0.46129        2.23469       -4.98962
|  4> C          0.84888        2.66797       -4.30235
|  5> C          2.09343        1.86104       -4.65684
|  6> C         -0.42384        2.39877       -6.47432
|  7> N         -0.95947        3.49265       -7.00740
|  8> C          0.14558        1.48689       -7.20399
|  9> H          0.56537        0.69681       -6.72386
| 10> H          0.22068        1.58177       -8.20752
| 11> H         -1.40624        4.18151       -6.40326
| 12> H         -0.93421        3.68160       -7.99947
| 13> H          0.66843        2.55943       -3.23285
| 14> H          1.03407        3.72943       -4.49708
| 15> H         -1.28888        2.82674       -4.59500
| 16> H         -0.65170        1.18634       -4.75655
| 17> H          2.29129        1.95234       -5.70442
| 18> H          1.93270        0.83176       -4.41261
| 19> H          2.92953        2.23285       -4.10223
| 20> *
| 21>
| 22> %MaxCore 64000
| 23>
| 24> %pal nprocs 8
| 25> end
| 26>
| 27> %scf
| 28>   MaxIter 150
| 29> end
| 30>
| 31>
| 32>                          ****END OF INPUT****

CARTESIAN COORDINATES (ANGSTROEM)
---------------------------------
  C     -0.461290    2.234690   -4.989620
  C      0.848880    2.667970   -4.302350
  C      2.093430    1.861040   -4.656840
  C     -0.423840    2.398770   -6.474320
  N     -0.959470    3.492650   -7.007400
  C      0.145580    1.486890   -7.203990
  H      0.565370    0.696810   -6.723860
  H      0.220680    1.581770   -8.207520
  H     -1.406240    4.181510   -6.403260
  H     -0.934210    3.681600   -7.999470
  H      0.668430    2.559430   -3.232850
  H      1.034070    3.729430   -4.497080
  H     -1.288880    2.826740   -4.595000
  H     -0.651700    1.186340   -4.756550
  H      2.291290    1.952340   -5.704420
  H      1.932700    0.831760   -4.412610
  H      2.929530    2.232850   -4.102230

 Total Charge           Charge          ....    0
 Multiplicity           Mult            ....    1
 Number of Electrons    NEL             ....   48
 Basis Dimension        Dim             ....  208

ORBITAL ENERGIES
----------------

  NO   OCC          E(Eh)            E(eV)
   0   2.0000     -14.404760      -391.9734
   1   2.0000     -10.276463      -279.6368
   2   2.0000     -10.255859      -279.0761
   3   2.0000     -10.253300      -279.0065
   4   2.0000     -10.233172      -278.4588
   5   2.0000     -10.189105      -277.2597
   6   2.0000      -0.999111       -27.1872
   7   2.0000      -0.870442       -23.6859
   8   2.0000      -0.807610       -21.9762
   9   2.0000      -0.761179       -20.7127
  10   2.0000      -0.670033       -18.2325
  11   2.0000      -0.635791       -17.3007
  12   2.0000      -0.591119       -16.0852
  13   2.0000      -0.551420       -15.0049
  14   2.0000      -0.522780       -14.2256
  15   2.0000      -0.505500       -13.7554
  16   2.0000      -0.463153       -12.6030
  17   2.0000      -0.461376       -12.5547
  18   2.0000      -0.442488       -12.0407
  19   2.0000      -0.429033       -11.6746
  20   2.0000      -0.399384       -10.8678
  21   2.0000      -0.390087       -10.6148
  22   2.0000      -0.382926       -10.4199
  23   2.0000      -0.251117        -6.8332
  24   0.0000       0.047823         1.3013
  25   0.0000       0.073169         1.9910
  26   0.0000       0.076417         2.0794
  27   0.0000       0.084136         2.2895
  28   0.0000       0.101892         2.7726

MULLIKEN ATOMIC CHARGES
-----------------------
   0 C :    0.412865
   1 C :   -0.184153
   2 C :    0.928547
   3 C :    0.016046
   4 N :    0.184049
   5 C :    0.591412
   6 H :   -0.043845
   7 H :   -0.680495
   8 H :   -0.117330
   9 H :   -0.207059
  10 H :   -0.127658
  11 H :   -0.168898
  12 H :   -0.191752
  13 H :    0.011330
  14 H :   -0.112793
  15 H :   -0.082015
  16 H :   -0.228249
Sum of atomic charges:   -0.0000000

LOEWDIN ATOMIC CHARGES
----------------------
   0 C :    0.005271
   1 C :   -0.062854
   2 C :    0.118431
   3 C :   -0.254279
   4 N :    0.171771
   5 C :    0.168858
   6 H :   -0.075506
   7 H :   -0.079955
   8 H :   -0.001258
   9 H :    0.002386
  10 H :    0.014156
  11 H :    0.020495
  12 H :    0.013565
  13 H :    0.027626
  14 H :   -0.032516
  15 H :   -0.015454
  16 H :   -0.020739

  Mayer bond orders larger than 0.100000
B(  0-C ,  1-C ) :   1.1629 B(  0-C ,  3-C ) :   1.0157 B(  0-C ,  4-N ) :   0.1335
B(  0-C ,  5-C ) :   0.2208 B(  0-C , 10-H ) :   0.1389 B(  0-C , 11-H ) :   0.1163
B(  0-C , 12-H ) :   0.7844 B(  0-C , 13-H ) :   0.7739 B(  1-C ,  2-C ) :   1.2825
B(  1-C , 10-H ) :   0.8333 B(  1-C , 11-H ) :   0.9393 B(  1-C , 12-H ) :   0.1475
B(  1-C , 13-H ) :   0.1575 B(  1-C , 14-H ) :   0.2340 B(  1-C , 15-H ) :   0.2380
B(  1-C , 16-H ) :   0.2555 B(  2-C , 10-H ) :   0.1055 B(  2-C , 14-H ) :   0.7754
B(  2-C , 15-H ) :   0.7405 B(  2-C , 16-H ) :   0.7356 B(  3-C ,  4-N ) :   1.1482
B(  3-C ,  5-C ) :   1.8046 B(  3-C ,  6-H ) :   0.2188 B(  3-C ,  7-H ) :   0.2168
B(  3-C ,  9-H ) :  -0.1049 B(  3-C , 12-H ) :   0.1519 B(  3-C , 13-H ) :   0.1146
B(  4-N ,  5-C ) :   0.2557 B(  4-N ,  8-H ) :   1.1266 B(  4-N ,  9-H ) :   1.2757
B(  5-C ,  6-H ) :   0.6967 B(  5-C ,  7-H ) :   0.6359 B(  6-H ,  7-H ) :  -0.1343
B(  8-H ,  9-H ) :  -0.1676 B( 14-H , 15-H ) :   0.1049

FINAL SINGLE POINT ENERGY      -251.559459709201

DIPOLE MOMENT
-------------
                                X             Y             Z
Electronic contribution:     -3.06931       1.27758      -2.49075
Nuclear contribution   :      2.79043      -0.64920       2.62716
                        -----------------------------------------
Total Dipole Moment    :     -0.27887       0.62837       0.13641
                        -----------------------------------------
Magnitude (a.u.)       :      0.70088
Magnitude (Debye)      :      1.78148

Rotational constants in cm-1:     0.196182     0.080190     0.067215
Rotational constants in MHz :  5881.393438  2404.041106  2015.067205

                             ****ORCA TERMINATED NORMALLY****
TOTAL RUN TIME: 0 days 0 hours 0 minutes 22 seconds 225 msec
