                         Program Version 5.0.0 -  RELEASE  -
|  1> !CAM-B3LYP RIJCOSX def2-SVPD def2/J TightSCF
|  2> *xyz 0 1
|  3> C         -0.46129        2.23469       -4.98962
|  4> C          0.84888        2.66797       -4.30235
|  5> C          2.09343        1.86104       -4.65684
|  6> H          2.44481        2.04157       -5.67499
|  7> H          2.90175        2.13786       -3.98034
|  8> S          1.87964        0.07859       -4.46297
|  9> O          3.20757       -0.46611       -4.42026
| 10> O          1.07506       -0.05616       -3.26876
| 11> F          1.13166       -0.31996       -5.67903
| 12> H          0.66843        2.55943       -3.23285
| 13> H          1.03407        3.72943       -4.49708
| 14> H         -0.35183        2.31783       -6.05075
| 15> H         -1.26108        2.86600       -4.66300
| 16> H         -0.68032        1.21949       -4.73211
| 17> *
| 18>
| 19> %MaxCore 64000
| 20>
| 21> %pal nprocs 8
| 22> end
| 23>
| 24> %scf
| 25>   MaxIter 150
| 26> end
| 27>
| 28>
| 29>                          ****END OF INPUT****

CARTESIAN COORDINATES (ANGSTROEM)
---------------------------------
  C     -0.461290    2.234690   -4.989620
  C      0.848880    2.667970   -4.302350
  C      2.093430    1.861040   -4.656840
  H      2.444810    2.041570   -5.674990
  H      2.901750    2.137860   -3.980340
  S      1.879640    0.078590   -4.462970
  O      3.207570   -0.466110   -4.420260
  O      1.075060   -0.056160   -3.268760
  F      1.131660   -0.319960   -5.679030
  H      0.668430    2.559430   -3.232850
  H      1.034070    3.729430   -4.497080
  H     -0.351830    2.317830   -6.050750
  H     -1.261080    2.866000   -4.663000
  H     -0.680320    1.219490   -4.732110

 Total Charge           Charge          ....    0
 Multiplicity           Mult            ....    1
 Number of Electrons    NEL             ....   66
 Basis Dimension        Dim             ....  212

ORBITAL ENERGIES
----------------

  NO   OCC          E(Eh)            E(eV)
   0   2.0000     -89.220855     -2427.8229
   1   2.0000     -24.876303      -676.9186
   2   2.0000     -19.233576      -523.3722
   3   2.0000     -19.229953      -523.2736
   4   2.0000     -10.319652      -280.8120
   5   2.0000     -10.286991      -279.9232
   6   2.0000     -10.261342      -279.2253
   7   2.0000      -8.274615      -225.1637
   8   2.0000      -6.248596      -170.0329
   9   2.0000      -6.242404      -169.8644
  10   2.0000      -6.240996      -169.8261
  11   2.0000      -1.430798       -38.9340
  12   2.0000      -1.206437       -32.8288
  13   2.0000      -1.109565       -30.1928
  14   2.0000      -0.911945       -24.8153
  15   2.0000      -0.828159       -22.5353
  16   2.0000      -0.780043       -21.2261
  17   2.0000      -0.712782       -19.3958
  18   2.0000      -0.649607       -17.6767
  19   2.0000      -0.645823       -17.5737
  20   2.0000      -0.626409       -17.0455
  21   2.0000      -0.574639       -15.6367
  22   2.0000      -0.551416       -15.0048
  23   2.0000      -0.534091       -14.5334
  24   2.0000      -0.525583       -14.3019
  25   2.0000      -0.506706       -13.7882
  26   2.0000      -0.469887       -12.7863
  27   2.0000      -0.453968       -12.3531
  28   2.0000      -0.442626       -12.0445
  29   2.0000      -0.424454       -11.5500
  30   2.0000      -0.411553       -11.1989
  31   2.0000      -0.396170       -10.7803
  32   2.0000      -0.392788       -10.6883
  33   0.0000       0.028469         0.7747
  34   0.0000       0.052615         1.4317
  35   0.0000       0.059470         1.6183
  36   0.0000       0.060958         1.6587
  37   0.0000       0.083828         2.2811

MULLIKEN ATOMIC CHARGES
-----------------------
   0 C :    0.977141
   1 C :   -0.046190
   2 C :    0.207028
   3 H :   -0.048994
   4 H :   -0.056592
   5 S :    1.420805
   6 O :   -0.663593
   7 O :   -0.675474
   8 F :   -0.400418
   9 H :    0.009133
  10 H :   -0.257404
  11 H :   -0.129621
  12 H :   -0.169103
  13 H :   -0.166718
Sum of atomic charges:   -0.0000000

LOEWDIN ATOMIC CHARGES
----------------------
   0 C :    0.137257
   1 C :   -0.072003
   2 C :   -0.044488
   3 H :    0.025946
   4 H :    0.031265
   5 S :    1.113094
   6 O :   -0.457629
   7 O :   -0.460329
   8 F :   -0.270585
   9 H :    0.024834
  10 H :    0.029588
  11 H :   -0.012326
  12 H :   -0.010996
  13 H :   -0.033627

  Mayer bond orders larger than 0.100000
B(  0-C ,  1-C ) :   1.2693 B(  0-C ,  9-H ) :   0.1076 B(  0-C , 11-H ) :   0.7196
B(  0-C , 12-H ) :   0.7257 B(  0-C , 13-H ) :   0.7730 B(  1-C ,  2-C ) :   1.2628
B(  1-C ,  3-H ) :   0.1399 B(  1-C ,  4-H ) :   0.1396 B(  1-C ,  9-H ) :   0.8418
B(  1-C , 10-H ) :   0.8725 B(  1-C , 11-H ) :   0.2223 B(  1-C , 12-H ) :   0.2227
B(  1-C , 13-H ) :   0.2125 B(  2-C ,  3-H ) :   0.9066 B(  2-C ,  4-H ) :   0.8849
B(  2-C ,  5-S ) :   0.9754 B(  2-C ,  9-H ) :   0.1365 B(  2-C , 10-H ) :   0.1254
B(  5-S ,  6-O ) :   1.5909 B(  5-S ,  7-O ) :   1.5169 B(  5-S ,  8-F ) :   0.6259

FINAL SINGLE POINT ENERGY      -766.433098476753

DIPOLE MOMENT
-------------
                                X             Y             Z
Electronic contribution:      4.48421     -10.87022      -0.94712
Nuclear contribution   :     -4.84544      12.25421       0.17361
                        -----------------------------------------
Total Dipole Moment    :     -0.36123       1.38399      -0.77351
                        -----------------------------------------
Magnitude (a.u.)       :      1.62611
Magnitude (Debye)      :      4.13324

Rotational constants in cm-1:     0.128954     0.057447     0.053381
Rotational constants in MHz :  3865.954571  1722.226669  1600.330369

                             ****ORCA TERMINATED NORMALLY****
TOTAL RUN TIME: 0 days 0 hours 0 minutes 20 seconds 482 msec
