                         Program Version 5.0.0 -  RELEASE  -
|  1> !CAM-B3LYP RIJCOSX def2-SVPD def2/J TightSCF xyzfile
|  2>
|  3> *xyzfile 0 1 D2.xyz
|  4>
|  5> %MaxCore 64000
|  6>
|  7> %pal nprocs 4
|  8> end
|  9>
| 10> %scf
| 11>   MaxIter 150
| 12> end
| 13>
| 14>
| 15>                          ****END OF INPUT****

CARTESIAN COORDINATES (ANGSTROEM)
---------------------------------
  C     -0.461293    2.234686   -4.989619
  C      0.848883    2.667967   -4.302351
  C      2.093434    1.861037   -4.656845
  H      2.444814    2.041567   -5.674990
  H      2.901748    2.137864   -3.980338
  S      1.879644    0.078594   -4.462965
  C     -0.423841    2.398772   -6.474317
  N     -0.959467    3.492647   -7.007401
  C      0.145585    1.486891   -7.203987
  H      0.565371    0.696807   -6.723858
  H      0.220682    1.581768   -8.207520
  H     -1.406243    4.181507   -6.403261
  H     -0.934215    3.681601   -7.999468
  F      3.207574   -0.466111   -4.420259
  O      1.075064   -0.056160   -3.268758
  O      1.131661   -0.319960   -5.679031
  H      0.668432    2.559427   -3.232850
  H      1.034074    3.729426   -4.497081
  H     -1.288884    2.826737   -4.594997
  H     -0.651696    1.186343   -4.756552

 Total Charge           Charge          ....    0
 Multiplicity           Mult            ....    1
 Number of Electrons    NEL             ....   88
 Basis Dimension        Dim             ....  296

ORBITAL ENERGIES
----------------

  NO   OCC          E(Eh)            E(eV)
   0   2.0000     -89.225665     -2427.9538
   1   2.0000     -24.901067      -677.5925
   2   2.0000     -19.232182      -523.3343
   3   2.0000     -19.220158      -523.0071
   4   2.0000     -14.399758      -391.8373
   5   2.0000     -10.318395      -280.7778
   6   2.0000     -10.286534      -279.9108
   7   2.0000     -10.268642      -279.4240
   8   2.0000     -10.260447      -279.2009
   9   2.0000     -10.166604      -276.6473
  10   2.0000      -8.279084      -225.2853
  11   2.0000      -6.253182      -170.1577
  12   2.0000      -6.246937      -169.9878
  13   2.0000      -6.245163      -169.9395
  14   2.0000      -1.470972       -40.0272
  15   2.0000      -1.198586       -32.6152
  16   2.0000      -1.093999       -29.7692
  17   2.0000      -0.994638       -27.0655
  18   2.0000      -0.910156       -24.7666
  19   2.0000      -0.848218       -23.0812
  20   2.0000      -0.804365       -21.8879
  21   2.0000      -0.779334       -21.2068
  22   2.0000      -0.718094       -19.5403
  23   2.0000      -0.676990       -18.4218
  24   2.0000      -0.667636       -18.1673
  25   2.0000      -0.639231       -17.3944
  26   2.0000      -0.635400       -17.2901
  27   2.0000      -0.586303       -15.9541
  28   2.0000      -0.572159       -15.5692
  29   2.0000      -0.561060       -15.2672
  30   2.0000      -0.546454       -14.8698
  31   2.0000      -0.530566       -14.4374
  32   2.0000      -0.513589       -13.9755
  33   2.0000      -0.477397       -12.9906
  34   2.0000      -0.470521       -12.8035
  35   2.0000      -0.459095       -12.4926
  36   2.0000      -0.443729       -12.0745
  37   2.0000      -0.428965       -11.6727
  38   2.0000      -0.406853       -11.0710
  39   2.0000      -0.405483       -11.0337
  40   2.0000      -0.389442       -10.5972
  41   2.0000      -0.384757       -10.4698
  42   2.0000      -0.360789        -9.8176
  43   2.0000      -0.243035        -6.6133
  44   0.0000       0.027338         0.7439
  45   0.0000       0.045598         1.2408
  46   0.0000       0.057514         1.5650
  47   0.0000       0.060277         1.6402
  48   0.0000       0.081218         2.2101

MULLIKEN ATOMIC CHARGES
-----------------------
   0 C :    0.523483
   1 C :    0.300054
   2 C :    0.207179
   3 H :    0.153566
   4 H :   -0.233704
   5 S :    1.560561
   6 C :    0.049287
   7 N :    0.155244
   8 C :    1.055479
   9 H :   -0.331283
  10 H :   -0.760170
  11 H :   -0.142833
  12 H :   -0.236671
  13 F :   -0.455541
  14 O :   -0.683825
  15 O :   -0.772779
  16 H :    0.077104
  17 H :   -0.277176
  18 H :   -0.249020
  19 H :    0.061045
Sum of atomic charges:   -0.0000000

LOEWDIN ATOMIC CHARGES
----------------------
   0 C :    0.030943
   1 C :   -0.006947
   2 C :   -0.037407
   3 H :    0.024048
   4 H :    0.016573
   5 S :    1.169750
   6 C :   -0.236629
   7 N :    0.165078
   8 C :    0.201329
   9 H :   -0.188387
  10 H :   -0.071013
  11 H :   -0.005866
  12 H :    0.000833
  13 F :   -0.245451
  14 O :   -0.456606
  15 O :   -0.462906
  16 H :    0.025579
  17 H :    0.036302
  18 H :    0.022033
  19 H :    0.018744

  Mayer bond orders larger than 0.100000
B(  0-C ,  1-C ) :   1.1405 B(  0-C ,  6-C ) :   1.1052 B(  0-C ,  7-N ) :   0.1218
B(  0-C ,  8-C ) :   0.1970 B(  0-C , 16-H ) :   0.1372 B(  0-C , 18-H ) :   0.6681
B(  0-C , 19-H ) :   0.8152 B(  1-C ,  2-C ) :   1.3326 B(  1-C ,  3-H ) :   0.1296
B(  1-C ,  4-H ) :   0.2274 B(  1-C , 16-H ) :   0.7488 B(  1-C , 17-H ) :   0.8331
B(  1-C , 18-H ) :   0.1778 B(  1-C , 19-H ) :   0.1608 B(  2-C ,  3-H ) :   0.8662
B(  2-C ,  4-H ) :   0.7625 B(  2-C ,  5-S ) :   0.9363 B(  2-C ,  9-H ) :   0.1054
B(  2-C , 15-O ) :   0.1457 B(  2-C , 16-H ) :   0.1366 B(  2-C , 17-H ) :   0.1160
B(  4-H ,  5-S ) :   0.1002 B(  4-H ,  9-H ) :  -0.1172 B(  5-S , 13-F ) :   0.6702
B(  5-S , 14-O ) :   1.5154 B(  5-S , 15-O ) :   1.4050 B(  6-C ,  7-N ) :   1.0225
B(  6-C ,  8-C ) :   1.8647 B(  6-C ,  9-H ) :   0.3093 B(  6-C , 10-H ) :   0.2699
B(  6-C , 12-H ) :  -0.1327 B(  6-C , 18-H ) :   0.1889 B(  7-N ,  8-C ) :   0.3196
B(  7-N , 11-H ) :   1.1632 B(  7-N , 12-H ) :   1.3410 B(  8-C ,  9-H ) :   0.5253
B(  8-C , 10-H ) :   0.5327 B(  9-H , 10-H ) :  -0.2581 B(  9-H , 15-O ) :   0.1666
B( 11-H , 12-H ) :  -0.1639

FINAL SINGLE POINT ENERGY      -898.974110366921

DIPOLE MOMENT
-------------
                                X             Y             Z
Electronic contribution:      9.27936     -12.39407       5.39342
Nuclear contribution   :     -8.42493      13.96425      -5.19491
                        -----------------------------------------
Total Dipole Moment    :      0.85442       1.57018       0.19852
                        -----------------------------------------
Magnitude (a.u.)       :      1.79859
Magnitude (Debye)      :      4.57165

Rotational constants in cm-1:     0.082815     0.024151     0.022015
Rotational constants in MHz :  2482.732265   724.035221   660.002136

                             ****ORCA TERMINATED NORMALLY****
TOTAL RUN TIME: 0 days 0 hours 1 minutes 50 seconds 972 msec
