                         Program Version 5.0.0 -  RELEASE  -
|  1> !CAM-B3LYP RIJCOSX def2-SVPD def2/J TightSCF xyzfile
|  2>
|  3> *xyzfile 0 1 D4.xyz
|  4>
|  5> %MaxCore 64000
|  6>
|  7> %pal nprocs 4
|  8> end
|  9>
| 10> %scf
| 11>   MaxIter 150
| 12> end
| 13>
| 14>
| 15>                          ****END OF INPUT****

CARTESIAN COORDINATES (ANGSTROEM)
---------------------------------
  C     -0.461293    2.234686   -4.989619
  C      0.848883    2.667967   -4.302351
  C      2.093434    1.861037   -4.656845
  H      2.444814    2.041567   -5.674990
  H      2.901748    2.137864   -3.980338
  S      1.879644    0.078594   -4.462965
  C     -0.423841    2.398772   -6.474317
  N     -0.959467    3.492647   -7.007401
  C      0.145585    1.486891   -7.203987
  H      0.565371    0.696807   -6.723858
  H      0.220682    1.581768   -8.207520
  H     -1.406243    4.181507   -6.403261
  H     -0.934215    3.681601   -7.999468
  O      3.207574   -0.466111   -4.420259
  F      1.075064   -0.056160   -3.268758
  O      1.131661   -0.319960   -5.679031
  H      0.668432    2.559427   -3.232850
  H      1.034074    3.729426   -4.497081
  H     -1.288884    2.826737   -4.594997
  H     -0.651696    1.186343   -4.756552

 Total Charge           Charge          ....    0
 Multiplicity           Mult            ....    1
 Number of Electrons    NEL             ....   88
 Basis Dimension        Dim             ....  296

ORBITAL ENERGIES
----------------

  NO   OCC          E(Eh)            E(eV)
   0   2.0000     -89.224748     -2427.9288
   1   2.0000     -24.896536      -677.4692
   2   2.0000     -19.234361      -523.3936
   3   2.0000     -19.218792      -522.9699
   4   2.0000     -14.403707      -391.9448
   5   2.0000     -10.318035      -280.7680
   6   2.0000     -10.292681      -280.0781
   7   2.0000     -10.273643      -279.5600
   8   2.0000     -10.271494      -279.5016
   9   2.0000     -10.170515      -276.7538
  10   2.0000      -8.278079      -225.2580
  11   2.0000      -6.252404      -170.1366
  12   2.0000      -6.245832      -169.9577
  13   2.0000      -6.244087      -169.9103
  14   2.0000      -1.463064       -39.8120
  15   2.0000      -1.200805       -32.6756
  16   2.0000      -1.096715       -29.8431
  17   2.0000      -0.999221       -27.1902
  18   2.0000      -0.916917       -24.9506
  19   2.0000      -0.847427       -23.0597
  20   2.0000      -0.803723       -21.8704
  21   2.0000      -0.783662       -21.3245
  22   2.0000      -0.719624       -19.5820
  23   2.0000      -0.679472       -18.4894
  24   2.0000      -0.671516       -18.2729
  25   2.0000      -0.641694       -17.4614
  26   2.0000      -0.630635       -17.1604
  27   2.0000      -0.589309       -16.0359
  28   2.0000      -0.571536       -15.5523
  29   2.0000      -0.556191       -15.1347
  30   2.0000      -0.552622       -15.0376
  31   2.0000      -0.535714       -14.5775
  32   2.0000      -0.517574       -14.0839
  33   2.0000      -0.484129       -13.1738
  34   2.0000      -0.473372       -12.8811
  35   2.0000      -0.466384       -12.6910
  36   2.0000      -0.448763       -12.2115
  37   2.0000      -0.443295       -12.0627
  38   2.0000      -0.412165       -11.2156
  39   2.0000      -0.402348       -10.9485
  40   2.0000      -0.394986       -10.7481
  41   2.0000      -0.390671       -10.6307
  42   2.0000      -0.358242        -9.7483
  43   2.0000      -0.247072        -6.7232
  44   0.0000       0.024736         0.6731
  45   0.0000       0.047626         1.2960
  46   0.0000       0.054884         1.4935
  47   0.0000       0.059910         1.6302
  48   0.0000       0.076526         2.0824

MULLIKEN ATOMIC CHARGES
-----------------------
   0 C :    0.566839
   1 C :    0.335223
   2 C :    0.232214
   3 H :    0.136802
   4 H :   -0.253625
   5 S :    1.484824
   6 C :    0.031012
   7 N :    0.151909
   8 C :    1.038604
   9 H :   -0.301798
  10 H :   -0.757574
  11 H :   -0.143436
  12 H :   -0.233423
  13 O :   -0.646570
  14 F :   -0.433957
  15 O :   -0.755412
  16 H :    0.048641
  17 H :   -0.285007
  18 H :   -0.257470
  19 H :    0.042204
Sum of atomic charges:   -0.0000000

LOEWDIN ATOMIC CHARGES
----------------------
   0 C :    0.023555
   1 C :   -0.021521
   2 C :   -0.025157
   3 H :    0.036230
   4 H :    0.020577
   5 S :    1.161263
   6 C :   -0.236636
   7 N :    0.165270
   8 C :    0.205160
   9 H :   -0.186765
  10 H :   -0.068648
  11 H :   -0.005858
  12 H :    0.002031
  13 O :   -0.449789
  14 F :   -0.248704
  15 O :   -0.461025
  16 H :    0.020503
  17 H :    0.034780
  18 H :    0.021373
  19 H :    0.013361

  Mayer bond orders larger than 0.100000
B(  0-C ,  1-C ) :   1.1292 B(  0-C ,  6-C ) :   1.1079 B(  0-C ,  7-N ) :   0.1229
B(  0-C ,  8-C ) :   0.2041 B(  0-C , 16-H ) :   0.1326 B(  0-C , 18-H ) :   0.6695
B(  0-C , 19-H ) :   0.7961 B(  1-C ,  2-C ) :   1.2936 B(  1-C ,  3-H ) :   0.1315
B(  1-C ,  4-H ) :   0.2031 B(  1-C , 16-H ) :   0.7466 B(  1-C , 17-H ) :   0.8286
B(  1-C , 18-H ) :   0.1816 B(  1-C , 19-H ) :   0.1510 B(  2-C ,  3-H ) :   0.8614
B(  2-C ,  4-H ) :   0.8229 B(  2-C ,  5-S ) :   0.9690 B(  2-C ,  9-H ) :   0.1047
B(  2-C , 15-O ) :   0.1195 B(  2-C , 16-H ) :   0.1333 B(  2-C , 17-H ) :   0.1064
B(  4-H ,  5-S ) :   0.1057 B(  4-H ,  9-H ) :  -0.1254 B(  5-S , 13-O ) :   1.5749
B(  5-S , 14-F ) :   0.6580 B(  5-S , 15-O ) :   1.4399 B(  6-C ,  7-N ) :   1.0160
B(  6-C ,  8-C ) :   1.8534 B(  6-C ,  9-H ) :   0.3259 B(  6-C , 10-H ) :   0.2749
B(  6-C , 12-H ) :  -0.1326 B(  6-C , 18-H ) :   0.1877 B(  6-C , 19-H ) :   0.1013
B(  7-N ,  8-C ) :   0.3201 B(  7-N , 11-H ) :   1.1665 B(  7-N , 12-H ) :   1.3389
B(  8-C ,  9-H ) :   0.5414 B(  8-C , 10-H ) :   0.5170 B(  9-H , 10-H ) :  -0.2584
B(  9-H , 15-O ) :   0.1171 B( 11-H , 12-H ) :  -0.1645

FINAL SINGLE POINT ENERGY      -898.977592980133

DIPOLE MOMENT
-------------
                                X             Y             Z
Electronic contribution:      5.54980     -11.63140       7.32843
Nuclear contribution   :     -6.09390      13.51614      -6.45360
                        -----------------------------------------
Total Dipole Moment    :     -0.54409       1.88473       0.87483
                        -----------------------------------------
Magnitude (a.u.)       :      2.14792
Magnitude (Debye)      :      5.45959

Rotational constants in cm-1:     0.081469     0.024519     0.022336
Rotational constants in MHz :  2442.393231   735.066768   669.628729

                             ****ORCA TERMINATED NORMALLY****
TOTAL RUN TIME: 0 days 0 hours 1 minutes 52 seconds 750 msec
