                         Program Version 5.0.0 -  RELEASE  -
|  1> !CAM-B3LYP RIJCOSX def2-SVPD def2/J TightSCF
|  2> *xyz -1 1
|  3> C          0.61188        1.65763       -4.50029
|  4> C          1.69499        1.54179       -5.57045
|  5> H          2.69733        1.73466       -5.18400
|  6> H          1.50666        2.27224       -6.35808
|  7> S          1.78029       -0.03313       -6.42874
|  8> O          2.56929        0.21366       -7.60736
|  9> O          0.41688       -0.46297       -6.61859
| 10> C          0.68036        0.65542       -3.34804
| 11> H         -0.35687        1.54923       -4.99113
| 12> H          0.65023        2.67544       -4.09600
| 13> O          2.50513       -0.93326       -5.48257
| 14> H          0.64318       -0.34009       -3.73853
| 15> H         -0.14865        0.81153       -2.68980
| 16> H          1.59447        0.79330       -2.80925
| 17> *
| 18> %MaxCore 64000
| 19>
| 20> %pal nprocs 8
| 21> end
| 22>
| 23> %scf
| 24>   MaxIter 150
| 25> end
| 26>
| 27>
| 28>                          ****END OF INPUT****

CARTESIAN COORDINATES (ANGSTROEM)
---------------------------------
  C      0.611880    1.657630   -4.500290
  C      1.694990    1.541790   -5.570450
  H      2.697330    1.734660   -5.184000
  H      1.506660    2.272240   -6.358080
  S      1.780290   -0.033130   -6.428740
  O      2.569290    0.213660   -7.607360
  O      0.416880   -0.462970   -6.618590
  C      0.680360    0.655420   -3.348040
  H     -0.356870    1.549230   -4.991130
  H      0.650230    2.675440   -4.096000
  O      2.505130   -0.933260   -5.482570
  H      0.643180   -0.340090   -3.738530
  H     -0.148650    0.811530   -2.689800
  H      1.594470    0.793300   -2.809250

 Total Charge           Charge          ....   -1
 Multiplicity           Mult            ....    1
 Number of Electrons    NEL             ....   66
 Basis Dimension        Dim             ....  212

ORBITAL ENERGIES
----------------

  NO   OCC          E(Eh)            E(eV)
   0   2.0000     -88.964780     -2420.8547
   1   2.0000     -19.001125      -517.0469
   2   2.0000     -18.999438      -517.0010
   3   2.0000     -18.980866      -516.4956
   4   2.0000     -10.130804      -275.6732
   5   2.0000     -10.124182      -275.4930
   6   2.0000     -10.111575      -275.1499
   7   2.0000      -8.017939      -218.1792
   8   2.0000      -5.987957      -162.9406
   9   2.0000      -5.987723      -162.9342
  10   2.0000      -5.987246      -162.9213
  11   2.0000      -1.020790       -27.7771
  12   2.0000      -0.881500       -23.9868
  13   2.0000      -0.846967       -23.0471
  14   2.0000      -0.736783       -20.0489
  15   2.0000      -0.646167       -17.5831
  16   2.0000      -0.547201       -14.8901
  17   2.0000      -0.457088       -12.4380
  18   2.0000      -0.407190       -11.0802
  19   2.0000      -0.392426       -10.6784
  20   2.0000      -0.369533       -10.0555
  21   2.0000      -0.354352        -9.6424
  22   2.0000      -0.336294        -9.1510
  23   2.0000      -0.325071        -8.8456
  24   2.0000      -0.292504        -7.9594
  25   2.0000      -0.284963        -7.7542
  26   2.0000      -0.269598        -7.3361
  27   2.0000      -0.224902        -6.1199
  28   2.0000      -0.223544        -6.0829
  29   2.0000      -0.189864        -5.1665
  30   2.0000      -0.178590        -4.8597
  31   2.0000      -0.164028        -4.4634
  32   2.0000      -0.133688        -3.6378
  33   0.0000       0.163810         4.4575
  34   0.0000       0.186333         5.0704
  35   0.0000       0.192978         5.2512
  36   0.0000       0.200514         5.4563
  37   0.0000       0.219821         5.9816

MULLIKEN ATOMIC CHARGES
-----------------------
   0 C :   -0.121842
   1 C :    0.172015
   2 H :   -0.088428
   3 H :   -0.089401
   4 S :    1.294870
   5 O :   -0.806220
   6 O :   -0.795296
   7 C :    0.995437
   8 H :   -0.067550
   9 H :   -0.233366
  10 O :   -0.834693
  11 H :   -0.152189
  12 H :   -0.163984
  13 H :   -0.109351
Sum of atomic charges:   -1.0000000

LOEWDIN ATOMIC CHARGES
----------------------
   0 C :   -0.094924
   1 C :   -0.094197
   2 H :    0.010015
   3 H :    0.001555
   4 S :    0.857443
   5 O :   -0.573295
   6 O :   -0.568294
   7 C :    0.122242
   8 H :    0.013292
   9 H :    0.006510
  10 O :   -0.601034
  11 H :   -0.027487
  12 H :   -0.032580
  13 H :   -0.019247

  Mayer bond orders larger than 0.100000
B(  0-C ,  1-C ) :   1.2349 B(  0-C ,  2-H ) :   0.1433 B(  0-C ,  3-H ) :   0.1584
B(  0-C ,  7-C ) :   1.2496 B(  0-C ,  8-H ) :   0.8674 B(  0-C ,  9-H ) :   0.8444
B(  0-C , 11-H ) :   0.2475 B(  0-C , 12-H ) :   0.2417 B(  0-C , 13-H ) :   0.2463
B(  1-C ,  2-H ) :   0.9037 B(  1-C ,  3-H ) :   0.8869 B(  1-C ,  4-S ) :   0.9259
B(  1-C ,  8-H ) :   0.1503 B(  1-C ,  9-H ) :   0.1626 B(  4-S ,  5-O ) :   1.3621
B(  4-S ,  6-O ) :   1.2867 B(  4-S , 10-O ) :   1.2420 B(  7-C , 11-H ) :   0.7648
B(  7-C , 12-H ) :   0.6928 B(  7-C , 13-H ) :   0.7048 B( 11-H , 13-H ) :   0.1067

FINAL SINGLE POINT ENERGY      -741.932336337636

DIPOLE MOMENT
-------------
                                X             Y             Z
Electronic contribution:      3.15978      -5.19556      -8.56585
Nuclear contribution   :     -3.81113       6.97418       9.97106
                        -----------------------------------------
Total Dipole Moment    :     -0.65135       1.77862       1.40521
                        -----------------------------------------
Magnitude (a.u.)       :      2.35847
Magnitude (Debye)      :      5.99475

Rotational constants in cm-1:     0.136135     0.055477     0.052562
Rotational constants in MHz :  4081.221574  1663.170947  1575.772362

                             ****ORCA TERMINATED NORMALLY****
TOTAL RUN TIME: 0 days 0 hours 0 minutes 20 seconds 452 msec
