                         Program Version 5.0.0 -  RELEASE  -
|  1> !CAM-B3LYP RIJCOSX def2-SVPD def2/J TightSCF
|  2> *xyz 1 1
|  3> C          1.96337       -1.74915       -1.89689
|  4> N          2.73849       -2.01517       -3.09711
|  5> C          4.04974       -2.15472       -3.15204
|  6> N          4.65821       -1.98629       -4.31866
|  7> N          4.76423       -2.45444       -2.05049
|  8> H          4.28736       -2.77626       -1.21750
|  9> H          5.75082       -2.65835       -2.12599
| 10> H          2.34518       -1.69027       -3.97145
| 11> H          4.10900       -1.59268       -5.07176
| 12> H          5.64910       -2.15646       -4.42724
| 13> C          2.08852       -0.30091       -1.41520
| 14> H          2.23127       -2.45162       -1.10264
| 15> H          0.93025       -1.97780       -2.15544
| 16> C          1.96899        0.73358       -2.53565
| 17> H          3.05136       -0.16860       -0.91187
| 18> H          1.31650       -0.13623       -0.65725
| 19> H          2.73046        0.55745       -3.26643
| 20> H          2.08619        1.71595       -2.12808
| 21> H          1.00672        0.65098       -2.99620
| 22> *
| 23> %MaxCore 64000
| 24>
| 25> %pal nprocs 8
| 26> end
| 27>
| 28> %scf
| 29>   MaxIter 150
| 30> end
| 31>
| 32>
| 33>                          ****END OF INPUT****

CARTESIAN COORDINATES (ANGSTROEM)
---------------------------------
  C      1.963370   -1.749150   -1.896890
  N      2.738490   -2.015170   -3.097110
  C      4.049740   -2.154720   -3.152040
  N      4.658210   -1.986290   -4.318660
  N      4.764230   -2.454440   -2.050490
  H      4.287360   -2.776260   -1.217500
  H      5.750820   -2.658350   -2.125990
  H      2.345180   -1.690270   -3.971450
  H      4.109000   -1.592680   -5.071760
  H      5.649100   -2.156460   -4.427240
  C      2.088520   -0.300910   -1.415200
  H      2.231270   -2.451620   -1.102640
  H      0.930250   -1.977800   -2.155440
  C      1.968990    0.733580   -2.535650
  H      3.051360   -0.168600   -0.911870
  H      1.316500   -0.136230   -0.657250
  H      2.730460    0.557450   -3.266430
  H      2.086190    1.715950   -2.128080
  H      1.006720    0.650980   -2.996200

 Total Charge           Charge          ....    1
 Multiplicity           Mult            ....    1
 Number of Electrons    NEL             ....   56
 Basis Dimension        Dim             ....  236

ORBITAL ENERGIES
----------------

  NO   OCC          E(Eh)            E(eV)
   0   2.0000     -14.630081      -398.1048
   1   2.0000     -14.627295      -398.0289
   2   2.0000     -14.626005      -397.9938
   3   2.0000     -10.597453      -288.3713
   4   2.0000     -10.461490      -284.6716
   5   2.0000     -10.400878      -283.0223
   6   2.0000     -10.378558      -282.4149
   7   2.0000      -1.293840       -35.2072
   8   2.0000      -1.179631       -32.0994
   9   2.0000      -1.166400       -31.7393
  10   2.0000      -1.016755       -27.6673
  11   2.0000      -0.940722       -25.5983
  12   2.0000      -0.899376       -24.4733
  13   2.0000      -0.858320       -23.3561
  14   2.0000      -0.842944       -22.9377
  15   2.0000      -0.799054       -21.7434
  16   2.0000      -0.764518       -20.8036
  17   2.0000      -0.755698       -20.5636
  18   2.0000      -0.730660       -19.8823
  19   2.0000      -0.697192       -18.9716
  20   2.0000      -0.671235       -18.2652
  21   2.0000      -0.655595       -17.8396
  22   2.0000      -0.617299       -16.7976
  23   2.0000      -0.574042       -15.6205
  24   2.0000      -0.561067       -15.2674
  25   2.0000      -0.549570       -14.9546
  26   2.0000      -0.538660       -14.6577
  27   2.0000      -0.510104       -13.8806
  28   0.0000      -0.123867        -3.3706
  29   0.0000      -0.119960        -3.2643
  30   0.0000      -0.089654        -2.4396
  31   0.0000      -0.077007        -2.0955
  32   0.0000      -0.051531        -1.4022

MULLIKEN ATOMIC CHARGES
-----------------------
   0 C :    0.899012
   1 N :   -0.349711
   2 C :    1.207279
   3 N :    0.026475
   4 N :    0.129475
   5 H :   -0.062507
   6 H :   -0.188326
   7 H :   -0.135753
   8 H :   -0.018128
   9 H :   -0.133404
  10 C :   -0.151871
  11 H :   -0.186911
  12 H :   -0.326896
  13 C :    0.995919
  14 H :   -0.084280
  15 H :   -0.161673
  16 H :   -0.249026
  17 H :   -0.151350
  18 H :   -0.058323
Sum of atomic charges:    1.0000000

LOEWDIN ATOMIC CHARGES
----------------------
   0 C :    0.073580
   1 N :    0.046887
   2 C :   -0.039108
   3 N :    0.269542
   4 N :    0.284242
   5 H :    0.021213
   6 H :    0.035893
   7 H :    0.051476
   8 H :    0.037561
   9 H :    0.042895
  10 C :   -0.045581
  11 H :    0.026684
  12 H :    0.042692
  13 C :    0.136370
  14 H :    0.020673
  15 H :    0.037130
  16 H :   -0.034879
  17 H :   -0.001230
  18 H :   -0.006041

  Mayer bond orders larger than 0.100000
B(  0-C ,  1-N ) :   0.9800 B(  0-C ,  2-C ) :  -0.1000 B(  0-C ,  7-H ) :  -0.1428
B(  0-C , 10-C ) :   1.0762 B(  0-C , 11-H ) :   0.8667 B(  0-C , 12-H ) :   0.6714
B(  0-C , 15-H ) :   0.1215 B(  1-N ,  2-C ) :   1.1027 B(  1-N ,  3-N ) :   0.2973
B(  1-N ,  4-N ) :   0.1917 B(  1-N ,  7-H ) :   1.1974 B(  1-N , 11-H ) :   0.1282
B(  1-N , 12-H ) :   0.2850 B(  2-C ,  3-N ) :   0.8319 B(  2-C ,  4-N ) :   0.9978
B(  2-C ,  5-H ) :  -0.1237 B(  2-C ,  6-H ) :  -0.1694 B(  2-C ,  7-H ) :  -0.2085
B(  2-C ,  8-H ) :  -0.1486 B(  2-C ,  9-H ) :  -0.1722 B(  3-N ,  4-N ) :   0.1480
B(  3-N ,  8-H ) :   1.1481 B(  3-N ,  9-H ) :   1.3023 B(  4-N ,  5-H ) :   1.0936
B(  4-N ,  6-H ) :   1.2947 B(  5-H ,  6-H ) :  -0.2186 B(  8-H ,  9-H ) :  -0.1866
B( 10-C , 11-H ) :   0.1020 B( 10-C , 12-H ) :   0.1400 B( 10-C , 13-C ) :   1.2832
B( 10-C , 14-H ) :   0.9112 B( 10-C , 15-H ) :   0.9190 B( 10-C , 16-H ) :   0.2291
B( 10-C , 17-H ) :   0.2301 B( 10-C , 18-H ) :   0.2228 B( 11-H , 12-H ) :  -0.1239
B( 13-C , 16-H ) :   0.7635 B( 13-C , 17-H ) :   0.7482 B( 13-C , 18-H ) :   0.7124
B( 16-H , 18-H ) :   0.1178

FINAL SINGLE POINT ENERGY      -323.328148045879

DIPOLE MOMENT
-------------
                                X             Y             Z
Electronic contribution:      3.88815      -4.89643      -2.31826
Nuclear contribution   :     -2.72963       4.05673       1.67650
                        -----------------------------------------
Total Dipole Moment    :      1.15852      -0.83970      -0.64176
                        -----------------------------------------
Magnitude (a.u.)       :      1.56816
Magnitude (Debye)      :      3.98595

Rotational constants in cm-1:     0.140891     0.054763     0.048590
Rotational constants in MHz :  4223.814968  1641.764475  1456.690885

                             ****ORCA TERMINATED NORMALLY****
TOTAL RUN TIME: 0 days 0 hours 0 minutes 27 seconds 345 msec
