                         Program Version 5.0.0 -  RELEASE  -
|  1> !CAM-B3LYP RIJCOSX def2-SVPD def2/J TightSCF
|  2> *xyz 0 1
|  3> C          0.61188        1.65763       -4.50029
|  4> C          1.69499        1.54179       -5.57045
|  5> H          2.69733        1.73466       -5.18400
|  6> H          1.50666        2.27224       -6.35808
|  7> S          1.78029       -0.03313       -6.42874
|  8> F          2.56929        0.21366       -7.60736
|  9> O          0.41688       -0.46297       -6.61859
| 10> C          0.68036        0.65542       -3.34804
| 11> H         -0.35687        1.54923       -4.99113
| 12> H          0.65023        2.67544       -4.09600
| 13> O          2.50513       -0.93326       -5.48257
| 14> H          0.64318       -0.34009       -3.73853
| 15> H         -0.14865        0.81153       -2.68980
| 16> H          1.59447        0.79330       -2.80925
| 17> *
| 18> %MaxCore 64000
| 19>
| 20> %pal nprocs 8
| 21> end
| 22>
| 23> %scf
| 24>   MaxIter 150
| 25> end
| 26>
| 27>
| 28>                          ****END OF INPUT****

CARTESIAN COORDINATES (ANGSTROEM)
---------------------------------
  C      0.611880    1.657630   -4.500290
  C      1.694990    1.541790   -5.570450
  H      2.697330    1.734660   -5.184000
  H      1.506660    2.272240   -6.358080
  S      1.780290   -0.033130   -6.428740
  F      2.569290    0.213660   -7.607360
  O      0.416880   -0.462970   -6.618590
  C      0.680360    0.655420   -3.348040
  H     -0.356870    1.549230   -4.991130
  H      0.650230    2.675440   -4.096000
  O      2.505130   -0.933260   -5.482570
  H      0.643180   -0.340090   -3.738530
  H     -0.148650    0.811530   -2.689800
  H      1.594470    0.793300   -2.809250

 Total Charge           Charge          ....    0
 Multiplicity           Mult            ....    1
 Number of Electrons    NEL             ....   66
 Basis Dimension        Dim             ....  212

ORBITAL ENERGIES
----------------

  NO   OCC          E(Eh)            E(eV)
   0   2.0000     -89.222141     -2427.8579
   1   2.0000     -24.897603      -677.4982
   2   2.0000     -19.232898      -523.3538
   3   2.0000     -19.212627      -522.8022
   4   2.0000     -10.323767      -280.9240
   5   2.0000     -10.288684      -279.9693
   6   2.0000     -10.250664      -278.9347
   7   2.0000      -8.276233      -225.2078
   8   2.0000      -6.250283      -170.0789
   9   2.0000      -6.243846      -169.9037
  10   2.0000      -6.242436      -169.8653
  11   2.0000      -1.466503       -39.9056
  12   2.0000      -1.193787       -32.4846
  13   2.0000      -1.081729       -29.4353
  14   2.0000      -0.912960       -24.8429
  15   2.0000      -0.838682       -22.8217
  16   2.0000      -0.788674       -21.4609
  17   2.0000      -0.715069       -19.4580
  18   2.0000      -0.670908       -18.2563
  19   2.0000      -0.658980       -17.9317
  20   2.0000      -0.631822       -17.1928
  21   2.0000      -0.568749       -15.4764
  22   2.0000      -0.558885       -15.2080
  23   2.0000      -0.528809       -14.3896
  24   2.0000      -0.519606       -14.1392
  25   2.0000      -0.497538       -13.5387
  26   2.0000      -0.460115       -12.5204
  27   2.0000      -0.444075       -12.0839
  28   2.0000      -0.439578       -11.9615
  29   2.0000      -0.422808       -11.5052
  30   2.0000      -0.405793       -11.0422
  31   2.0000      -0.383127       -10.4254
  32   2.0000      -0.373053       -10.1513
  33   0.0000       0.025245         0.6870
  34   0.0000       0.048246         1.3128
  35   0.0000       0.060078         1.6348
  36   0.0000       0.063410         1.7255
  37   0.0000       0.082743         2.2516

MULLIKEN ATOMIC CHARGES
-----------------------
   0 C :   -0.121666
   1 C :    0.134516
   2 H :   -0.036346
   3 H :   -0.035076
   4 S :    1.483191
   5 F :   -0.429840
   6 O :   -0.650717
   7 C :    1.010880
   8 H :   -0.051770
   9 H :   -0.202509
  10 O :   -0.693169
  11 H :   -0.171815
  12 H :   -0.140049
  13 H :   -0.095629
Sum of atomic charges:    0.0000000

LOEWDIN ATOMIC CHARGES
----------------------
   0 C :   -0.065659
   1 C :   -0.059331
   2 H :    0.028400
   3 H :    0.018035
   4 S :    1.121787
   5 F :   -0.253253
   6 O :   -0.460221
   7 C :    0.143528
   8 H :    0.026919
   9 H :    0.032945
  10 O :   -0.491109
  11 H :   -0.022882
  12 H :   -0.011634
  13 H :   -0.007526

  Mayer bond orders larger than 0.100000
B(  0-C ,  1-C ) :   1.2833 B(  0-C ,  2-H ) :   0.1363 B(  0-C ,  3-H ) :   0.1685
B(  0-C ,  7-C ) :   1.2664 B(  0-C ,  8-H ) :   0.8653 B(  0-C ,  9-H ) :   0.8474
B(  0-C , 11-H ) :   0.2337 B(  0-C , 12-H ) :   0.2340 B(  0-C , 13-H ) :   0.2388
B(  1-C ,  2-H ) :   0.9079 B(  1-C ,  3-H ) :   0.8462 B(  1-C ,  4-S ) :   0.9567
B(  1-C ,  8-H ) :   0.1459 B(  1-C ,  9-H ) :   0.1577 B(  4-S ,  5-F ) :   0.6965
B(  4-S ,  6-O ) :   1.4965 B(  4-S , 10-O ) :   1.4433 B(  7-C , 11-H ) :   0.7681
B(  7-C , 12-H ) :   0.6984 B(  7-C , 13-H ) :   0.7082 B( 11-H , 13-H ) :   0.1013

FINAL SINGLE POINT ENERGY      -766.415288872966

DIPOLE MOMENT
-------------
                                X             Y             Z
Electronic contribution:      5.11027      -5.35236     -11.97573
Nuclear contribution   :     -4.93724       7.05784      11.92827
                        -----------------------------------------
Total Dipole Moment    :      0.17302       1.70548      -0.04746
                        -----------------------------------------
Magnitude (a.u.)       :      1.71489
Magnitude (Debye)      :      4.35891

Rotational constants in cm-1:     0.134572     0.053398     0.050578
Rotational constants in MHz :  4034.377338  1600.833917  1516.302250

                             ****ORCA TERMINATED NORMALLY****
TOTAL RUN TIME: 0 days 0 hours 0 minutes 20 seconds 619 msec
