                         Program Version 5.0.0 -  RELEASE  -
|  1> !CAM-B3LYP RIJCOSX def2-SVPD def2/J TightSCF
|  2> *xyz 0 1
|  3> C          1.96337       -1.74915       -1.89689
|  4> C          2.73849       -2.01517       -3.09711
|  5> C          4.04974       -2.15472       -3.15204
|  6> N          4.65821       -1.98629       -4.31866
|  7> N          4.76423       -2.45444       -2.05049
|  8> H          4.28736       -2.77626       -1.21750
|  9> H          5.75082       -2.65835       -2.12599
| 10> H          2.34518       -1.69027       -3.97145
| 11> H          4.10900       -1.59268       -5.07176
| 12> H          5.64910       -2.15646       -4.42724
| 13> C          2.08852       -0.30091       -1.41520
| 14> H          2.23127       -2.45162       -1.10264
| 15> H          0.93025       -1.97780       -2.15544
| 16> C          1.96899        0.73358       -2.53565
| 17> H          3.05136       -0.16860       -0.91187
| 18> H          1.31650       -0.13623       -0.65725
| 19> H          2.73046        0.55745       -3.26643
| 20> H          2.08619        1.71595       -2.12808
| 21> H          1.00672        0.65098       -2.99620
| 22> *
| 23> %MaxCore 64000
| 24>
| 25> %pal nprocs 8
| 26> end
| 27>
| 28> %scf
| 29>   MaxIter 150
| 30> end
| 31>
| 32>
| 33>                          ****END OF INPUT****

CARTESIAN COORDINATES (ANGSTROEM)
---------------------------------
  C      1.963370   -1.749150   -1.896890
  C      2.738490   -2.015170   -3.097110
  C      4.049740   -2.154720   -3.152040
  N      4.658210   -1.986290   -4.318660
  N      4.764230   -2.454440   -2.050490
  H      4.287360   -2.776260   -1.217500
  H      5.750820   -2.658350   -2.125990
  H      2.345180   -1.690270   -3.971450
  H      4.109000   -1.592680   -5.071760
  H      5.649100   -2.156460   -4.427240
  C      2.088520   -0.300910   -1.415200
  H      2.231270   -2.451620   -1.102640
  H      0.930250   -1.977800   -2.155440
  C      1.968990    0.733580   -2.535650
  H      3.051360   -0.168600   -0.911870
  H      1.316500   -0.136230   -0.657250
  H      2.730460    0.557450   -3.266430
  H      2.086190    1.715950   -2.128080
  H      1.006720    0.650980   -2.996200

 Total Charge           Charge          ....    0
 Multiplicity           Mult            ....    1
 Number of Electrons    NEL             ....   56
 Basis Dimension        Dim             ....  236

ORBITAL ENERGIES
----------------

  NO   OCC          E(Eh)            E(eV)
   0   2.0000     -14.407496      -392.0479
   1   2.0000     -14.405654      -391.9978
   2   2.0000     -10.304462      -280.3987
   3   2.0000     -10.233726      -278.4738
   4   2.0000     -10.230901      -278.3970
   5   2.0000     -10.224944      -278.2349
   6   2.0000     -10.177731      -276.9502
   7   2.0000      -1.036821       -28.2133
   8   2.0000      -0.944844       -25.7105
   9   2.0000      -0.863024       -23.4841
  10   2.0000      -0.794280       -21.6135
  11   2.0000      -0.733687       -19.9646
  12   2.0000      -0.670419       -18.2430
  13   2.0000      -0.641287       -17.4503
  14   2.0000      -0.616078       -16.7643
  15   2.0000      -0.575933       -15.6719
  16   2.0000      -0.544176       -14.8078
  17   2.0000      -0.516074       -14.0431
  18   2.0000      -0.506014       -13.7693
  19   2.0000      -0.476513       -12.9666
  20   2.0000      -0.457883       -12.4596
  21   2.0000      -0.441450       -12.0125
  22   2.0000      -0.423593       -11.5266
  23   2.0000      -0.395724       -10.7682
  24   2.0000      -0.377615       -10.2754
  25   2.0000      -0.372489       -10.1359
  26   2.0000      -0.332558        -9.0494
  27   2.0000      -0.218455        -5.9445
  28   0.0000       0.044172         1.2020
  29   0.0000       0.070235         1.9112
  30   0.0000       0.072019         1.9597
  31   0.0000       0.089211         2.4276
  32   0.0000       0.101253         2.7552

MULLIKEN ATOMIC CHARGES
-----------------------
   0 C :    0.423489
   1 C :   -0.272739
   2 C :    0.682476
   3 N :    0.067797
   4 N :    0.056088
   5 H :   -0.047849
   6 H :   -0.302149
   7 H :   -0.168822
   8 H :    0.004224
   9 H :   -0.251080
  10 C :   -0.128367
  11 H :   -0.169414
  12 H :   -0.135346
  13 C :    0.965480
  14 H :   -0.111011
  15 H :   -0.147433
  16 H :   -0.239299
  17 H :   -0.144580
  18 H :   -0.081464
Sum of atomic charges:    0.0000000

LOEWDIN ATOMIC CHARGES
----------------------
   0 C :   -0.062862
   1 C :   -0.051273
   2 C :   -0.221181
   3 N :    0.184592
   4 N :    0.204799
   5 H :   -0.008423
   6 H :   -0.012993
   7 H :   -0.050220
   8 H :    0.005749
   9 H :   -0.007408
  10 C :   -0.070581
  11 H :    0.002745
  12 H :    0.014358
  13 C :    0.119278
  14 H :    0.012665
  15 H :    0.011997
  16 H :   -0.031356
  17 H :   -0.023304
  18 H :   -0.016582

  Mayer bond orders larger than 0.100000
B(  0-C ,  1-C ) :   1.2106 B(  0-C ,  7-H ) :   0.3486 B(  0-C , 10-C ) :   1.1310
B(  0-C , 11-H ) :   0.7961 B(  0-C , 12-H ) :   0.6752 B(  0-C , 14-H ) :   0.1089
B(  0-C , 15-H ) :   0.1624 B(  1-C ,  2-C ) :   1.8074 B(  1-C ,  3-N ) :   0.2838
B(  1-C ,  4-N ) :   0.2406 B(  1-C ,  7-H ) :   0.6081 B(  1-C , 11-H ) :   0.2605
B(  1-C , 12-H ) :   0.3155 B(  2-C ,  3-N ) :   0.8914 B(  2-C ,  4-N ) :   0.9503
B(  2-C ,  6-H ) :  -0.2048 B(  2-C ,  7-H ) :   0.3565 B(  2-C ,  9-H ) :  -0.1499
B(  2-C , 11-H ) :  -0.1166 B(  3-N ,  4-N ) :   0.1006 B(  3-N ,  8-H ) :   1.1209
B(  3-N ,  9-H ) :   1.3200 B(  4-N ,  5-H ) :   1.0674 B(  4-N ,  6-H ) :   1.3724
B(  5-H ,  6-H ) :  -0.2178 B(  8-H ,  9-H ) :  -0.1871 B( 10-C , 12-H ) :   0.1189
B( 10-C , 13-C ) :   1.2659 B( 10-C , 14-H ) :   0.9274 B( 10-C , 15-H ) :   0.8458
B( 10-C , 16-H ) :   0.2645 B( 10-C , 17-H ) :   0.2441 B( 10-C , 18-H ) :   0.2377
B( 13-C , 16-H ) :   0.7614 B( 13-C , 17-H ) :   0.7134 B( 13-C , 18-H ) :   0.7117
B( 16-H , 18-H ) :   0.1102

FINAL SINGLE POINT ENERGY      -306.853138335684

DIPOLE MOMENT
-------------
                                X             Y             Z
Electronic contribution:      3.82367      -4.06147      -1.72516
Nuclear contribution   :     -2.83106       3.92601       1.57906
                        -----------------------------------------
Total Dipole Moment    :      0.99261      -0.13546      -0.14610
                        -----------------------------------------
Magnitude (a.u.)       :      1.01240
Magnitude (Debye)      :      2.57332

Rotational constants in cm-1:     0.142679     0.055043     0.048600
Rotational constants in MHz :  4277.395781  1650.135877  1456.977167

                             ****ORCA TERMINATED NORMALLY****
TOTAL RUN TIME: 0 days 0 hours 0 minutes 27 seconds 861 msec
