                         Program Version 5.0.0 -  RELEASE  -
|  1> !CAM-B3LYP RIJCOSX def2-SVPD def2/J TightSCF
|  2> *xyz 0 1
|  3> C          0.61188        1.65763       -4.50029
|  4> C          1.69499        1.54179       -5.57045
|  5> H          2.69733        1.73466       -5.18400
|  6> H          1.50666        2.27224       -6.35808
|  7> S          1.78029       -0.03313       -6.42874
|  8> O          2.56929        0.21366       -7.60736
|  9> F          0.41688       -0.46297       -6.61859
| 10> C          0.68036        0.65542       -3.34804
| 11> H         -0.35687        1.54923       -4.99113
| 12> H          0.65023        2.67544       -4.09600
| 13> O          2.50513       -0.93326       -5.48257
| 14> H          0.64318       -0.34009       -3.73853
| 15> H         -0.14865        0.81153       -2.68980
| 16> H          1.59447        0.79330       -2.80925
| 17> *
| 18> %MaxCore 64000
| 19>
| 20> %pal nprocs 8
| 21> end
| 22>
| 23> %scf
| 24>   MaxIter 150
| 25> end
| 26>
| 27>
| 28>                          ****END OF INPUT****

CARTESIAN COORDINATES (ANGSTROEM)
---------------------------------
  C      0.611880    1.657630   -4.500290
  C      1.694990    1.541790   -5.570450
  H      2.697330    1.734660   -5.184000
  H      1.506660    2.272240   -6.358080
  S      1.780290   -0.033130   -6.428740
  O      2.569290    0.213660   -7.607360
  F      0.416880   -0.462970   -6.618590
  C      0.680360    0.655420   -3.348040
  H     -0.356870    1.549230   -4.991130
  H      0.650230    2.675440   -4.096000
  O      2.505130   -0.933260   -5.482570
  H      0.643180   -0.340090   -3.738530
  H     -0.148650    0.811530   -2.689800
  H      1.594470    0.793300   -2.809250

 Total Charge           Charge          ....    0
 Multiplicity           Mult            ....    1
 Number of Electrons    NEL             ....   66
 Basis Dimension        Dim             ....  212

ORBITAL ENERGIES
----------------

  NO   OCC          E(Eh)            E(eV)
   0   2.0000     -89.221583     -2427.8427
   1   2.0000     -24.897600      -677.4981
   2   2.0000     -19.231555      -523.3172
   3   2.0000     -19.211856      -522.7812
   4   2.0000     -10.323463      -280.9157
   5   2.0000     -10.294353      -280.1236
   6   2.0000     -10.259863      -279.1851
   7   2.0000      -8.275667      -225.1923
   8   2.0000      -6.249940      -170.0695
   9   2.0000      -6.243148      -169.8847
  10   2.0000      -6.241781      -169.8475
  11   2.0000      -1.465231       -39.8710
  12   2.0000      -1.193979       -32.4898
  13   2.0000      -1.080940       -29.4139
  14   2.0000      -0.918203       -24.9856
  15   2.0000      -0.836526       -22.7630
  16   2.0000      -0.793799       -21.6004
  17   2.0000      -0.717260       -19.5176
  18   2.0000      -0.675985       -18.3945
  19   2.0000      -0.669634       -18.2217
  20   2.0000      -0.619827       -16.8664
  21   2.0000      -0.568705       -15.4752
  22   2.0000      -0.558906       -15.2086
  23   2.0000      -0.536053       -14.5867
  24   2.0000      -0.516799       -14.0628
  25   2.0000      -0.506533       -13.7835
  26   2.0000      -0.461074       -12.5465
  27   2.0000      -0.454481       -12.3670
  28   2.0000      -0.448115       -12.1938
  29   2.0000      -0.430984       -11.7277
  30   2.0000      -0.400753       -10.9051
  31   2.0000      -0.384528       -10.4635
  32   2.0000      -0.370720       -10.0878
  33   0.0000       0.021472         0.5843
  34   0.0000       0.052740         1.4351
  35   0.0000       0.058743         1.5985
  36   0.0000       0.060164         1.6371
  37   0.0000       0.078544         2.1373

MULLIKEN ATOMIC CHARGES
-----------------------
   0 C :   -0.095205
   1 C :    0.159067
   2 H :   -0.044158
   3 H :   -0.049879
   4 S :    1.430928
   5 O :   -0.650684
   6 F :   -0.401147
   7 C :    1.032674
   8 H :   -0.077681
   9 H :   -0.205078
  10 O :   -0.688057
  11 H :   -0.185274
  12 H :   -0.137499
  13 H :   -0.088007
Sum of atomic charges:    0.0000000

LOEWDIN ATOMIC CHARGES
----------------------
   0 C :   -0.079861
   1 C :   -0.047194
   2 H :    0.040727
   3 H :    0.021959
   4 S :    1.117252
   5 O :   -0.460184
   6 F :   -0.250989
   7 C :    0.139678
   8 H :    0.021340
   9 H :    0.031505
  10 O :   -0.489211
  11 H :   -0.028814
  12 H :   -0.011864
  13 H :   -0.004346

  Mayer bond orders larger than 0.100000
B(  0-C ,  1-C ) :   1.2250 B(  0-C ,  2-H ) :   0.1373 B(  0-C ,  3-H ) :   0.1523
B(  0-C ,  7-C ) :   1.2707 B(  0-C ,  8-H ) :   0.8630 B(  0-C ,  9-H ) :   0.8498
B(  0-C , 11-H ) :   0.2389 B(  0-C , 12-H ) :   0.2338 B(  0-C , 13-H ) :   0.2450
B(  1-C ,  2-H ) :   0.9027 B(  1-C ,  3-H ) :   0.8980 B(  1-C ,  4-S ) :   0.9900
B(  1-C ,  8-H ) :   0.1379 B(  1-C ,  9-H ) :   0.1558 B(  4-S ,  5-O ) :   1.5820
B(  4-S ,  6-F ) :   0.6729 B(  4-S , 10-O ) :   1.4699 B(  7-C , 11-H ) :   0.7548
B(  7-C , 12-H ) :   0.6990 B(  7-C , 13-H ) :   0.7083 B( 11-H , 13-H ) :   0.1127

FINAL SINGLE POINT ENERGY      -766.414503800095

DIPOLE MOMENT
-------------
                                X             Y             Z
Electronic contribution:      1.40918      -6.49246     -10.21301
Nuclear contribution   :     -2.62245       7.78551      10.86491
                        -----------------------------------------
Total Dipole Moment    :     -1.21327       1.29306       0.65190
                        -----------------------------------------
Magnitude (a.u.)       :      1.88918
Magnitude (Debye)      :      4.80191

Rotational constants in cm-1:     0.129509     0.054228     0.052367
Rotational constants in MHz :  3882.596420  1625.701900  1569.934536

                             ****ORCA TERMINATED NORMALLY****
TOTAL RUN TIME: 0 days 0 hours 0 minutes 22 seconds 484 msec
