                         Program Version 5.0.0 -  RELEASE  -
|  1> !CAM-B3LYP RIJCOSX def2-SVPD def2/J TightSCF
|  2> *xyz 0 1
|  3> C          1.96337       -1.74915       -1.89689
|  4> N          2.73849       -2.01517       -3.09711
|  5> C          4.04974       -2.15472       -3.15204
|  6> C          4.65821       -1.98629       -4.31866
|  7> N          4.76423       -2.45444       -2.05049
|  8> H          4.28736       -2.77626       -1.21750
|  9> H          5.75082       -2.65835       -2.12599
| 10> H          2.34518       -1.69027       -3.97145
| 11> H          4.10900       -1.59268       -5.07176
| 12> H          5.64910       -2.15646       -4.42724
| 13> C          2.08852       -0.30091       -1.41520
| 14> H          2.23127       -2.45162       -1.10264
| 15> H          0.93025       -1.97780       -2.15544
| 16> C          1.96899        0.73358       -2.53565
| 17> H          3.05136       -0.16860       -0.91187
| 18> H          1.31650       -0.13623       -0.65725
| 19> H          2.73046        0.55745       -3.26643
| 20> H          2.08619        1.71595       -2.12808
| 21> H          1.00672        0.65098       -2.99620
| 22> *
| 23> %MaxCore 64000
| 24>
| 25> %pal nprocs 8
| 26> end
| 27>
| 28> %scf
| 29>   MaxIter 150
| 30> end
| 31>
| 32>
| 33>                          ****END OF INPUT****

CARTESIAN COORDINATES (ANGSTROEM)
---------------------------------
  C      1.963370   -1.749150   -1.896890
  N      2.738490   -2.015170   -3.097110
  C      4.049740   -2.154720   -3.152040
  C      4.658210   -1.986290   -4.318660
  N      4.764230   -2.454440   -2.050490
  H      4.287360   -2.776260   -1.217500
  H      5.750820   -2.658350   -2.125990
  H      2.345180   -1.690270   -3.971450
  H      4.109000   -1.592680   -5.071760
  H      5.649100   -2.156460   -4.427240
  C      2.088520   -0.300910   -1.415200
  H      2.231270   -2.451620   -1.102640
  H      0.930250   -1.977800   -2.155440
  C      1.968990    0.733580   -2.535650
  H      3.051360   -0.168600   -0.911870
  H      1.316500   -0.136230   -0.657250
  H      2.730460    0.557450   -3.266430
  H      2.086190    1.715950   -2.128080
  H      1.006720    0.650980   -2.996200

 Total Charge           Charge          ....    0
 Multiplicity           Mult            ....    1
 Number of Electrons    NEL             ....   56
 Basis Dimension        Dim             ....  236

ORBITAL ENERGIES
----------------

  NO   OCC          E(Eh)            E(eV)
   0   2.0000     -14.405539      -391.9947
   1   2.0000     -14.402387      -391.9089
   2   2.0000     -10.305858      -280.4367
   3   2.0000     -10.296214      -280.1742
   4   2.0000     -10.256769      -279.1009
   5   2.0000     -10.244014      -278.7538
   6   2.0000     -10.171022      -276.7676
   7   2.0000      -1.045362       -28.4457
   8   2.0000      -0.957953       -26.0672
   9   2.0000      -0.863663       -23.5015
  10   2.0000      -0.801083       -21.7986
  11   2.0000      -0.744863       -20.2688
  12   2.0000      -0.683515       -18.5994
  13   2.0000      -0.659310       -17.9407
  14   2.0000      -0.606720       -16.5097
  15   2.0000      -0.567054       -15.4303
  16   2.0000      -0.550926       -14.9914
  17   2.0000      -0.529817       -14.4171
  18   2.0000      -0.514232       -13.9930
  19   2.0000      -0.473216       -12.8769
  20   2.0000      -0.463494       -12.6123
  21   2.0000      -0.459409       -12.5011
  22   2.0000      -0.439770       -11.9667
  23   2.0000      -0.418327       -11.3832
  24   2.0000      -0.415563       -11.3080
  25   2.0000      -0.402399       -10.9498
  26   2.0000      -0.319047        -8.6817
  27   2.0000      -0.222430        -6.0526
  28   0.0000       0.043350         1.1796
  29   0.0000       0.063444         1.7264
  30   0.0000       0.073293         1.9944
  31   0.0000       0.078598         2.1387
  32   0.0000       0.104539         2.8447

MULLIKEN ATOMIC CHARGES
-----------------------
   0 C :    0.926825
   1 N :   -0.294455
   2 C :    0.557554
   3 C :    0.522468
   4 N :    0.238833
   5 H :   -0.149039
   6 H :   -0.219249
   7 H :   -0.166395
   8 H :   -0.323448
   9 H :   -0.533576
  10 C :   -0.181087
  11 H :   -0.219874
  12 H :   -0.376561
  13 C :    0.985261
  14 H :   -0.070375
  15 H :   -0.222749
  16 H :   -0.223954
  17 H :   -0.173712
  18 H :   -0.076467
Sum of atomic charges:    0.0000000

LOEWDIN ATOMIC CHARGES
----------------------
   0 C :    0.044459
   1 N :   -0.014119
   2 C :   -0.241881
   3 C :    0.145922
   4 N :    0.203388
   5 H :   -0.023557
   6 H :    0.004103
   7 H :    0.028148
   8 H :   -0.102100
   9 H :   -0.100730
  10 C :   -0.064088
  11 H :    0.009314
  12 H :    0.020365
  13 C :    0.124369
  14 H :    0.014337
  15 H :    0.015576
  16 H :   -0.027827
  17 H :   -0.018314
  18 H :   -0.017365

  Mayer bond orders larger than 0.100000
B(  0-C ,  1-N ) :   0.9442 B(  0-C ,  7-H ) :  -0.1467 B(  0-C , 10-C ) :   1.0565
B(  0-C , 11-H ) :   0.8570 B(  0-C , 12-H ) :   0.6577 B(  0-C , 15-H ) :   0.1247
B(  1-N ,  2-C ) :   1.1073 B(  1-N ,  3-C ) :   0.2783 B(  1-N ,  4-N ) :   0.1269
B(  1-N ,  7-H ) :   1.1320 B(  1-N , 11-H ) :   0.1488 B(  1-N , 12-H ) :   0.2900
B(  2-C ,  3-C ) :   1.3251 B(  2-C ,  4-N ) :   1.0384 B(  2-C ,  6-H ) :  -0.1195
B(  2-C ,  7-H ) :  -0.1332 B(  2-C ,  9-H ) :   0.1665 B(  3-C ,  4-N ) :   0.2051
B(  3-C ,  8-H ) :   0.8415 B(  3-C ,  9-H ) :   0.6935 B(  4-N ,  5-H ) :   1.0480
B(  4-N ,  6-H ) :   1.2556 B(  5-H ,  6-H ) :  -0.2131 B( 10-C , 11-H ) :   0.1013
B( 10-C , 12-H ) :   0.1513 B( 10-C , 13-C ) :   1.2770 B( 10-C , 14-H ) :   0.9099
B( 10-C , 15-H ) :   0.9442 B( 10-C , 16-H ) :   0.2324 B( 10-C , 17-H ) :   0.2337
B( 10-C , 18-H ) :   0.2271 B( 11-H , 12-H ) :  -0.1315 B( 13-C , 16-H ) :   0.7781
B( 13-C , 17-H ) :   0.7308 B( 13-C , 18-H ) :   0.7125 B( 16-H , 18-H ) :   0.1175

FINAL SINGLE POINT ENERGY      -306.849412564527

DIPOLE MOMENT
-------------
                                X             Y             Z
Electronic contribution:      1.93640      -3.92210      -0.42180
Nuclear contribution   :     -2.41054       3.93233       1.31148
                        -----------------------------------------
Total Dipole Moment    :     -0.47414       0.01023       0.88968
                        -----------------------------------------
Magnitude (a.u.)       :      1.00819
Magnitude (Debye)      :      2.56262

Rotational constants in cm-1:     0.144008     0.056232     0.050126
Rotational constants in MHz :  4317.255215  1685.791221  1502.728769

                             ****ORCA TERMINATED NORMALLY****
TOTAL RUN TIME: 0 days 0 hours 0 minutes 28 seconds 821 msec
