                         Program Version 5.0.0 -  RELEASE  -
|  1> !CAM-B3LYP RIJCOSX def2-SVPD def2/J TightSCF
|  2> *xyz 0 1
|  3> C          0.61188        1.65763       -4.50029
|  4> C          1.69499        1.54179       -5.57045
|  5> H          2.69733        1.73466       -5.18400
|  6> H          1.50666        2.27224       -6.35808
|  7> S          1.78029       -0.03313       -6.42874
|  8> O          2.56929        0.21366       -7.60736
|  9> O          0.41688       -0.46297       -6.61859
| 10> C          0.68036        0.65542       -3.34804
| 11> H         -0.35687        1.54923       -4.99113
| 12> H          0.65023        2.67544       -4.09600
| 13> F          2.50513       -0.93326       -5.48257
| 14> H          0.64318       -0.34009       -3.73853
| 15> H         -0.14865        0.81153       -2.68980
| 16> H          1.59447        0.79330       -2.80925
| 17> *
| 18> %MaxCore 64000
| 19>
| 20> %pal nprocs 8
| 21> end
| 22>
| 23> %scf
| 24>   MaxIter 150
| 25> end
| 26>
| 27>
| 28>                          ****END OF INPUT****

CARTESIAN COORDINATES (ANGSTROEM)
---------------------------------
  C      0.611880    1.657630   -4.500290
  C      1.694990    1.541790   -5.570450
  H      2.697330    1.734660   -5.184000
  H      1.506660    2.272240   -6.358080
  S      1.780290   -0.033130   -6.428740
  O      2.569290    0.213660   -7.607360
  O      0.416880   -0.462970   -6.618590
  C      0.680360    0.655420   -3.348040
  H     -0.356870    1.549230   -4.991130
  H      0.650230    2.675440   -4.096000
  F      2.505130   -0.933260   -5.482570
  H      0.643180   -0.340090   -3.738530
  H     -0.148650    0.811530   -2.689800
  H      1.594470    0.793300   -2.809250

 Total Charge           Charge          ....    0
 Multiplicity           Mult            ....    1
 Number of Electrons    NEL             ....   66
 Basis Dimension        Dim             ....  212

ORBITAL ENERGIES
----------------

  NO   OCC          E(Eh)            E(eV)
   0   2.0000     -89.219538     -2427.7871
   1   2.0000     -24.869634      -676.7371
   2   2.0000     -19.231818      -523.3244
   3   2.0000     -19.230947      -523.3007
   4   2.0000     -10.322410      -280.8871
   5   2.0000     -10.289722      -279.9976
   6   2.0000     -10.264123      -279.3010
   7   2.0000      -8.273367      -225.1298
   8   2.0000      -6.247315      -169.9981
   9   2.0000      -6.241210      -169.8320
  10   2.0000      -6.239766      -169.7927
  11   2.0000      -1.420616       -38.6569
  12   2.0000      -1.205186       -32.7948
  13   2.0000      -1.109517       -30.1915
  14   2.0000      -0.915660       -24.9164
  15   2.0000      -0.832100       -22.6426
  16   2.0000      -0.776416       -21.1274
  17   2.0000      -0.713592       -19.4178
  18   2.0000      -0.646552       -17.5936
  19   2.0000      -0.638436       -17.3727
  20   2.0000      -0.625902       -17.0317
  21   2.0000      -0.572872       -15.5886
  22   2.0000      -0.554016       -15.0755
  23   2.0000      -0.534689       -14.5496
  24   2.0000      -0.526087       -14.3155
  25   2.0000      -0.509779       -13.8718
  26   2.0000      -0.469042       -12.7633
  27   2.0000      -0.456198       -12.4138
  28   2.0000      -0.443083       -12.0569
  29   2.0000      -0.430110       -11.7039
  30   2.0000      -0.412042       -11.2122
  31   2.0000      -0.398530       -10.8445
  32   2.0000      -0.393095       -10.6967
  33   0.0000       0.028414         0.7732
  34   0.0000       0.053448         1.4544
  35   0.0000       0.058863         1.6017
  36   0.0000       0.061061         1.6615
  37   0.0000       0.082670         2.2496

MULLIKEN ATOMIC CHARGES
-----------------------
   0 C :   -0.073063
   1 C :    0.136241
   2 H :   -0.034641
   3 H :   -0.040629
   4 S :    1.432836
   5 O :   -0.662916
   6 O :   -0.664031
   7 C :    1.001940
   8 H :   -0.050023
   9 H :   -0.200379
  10 F :   -0.412550
  11 H :   -0.202280
  12 H :   -0.134695
  13 H :   -0.095811
Sum of atomic charges:    0.0000000

LOEWDIN ATOMIC CHARGES
----------------------
   0 C :   -0.075032
   1 C :   -0.049694
   2 H :    0.027286
   3 H :    0.032634
   4 S :    1.111553
   5 O :   -0.461380
   6 O :   -0.458907
   7 C :    0.138518
   8 H :    0.027349
   9 H :    0.031511
  10 F :   -0.277914
  11 H :   -0.026360
  12 H :   -0.009437
  13 H :   -0.010128

  Mayer bond orders larger than 0.100000
B(  0-C ,  1-C ) :   1.2667 B(  0-C ,  2-H ) :   0.1417 B(  0-C ,  3-H ) :   0.1462
B(  0-C ,  7-C ) :   1.2641 B(  0-C ,  8-H ) :   0.8704 B(  0-C ,  9-H ) :   0.8378
B(  0-C , 11-H ) :   0.2308 B(  0-C , 12-H ) :   0.2315 B(  0-C , 13-H ) :   0.2377
B(  1-C ,  2-H ) :   0.9035 B(  1-C ,  3-H ) :   0.8772 B(  1-C ,  4-S ) :   0.9885
B(  1-C ,  8-H ) :   0.1497 B(  1-C ,  9-H ) :   0.1582 B(  4-S ,  5-O ) :   1.5772
B(  4-S ,  6-O ) :   1.5183 B(  4-S , 10-F ) :   0.6095 B(  7-C , 11-H ) :   0.7620
B(  7-C , 12-H ) :   0.7088 B(  7-C , 13-H ) :   0.7119

FINAL SINGLE POINT ENERGY      -766.439371980591

DIPOLE MOMENT
-------------
                                X             Y             Z
Electronic contribution:      4.98634      -7.31854      -8.24374
Nuclear contribution   :     -4.86824       8.29128       9.64318
                        -----------------------------------------
Total Dipole Moment    :      0.11810       0.97275       1.39945
                        -----------------------------------------
Magnitude (a.u.)       :      1.70840
Magnitude (Debye)      :      4.34242

Rotational constants in cm-1:     0.129339     0.055092     0.051542
Rotational constants in MHz :  3877.477482  1651.602611  1545.182728

                             ****ORCA TERMINATED NORMALLY****
TOTAL RUN TIME: 0 days 0 hours 0 minutes 21 seconds 354 msec
