                         Program Version 5.0.0 -  RELEASE  -
|  1> !CAM-B3LYP RIJCOSX def2-SVPD def2/J TightSCF
|  2> *xyz 0 1
|  3> C          1.96337       -1.74915       -1.89689
|  4> N          2.73849       -2.01517       -3.09711
|  5> C          4.04974       -2.15472       -3.15204
|  6> N          4.65821       -1.98629       -4.31866
|  7> C          4.76423       -2.45444       -2.05049
|  8> H          4.28736       -2.77626       -1.21750
|  9> H          5.75082       -2.65835       -2.12599
| 10> H          2.34518       -1.69027       -3.97145
| 11> H          4.10900       -1.59268       -5.07176
| 12> H          5.64910       -2.15646       -4.42724
| 13> C          2.08852       -0.30091       -1.41520
| 14> H          2.23127       -2.45162       -1.10264
| 15> H          0.93025       -1.97780       -2.15544
| 16> C          1.96899        0.73358       -2.53565
| 17> H          3.05136       -0.16860       -0.91187
| 18> H          1.31650       -0.13623       -0.65725
| 19> H          2.73046        0.55745       -3.26643
| 20> H          2.08619        1.71595       -2.12808
| 21> H          1.00672        0.65098       -2.99620
| 22> *
| 23> %MaxCore 64000
| 24>
| 25> %pal nprocs 8
| 26> end
| 27>
| 28> %scf
| 29>   MaxIter 150
| 30> end
| 31>
| 32>
| 33>                          ****END OF INPUT****

CARTESIAN COORDINATES (ANGSTROEM)
---------------------------------
  C      1.963370   -1.749150   -1.896890
  N      2.738490   -2.015170   -3.097110
  C      4.049740   -2.154720   -3.152040
  N      4.658210   -1.986290   -4.318660
  C      4.764230   -2.454440   -2.050490
  H      4.287360   -2.776260   -1.217500
  H      5.750820   -2.658350   -2.125990
  H      2.345180   -1.690270   -3.971450
  H      4.109000   -1.592680   -5.071760
  H      5.649100   -2.156460   -4.427240
  C      2.088520   -0.300910   -1.415200
  H      2.231270   -2.451620   -1.102640
  H      0.930250   -1.977800   -2.155440
  C      1.968990    0.733580   -2.535650
  H      3.051360   -0.168600   -0.911870
  H      1.316500   -0.136230   -0.657250
  H      2.730460    0.557450   -3.266430
  H      2.086190    1.715950   -2.128080
  H      1.006720    0.650980   -2.996200

 Total Charge           Charge          ....    0
 Multiplicity           Mult            ....    1
 Number of Electrons    NEL             ....   56
 Basis Dimension        Dim             ....  236

ORBITAL ENERGIES
----------------

  NO   OCC          E(Eh)            E(eV)
   0   2.0000     -14.408105      -392.0645
   1   2.0000     -14.406487      -392.0205
   2   2.0000     -10.307554      -280.4828
   3   2.0000     -10.290007      -280.0053
   4   2.0000     -10.251015      -278.9443
   5   2.0000     -10.243704      -278.7454
   6   2.0000     -10.170742      -276.7600
   7   2.0000      -1.051209       -28.6049
   8   2.0000      -0.962519       -26.1915
   9   2.0000      -0.853920       -23.2364
  10   2.0000      -0.785863       -21.3844
  11   2.0000      -0.767468       -20.8839
  12   2.0000      -0.681974       -18.5575
  13   2.0000      -0.625676       -17.0255
  14   2.0000      -0.620251       -16.8779
  15   2.0000      -0.595987       -16.2176
  16   2.0000      -0.546037       -14.8584
  17   2.0000      -0.522530       -14.2188
  18   2.0000      -0.508240       -13.8299
  19   2.0000      -0.472650       -12.8615
  20   2.0000      -0.464448       -12.6383
  21   2.0000      -0.450914       -12.2700
  22   2.0000      -0.437440       -11.9034
  23   2.0000      -0.418003       -11.3744
  24   2.0000      -0.412377       -11.2214
  25   2.0000      -0.395625       -10.7655
  26   2.0000      -0.316699        -8.6178
  27   2.0000      -0.223332        -6.0772
  28   0.0000       0.040310         1.0969
  29   0.0000       0.065817         1.7910
  30   0.0000       0.075272         2.0483
  31   0.0000       0.080351         2.1864
  32   0.0000       0.100025         2.7218

MULLIKEN ATOMIC CHARGES
-----------------------
   0 C :    0.880411
   1 N :   -0.314010
   2 C :    0.617193
   3 N :    0.139359
   4 C :    0.523957
   5 H :   -0.147231
   6 H :   -0.699374
   7 H :   -0.256474
   8 H :   -0.129431
   9 H :   -0.165883
  10 C :   -0.142299
  11 H :   -0.089877
  12 H :   -0.401499
  13 C :    0.980070
  14 H :   -0.122120
  15 H :   -0.193311
  16 H :   -0.235076
  17 H :   -0.170679
  18 H :   -0.073727
Sum of atomic charges:    0.0000000

LOEWDIN ATOMIC CHARGES
----------------------
   0 C :    0.053312
   1 N :   -0.016990
   2 C :   -0.244022
   3 N :    0.189939
   4 C :    0.160581
   5 H :   -0.113416
   6 H :   -0.107276
   7 H :    0.015454
   8 H :   -0.009983
   9 H :    0.011070
  10 C :   -0.057810
  11 H :    0.017489
  12 H :    0.020089
  13 C :    0.119678
  14 H :    0.014955
  15 H :    0.017744
  16 H :   -0.032963
  17 H :   -0.018739
  18 H :   -0.019112

  Mayer bond orders larger than 0.100000
B(  0-C ,  1-N ) :   0.9376 B(  0-C ,  4-C ) :   0.1058 B(  0-C ,  7-H ) :  -0.1424
B(  0-C , 10-C ) :   1.0324 B(  0-C , 11-H ) :   0.8605 B(  0-C , 12-H ) :   0.7288
B(  0-C , 14-H ) :   0.1097 B(  0-C , 15-H ) :   0.1206 B(  1-N ,  2-C ) :   0.9817
B(  1-N ,  3-N ) :   0.1949 B(  1-N ,  4-C ) :   0.3700 B(  1-N ,  7-H ) :   1.2092
B(  1-N , 12-H ) :   0.2301 B(  2-C ,  3-N ) :   0.8889 B(  2-C ,  4-C ) :   1.5926
B(  2-C ,  5-H ) :   0.2785 B(  2-C ,  6-H ) :   0.1457 B(  2-C ,  7-H ) :  -0.1994
B(  2-C ,  9-H ) :  -0.1211 B(  3-N ,  4-C ) :   0.2198 B(  3-N ,  8-H ) :   1.1378
B(  3-N ,  9-H ) :   1.2783 B(  4-C ,  5-H ) :   0.5907 B(  4-C ,  6-H ) :   0.8085
B(  5-H , 11-H ) :   0.1278 B(  8-H ,  9-H ) :  -0.1740 B( 10-C , 12-H ) :   0.1475
B( 10-C , 13-C ) :   1.2671 B( 10-C , 14-H ) :   0.9325 B( 10-C , 15-H ) :   0.9153
B( 10-C , 16-H ) :   0.2411 B( 10-C , 17-H ) :   0.2333 B( 10-C , 18-H ) :   0.2295
B( 11-H , 12-H ) :  -0.1765 B( 13-C , 16-H ) :   0.7741 B( 13-C , 17-H ) :   0.7311
B( 13-C , 18-H ) :   0.7090 B( 16-H , 18-H ) :   0.1122

FINAL SINGLE POINT ENERGY      -306.848345137029

DIPOLE MOMENT
-------------
                                X             Y             Z
Electronic contribution:      1.86555      -3.41345      -2.61413
Nuclear contribution   :     -2.38731       3.82978       1.80833
                        -----------------------------------------
Total Dipole Moment    :     -0.52177       0.41633      -0.80580
                        -----------------------------------------
Magnitude (a.u.)       :      1.04637
Magnitude (Debye)      :      2.65967

Rotational constants in cm-1:     0.144922     0.055791     0.049560
Rotational constants in MHz :  4344.653038  1672.561873  1485.775629

                             ****ORCA TERMINATED NORMALLY****
TOTAL RUN TIME: 0 days 0 hours 0 minutes 27 seconds 654 msec
