                         Program Version 5.0.0 -  RELEASE  -
|  1> !CAM-B3LYP RIJCOSX def2-SVPD def2/J TightSCF xyzfile
|  2>
|  3> *xyzfile 0 1 D1.xyz
|  4>
|  5> %MaxCore 64000
|  6>
|  7> %pal nprocs 4
|  8> end
|  9>
| 10> %scf
| 11>   MaxIter 150
| 12> end
| 13>
| 14>
| 15>                          ****END OF INPUT****

CARTESIAN COORDINATES (ANGSTROEM)
---------------------------------
  C      1.963365   -1.749150   -1.896887
  C      2.738490   -2.015170   -3.097113
  C      0.611877    1.657634   -4.500288
  C      1.694991    1.541794   -5.570447
  H      2.697326    1.734659   -5.183996
  H      1.506656    2.272239   -6.358076
  S      1.780287   -0.033128   -6.428739
  C      4.049736   -2.154717   -3.152044
  N      4.658206   -1.986293   -4.318655
  N      4.764231   -2.454435   -2.050491
  H      4.287363   -2.776259   -1.217496
  H      5.750825   -2.658351   -2.125988
  H      2.345176   -1.690274   -3.971447
  H      4.109004   -1.592677   -5.071760
  H      5.649095   -2.156462   -4.427237
  F      2.569287    0.213657   -7.607360
  O      0.416880   -0.462969   -6.618595
  C      2.088520   -0.300912   -1.415204
  H      2.231272   -2.451616   -1.102643
  H      0.930249   -1.977801   -2.155438
  C      0.680356    0.655418   -3.348038
  H     -0.356865    1.549231   -4.991128
  H      0.650228    2.675438   -4.096000
  C      1.968993    0.733582   -2.535654
  H      3.051356   -0.168602   -0.911868
  H      1.316501   -0.136231   -0.657252
  O      2.505129   -0.933263   -5.482570
  H      2.824195    0.624726   -3.208464
  H      2.058919    1.730331   -2.093112
  H      0.542252   -0.344731   -3.766662
  H     -0.174219    0.829692   -2.685182

 Total Charge           Charge          ....    0
 Multiplicity           Mult            ....    1
 Number of Electrons    NEL             ....  120
 Basis Dimension        Dim             ....  432

ORBITAL ENERGIES
----------------

  NO   OCC          E(Eh)            E(eV)
   0   2.0000     -89.233101     -2428.1561
   1   2.0000     -24.906109      -677.7297
   2   2.0000     -19.241278      -523.5818
   3   2.0000     -19.226882      -523.1901
   4   2.0000     -14.389125      -391.5480
   5   2.0000     -14.373192      -391.1144
   6   2.0000     -10.326928      -281.0100
   7   2.0000     -10.285169      -279.8737
   8   2.0000     -10.280326      -279.7419
   9   2.0000     -10.252646      -278.9887
  10   2.0000     -10.240977      -278.6711
  11   2.0000     -10.230107      -278.3754
  12   2.0000     -10.218135      -278.0496
  13   2.0000     -10.145656      -276.0773
  14   2.0000      -8.286209      -225.4792
  15   2.0000      -6.260369      -170.3533
  16   2.0000      -6.253977      -170.1794
  17   2.0000      -6.252339      -170.1348
  18   2.0000      -1.474749       -40.1300
  19   2.0000      -1.204664       -32.7806
  20   2.0000      -1.098628       -29.8952
  21   2.0000      -1.013228       -27.5713
  22   2.0000      -0.922622       -25.1058
  23   2.0000      -0.918369       -24.9901
  24   2.0000      -0.871304       -23.7094
  25   2.0000      -0.835082       -22.7237
  26   2.0000      -0.804434       -21.8898
  27   2.0000      -0.769020       -20.9261
  28   2.0000      -0.729354       -19.8467
  29   2.0000      -0.697502       -18.9800
  30   2.0000      -0.683979       -18.6120
  31   2.0000      -0.664404       -18.0793
  32   2.0000      -0.663756       -18.0617
  33   2.0000      -0.625522       -17.0213
  34   2.0000      -0.622501       -16.9391
  35   2.0000      -0.597755       -16.2658
  36   2.0000      -0.574124       -15.6227
  37   2.0000      -0.568386       -15.4666
  38   2.0000      -0.557399       -15.1676
  39   2.0000      -0.540049       -14.6955
  40   2.0000      -0.537205       -14.6181
  41   2.0000      -0.514871       -14.0103
  42   2.0000      -0.505172       -13.7464
  43   2.0000      -0.496423       -13.5084
  44   2.0000      -0.484495       -13.1838
  45   2.0000      -0.471573       -12.8321
  46   2.0000      -0.453151       -12.3309
  47   2.0000      -0.446942       -12.1619
  48   2.0000      -0.438319       -11.9273
  49   2.0000      -0.429847       -11.6967
  50   2.0000      -0.419094       -11.4041
  51   2.0000      -0.402628       -10.9561
  52   2.0000      -0.397055       -10.8044
  53   2.0000      -0.391171       -10.6443
  54   2.0000      -0.389008       -10.5854
  55   2.0000      -0.377416       -10.2700
  56   2.0000      -0.363354        -9.8874
  57   2.0000      -0.349117        -9.5000
  58   2.0000      -0.309807        -8.4303
  59   2.0000      -0.195237        -5.3127
  60   0.0000       0.021096         0.5740
  61   0.0000       0.045004         1.2246
  62   0.0000       0.050926         1.3858
  63   0.0000       0.058745         1.5985
  64   0.0000       0.072589         1.9752

MULLIKEN ATOMIC CHARGES
-----------------------
   0 C :    0.449303
   1 C :    0.229013
   2 C :    0.564301
   3 C :    0.231836
   4 H :    0.051004
   5 H :   -0.152814
   6 S :    1.613443
   7 C :    0.584052
   8 N :    0.295559
   9 N :    0.099534
  10 H :   -0.067465
  11 H :   -0.305575
  12 H :   -0.612207
  13 H :   -0.230199
  14 H :   -0.309489
  15 F :   -0.468044
  16 O :   -0.685771
  17 C :    0.734768
  18 H :   -0.444086
  19 H :    0.062963
  20 C :    0.177456
  21 H :   -0.081606
  22 H :   -0.109946
  23 C :    0.035959
  24 H :   -0.104372
  25 H :   -0.035563
  26 O :   -0.739044
  27 H :   -0.064992
  28 H :   -0.287310
  29 H :   -0.165672
  30 H :   -0.265037
Sum of atomic charges:   -0.0000000

LOEWDIN ATOMIC CHARGES
----------------------
   0 C :   -0.048034
   1 C :   -0.026504
   2 C :   -0.019246
   3 C :   -0.043766
   4 H :    0.023201
   5 H :    0.019556
   6 S :    1.191262
   7 C :   -0.200249
   8 N :    0.203256
   9 N :    0.198825
  10 H :   -0.013022
  11 H :   -0.017844
  12 H :   -0.131146
  13 H :   -0.082740
  14 H :   -0.011496
  15 F :   -0.244660
  16 O :   -0.440565
  17 C :   -0.021032
  18 H :   -0.000384
  19 H :    0.010339
  20 C :   -0.015916
  21 H :    0.029069
  22 H :    0.037891
  23 C :   -0.028421
  24 H :    0.016898
  25 H :    0.014582
  26 O :   -0.476292
  27 H :    0.007929
  28 H :    0.021359
  29 H :    0.012539
  30 H :    0.034611

  Mayer bond orders larger than 0.100000
B(  0-C ,  1-C ) :   1.0176 B(  0-C ,  7-C ) :   0.1826 B(  0-C , 12-H ) :   0.4663
B(  0-C , 17-C ) :   1.0875 B(  0-C , 18-H ) :   0.7412 B(  0-C , 19-H ) :   0.6331
B(  0-C , 23-C ) :   0.1656 B(  0-C , 24-H ) :   0.1370 B(  0-C , 25-H ) :   0.2097
B(  1-C ,  7-C ) :   1.6970 B(  1-C ,  8-N ) :   0.2491 B(  1-C ,  9-N ) :   0.2641
B(  1-C , 10-H ) :  -0.1049 B(  1-C , 18-H ) :   0.2673 B(  1-C , 19-H ) :   0.3171
B(  1-C , 26-O ) :  -0.1337 B(  1-C , 28-H ) :   0.1102 B(  2-C ,  3-C ) :   1.2637
B(  2-C ,  4-H ) :   0.1187 B(  2-C ,  5-H ) :   0.2157 B(  2-C , 20-C ) :   1.2239
B(  2-C , 21-H ) :   0.6211 B(  2-C , 22-H ) :   0.7396 B(  3-C ,  4-H ) :   0.8672
B(  3-C ,  5-H ) :   0.7519 B(  3-C ,  6-S ) :   1.0230 B(  3-C , 21-H ) :   0.1224
B(  3-C , 22-H ) :   0.1549 B(  6-S , 15-F ) :   0.6171 B(  6-S , 16-O ) :   1.4708
B(  6-S , 26-O ) :   1.3312 B(  7-C ,  8-N ) :   0.8250 B(  7-C ,  9-N ) :   0.9233
B(  7-C , 11-H ) :  -0.1810 B(  7-C , 12-H ) :   0.6705 B(  7-C , 13-H ) :  -0.1254
B(  7-C , 14-H ) :  -0.2417 B(  8-N , 12-H ) :   0.1023 B(  8-N , 13-H ) :   1.2005
B(  8-N , 14-H ) :   1.3534 B(  9-N , 10-H ) :   1.0872 B(  9-N , 11-H ) :   1.3546
B( 10-H , 11-H ) :  -0.2240 B( 12-H , 23-C ) :   0.1157 B( 12-H , 26-O ) :   0.1968
B( 12-H , 27-H ) :   0.1062 B( 12-H , 28-H ) :  -0.1408 B( 13-H , 14-H ) :  -0.2072
B( 13-H , 26-O ) :   0.1274 B( 16-O , 26-O ) :   0.1411 B( 17-C , 19-H ) :   0.1007
B( 17-C , 23-C ) :   1.2016 B( 17-C , 24-H ) :   0.6907 B( 17-C , 25-H ) :   0.6266
B( 17-C , 27-H ) :   0.1074 B( 20-C , 21-H ) :   0.3092 B( 20-C , 23-C ) :   1.1668
B( 20-C , 27-H ) :   0.1214 B( 20-C , 28-H ) :   0.1691 B( 20-C , 29-H ) :   0.9272
B( 20-C , 30-H ) :   0.7865 B( 21-H , 22-H ) :  -0.1050 B( 23-C , 24-H ) :   0.2891
B( 23-C , 25-H ) :   0.1653 B( 23-C , 27-H ) :   0.8837 B( 23-C , 28-H ) :   0.8281
B( 23-C , 29-H ) :   0.1162 B( 23-C , 30-H ) :   0.1653 B( 24-H , 25-H ) :  -0.1168

FINAL SINGLE POINT ENERGY     -1072.066299298995

DIPOLE MOMENT
-------------
                                X             Y             Z
Electronic contribution:      0.71402      -0.92506     -23.50346
Nuclear contribution   :      0.18720       2.58739      22.98820
                        -----------------------------------------
Total Dipole Moment    :      0.90122       1.66233      -0.51525
                        -----------------------------------------
Magnitude (a.u.)       :      1.95986
Magnitude (Debye)      :      4.98156

Rotational constants in cm-1:     0.028798     0.014448     0.010940
Rotational constants in MHz :   863.355869   433.126694   327.985023

                             ****ORCA TERMINATED NORMALLY****
TOTAL RUN TIME: 0 days 0 hours 4 minutes 31 seconds 13 msec
