                         Program Version 5.0.0 -  RELEASE  -
|  1> !CAM-B3LYP RIJCOSX def2-SVPD def2/J TightSCF xyzfile
|  2>
|  3> *xyzfile 0 1 D7.xyz
|  4>
|  5> %MaxCore 64000
|  6>
|  7> %pal nprocs 4
|  8> end
|  9>
| 10> %scf
| 11>   MaxIter 150
| 12> end
| 13>
| 14>
| 15>                          ****END OF INPUT****

CARTESIAN COORDINATES (ANGSTROEM)
---------------------------------
  C      1.963365   -1.749150   -1.896887
  C      2.738490   -2.015170   -3.097113
  C      0.611877    1.657634   -4.500288
  C      1.694991    1.541794   -5.570447
  H      2.697326    1.734659   -5.183996
  H      1.506656    2.272239   -6.358076
  S      1.780287   -0.033128   -6.428739
  C      4.049736   -2.154717   -3.152044
  N      4.658206   -1.986293   -4.318655
  N      4.764231   -2.454435   -2.050491
  H      4.287363   -2.776259   -1.217496
  H      5.750825   -2.658351   -2.125988
  H      2.345176   -1.690274   -3.971447
  H      4.109004   -1.592677   -5.071760
  H      5.649095   -2.156462   -4.427237
  O      2.569287    0.213657   -7.607360
  O      0.416880   -0.462969   -6.618595
  C      2.088520   -0.300912   -1.415204
  H      2.231272   -2.451616   -1.102643
  H      0.930249   -1.977801   -2.155438
  C      0.680356    0.655418   -3.348038
  H     -0.356865    1.549231   -4.991128
  H      0.650228    2.675438   -4.096000
  C      1.968993    0.733582   -2.535654
  H      3.051356   -0.168602   -0.911868
  H      1.316501   -0.136231   -0.657252
  F      2.505129   -0.933263   -5.482570
  H      2.824195    0.624726   -3.208464
  H      2.058919    1.730331   -2.093112
  H      0.542252   -0.344731   -3.766662
  H     -0.174219    0.829692   -2.685182

 Total Charge           Charge          ....    0
 Multiplicity           Mult            ....    1
 Number of Electrons    NEL             ....  120
 Basis Dimension        Dim             ....  432

ORBITAL ENERGIES
----------------

  NO   OCC          E(Eh)            E(eV)
   0   2.0000     -89.223897     -2427.9057
   1   2.0000     -24.881180      -677.0513
   2   2.0000     -19.234917      -523.4087
   3   2.0000     -19.234321      -523.3925
   4   2.0000     -14.409198      -392.0942
   5   2.0000     -14.403679      -391.9440
   6   2.0000     -10.321058      -280.8503
   7   2.0000     -10.305828      -280.4358
   8   2.0000     -10.282926      -279.8126
   9   2.0000     -10.262498      -279.2568
  10   2.0000     -10.253853      -279.0215
  11   2.0000     -10.243822      -278.7486
  12   2.0000     -10.235830      -278.5311
  13   2.0000     -10.174706      -276.8678
  14   2.0000      -8.276837      -225.2242
  15   2.0000      -6.251039      -170.0994
  16   2.0000      -6.244615      -169.9246
  17   2.0000      -6.243133      -169.8843
  18   2.0000      -1.435488       -39.0616
  19   2.0000      -1.209848       -32.9216
  20   2.0000      -1.112394       -30.2698
  21   2.0000      -1.038269       -28.2527
  22   2.0000      -0.946970       -25.7684
  23   2.0000      -0.919558       -25.0225
  24   2.0000      -0.880706       -23.9652
  25   2.0000      -0.834866       -22.7179
  26   2.0000      -0.813923       -22.1480
  27   2.0000      -0.775067       -21.0906
  28   2.0000      -0.743460       -20.2306
  29   2.0000      -0.703836       -19.1523
  30   2.0000      -0.668606       -18.1937
  31   2.0000      -0.659306       -17.9406
  32   2.0000      -0.651873       -17.7384
  33   2.0000      -0.642649       -17.4874
  34   2.0000      -0.620605       -16.8875
  35   2.0000      -0.615768       -16.7559
  36   2.0000      -0.579380       -15.7657
  37   2.0000      -0.569776       -15.5044
  38   2.0000      -0.563714       -15.3394
  39   2.0000      -0.545221       -14.8362
  40   2.0000      -0.542105       -14.7514
  41   2.0000      -0.530478       -14.4350
  42   2.0000      -0.518391       -14.1061
  43   2.0000      -0.504217       -13.7204
  44   2.0000      -0.493120       -13.4185
  45   2.0000      -0.469850       -12.7853
  46   2.0000      -0.468727       -12.7547
  47   2.0000      -0.462871       -12.5954
  48   2.0000      -0.455091       -12.3837
  49   2.0000      -0.436312       -11.8727
  50   2.0000      -0.425707       -11.5841
  51   2.0000      -0.412537       -11.2257
  52   2.0000      -0.410210       -11.1624
  53   2.0000      -0.400841       -10.9074
  54   2.0000      -0.396088       -10.7781
  55   2.0000      -0.389178       -10.5901
  56   2.0000      -0.379211       -10.3189
  57   2.0000      -0.374148       -10.1811
  58   2.0000      -0.333714        -9.0808
  59   2.0000      -0.220308        -5.9949
  60   0.0000       0.031419         0.8550
  61   0.0000       0.045047         1.2258
  62   0.0000       0.053391         1.4529
  63   0.0000       0.055375         1.5068
  64   0.0000       0.067985         1.8500

MULLIKEN ATOMIC CHARGES
-----------------------
   0 C :    0.459837
   1 C :    0.238028
   2 C :    0.635522
   3 C :    0.244158
   4 H :    0.059092
   5 H :   -0.227464
   6 S :    1.531177
   7 C :    0.606245
   8 N :    0.345553
   9 N :    0.100070
  10 H :   -0.056456
  11 H :   -0.301583
  12 H :   -0.618969
  13 H :   -0.279905
  14 H :   -0.297133
  15 O :   -0.671670
  16 O :   -0.709578
  17 C :    0.715689
  18 H :   -0.434032
  19 H :    0.054835
  20 C :    0.177543
  21 H :   -0.091460
  22 H :   -0.107580
  23 C :    0.030408
  24 H :   -0.108757
  25 H :   -0.031075
  26 F :   -0.492542
  27 H :   -0.068049
  28 H :   -0.265750
  29 H :   -0.203809
  30 H :   -0.232343
Sum of atomic charges:   -0.0000000

LOEWDIN ATOMIC CHARGES
----------------------
   0 C :   -0.046151
   1 C :   -0.029287
   2 C :   -0.029300
   3 C :   -0.037410
   4 H :    0.021215
   5 H :    0.032942
   6 S :    1.139783
   7 C :   -0.198449
   8 N :    0.205130
   9 N :    0.205954
  10 H :   -0.008488
  11 H :   -0.012290
  12 H :   -0.108699
  13 H :   -0.051537
  14 H :   -0.001528
  15 O :   -0.453523
  16 O :   -0.445025
  17 C :   -0.019442
  18 H :    0.003182
  19 H :    0.012632
  20 C :   -0.020353
  21 H :    0.029186
  22 H :    0.035555
  23 C :   -0.030705
  24 H :    0.017985
  25 H :    0.017568
  26 F :   -0.302155
  27 H :    0.004619
  28 H :    0.024793
  29 H :    0.007769
  30 H :    0.036030

  Mayer bond orders larger than 0.100000
B(  0-C ,  1-C ) :   1.0367 B(  0-C ,  7-C ) :   0.1819 B(  0-C , 12-H ) :   0.4667
B(  0-C , 17-C ) :   1.0989 B(  0-C , 18-H ) :   0.7210 B(  0-C , 19-H ) :   0.6361
B(  0-C , 23-C ) :   0.1666 B(  0-C , 24-H ) :   0.1262 B(  0-C , 25-H ) :   0.1967
B(  1-C ,  7-C ) :   1.6323 B(  1-C ,  8-N ) :   0.2588 B(  1-C ,  9-N ) :   0.2466
B(  1-C , 10-H ) :  -0.1033 B(  1-C , 12-H ) :  -0.2135 B(  1-C , 18-H ) :   0.2874
B(  1-C , 19-H ) :   0.3335 B(  2-C ,  3-C ) :   1.2143 B(  2-C ,  4-H ) :   0.1323
B(  2-C ,  5-H ) :   0.1909 B(  2-C , 20-C ) :   1.2320 B(  2-C , 21-H ) :   0.6207
B(  2-C , 22-H ) :   0.7202 B(  3-C ,  4-H ) :   0.8724 B(  3-C ,  5-H ) :   0.7600
B(  3-C ,  6-S ) :   1.0399 B(  3-C , 21-H ) :   0.1347 B(  3-C , 22-H ) :   0.1452
B(  5-H ,  6-S ) :   0.1143 B(  6-S , 15-O ) :   1.5338 B(  6-S , 16-O ) :   1.4540
B(  6-S , 26-F ) :   0.6146 B(  7-C ,  8-N ) :   0.8491 B(  7-C ,  9-N ) :   0.9557
B(  7-C , 11-H ) :  -0.1886 B(  7-C , 12-H ) :   0.6895 B(  7-C , 13-H ) :  -0.1051
B(  7-C , 14-H ) :  -0.2356 B(  8-N , 13-H ) :   1.2053 B(  8-N , 14-H ) :   1.3341
B(  9-N , 10-H ) :   1.0739 B(  9-N , 11-H ) :   1.3580 B( 10-H , 11-H ) :  -0.2235
B( 12-H , 23-C ) :   0.1266 B( 12-H , 28-H ) :  -0.1064 B( 13-H , 14-H ) :  -0.1876
B( 13-H , 26-F ) :   0.1365 B( 17-C , 19-H ) :   0.1017 B( 17-C , 23-C ) :   1.1998
B( 17-C , 24-H ) :   0.7046 B( 17-C , 25-H ) :   0.6340 B( 17-C , 27-H ) :   0.1186
B( 17-C , 28-H ) :   0.1060 B( 20-C , 21-H ) :   0.3086 B( 20-C , 22-H ) :   0.1001
B( 20-C , 23-C ) :   1.1734 B( 20-C , 27-H ) :   0.1084 B( 20-C , 28-H ) :   0.1674
B( 20-C , 29-H ) :   0.9249 B( 20-C , 30-H ) :   0.7801 B( 21-H , 22-H ) :  -0.1069
B( 23-C , 24-H ) :   0.2903 B( 23-C , 25-H ) :   0.1642 B( 23-C , 27-H ) :   0.8794
B( 23-C , 28-H ) :   0.8399 B( 23-C , 29-H ) :   0.1062 B( 23-C , 30-H ) :   0.1760
B( 24-H , 25-H ) :  -0.1145

FINAL SINGLE POINT ENERGY     -1072.085313043348

DIPOLE MOMENT
-------------
                                X             Y             Z
Electronic contribution:      0.76566      -3.07110     -19.34026
Nuclear contribution   :      0.26049       3.89757      20.56096
                        -----------------------------------------
Total Dipole Moment    :      1.02615       0.82647       1.22071
                        -----------------------------------------
Magnitude (a.u.)       :      1.79615
Magnitude (Debye)      :      4.56546

Rotational constants in cm-1:     0.029090     0.014735     0.011139
Rotational constants in MHz :   872.086433   441.731892   333.928051

                             ****ORCA TERMINATED NORMALLY****
TOTAL RUN TIME: 0 days 0 hours 4 minutes 27 seconds 711 msec
