                         Program Version 5.0.0 -  RELEASE  -
|  1> !PBE0 D3BJ RIJCOSX def2-SVPD def2/J TightSCF
|  2> *xyz -1 1
|  3> C         -1.36646        2.47911       -4.31393
|  4> C         -2.35773        2.30686       -3.13675
|  5> O         -3.44376        2.84652       -3.25274
|  6> O         -1.97092        1.58304       -2.15123
|  7> H         -1.80853        3.10058       -5.06443
|  8> H         -1.13980        1.52081       -4.73248
|  9> H         -0.46612        2.93495       -3.95827
| 10> *
| 11> %MaxCore 64000
| 12>
| 13> %pal nprocs 4
| 14> end
| 15>
| 16> %scf
| 17>   MaxIter 150
| 18> end
| 19>
| 20>
| 21>                          ****END OF INPUT****

CARTESIAN COORDINATES (ANGSTROEM)
---------------------------------
  C     -1.366460    2.479110   -4.313930
  C     -2.357730    2.306860   -3.136750
  O     -3.443760    2.846520   -3.252740
  O     -1.970920    1.583040   -2.151230
  H     -1.808530    3.100580   -5.064430
  H     -1.139800    1.520810   -4.732480
  H     -0.466120    2.934950   -3.958270

 Total Charge           Charge          ....   -1
 Multiplicity           Mult            ....    1
 Number of Electrons    NEL             ....   32
 Basis Dimension        Dim             ....  110

ORBITAL ENERGIES
----------------

  NO   OCC          E(Eh)            E(eV)
   0   2.0000     -18.956597      -515.8352
   1   2.0000     -18.945105      -515.5225
   2   2.0000     -10.115208      -275.2488
   3   2.0000     -10.042729      -273.2766
   4   2.0000      -0.844166       -22.9709
   5   2.0000      -0.741034       -20.1646
   6   2.0000      -0.554677       -15.0935
   7   2.0000      -0.315005        -8.5717
   8   2.0000      -0.270715        -7.3665
   9   2.0000      -0.257200        -6.9988
  10   2.0000      -0.242322        -6.5939
  11   2.0000      -0.200188        -5.4474
  12   2.0000      -0.183028        -4.9804
  13   2.0000      -0.059873        -1.6292
  14   2.0000      -0.052881        -1.4390
  15   2.0000      -0.038971        -1.0605
  16   0.0000       0.179370         4.8809
  17   0.0000       0.219772         5.9803
  18   0.0000       0.233133         6.3439
  19   0.0000       0.248601         6.7648
  20   0.0000       0.272563         7.4168

MULLIKEN ATOMIC CHARGES
-----------------------
   0 C :    0.294066
   1 C :    0.154530
   2 O :   -0.637921
   3 O :   -0.775362
   4 H :   -0.022461
   5 H :   -0.006304
   6 H :   -0.006548
Sum of atomic charges:   -1.0000000

LOEWDIN ATOMIC CHARGES
----------------------
   0 C :    0.139722
   1 C :   -0.326463
   2 O :   -0.317466
   3 O :   -0.371459
   4 H :   -0.045871
   5 H :   -0.038660
   6 H :   -0.039804

  Mayer bond orders larger than 0.100000
B(  0-C ,  1-C ) :   1.2372 B(  0-C ,  4-H ) :   0.9045 B(  0-C ,  5-H ) :   0.8593
B(  0-C ,  6-H ) :   0.8552 B(  1-C ,  2-O ) :   1.4632 B(  1-C ,  3-O ) :   1.3581
B(  1-C ,  4-H ) :   0.2083 B(  1-C ,  5-H ) :   0.1371 B(  1-C ,  6-H ) :   0.1407

Dispersion correction           -0.003023574
FINAL SINGLE POINT ENERGY      -228.119341627768

DIPOLE MOMENT
-------------
                                X             Y             Z
Electronic contribution:     -2.44489      -0.33495       2.71431
Nuclear contribution   :      3.20990       0.60513      -3.84153
                        -----------------------------------------
Total Dipole Moment    :      0.76502       0.27018      -1.12721
                        -----------------------------------------
Magnitude (a.u.)       :      1.38883
Magnitude (Debye)      :      3.53014

Rotational constants in cm-1:     0.394521     0.330294     0.185888
Rotational constants in MHz : 11827.441786  9901.964904  5572.768963

                             ****ORCA TERMINATED NORMALLY****
TOTAL RUN TIME: 0 days 0 hours 0 minutes 7 seconds 845 msec
