                         Program Version 5.0.0 -  RELEASE  -
|  1> !PBE0 D3BJ RIJCOSX def2-SVPD def2/J TightSCF
|  2> *xyz 1 1
|  3> C          0.64866        1.00359       -3.64560
|  4> N          0.28128        0.67645       -2.24018
|  5> H          0.39079       -0.31925       -2.02649
|  6> H         -0.69269        0.99010       -2.13812
|  7> H          0.85421        1.21221       -1.57528
|  8> H          0.03905        0.43387       -4.31545
|  9> H          1.67860        0.76457       -3.80989
| 10> H          0.49232        2.04741       -3.82138
| 11> *
| 12> %MaxCore 64000
| 13>
| 14> %pal nprocs 4
| 15> end
| 16>
| 17> %scf
| 18>   MaxIter 150
| 19> end
| 20>
| 21>
| 22>                          ****END OF INPUT****

CARTESIAN COORDINATES (ANGSTROEM)
---------------------------------
  C      0.648660    1.003590   -3.645600
  N      0.281280    0.676450   -2.240180
  H      0.390790   -0.319250   -2.026490
  H     -0.692690    0.990100   -2.138120
  H      0.854210    1.212210   -1.575280
  H      0.039050    0.433870   -4.315450
  H      1.678600    0.764570   -3.809890
  H      0.492320    2.047410   -3.821380

 Total Charge           Charge          ....    1
 Multiplicity           Mult            ....    1
 Number of Electrons    NEL             ....   18
 Basis Dimension        Dim             ....   88

ORBITAL ENERGIES
----------------

  NO   OCC          E(Eh)            E(eV)
   0   2.0000     -14.746614      -401.2758
   1   2.0000     -10.491197      -285.4800
   2   2.0000      -1.245519       -33.8923
   3   2.0000      -0.954152       -25.9638
   4   2.0000      -0.833859       -22.6904
   5   2.0000      -0.824305       -22.4305
   6   2.0000      -0.728943       -19.8356
   7   2.0000      -0.641555       -17.4576
   8   2.0000      -0.639324       -17.3969
   9   0.0000      -0.195392        -5.3169
  10   0.0000      -0.127852        -3.4790
  11   0.0000      -0.124198        -3.3796
  12   0.0000      -0.119301        -3.2463
  13   0.0000      -0.078157        -2.1268

MULLIKEN ATOMIC CHARGES
-----------------------
   0 C :    0.766520
   1 N :   -0.849463
   2 H :    0.366005
   3 H :    0.405259
   4 H :    0.379180
   5 H :   -0.020249
   6 H :   -0.033325
   7 H :   -0.013927
Sum of atomic charges:    1.0000000

LOEWDIN ATOMIC CHARGES
----------------------
   0 C :    0.278719
   1 N :    0.311769
   2 H :    0.109785
   3 H :    0.108484
   4 H :    0.110682
   5 H :    0.027391
   6 H :    0.025356
   7 H :    0.027815

  Mayer bond orders larger than 0.100000
B(  0-C ,  1-N ) :   0.8092 B(  0-C ,  5-H ) :   0.9163 B(  0-C ,  6-H ) :   0.9362
B(  0-C ,  7-H ) :   0.9086 B(  1-N ,  2-H ) :   0.7858 B(  1-N ,  3-H ) :   0.7387
B(  1-N ,  4-H ) :   0.7732

Dispersion correction           -0.002677574
FINAL SINGLE POINT ENERGY       -96.034329533838

DIPOLE MOMENT
-------------
                                X             Y             Z
Electronic contribution:     -0.26097      -0.27568       1.05498
Nuclear contribution   :      0.04246       0.12404      -0.26487
                        -----------------------------------------
Total Dipole Moment    :     -0.21852      -0.15164       0.79011
                        -----------------------------------------
Magnitude (a.u.)       :      0.83368
Magnitude (Debye)      :      2.11905

Rotational constants in cm-1:     2.856727     0.687609     0.685111
Rotational constants in MHz : 85642.512409 20614.005719 20539.101620

                             ****ORCA TERMINATED NORMALLY****
TOTAL RUN TIME: 0 days 0 hours 0 minutes 4 seconds 546 msec
