                         Program Version 5.0.0 -  RELEASE  -
|  1> !PBE0 D3BJ RIJCOSX def2-SVPD def2/J TightSCF xyzfile
|  2>
|  3> *xyzfile 0 1 B.xyz
|  4>
|  5> %MaxCore 64000
|  6>
|  7> %pal nprocs 4
|  8> end
|  9>
| 10> %scf
| 11>   MaxIter 150
| 12> end
| 13>
| 14>
| 15>                          ****END OF INPUT****

CARTESIAN COORDINATES (ANGSTROEM)
---------------------------------
  C      0.648656    1.003595   -3.645601
  N      0.281280    0.676454   -2.240179
  C      0.132968    2.385869   -4.024618
  C     -1.366462    2.479106   -4.313932
  C     -2.357732    2.306858   -3.136753
  H     -1.636802    1.727095   -5.063993
  H     -1.582347    3.445605   -4.768687
  H      0.390790   -0.319253   -2.026495
  H     -0.692686    0.990104   -2.138123
  H      0.854206    1.212214   -1.575279
  O     -3.443763    2.846518   -3.252744
  O     -1.970922    1.583042   -2.151229
  H      0.190993    0.239655   -4.275752
  H      1.731572    0.931729   -3.750751
  H      0.414839    3.102847   -3.245165
  H      0.683167    2.687560   -4.919721

 Total Charge           Charge          ....    0
 Multiplicity           Mult            ....    1
 Number of Electrons    NEL             ....   56
 Basis Dimension        Dim             ....  218

ORBITAL ENERGIES
----------------

  NO   OCC          E(Eh)            E(eV)
   0   2.0000     -19.146675      -521.0075
   1   2.0000     -19.125945      -520.4434
   2   2.0000     -14.507968      -394.7819
   3   2.0000     -10.323176      -280.9079
   4   2.0000     -10.296073      -280.1704
   5   2.0000     -10.263800      -279.2922
   6   2.0000     -10.225205      -278.2420
   7   2.0000      -1.042145       -28.3582
   8   2.0000      -1.020498       -27.7692
   9   2.0000      -0.937990       -25.5240
  10   2.0000      -0.830618       -22.6023
  11   2.0000      -0.734057       -19.9747
  12   2.0000      -0.654420       -17.8077
  13   2.0000      -0.622981       -16.9522
  14   2.0000      -0.611804       -16.6480
  15   2.0000      -0.540775       -14.7152
  16   2.0000      -0.498378       -13.5616
  17   2.0000      -0.495769       -13.4906
  18   2.0000      -0.452448       -12.3117
  19   2.0000      -0.438283       -11.9263
  20   2.0000      -0.405081       -11.0228
  21   2.0000      -0.401972       -10.9382
  22   2.0000      -0.393339       -10.7033
  23   2.0000      -0.374299       -10.1852
  24   2.0000      -0.350504        -9.5377
  25   2.0000      -0.249689        -6.7944
  26   2.0000      -0.248680        -6.7669
  27   2.0000      -0.218489        -5.9454
  28   0.0000      -0.023398        -0.6367
  29   0.0000       0.017409         0.4737
  30   0.0000       0.020531         0.5587
  31   0.0000       0.044834         1.2200
  32   0.0000       0.058660         1.5962

MULLIKEN ATOMIC CHARGES
-----------------------
   0 C :    0.609146
   1 N :   -0.438181
   2 C :   -0.081481
   3 C :   -0.110143
   4 C :    0.634355
   5 H :    0.162148
   6 H :    0.069943
   7 H :    0.284690
   8 H :   -0.048858
   9 H :    0.407467
  10 O :   -0.641231
  11 O :   -0.750721
  12 H :    0.027831
  13 H :   -0.150642
  14 H :    0.002773
  15 H :    0.022905
Sum of atomic charges:   -0.0000000

LOEWDIN ATOMIC CHARGES
----------------------
   0 C :    0.083647
   1 N :    0.313548
   2 C :   -0.022095
   3 C :    0.038610
   4 C :   -0.192906
   5 H :    0.034160
   6 H :    0.026240
   7 H :    0.087738
   8 H :   -0.153487
   9 H :    0.093744
  10 O :   -0.212281
  11 O :   -0.235275
  12 H :    0.045251
  13 H :    0.030138
  14 H :    0.035365
  15 H :    0.027601

  Mayer bond orders larger than 0.100000
B(  0-C ,  1-N ) :   0.7893 B(  0-C ,  2-C ) :   1.1834 B(  0-C , 12-H ) :   0.8745
B(  0-C , 13-H ) :   0.8884 B(  1-N ,  7-H ) :   0.8490 B(  1-N ,  8-H ) :   1.1328
B(  1-N ,  9-H ) :   0.7814 B(  1-N , 13-H ) :   0.1453 B(  2-C ,  3-C ) :   1.1962
B(  2-C ,  5-H ) :   0.1009 B(  2-C ,  6-H ) :   0.1150 B(  2-C , 13-H ) :   0.1150
B(  2-C , 14-H ) :   0.9270 B(  2-C , 15-H ) :   0.8624 B(  3-C ,  4-C ) :   1.0248
B(  3-C ,  5-H ) :   0.8150 B(  3-C ,  6-H ) :   0.9199 B(  4-C ,  6-H ) :   0.1254
B(  4-C , 10-O ) :   1.4731 B(  4-C , 11-O ) :   1.1416 B(  8-H , 11-O ) :   0.3438
B( 10-O , 11-O ) :   0.1342

Dispersion correction           -0.011604765
FINAL SINGLE POINT ENERGY      -362.403079480522

DIPOLE MOMENT
-------------
                                X             Y             Z
Electronic contribution:     -5.79731       0.93013       2.53204
Nuclear contribution   :      9.92875      -2.62114      -2.63866
                        -----------------------------------------
Total Dipole Moment    :      4.13145      -1.69101      -0.10662
                        -----------------------------------------
Magnitude (a.u.)       :      4.46539
Magnitude (Debye)      :     11.35013

Rotational constants in cm-1:     0.159108     0.062474     0.047603
Rotational constants in MHz :  4769.938632  1872.932224  1427.103830

                             ****ORCA TERMINATED NORMALLY****
TOTAL RUN TIME: 0 days 0 hours 0 minutes 32 seconds 838 msec
