                         Program Version 5.0.0 -  RELEASE  -
|  1> !PBE0 D3BJ RIJCOSX def2-SVPD def2/J TightSCF
|  2> *xyz 0 1
|  3> C         -1.36646        2.47911       -4.31393
|  4> C         -2.35773        2.30686       -3.13675
|  5> F         -3.44376        2.84652       -3.25274
|  6> O         -1.97092        1.58304       -2.15123
|  7> H         -1.80853        3.10058       -5.06443
|  8> H         -1.13980        1.52081       -4.73248
|  9> H         -0.46612        2.93495       -3.95827
| 10> *
| 11> %MaxCore 64000
| 12>
| 13> %pal nprocs 4
| 14> end
| 15>
| 16> %scf
| 17>   MaxIter 150
| 18> end
| 19>
| 20>
| 21>                          ****END OF INPUT****

CARTESIAN COORDINATES (ANGSTROEM)
---------------------------------
  C     -1.366460    2.479110   -4.313930
  C     -2.357730    2.306860   -3.136750
  F     -3.443760    2.846520   -3.252740
  O     -1.970920    1.583040   -2.151230
  H     -1.808530    3.100580   -5.064430
  H     -1.139800    1.520810   -4.732480
  H     -0.466120    2.934950   -3.958270

 Total Charge           Charge          ....    0
 Multiplicity           Mult            ....    1
 Number of Electrons    NEL             ....   32
 Basis Dimension        Dim             ....  110

ORBITAL ENERGIES
----------------

  NO   OCC          E(Eh)            E(eV)
   0   2.0000     -24.872968      -676.8279
   1   2.0000     -19.224911      -523.1364
   2   2.0000     -10.424714      -283.6709
   3   2.0000     -10.260962      -279.2150
   4   2.0000      -1.372662       -37.3520
   5   2.0000      -1.039849       -28.2957
   6   2.0000      -0.789175       -21.4746
   7   2.0000      -0.698238       -19.0000
   8   2.0000      -0.589666       -16.0456
   9   2.0000      -0.582262       -15.8442
  10   2.0000      -0.520967       -14.1762
  11   2.0000      -0.460602       -12.5336
  12   2.0000      -0.447805       -12.1854
  13   2.0000      -0.415742       -11.3129
  14   2.0000      -0.362766        -9.8714
  15   2.0000      -0.307611        -8.3705
  16   0.0000      -0.031121        -0.8468
  17   0.0000       0.018759         0.5105
  18   0.0000       0.064711         1.7609
  19   0.0000       0.094818         2.5801
  20   0.0000       0.095823         2.6075

MULLIKEN ATOMIC CHARGES
-----------------------
   0 C :    0.223668
   1 C :    0.509522
   2 F :   -0.325632
   3 O :   -0.574711
   4 H :    0.026100
   5 H :    0.072038
   6 H :    0.069015
Sum of atomic charges:    0.0000000

LOEWDIN ATOMIC CHARGES
----------------------
   0 C :    0.213060
   1 C :   -0.025125
   2 F :   -0.015891
   3 O :   -0.163876
   4 H :   -0.014885
   5 H :    0.003683
   6 H :    0.003035

  Mayer bond orders larger than 0.100000
B(  0-C ,  1-C ) :   1.2612 B(  0-C ,  4-H ) :   0.9040 B(  0-C ,  5-H ) :   0.8393
B(  0-C ,  6-H ) :   0.8360 B(  1-C ,  2-F ) :   0.8073 B(  1-C ,  3-O ) :   1.7015
B(  1-C ,  4-H ) :   0.1262 B(  1-C ,  5-H ) :   0.1138 B(  1-C ,  6-H ) :   0.1188

Dispersion correction           -0.002783439
FINAL SINGLE POINT ENERGY      -252.630045029083

DIPOLE MOMENT
-------------
                                X             Y             Z
Electronic contribution:     -4.30838       0.51872       2.69161
Nuclear contribution   :      4.40923       0.04336      -3.80230
                        -----------------------------------------
Total Dipole Moment    :      0.10084       0.56208      -1.11069
                        -----------------------------------------
Magnitude (a.u.)       :      1.24889
Magnitude (Debye)      :      3.17443

Rotational constants in cm-1:     0.364425     0.322930     0.176742
Rotational constants in MHz : 10925.196996  9681.206479  5298.597717

                             ****ORCA TERMINATED NORMALLY****
TOTAL RUN TIME: 0 days 0 hours 0 minutes 6 seconds 881 msec
