                         Program Version 5.0.0 -  RELEASE  -
|  1> !PBE0 D3BJ RIJCOSX def2-SVPD def2/J TightSCF
|  2> *xyz 0 1
|  3> C          0.64866        1.00359       -3.64560
|  4> C          0.28128        0.67645       -2.24018
|  5> H          0.39079       -0.31925       -2.02649
|  6> H         -0.69269        0.99010       -2.13812
|  7> H          0.85421        1.21221       -1.57528
|  8> H          0.03905        0.43387       -4.31545
|  9> H          1.67860        0.76457       -3.80989
| 10> H          0.49232        2.04741       -3.82138
| 11> *
| 12> %MaxCore 64000
| 13>
| 14> %pal nprocs 4
| 15> end
| 16>
| 17> %scf
| 18>   MaxIter 150
| 19> end
| 20>
| 21>
| 22>                          ****END OF INPUT****

CARTESIAN COORDINATES (ANGSTROEM)
---------------------------------
  C      0.648660    1.003590   -3.645600
  C      0.281280    0.676450   -2.240180
  H      0.390790   -0.319250   -2.026490
  H     -0.692690    0.990100   -2.138120
  H      0.854210    1.212210   -1.575280
  H      0.039050    0.433870   -4.315450
  H      1.678600    0.764570   -3.809890
  H      0.492320    2.047410   -3.821380

 Total Charge           Charge          ....    0
 Multiplicity           Mult            ....    1
 Number of Electrons    NEL             ....   18
 Basis Dimension        Dim             ....   88

ORBITAL ENERGIES
----------------

  NO   OCC          E(Eh)            E(eV)
   0   2.0000     -10.208966      -277.8001
   1   2.0000     -10.195753      -277.4405
   2   2.0000      -0.786524       -21.4024
   3   2.0000      -0.633171       -17.2295
   4   2.0000      -0.466772       -12.7015
   5   2.0000      -0.460703       -12.5364
   6   2.0000      -0.380378       -10.3506
   7   2.0000      -0.359215        -9.7747
   8   2.0000      -0.354027        -9.6336
   9   0.0000       0.035960         0.9785
  10   0.0000       0.068630         1.8675
  11   0.0000       0.110723         3.0129
  12   0.0000       0.112083         3.0499
  13   0.0000       0.130564         3.5528

MULLIKEN ATOMIC CHARGES
-----------------------
   0 C :    0.052847
   1 C :    0.406424
   2 H :   -0.157716
   3 H :   -0.096226
   4 H :   -0.126598
   5 H :   -0.027059
   6 H :   -0.032374
   7 H :   -0.019297
Sum of atomic charges:    0.0000000

LOEWDIN ATOMIC CHARGES
----------------------
   0 C :    0.067286
   1 C :    0.076098
   2 H :   -0.032690
   3 H :   -0.032247
   4 H :   -0.032154
   5 H :   -0.014840
   6 H :   -0.017567
   7 H :   -0.013887

  Mayer bond orders larger than 0.100000
B(  0-C ,  1-C ) :   1.4753 B(  0-C ,  2-H ) :   0.1440 B(  0-C ,  3-H ) :   0.1713
B(  0-C ,  4-H ) :   0.1438 B(  0-C ,  5-H ) :   0.8903 B(  0-C ,  6-H ) :   0.9146
B(  0-C ,  7-H ) :   0.8826 B(  1-C ,  2-H ) :   0.8444 B(  1-C ,  3-H ) :   0.8230
B(  1-C ,  4-H ) :   0.8292 B(  1-C ,  5-H ) :   0.1306 B(  1-C ,  6-H ) :   0.1189
B(  1-C ,  7-H ) :   0.1349

Dispersion correction           -0.002687742
FINAL SINGLE POINT ENERGY       -79.655145879639

DIPOLE MOMENT
-------------
                                X             Y             Z
Electronic contribution:      0.01295      -0.06284       0.04362
Nuclear contribution   :     -0.02064       0.06655      -0.02194
                        -----------------------------------------
Total Dipole Moment    :     -0.00769       0.00370       0.02168
                        -----------------------------------------
Magnitude (a.u.)       :      0.02330
Magnitude (Debye)      :      0.05923

Rotational constants in cm-1:     2.856742     0.718110     0.715385
Rotational constants in MHz : 85642.970161 21528.388214 21446.695095

                             ****ORCA TERMINATED NORMALLY****
TOTAL RUN TIME: 0 days 0 hours 0 minutes 4 seconds 256 msec
