                         Program Version 5.0.0 -  RELEASE  -
|  1> !PBE0 D3BJ RIJCOSX def2-SVPD def2/J TightSCF
|  2> *xyz 0 1
|  3> C         -1.36646        2.47911       -4.31393
|  4> C         -2.35773        2.30686       -3.13675
|  5> O         -3.44376        2.84652       -3.25274
|  6> F         -1.97092        1.58304       -2.15123
|  7> H         -1.80853        3.10058       -5.06443
|  8> H         -1.13980        1.52081       -4.73248
|  9> H         -0.46612        2.93495       -3.95827
| 10> *
| 11> %MaxCore 64000
| 12>
| 13> %pal nprocs 4
| 14> end
| 15>
| 16> %scf
| 17>   MaxIter 150
| 18> end
| 19>
| 20>
| 21>                          ****END OF INPUT****

CARTESIAN COORDINATES (ANGSTROEM)
---------------------------------
  C     -1.366460    2.479110   -4.313930
  C     -2.357730    2.306860   -3.136750
  O     -3.443760    2.846520   -3.252740
  F     -1.970920    1.583040   -2.151230
  H     -1.808530    3.100580   -5.064430
  H     -1.139800    1.520810   -4.732480
  H     -0.466120    2.934950   -3.958270

 Total Charge           Charge          ....    0
 Multiplicity           Mult            ....    1
 Number of Electrons    NEL             ....   32
 Basis Dimension        Dim             ....  110

ORBITAL ENERGIES
----------------

  NO   OCC          E(Eh)            E(eV)
   0   2.0000     -24.850040      -676.2040
   1   2.0000     -19.234214      -523.3896
   2   2.0000     -10.418814      -283.5103
   3   2.0000     -10.260324      -279.1976
   4   2.0000      -1.323611       -36.0173
   5   2.0000      -1.081160       -29.4199
   6   2.0000      -0.785320       -21.3696
   7   2.0000      -0.672289       -18.2939
   8   2.0000      -0.561657       -15.2835
   9   2.0000      -0.558853       -15.2072
  10   2.0000      -0.523324       -14.2404
  11   2.0000      -0.459014       -12.4904
  12   2.0000      -0.450602       -12.2615
  13   2.0000      -0.425268       -11.5721
  14   2.0000      -0.388062       -10.5597
  15   2.0000      -0.317736        -8.6460
  16   0.0000      -0.021464        -0.5841
  17   0.0000       0.019489         0.5303
  18   0.0000       0.065886         1.7928
  19   0.0000       0.092446         2.5156
  20   0.0000       0.099803         2.7158

MULLIKEN ATOMIC CHARGES
-----------------------
   0 C :    0.240798
   1 C :    0.513215
   2 O :   -0.473512
   3 F :   -0.422084
   4 H :    0.003780
   5 H :    0.070111
   6 H :    0.067692
Sum of atomic charges:   -0.0000000

LOEWDIN ATOMIC CHARGES
----------------------
   0 C :    0.213855
   1 C :   -0.022767
   2 O :   -0.122616
   3 F :   -0.059782
   4 H :   -0.001814
   5 H :   -0.002789
   6 H :   -0.004088

  Mayer bond orders larger than 0.100000
B(  0-C ,  1-C ) :   1.2330 B(  0-C ,  4-H ) :   0.9206 B(  0-C ,  5-H ) :   0.8372
B(  0-C ,  6-H ) :   0.8352 B(  1-C ,  2-O ) :   1.7999 B(  1-C ,  3-F ) :   0.6823
B(  1-C ,  4-H ) :   0.1721 B(  1-C ,  5-H ) :   0.1029 B(  1-C ,  6-H ) :   0.1053

Dispersion correction           -0.002785166
FINAL SINGLE POINT ENERGY      -252.647923843798

DIPOLE MOMENT
-------------
                                X             Y             Z
Electronic contribution:     -1.90487      -1.53859       4.48165
Nuclear contribution   :      2.88734       1.34891      -4.94049
                        -----------------------------------------
Total Dipole Moment    :      0.98248      -0.18968      -0.45884
                        -----------------------------------------
Magnitude (a.u.)       :      1.10080
Magnitude (Debye)      :      2.79802

Rotational constants in cm-1:     0.375207     0.313199     0.176202
Rotational constants in MHz : 11248.433436  9389.476975  5282.390844

                             ****ORCA TERMINATED NORMALLY****
TOTAL RUN TIME: 0 days 0 hours 0 minutes 6 seconds 688 msec
