                         Program Version 5.0.0 -  RELEASE  -
|  1> !PBE0 D3BJ RIJCOSX def2-SVP def2/J TightSCF
|  2>
|  3> *xyz -1 1
|  4> C          2.95263        1.86308       -3.57485
|  5> C          4.12921        0.89839       -3.41895
|  6> H          3.73369       -0.10060       -3.23763
|  7> H          4.71910        0.86256       -4.33901
|  8> C          5.01734        1.31521       -2.22130
|  9> O          4.73706        0.85411       -1.12283
| 10> O          5.92815        2.16811       -2.49136
| 11> H          2.35067        1.56005       -4.40594
| 12> H          3.32277        2.85258       -3.74453
| 13> H          2.36134        1.85149       -2.68315
| 14> *
| 15> %MaxCore 64000
| 16>
| 17> %pal nprocs 4
| 18> end
| 19>
| 20> %scf
| 21>   MaxIter 150
| 22> end
| 23>
| 24>
| 25>                          ****END OF INPUT****

CARTESIAN COORDINATES (ANGSTROEM)
---------------------------------
  C      2.952630    1.863080   -3.574850
  C      4.129210    0.898390   -3.418950
  H      3.733690   -0.100600   -3.237630
  H      4.719100    0.862560   -4.339010
  C      5.017340    1.315210   -2.221300
  O      4.737060    0.854110   -1.122830
  O      5.928150    2.168110   -2.491360
  H      2.350670    1.560050   -4.405940
  H      3.322770    2.852580   -3.744530
  H      2.361340    1.851490   -2.683150

 Total Charge           Charge          ....   -1
 Multiplicity           Mult            ....    1
 Number of Electrons    NEL             ....   40
 Basis Dimension        Dim             ....   95

ORBITAL ENERGIES
----------------

  NO   OCC          E(Eh)            E(eV)
   0   2.0000     -18.917277      -514.7653
   1   2.0000     -18.905215      -514.4370
   2   2.0000     -10.082572      -274.3607
   3   2.0000     -10.062096      -273.8036
   4   2.0000     -10.037760      -273.1413
   5   2.0000      -0.810332       -22.0502
   6   2.0000      -0.710587       -19.3361
   7   2.0000      -0.608437       -16.5564
   8   2.0000      -0.468907       -12.7596
   9   2.0000      -0.316323        -8.6076
  10   2.0000      -0.292030        -7.9465
  11   2.0000      -0.251877        -6.8539
  12   2.0000      -0.225296        -6.1306
  13   2.0000      -0.203070        -5.5258
  14   2.0000      -0.202497        -5.5102
  15   2.0000      -0.166204        -4.5227
  16   2.0000      -0.155973        -4.2442
  17   2.0000      -0.026617        -0.7243
  18   2.0000      -0.020732        -0.5642
  19   2.0000      -0.007082        -0.1927
  20   0.0000       0.226720         6.1694
  21   0.0000       0.276784         7.5317
  22   0.0000       0.288307         7.8452
  23   0.0000       0.291287         7.9263
  24   0.0000       0.309683         8.4269

MULLIKEN ATOMIC CHARGES
-----------------------
   0 C :   -0.049114
   1 C :   -0.057857
   2 H :   -0.033625
   3 H :   -0.025276
   4 C :    0.082502
   5 O :   -0.421388
   6 O :   -0.496969
   7 H :   -0.020756
   8 H :    0.012008
   9 H :    0.010477
Sum of atomic charges:   -1.0000000

LOEWDIN ATOMIC CHARGES
----------------------
   0 C :   -0.068486
   1 C :   -0.102781
   2 H :   -0.004068
   3 H :   -0.000206
   4 C :   -0.051217
   5 O :   -0.364100
   6 O :   -0.433206
   7 H :   -0.003057
   8 H :    0.013530
   9 H :    0.013592

  Mayer bond orders larger than 0.100000
B(  0-C ,  1-C ) :   1.0993 B(  0-C ,  7-H ) :   0.9713 B(  0-C ,  8-H ) :   0.9679
B(  0-C ,  9-H ) :   0.9694 B(  1-C ,  2-H ) :   0.9362 B(  1-C ,  3-H ) :   0.9403
B(  1-C ,  4-C ) :   0.9099 B(  4-C ,  5-O ) :   1.8651 B(  4-C ,  6-O ) :   1.7846
B(  5-O ,  6-O ) :   0.1176

Dispersion correction           -0.005476915
FINAL SINGLE POINT ENERGY      -267.320999808093

DIPOLE MOMENT
-------------
                                X             Y             Z
Electronic contribution:      4.54901      -0.12426       4.05036
Nuclear contribution   :     -5.85873      -0.10793      -5.24103
                        -----------------------------------------
Total Dipole Moment    :     -1.30972      -0.23219      -1.19067
                        -----------------------------------------
Magnitude (a.u.)       :      1.78521
Magnitude (Debye)      :      4.53765

Rotational constants in cm-1:     0.292505     0.135951     0.110253
Rotational constants in MHz :  8769.065873  4075.717001  3305.311891

                             ****ORCA TERMINATED NORMALLY****
TOTAL RUN TIME: 0 days 0 hours 0 minutes 11 seconds 242 msec
