                         Program Version 5.0.0 -  RELEASE  -
|  1> !PBE0 D3BJ RIJCOSX def2-SVP def2/J TightSCF
|  2>
|  3> *xyz 1 1
|  4> C          3.34350        3.35457       -3.59200
|  5> C          2.95263        1.86308       -3.57485
|  6> C          4.25587        3.70385       -4.72605
|  7> N          3.73403        4.29378       -5.80077
|  8> N          5.51504        3.40725       -4.63718
|  9> H          6.14919        3.60120       -5.39905
| 10> H          5.81358        2.89950       -3.80879
| 11> H          2.74138        4.51311       -5.82470
| 12> H          4.28755        4.52126       -6.61434
| 13> H          3.86125        3.59725       -2.66298
| 14> H          2.44649        3.97346       -3.65656
| 15> H          2.44395        1.61721       -4.48352
| 16> H          2.30781        1.67290       -2.74242
| 17> H          3.83491        1.26414       -3.48670
| 18> *
| 19> %MaxCore 64000
| 20>
| 21> %pal nprocs 4
| 22> end
| 23>
| 24> %scf
| 25>   MaxIter 150
| 26> end
| 27>
| 28>
| 29>                          ****END OF INPUT****

CARTESIAN COORDINATES (ANGSTROEM)
---------------------------------
  C      3.343500    3.354570   -3.592000
  C      2.952630    1.863080   -3.574850
  C      4.255870    3.703850   -4.726050
  N      3.734030    4.293780   -5.800770
  N      5.515040    3.407250   -4.637180
  H      6.149190    3.601200   -5.399050
  H      5.813580    2.899500   -3.808790
  H      2.741380    4.513110   -5.824700
  H      4.287550    4.521260   -6.614340
  H      3.861250    3.597250   -2.662980
  H      2.446490    3.973460   -3.656560
  H      2.443950    1.617210   -4.483520
  H      2.307810    1.672900   -2.742420
  H      3.834910    1.264140   -3.486700

 Total Charge           Charge          ....    1
 Multiplicity           Mult            ....    1
 Number of Electrons    NEL             ....   40
 Basis Dimension        Dim             ....  115

ORBITAL ENERGIES
----------------

  NO   OCC          E(Eh)            E(eV)
   0   2.0000     -14.644096      -398.4861
   1   2.0000     -14.639222      -398.3535
   2   2.0000     -10.553247      -287.1684
   3   2.0000     -10.430709      -283.8340
   4   2.0000     -10.388909      -282.6966
   5   2.0000      -1.224426       -33.3183
   6   2.0000      -1.126909       -30.6647
   7   2.0000      -0.985852       -26.8264
   8   2.0000      -0.876026       -23.8379
   9   2.0000      -0.831902       -22.6372
  10   2.0000      -0.795640       -21.6505
  11   2.0000      -0.765560       -20.8320
  12   2.0000      -0.718616       -19.5545
  13   2.0000      -0.663818       -18.0634
  14   2.0000      -0.638047       -17.3621
  15   2.0000      -0.627550       -17.0765
  16   2.0000      -0.558098       -15.1866
  17   2.0000      -0.548485       -14.9250
  18   2.0000      -0.540024       -14.6948
  19   2.0000      -0.505248       -13.7485
  20   0.0000      -0.197873        -5.3844
  21   0.0000      -0.134440        -3.6583
  22   0.0000      -0.088593        -2.4107
  23   0.0000      -0.086446        -2.3523
  24   0.0000      -0.061872        -1.6836

MULLIKEN ATOMIC CHARGES
-----------------------
   0 C :   -0.086895
   1 C :   -0.037447
   2 C :   -0.015958
   3 N :   -0.049431
   4 N :    0.003526
   5 H :    0.185967
   6 H :    0.197362
   7 H :    0.197039
   8 H :    0.181208
   9 H :    0.104744
  10 H :    0.087771
  11 H :    0.069725
  12 H :    0.102754
  13 H :    0.059634
Sum of atomic charges:    1.0000000

LOEWDIN ATOMIC CHARGES
----------------------
   0 C :   -0.041776
   1 C :   -0.029051
   2 C :    0.147558
   3 N :    0.084552
   4 N :    0.108814
   5 H :    0.116519
   6 H :    0.126777
   7 H :    0.123930
   8 H :    0.111375
   9 H :    0.062848
  10 H :    0.057535
  11 H :    0.040358
  12 H :    0.056457
  13 H :    0.034103

  Mayer bond orders larger than 0.100000
B(  0-C ,  1-C ) :   1.0615 B(  0-C ,  2-C ) :   1.0206 B(  0-C ,  9-H ) :   0.9248
B(  0-C , 10-H ) :   0.9268 B(  1-C , 11-H ) :   0.9690 B(  1-C , 12-H ) :   0.9630
B(  1-C , 13-H ) :   0.9718 B(  2-C ,  3-N ) :   1.4894 B(  2-C ,  4-N ) :   1.5307
B(  3-N ,  7-H ) :   0.9187 B(  3-N ,  8-H ) :   0.9303 B(  4-N ,  5-H ) :   0.9256
B(  4-N ,  6-H ) :   0.9134

Dispersion correction           -0.008500282
FINAL SINGLE POINT ENERGY      -228.605279275806

DIPOLE MOMENT
-------------
                                X             Y             Z
Electronic contribution:      2.40300       2.58856      -2.31977
Nuclear contribution   :     -1.74195      -2.09431       1.58516
                        -----------------------------------------
Total Dipole Moment    :      0.66106       0.49425      -0.73461
                        -----------------------------------------
Magnitude (a.u.)       :      1.10496
Magnitude (Debye)      :      2.80858

Rotational constants in cm-1:     0.258965     0.126500     0.098780
Rotational constants in MHz :  7763.584551  3792.383135  2961.336502

                             ****ORCA TERMINATED NORMALLY****
TOTAL RUN TIME: 0 days 0 hours 0 minutes 13 seconds 965 msec
