                         Program Version 5.0.0 -  RELEASE  -
|  1> !PBE0 D3BJ RIJCOSX def2-TZVP def2/J TightSCF xyzfile
|  2>
|  3> *xyzfile 0 1 B.xyz
|  4>
|  5> %MaxCore 64000
|  6>
|  7> %pal nprocs 18
|  8> end
|  9>
| 10> %scf
| 11>   MaxIter 150
| 12> end
| 13>
| 14>
| 15>                          ****END OF INPUT****

CARTESIAN COORDINATES (ANGSTROEM)
---------------------------------
  C      3.343500    3.354571   -3.591998
  C      2.952633    1.863077   -3.574849
  C      4.129209    0.898394   -3.418950
  H      3.733687   -0.100605   -3.237633
  H      4.719095    0.862556   -4.339005
  C      5.017344    1.315212   -2.221305
  C      4.255868    3.703851   -4.726054
  N      3.734032    4.293783   -5.800770
  N      5.515039    3.407255   -4.637185
  H      6.149187    3.601203   -5.399053
  H      5.813584    2.899504   -3.808785
  H      2.741380    4.513109   -5.824701
  H      4.287548    4.521260   -6.614341
  H      2.278938    1.735250   -2.725496
  H      2.377466    1.625787   -4.475869
  O      4.737055    0.854112   -1.122825
  O      5.928146    2.168108   -2.491365
  H      3.861246    3.597252   -2.662979
  H      2.446493    3.973461   -3.656556

 Total Charge           Charge          ....    0
 Multiplicity           Mult            ....    1
 Number of Electrons    NEL             ....   70
 Basis Dimension        Dim             ....  339

ORBITAL ENERGIES
----------------

  NO   OCC          E(Eh)            E(eV)
   0   2.0000     -19.111249      -520.0435
   1   2.0000     -19.096640      -519.6460
   2   2.0000     -14.480547      -394.0357
   3   2.0000     -14.440804      -392.9542
   4   2.0000     -10.381469      -282.4941
   5   2.0000     -10.264830      -279.3202
   6   2.0000     -10.262657      -279.2611
   7   2.0000     -10.240455      -278.6570
   8   2.0000     -10.198060      -277.5033
   9   2.0000      -1.071677       -29.1618
  10   2.0000      -1.018441       -27.7132
  11   2.0000      -0.975053       -26.5325
  12   2.0000      -0.928412       -25.2634
  13   2.0000      -0.845850       -23.0167
  14   2.0000      -0.758485       -20.6394
  15   2.0000      -0.695332       -18.9210
  16   2.0000      -0.649045       -17.6614
  17   2.0000      -0.634807       -17.2740
  18   2.0000      -0.603323       -16.4172
  19   2.0000      -0.558150       -15.1880
  20   2.0000      -0.514448       -13.9989
  21   2.0000      -0.498067       -13.5531
  22   2.0000      -0.475426       -12.9370
  23   2.0000      -0.462175       -12.5764
  24   2.0000      -0.436575       -11.8798
  25   2.0000      -0.411466       -11.1966
  26   2.0000      -0.390086       -10.6148
  27   2.0000      -0.383986       -10.4488
  28   2.0000      -0.378831       -10.3085
  29   2.0000      -0.350614        -9.5407
  30   2.0000      -0.341021        -9.2797
  31   2.0000      -0.338864        -9.2209
  32   2.0000      -0.229475        -6.2443
  33   2.0000      -0.223797        -6.0898
  34   2.0000      -0.201882        -5.4935
  35   0.0000      -0.043960        -1.1962
  36   0.0000      -0.019083        -0.5193
  37   0.0000       0.020404         0.5552
  38   0.0000       0.044396         1.2081
  39   0.0000       0.061837         1.6827

MULLIKEN ATOMIC CHARGES
-----------------------
   0 C :   -0.249717
   1 C :   -0.186976
   2 C :   -0.243753
   3 H :    0.110050
   4 H :    0.091666
   5 C :    0.272859
   6 C :    0.259536
   7 N :   -0.392809
   8 N :   -0.312331
   9 H :    0.228784
  10 H :    0.302168
  11 H :    0.274342
  12 H :    0.255883
  13 H :    0.129418
  14 H :    0.093136
  15 O :   -0.411908
  16 O :   -0.532704
  17 H :    0.197119
  18 H :    0.115237
Sum of atomic charges:    0.0000000

LOEWDIN ATOMIC CHARGES
----------------------
   0 C :   -0.206871
   1 C :   -0.252158
   2 C :   -0.254862
   3 H :    0.144313
   4 H :    0.127598
   5 C :   -0.663984
   6 C :   -0.310024
   7 N :    0.054281
   8 N :    0.134909
   9 H :    0.176798
  10 H :    0.139245
  11 H :    0.192933
  12 H :    0.179577
  13 H :    0.153881
  14 H :    0.132685
  15 O :    0.010521
  16 O :   -0.081193
  17 H :    0.176633
  18 H :    0.145717

  Mayer bond orders larger than 0.100000
B(  0-C ,  1-C ) :   0.9817 B(  0-C ,  6-C ) :   1.0065 B(  0-C , 17-H ) :   0.9294
B(  0-C , 18-H ) :   0.9510 B(  1-C ,  2-C ) :   1.0375 B(  1-C , 13-H ) :   0.9400
B(  1-C , 14-H ) :   0.9479 B(  2-C ,  3-H ) :   0.9483 B(  2-C ,  4-H ) :   0.9428
B(  2-C ,  5-C ) :   0.9525 B(  5-C , 15-O ) :   1.9863 B(  5-C , 16-O ) :   1.4980
B(  6-C ,  7-N ) :   1.3580 B(  6-C ,  8-N ) :   1.6331 B(  7-N , 11-H ) :   0.8920
B(  7-N , 12-H ) :   0.8969 B(  8-N ,  9-H ) :   0.9001 B(  8-N , 10-H ) :   0.6865
B( 10-H , 16-O ) :   0.2951

Dispersion correction           -0.016195194
FINAL SINGLE POINT ENERGY      -456.189725213084

DIPOLE MOMENT
-------------
                                X             Y             Z
Electronic contribution:      3.91580       0.01691       2.64573
Nuclear contribution   :     -5.42217       2.65262      -7.07590
                        -----------------------------------------
Total Dipole Moment    :     -1.50637       2.66953      -4.43018
                        -----------------------------------------
Magnitude (a.u.)       :      5.38721
Magnitude (Debye)      :     13.69320

Rotational constants in cm-1:     0.107541     0.035862     0.030371
Rotational constants in MHz :  3223.996852  1075.120464   910.508313

                             ****ORCA TERMINATED NORMALLY****
TOTAL RUN TIME: 0 days 0 hours 0 minutes 26 seconds 984 msec
