                         Program Version 5.0.0 -  RELEASE  -
|  1> !PBE0 D3BJ RIJCOSX def2-SVP def2/J TightSCF
|  2>
|  3> *xyz 0 1
|  4> C          2.95263        1.86308       -3.57485
|  5> C          4.12921        0.89839       -3.41895
|  6> H          3.73369       -0.10060       -3.23763
|  7> H          4.71910        0.86256       -4.33901
|  8> C          5.01734        1.31521       -2.22130
|  9> F          4.73706        0.85411       -1.12283
| 10> O          5.92815        2.16811       -2.49136
| 11> H          2.35067        1.56005       -4.40594
| 12> H          3.32277        2.85258       -3.74453
| 13> H          2.36134        1.85149       -2.68315
| 14> *
| 15> %MaxCore 64000
| 16>
| 17> %pal nprocs 4
| 18> end
| 19>
| 20> %scf
| 21>   MaxIter 150
| 22> end
| 23>
| 24>
| 25>                          ****END OF INPUT****

CARTESIAN COORDINATES (ANGSTROEM)
---------------------------------
  C      2.952630    1.863080   -3.574850
  C      4.129210    0.898390   -3.418950
  H      3.733690   -0.100600   -3.237630
  H      4.719100    0.862560   -4.339010
  C      5.017340    1.315210   -2.221300
  F      4.737060    0.854110   -1.122830
  O      5.928150    2.168110   -2.491360
  H      2.350670    1.560050   -4.405940
  H      3.322770    2.852580   -3.744530
  H      2.361340    1.851490   -2.683150

 Total Charge           Charge          ....    0
 Multiplicity           Mult            ....    1
 Number of Electrons    NEL             ....   40
 Basis Dimension        Dim             ....   95

ORBITAL ENERGIES
----------------

  NO   OCC          E(Eh)            E(eV)
   0   2.0000     -24.853524      -676.2988
   1   2.0000     -19.207029      -522.6498
   2   2.0000     -10.404644      -283.1248
   3   2.0000     -10.258394      -279.1451
   4   2.0000     -10.239349      -278.6269
   5   2.0000      -1.355299       -36.8796
   6   2.0000      -1.030561       -28.0430
   7   2.0000      -0.815134       -22.1809
   8   2.0000      -0.704562       -19.1721
   9   2.0000      -0.660265       -17.9667
  10   2.0000      -0.575951       -15.6724
  11   2.0000      -0.561337       -15.2747
  12   2.0000      -0.515175       -14.0186
  13   2.0000      -0.476016       -12.9530
  14   2.0000      -0.444582       -12.0977
  15   2.0000      -0.410836       -11.1794
  16   2.0000      -0.387077       -10.5329
  17   2.0000      -0.381579       -10.3833
  18   2.0000      -0.350146        -9.5280
  19   2.0000      -0.290688        -7.9100
  20   0.0000      -0.015639        -0.4256
  21   0.0000       0.071484         1.9452
  22   0.0000       0.116501         3.1701
  23   0.0000       0.119479         3.2512
  24   0.0000       0.143963         3.9174

MULLIKEN ATOMIC CHARGES
-----------------------
   0 C :   -0.070357
   1 C :   -0.131276
   2 H :    0.047731
   3 H :    0.078656
   4 C :    0.267739
   5 F :   -0.047151
   6 O :   -0.305249
   7 H :    0.053938
   8 H :    0.061383
   9 H :    0.044588
Sum of atomic charges:    0.0000000

LOEWDIN ATOMIC CHARGES
----------------------
   0 C :   -0.049240
   1 C :   -0.077948
   2 H :    0.029952
   3 H :    0.048736
   4 C :    0.098618
   5 F :    0.081068
   6 O :   -0.224870
   7 H :    0.032800
   8 H :    0.033336
   9 H :    0.027549

  Mayer bond orders larger than 0.100000
B(  0-C ,  1-C ) :   1.0769 B(  0-C ,  7-H ) :   0.9712 B(  0-C ,  8-H ) :   0.9721
B(  0-C ,  9-H ) :   0.9744 B(  1-C ,  2-H ) :   0.9368 B(  1-C ,  3-H ) :   0.9461
B(  1-C ,  4-C ) :   0.9949 B(  4-C ,  5-F ) :   1.2170 B(  4-C ,  6-O ) :   2.0222

Dispersion correction           -0.005174551
FINAL SINGLE POINT ENERGY      -291.851135865744

DIPOLE MOMENT
-------------
                                X             Y             Z
Electronic contribution:      5.11375      -1.13953       6.57186
Nuclear contribution   :     -6.06116       0.51860      -6.80802
                        -----------------------------------------
Total Dipole Moment    :     -0.94741      -0.62093      -0.23616
                        -----------------------------------------
Magnitude (a.u.)       :      1.15711
Magnitude (Debye)      :      2.94114

Rotational constants in cm-1:     0.276196     0.132056     0.105465
Rotational constants in MHz :  8280.156449  3958.940601  3161.775929

                             ****ORCA TERMINATED NORMALLY****
TOTAL RUN TIME: 0 days 0 hours 0 minutes 10 seconds 42 msec
