                         Program Version 5.0.0 -  RELEASE  -
|  1> !PBE0 D3BJ RIJCOSX def2-SVP def2/J TightSCF
|  2>
|  3> *xyz 0 1
|  4> C          3.34350        3.35457       -3.59200
|  5> C          2.95263        1.86308       -3.57485
|  6> C          4.25587        3.70385       -4.72605
|  7> C          3.73403        4.29378       -5.80077
|  8> N          5.51504        3.40725       -4.63718
|  9> H          6.14919        3.60120       -5.39905
| 10> H          5.81358        2.89950       -3.80879
| 11> H          2.74138        4.51311       -5.82470
| 12> H          4.28755        4.52126       -6.61434
| 13> H          3.86125        3.59725       -2.66298
| 14> H          2.44649        3.97346       -3.65656
| 15> H          2.44395        1.61721       -4.48352
| 16> H          2.30781        1.67290       -2.74242
| 17> H          3.83491        1.26414       -3.48670
| 18> *
| 19> %MaxCore 64000
| 20>
| 21> %pal nprocs 4
| 22> end
| 23>
| 24> %scf
| 25>   MaxIter 150
| 26> end
| 27>
| 28>
| 29>                          ****END OF INPUT****

CARTESIAN COORDINATES (ANGSTROEM)
---------------------------------
  C      3.343500    3.354570   -3.592000
  C      2.952630    1.863080   -3.574850
  C      4.255870    3.703850   -4.726050
  C      3.734030    4.293780   -5.800770
  N      5.515040    3.407250   -4.637180
  H      6.149190    3.601200   -5.399050
  H      5.813580    2.899500   -3.808790
  H      2.741380    4.513110   -5.824700
  H      4.287550    4.521260   -6.614340
  H      3.861250    3.597250   -2.662980
  H      2.446490    3.973460   -3.656560
  H      2.443950    1.617210   -4.483520
  H      2.307810    1.672900   -2.742420
  H      3.834910    1.264140   -3.486700

 Total Charge           Charge          ....    0
 Multiplicity           Mult            ....    1
 Number of Electrons    NEL             ....   40
 Basis Dimension        Dim             ....  115

ORBITAL ENERGIES
----------------

  NO   OCC          E(Eh)            E(eV)
   0   2.0000     -14.392258      -391.6333
   1   2.0000     -10.245397      -278.7914
   2   2.0000     -10.228702      -278.3371
   3   2.0000     -10.217717      -278.0382
   4   2.0000     -10.158642      -276.4307
   5   2.0000      -0.949391       -25.8343
   6   2.0000      -0.790920       -21.5220
   7   2.0000      -0.723667       -19.6920
   8   2.0000      -0.646391       -17.5892
   9   2.0000      -0.579911       -15.7802
  10   2.0000      -0.542264       -14.7558
  11   2.0000      -0.488711       -13.2985
  12   2.0000      -0.448408       -12.2018
  13   2.0000      -0.430609       -11.7175
  14   2.0000      -0.401753       -10.9323
  15   2.0000      -0.390584       -10.6283
  16   2.0000      -0.362981        -9.8772
  17   2.0000      -0.342234        -9.3127
  18   2.0000      -0.339339        -9.2339
  19   2.0000      -0.189845        -5.1660
  20   0.0000       0.055013         1.4970
  21   0.0000       0.072785         1.9806
  22   0.0000       0.105378         2.8675
  23   0.0000       0.114233         3.1084
  24   0.0000       0.128352         3.4926

MULLIKEN ATOMIC CHARGES
-----------------------
   0 C :   -0.029706
   1 C :   -0.022934
   2 C :   -0.151071
   3 C :   -0.069939
   4 N :   -0.084923
   5 H :    0.128838
   6 H :    0.122299
   7 H :   -0.018548
   8 H :   -0.033354
   9 H :    0.023717
  10 H :    0.039457
  11 H :    0.038562
  12 H :    0.037407
  13 H :    0.020193
Sum of atomic charges:   -0.0000000

LOEWDIN ATOMIC CHARGES
----------------------
   0 C :   -0.036724
   1 C :   -0.054424
   2 C :   -0.006650
   3 C :   -0.189124
   4 N :    0.003681
   5 H :    0.081766
   6 H :    0.075246
   7 H :    0.002164
   8 H :   -0.007260
   9 H :    0.021750
  10 H :    0.038112
  11 H :    0.028145
  12 H :    0.025072
  13 H :    0.018247

  Mayer bond orders larger than 0.100000
B(  0-C ,  1-C ) :   1.0806 B(  0-C ,  2-C ) :   1.0250 B(  0-C ,  9-H ) :   0.9354
B(  0-C , 10-H ) :   0.9377 B(  1-C , 11-H ) :   0.9707 B(  1-C , 12-H ) :   0.9706
B(  1-C , 13-H ) :   0.9716 B(  2-C ,  3-C ) :   1.8361 B(  2-C ,  4-N ) :   1.2862
B(  3-C ,  7-H ) :   0.9426 B(  3-C ,  8-H ) :   0.9572 B(  4-N ,  5-H ) :   0.9447
B(  4-N ,  6-H ) :   0.9459

Dispersion correction           -0.008846317
FINAL SINGLE POINT ENERGY      -212.155284480480

DIPOLE MOMENT
-------------
                                X             Y             Z
Electronic contribution:      2.40182       1.45153      -0.83924
Nuclear contribution   :     -1.79713      -1.86925       1.28073
                        -----------------------------------------
Total Dipole Moment    :      0.60469      -0.41771       0.44149
                        -----------------------------------------
Magnitude (a.u.)       :      0.85735
Magnitude (Debye)      :      2.17922

Rotational constants in cm-1:     0.269040     0.129645     0.102087
Rotational constants in MHz :  8065.609820  3886.645139  3060.489045

                             ****ORCA TERMINATED NORMALLY****
TOTAL RUN TIME: 0 days 0 hours 0 minutes 13 seconds 408 msec
