                         Program Version 5.0.0 -  RELEASE  -
|  1> !PBE0 D3BJ RIJCOSX def2-SVP def2/J TightSCF
|  2>
|  3> *xyz 0 1
|  4> C          2.95263        1.86308       -3.57485
|  5> C          4.12921        0.89839       -3.41895
|  6> H          3.73369       -0.10060       -3.23763
|  7> H          4.71910        0.86256       -4.33901
|  8> C          5.01734        1.31521       -2.22130
|  9> O          4.73706        0.85411       -1.12283
| 10> F          5.92815        2.16811       -2.49136
| 11> H          2.35067        1.56005       -4.40594
| 12> H          3.32277        2.85258       -3.74453
| 13> H          2.36134        1.85149       -2.68315
| 14> *
| 15> %MaxCore 64000
| 16>
| 17> %pal nprocs 4
| 18> end
| 19>
| 20> %scf
| 21>   MaxIter 150
| 22> end
| 23>
| 24>
| 25>                          ****END OF INPUT****

CARTESIAN COORDINATES (ANGSTROEM)
---------------------------------
  C      2.952630    1.863080   -3.574850
  C      4.129210    0.898390   -3.418950
  H      3.733690   -0.100600   -3.237630
  H      4.719100    0.862560   -4.339010
  C      5.017340    1.315210   -2.221300
  O      4.737060    0.854110   -1.122830
  F      5.928150    2.168110   -2.491360
  H      2.350670    1.560050   -4.405940
  H      3.322770    2.852580   -3.744530
  H      2.361340    1.851490   -2.683150

 Total Charge           Charge          ....    0
 Multiplicity           Mult            ....    1
 Number of Electrons    NEL             ....   40
 Basis Dimension        Dim             ....   95

ORBITAL ENERGIES
----------------

  NO   OCC          E(Eh)            E(eV)
   0   2.0000     -24.831991      -675.7128
   1   2.0000     -19.217318      -522.9298
   2   2.0000     -10.401118      -283.0288
   3   2.0000     -10.258088      -279.1368
   4   2.0000     -10.239813      -278.6395
   5   2.0000      -1.313633       -35.7458
   6   2.0000      -1.065417       -28.9915
   7   2.0000      -0.815085       -22.1796
   8   2.0000      -0.693189       -18.8626
   9   2.0000      -0.646622       -17.5955
  10   2.0000      -0.555349       -15.1118
  11   2.0000      -0.541009       -14.7216
  12   2.0000      -0.514843       -14.0096
  13   2.0000      -0.474979       -12.9248
  14   2.0000      -0.448489       -12.2040
  15   2.0000      -0.414457       -11.2779
  16   2.0000      -0.395448       -10.7607
  17   2.0000      -0.381476       -10.3805
  18   2.0000      -0.368172       -10.0185
  19   2.0000      -0.302777        -8.2390
  20   0.0000      -0.010471        -0.2849
  21   0.0000       0.071592         1.9481
  22   0.0000       0.115300         3.1375
  23   0.0000       0.120469         3.2781
  24   0.0000       0.143666         3.9093

MULLIKEN ATOMIC CHARGES
-----------------------
   0 C :   -0.072988
   1 C :   -0.133056
   2 H :    0.072549
   3 H :    0.055544
   4 C :    0.275263
   5 O :   -0.242794
   6 F :   -0.115920
   7 H :    0.054435
   8 H :    0.047661
   9 H :    0.059306
Sum of atomic charges:   -0.0000000

LOEWDIN ATOMIC CHARGES
----------------------
   0 C :   -0.049572
   1 C :   -0.078500
   2 H :    0.045971
   3 H :    0.033889
   4 C :    0.107490
   5 O :   -0.166446
   6 F :    0.013121
   7 H :    0.033000
   8 H :    0.028012
   9 H :    0.033036

  Mayer bond orders larger than 0.100000
B(  0-C ,  1-C ) :   1.0774 B(  0-C ,  7-H ) :   0.9715 B(  0-C ,  8-H ) :   0.9748
B(  0-C ,  9-H ) :   0.9723 B(  1-C ,  2-H ) :   0.9470 B(  1-C ,  3-H ) :   0.9381
B(  1-C ,  4-C ) :   0.9932 B(  4-C ,  5-O ) :   2.0956 B(  4-C ,  6-F ) :   1.1444

Dispersion correction           -0.005174246
FINAL SINGLE POINT ENERGY      -291.867788284848

DIPOLE MOMENT
-------------
                                X             Y             Z
Electronic contribution:      7.06875       1.02269       4.30692
Nuclear contribution   :     -7.35982      -0.91407      -5.31589
                        -----------------------------------------
Total Dipole Moment    :     -0.29106       0.10862      -1.00897
                        -----------------------------------------
Magnitude (a.u.)       :      1.05572
Magnitude (Debye)      :      2.68342

Rotational constants in cm-1:     0.275433     0.132201     0.105422
Rotational constants in MHz :  8257.268192  3963.279062  3160.465566

                             ****ORCA TERMINATED NORMALLY****
TOTAL RUN TIME: 0 days 0 hours 0 minutes 10 seconds 759 msec
