                         Program Version 5.0.0 -  RELEASE  -
|  1> !PBE0 D3BJ RIJCOSX def2-SVP def2/J TightSCF
|  2>
|  3> *xyz 0 1
|  4> C          3.34350        3.35457       -3.59200
|  5> C          2.95263        1.86308       -3.57485
|  6> C          4.25587        3.70385       -4.72605
|  7> N          3.73403        4.29378       -5.80077
|  8> C          5.51504        3.40725       -4.63718
|  9> H          6.14919        3.60120       -5.39905
| 10> H          5.81358        2.89950       -3.80879
| 11> H          2.74138        4.51311       -5.82470
| 12> H          4.28755        4.52126       -6.61434
| 13> H          3.86125        3.59725       -2.66298
| 14> H          2.44649        3.97346       -3.65656
| 15> H          2.44395        1.61721       -4.48352
| 16> H          2.30781        1.67290       -2.74242
| 17> H          3.83491        1.26414       -3.48670
| 18> *
| 19> %MaxCore 64000
| 20>
| 21> %pal nprocs 4
| 22> end
| 23>
| 24> %scf
| 25>   MaxIter 150
| 26> end
| 27>
| 28>
| 29>                          ****END OF INPUT****

CARTESIAN COORDINATES (ANGSTROEM)
---------------------------------
  C      3.343500    3.354570   -3.592000
  C      2.952630    1.863080   -3.574850
  C      4.255870    3.703850   -4.726050
  N      3.734030    4.293780   -5.800770
  C      5.515040    3.407250   -4.637180
  H      6.149190    3.601200   -5.399050
  H      5.813580    2.899500   -3.808790
  H      2.741380    4.513110   -5.824700
  H      4.287550    4.521260   -6.614340
  H      3.861250    3.597250   -2.662980
  H      2.446490    3.973460   -3.656560
  H      2.443950    1.617210   -4.483520
  H      2.307810    1.672900   -2.742420
  H      3.834910    1.264140   -3.486700

 Total Charge           Charge          ....    0
 Multiplicity           Mult            ....    1
 Number of Electrons    NEL             ....   40
 Basis Dimension        Dim             ....  115

ORBITAL ENERGIES
----------------

  NO   OCC          E(Eh)            E(eV)
   0   2.0000     -14.387511      -391.5041
   1   2.0000     -10.243014      -278.7266
   2   2.0000     -10.228292      -278.3260
   3   2.0000     -10.215421      -277.9757
   4   2.0000     -10.157173      -276.3907
   5   2.0000      -0.933958       -25.4143
   6   2.0000      -0.793146       -21.5826
   7   2.0000      -0.727715       -19.8021
   8   2.0000      -0.647468       -17.6185
   9   2.0000      -0.573191       -15.5973
  10   2.0000      -0.529781       -14.4161
  11   2.0000      -0.492147       -13.3920
  12   2.0000      -0.449838       -12.2407
  13   2.0000      -0.423408       -11.5215
  14   2.0000      -0.401760       -10.9324
  15   2.0000      -0.392159       -10.6712
  16   2.0000      -0.358436        -9.7535
  17   2.0000      -0.346087        -9.4175
  18   2.0000      -0.334962        -9.1148
  19   2.0000      -0.194178        -5.2839
  20   0.0000       0.058329         1.5872
  21   0.0000       0.074251         2.0205
  22   0.0000       0.106080         2.8866
  23   0.0000       0.111801         3.0422
  24   0.0000       0.132394         3.6026

MULLIKEN ATOMIC CHARGES
-----------------------
   0 C :   -0.028210
   1 C :   -0.024852
   2 C :   -0.115019
   3 N :   -0.136687
   4 C :   -0.051468
   5 H :   -0.032290
   6 H :   -0.018764
   7 H :    0.120292
   8 H :    0.123046
   9 H :    0.047892
  10 H :    0.013615
  11 H :    0.030291
  12 H :    0.033939
  13 H :    0.038215
Sum of atomic charges:   -0.0000000

LOEWDIN ATOMIC CHARGES
----------------------
   0 C :   -0.037342
   1 C :   -0.051043
   2 C :    0.001070
   3 N :   -0.019142
   4 C :   -0.174369
   5 H :   -0.003219
   6 H :    0.004791
   7 H :    0.071658
   8 H :    0.075968
   9 H :    0.038413
  10 H :    0.020026
  11 H :    0.023579
  12 H :    0.023109
  13 H :    0.026501

  Mayer bond orders larger than 0.100000
B(  0-C ,  1-C ) :   1.0877 B(  0-C ,  2-C ) :   1.0080 B(  0-C ,  9-H ) :   0.9404
B(  0-C , 10-H ) :   0.9385 B(  1-C , 11-H ) :   0.9703 B(  1-C , 12-H ) :   0.9700
B(  1-C , 13-H ) :   0.9739 B(  2-C ,  3-N ) :   1.2426 B(  2-C ,  4-C ) :   1.8772
B(  3-N ,  7-H ) :   0.9501 B(  3-N ,  8-H ) :   0.9507 B(  4-C ,  5-H ) :   0.9546
B(  4-C ,  6-H ) :   0.9343

Dispersion correction           -0.008854061
FINAL SINGLE POINT ENERGY      -212.154811539110

DIPOLE MOMENT
-------------
                                X             Y             Z
Electronic contribution:      0.72970       2.30180      -1.91472
Nuclear contribution   :     -1.38463      -2.07457       1.55023
                        -----------------------------------------
Total Dipole Moment    :     -0.65492       0.22723      -0.36449
                        -----------------------------------------
Magnitude (a.u.)       :      0.78320
Magnitude (Debye)      :      1.99075

Rotational constants in cm-1:     0.272312     0.128195     0.101724
Rotational constants in MHz :  8163.717141  3843.180148  3049.598073

                             ****ORCA TERMINATED NORMALLY****
TOTAL RUN TIME: 0 days 0 hours 0 minutes 13 seconds 232 msec
