                         Program Version 5.0.0 -  RELEASE  -
|  1> !PBE0 D3BJ RIJCOSX def2-TZVP def2/J TightSCF xyzfile
|  2>
|  3> *xyzfile 0 1 D3.xyz
|  4>
|  5> %MaxCore 64000
|  6>
|  7> %pal nprocs 18
|  8> end
|  9>
| 10> %scf
| 11>   MaxIter 150
| 12> end
| 13>
| 14>
| 15>                          ****END OF INPUT****

CARTESIAN COORDINATES (ANGSTROEM)
---------------------------------
  C      3.343500    3.354571   -3.591998
  C      2.952633    1.863077   -3.574849
  C      4.129209    0.898394   -3.418950
  H      3.733687   -0.100605   -3.237633
  H      4.719095    0.862556   -4.339005
  C      5.017344    1.315212   -2.221305
  C      4.255868    3.703851   -4.726054
  C      3.734032    4.293783   -5.800770
  N      5.515039    3.407255   -4.637185
  H      6.149187    3.601203   -5.399053
  H      5.813584    2.899504   -3.808785
  H      2.741380    4.513109   -5.824701
  H      4.287548    4.521260   -6.614341
  H      2.278938    1.735250   -2.725496
  H      2.377466    1.625787   -4.475869
  O      4.737055    0.854112   -1.122825
  F      5.928146    2.168108   -2.491365
  H      3.861246    3.597252   -2.662979
  H      2.446493    3.973461   -3.656556

 Total Charge           Charge          ....    0
 Multiplicity           Mult            ....    1
 Number of Electrons    NEL             ....   70
 Basis Dimension        Dim             ....  339

ORBITAL ENERGIES
----------------

  NO   OCC          E(Eh)            E(eV)
   0   2.0000     -24.865813      -676.6332
   1   2.0000     -19.232879      -523.3532
   2   2.0000     -14.374914      -391.1613
   3   2.0000     -10.413374      -283.3623
   4   2.0000     -10.257217      -279.1131
   5   2.0000     -10.243425      -278.7378
   6   2.0000     -10.243347      -278.7356
   7   2.0000     -10.231671      -278.4179
   8   2.0000     -10.152529      -276.2644
   9   2.0000      -1.374442       -37.4005
  10   2.0000      -1.098820       -29.9004
  11   2.0000      -0.964602       -26.2482
  12   2.0000      -0.847105       -23.0509
  13   2.0000      -0.779770       -21.2186
  14   2.0000      -0.739401       -20.1201
  15   2.0000      -0.700613       -19.0646
  16   2.0000      -0.658043       -17.9063
  17   2.0000      -0.605380       -16.4732
  18   2.0000      -0.588481       -16.0134
  19   2.0000      -0.570782       -15.5318
  20   2.0000      -0.542753       -14.7690
  21   2.0000      -0.524596       -14.2750
  22   2.0000      -0.500539       -13.6203
  23   2.0000      -0.483316       -13.1517
  24   2.0000      -0.462065       -12.5734
  25   2.0000      -0.439936       -11.9713
  26   2.0000      -0.415550       -11.3077
  27   2.0000      -0.408111       -11.1053
  28   2.0000      -0.398777       -10.8513
  29   2.0000      -0.391849       -10.6627
  30   2.0000      -0.372498       -10.1362
  31   2.0000      -0.348903        -9.4941
  32   2.0000      -0.346174        -9.4199
  33   2.0000      -0.321946        -8.7606
  34   2.0000      -0.198416        -5.3992
  35   0.0000      -0.034605        -0.9416
  36   0.0000       0.036444         0.9917
  37   0.0000       0.049081         1.3356
  38   0.0000       0.067101         1.8259
  39   0.0000       0.075053         2.0423

MULLIKEN ATOMIC CHARGES
-----------------------
   0 C :   -0.269347
   1 C :   -0.178542
   2 C :   -0.259232
   3 H :    0.139810
   4 H :    0.147274
   5 C :    0.338433
   6 C :    0.181388
   7 C :   -0.438666
   8 N :   -0.456568
   9 H :    0.226764
  10 H :    0.251726
  11 H :    0.104705
  12 H :    0.094108
  13 H :    0.121234
  14 H :    0.118131
  15 O :   -0.276770
  16 F :   -0.109846
  17 H :    0.133653
  18 H :    0.131744
Sum of atomic charges:    0.0000000

LOEWDIN ATOMIC CHARGES
----------------------
   0 C :   -0.214108
   1 C :   -0.248300
   2 C :   -0.235497
   3 H :    0.154779
   4 H :    0.147533
   5 C :   -0.497444
   6 C :   -0.383806
   7 C :   -0.283264
   8 N :    0.014879
   9 H :    0.173062
  10 H :    0.142749
  11 H :    0.104912
  12 H :    0.095295
  13 H :    0.145567
  14 H :    0.146387
  15 O :    0.124847
  16 F :    0.313599
  17 H :    0.143635
  18 H :    0.155176

  Mayer bond orders larger than 0.100000
B(  0-C ,  1-C ) :   0.9894 B(  0-C ,  6-C ) :   0.9622 B(  0-C , 17-H ) :   0.9700
B(  0-C , 18-H ) :   0.9609 B(  1-C ,  2-C ) :   1.0119 B(  1-C , 13-H ) :   0.9508
B(  1-C , 14-H ) :   0.9439 B(  2-C ,  3-H ) :   0.9474 B(  2-C ,  4-H ) :   0.9320
B(  2-C ,  5-C ) :   0.9983 B(  5-C , 15-O ) :   2.1302 B(  5-C , 16-F ) :   1.0531
B(  6-C ,  7-C ) :   1.7648 B(  6-C ,  8-N ) :   1.2221 B(  7-C , 11-H ) :   0.9807
B(  7-C , 12-H ) :   0.9796 B(  8-N ,  9-H ) :   0.9118 B(  8-N , 10-H ) :   0.8752

Dispersion correction           -0.016062711
FINAL SINGLE POINT ENERGY      -464.109898302675

DIPOLE MOMENT
-------------
                                X             Y             Z
Electronic contribution:      7.47645      -3.59029       8.06527
Nuclear contribution   :     -7.21688       3.18902      -8.52197
                        -----------------------------------------
Total Dipole Moment    :      0.25957      -0.40126      -0.45671
                        -----------------------------------------
Magnitude (a.u.)       :      0.66104
Magnitude (Debye)      :      1.68023

Rotational constants in cm-1:     0.103917     0.036987     0.030872
Rotational constants in MHz :  3115.342573  1108.839114   925.506342

                             ****ORCA TERMINATED NORMALLY****
TOTAL RUN TIME: 0 days 0 hours 0 minutes 19 seconds 672 msec
