                         Program Version 5.0.0 -  RELEASE  -
|  1> !wB97X-D3 RIJCOSX def2-TZVPD def2/J TightSCF
|  2> *xyz -1 1
|  3> C         -0.87096        0.24804       -2.66280
|  4> C         -0.47749        0.60819       -4.10105
|  5> H          0.20677        1.45830       -4.11875
|  6> H         -1.36844        0.92942       -4.64785
|  7> C          0.18467       -0.50664       -4.91676
|  8> O         -0.15869       -1.70109       -4.65798
|  9> O          1.05594       -0.17441       -5.74037
| 10> H         -1.54056       -0.58646       -2.67455
| 11> H         -1.35339        1.08600       -2.20455
| 12> H          0.00660       -0.00662       -2.10609
| 13> *
| 14>
| 15> %MaxCore 64000
| 16>
| 17> %pal nprocs 4
| 18> end
| 19>
| 20> %scf
| 21>   MaxIter 150
| 22> end
| 23>
| 24>
| 25>                          ****END OF INPUT****

CARTESIAN COORDINATES (ANGSTROEM)
---------------------------------
  C     -0.870960    0.248040   -2.662800
  C     -0.477490    0.608190   -4.101050
  H      0.206770    1.458300   -4.118750
  H     -1.368440    0.929420   -4.647850
  C      0.184670   -0.506640   -4.916760
  O     -0.158690   -1.701090   -4.657980
  O      1.055940   -0.174410   -5.740370
  H     -1.540560   -0.586460   -2.674550
  H     -1.353390    1.086000   -2.204550
  H      0.006600   -0.006620   -2.106090

 Total Charge           Charge          ....   -1
 Multiplicity           Mult            ....    1
 Number of Electrons    NEL             ....   40
 Basis Dimension        Dim             ....  236

ORBITAL ENERGIES
----------------

  NO   OCC          E(Eh)            E(eV)
   0   2.0000     -18.965266      -516.0711
   1   2.0000     -18.961576      -515.9707
   2   2.0000     -10.158363      -276.4231
   3   2.0000     -10.108600      -275.0690
   4   2.0000     -10.101437      -274.8741
   5   2.0000      -0.935671       -25.4609
   6   2.0000      -0.839417       -22.8417
   7   2.0000      -0.719940       -19.5906
   8   2.0000      -0.587416       -15.9844
   9   2.0000      -0.421908       -11.4807
  10   2.0000      -0.394828       -10.7438
  11   2.0000      -0.362070        -9.8524
  12   2.0000      -0.328246        -8.9320
  13   2.0000      -0.312880        -8.5139
  14   2.0000      -0.305078        -8.3016
  15   2.0000      -0.274140        -7.4597
  16   2.0000      -0.255523        -6.9531
  17   2.0000      -0.140179        -3.8145
  18   2.0000      -0.135151        -3.6777
  19   2.0000      -0.122655        -3.3376
  20   0.0000       0.191951         5.2233
  21   0.0000       0.211114         5.7447
  22   0.0000       0.219507         5.9731
  23   0.0000       0.239145         6.5075
  24   0.0000       0.254317         6.9203

MULLIKEN ATOMIC CHARGES
-----------------------
   0 C :   -1.001198
   1 C :   -0.091826
   2 H :    0.228777
   3 H :    0.196028
   4 C :    0.364980
   5 O :   -0.763118
   6 O :   -0.762550
   7 H :    0.251135
   8 H :    0.305871
   9 H :    0.271902
Sum of atomic charges:   -1.0000000

LOEWDIN ATOMIC CHARGES
----------------------
   0 C :   -0.135179
   1 C :   -0.209655
   2 H :    0.088327
   3 H :    0.095337
   4 C :   -0.766340
   5 O :   -0.122725
   6 O :   -0.104449
   7 H :    0.053434
   8 H :    0.042181
   9 H :    0.059071

  Mayer bond orders larger than 0.100000
B(  0-C ,  1-C ) :   0.6128 B(  0-C ,  4-C ) :   0.1169 B(  0-C ,  7-H ) :   1.0105
B(  0-C ,  8-H ) :   0.9348 B(  0-C ,  9-H ) :   0.9835 B(  1-C ,  2-H ) :   0.9881
B(  1-C ,  3-H ) :   0.9436 B(  1-C ,  4-C ) :   0.9879 B(  4-C ,  5-O ) :   1.4643
B(  4-C ,  6-O ) :   1.4625

Dispersion correction           -0.001934019
FINAL SINGLE POINT ENERGY      -267.871274901537

DIPOLE MOMENT
-------------
                                X             Y             Z
Electronic contribution:      2.61448      -2.88857      -4.53546
Nuclear contribution   :     -3.54611       4.15440       5.90446
                        -----------------------------------------
Total Dipole Moment    :     -0.93163       1.26583       1.36900
                        -----------------------------------------
Magnitude (a.u.)       :      2.08433
Magnitude (Debye)      :      5.29794

Rotational constants in cm-1:     0.332789     0.132085     0.101080
Rotational constants in MHz :  9976.755824  3959.803182  3030.288811

                             ****ORCA TERMINATED NORMALLY****
TOTAL RUN TIME: 0 days 0 hours 0 minutes 40 seconds 365 msec
