                         Program Version 5.0.0 -  RELEASE  -
|  1> !wB97X-D3 RIJCOSX def2-TZVPD def2/J TightSCF
|  2> *xyz 1 1
|  3> C          2.48645       -2.67712       -2.56345
|  4> C          3.03764       -2.36672       -3.92351
|  5> N          2.28036       -2.45441       -4.96769
|  6> N          4.32174       -2.01793       -4.01664
|  7> H          4.87994       -1.91167       -3.17382
|  8> H          4.71015       -1.67088       -4.88356
|  9> H          1.27042       -2.41265       -4.86614
| 10> H          2.58183       -2.05528       -5.84688
| 11> C          2.49799       -1.46946       -1.61030
| 12> H          1.47259       -3.05153       -2.69437
| 13> H          3.08320       -3.49064       -2.14147
| 14> H          1.91240       -0.67831       -2.02991
| 15> H          3.50450       -1.13364       -1.47227
| 16> H          2.08509       -1.75655       -0.66585
| 17> *
| 18>
| 19> %MaxCore 64000
| 20>
| 21> %pal nprocs 4
| 22> end
| 23>
| 24> %scf
| 25>   MaxIter 150
| 26> end
| 27>
| 28>
| 29>                          ****END OF INPUT****

CARTESIAN COORDINATES (ANGSTROEM)
---------------------------------
  C      2.486450   -2.677120   -2.563450
  C      3.037640   -2.366720   -3.923510
  N      2.280360   -2.454410   -4.967690
  N      4.321740   -2.017930   -4.016640
  H      4.879940   -1.911670   -3.173820
  H      4.710150   -1.670880   -4.883560
  H      1.270420   -2.412650   -4.866140
  H      2.581830   -2.055280   -5.846880
  C      2.497990   -1.469460   -1.610300
  H      1.472590   -3.051530   -2.694370
  H      3.083200   -3.490640   -2.141470
  H      1.912400   -0.678310   -2.029910
  H      3.504500   -1.133640   -1.472270
  H      2.085090   -1.756550   -0.665850

 Total Charge           Charge          ....    1
 Multiplicity           Mult            ....    1
 Number of Electrons    NEL             ....   40
 Basis Dimension        Dim             ....  266

ORBITAL ENERGIES
----------------

  NO   OCC          E(Eh)            E(eV)
   0   2.0000     -14.670356      -399.2007
   1   2.0000     -14.665021      -399.0555
   2   2.0000     -10.603061      -288.5240
   3   2.0000     -10.474434      -285.0238
   4   2.0000     -10.431068      -283.8438
   5   2.0000      -1.326068       -36.0841
   6   2.0000      -1.226806       -33.3831
   7   2.0000      -1.086108       -29.5545
   8   2.0000      -0.976892       -26.5826
   9   2.0000      -0.923842       -25.1390
  10   2.0000      -0.877187       -23.8695
  11   2.0000      -0.854679       -23.2570
  12   2.0000      -0.800004       -21.7692
  13   2.0000      -0.754677       -20.5358
  14   2.0000      -0.722929       -19.6719
  15   2.0000      -0.708165       -19.2701
  16   2.0000      -0.644145       -17.5281
  17   2.0000      -0.634130       -17.2555
  18   2.0000      -0.623898       -16.9771
  19   2.0000      -0.589320       -16.0362
  20   0.0000      -0.133165        -3.6236
  21   0.0000      -0.093983        -2.5574
  22   0.0000      -0.054877        -1.4933
  23   0.0000      -0.050596        -1.3768
  24   0.0000      -0.030570        -0.8319

MULLIKEN ATOMIC CHARGES
-----------------------
   0 C :   -0.352833
   1 C :    0.683855
   2 N :   -0.381532
   3 N :   -0.402198
   4 H :    0.254919
   5 H :    0.221251
   6 H :    0.282759
   7 H :    0.233605
   8 C :   -1.151341
   9 H :    0.291769
  10 H :    0.310178
  11 H :    0.341971
  12 H :    0.343382
  13 H :    0.324214
Sum of atomic charges:    1.0000000

LOEWDIN ATOMIC CHARGES
----------------------
   0 C :   -0.144764
   1 C :   -0.353051
   2 N :    0.226766
   3 N :    0.221064
   4 H :    0.147134
   5 H :    0.145757
   6 H :    0.157421
   7 H :    0.150842
   8 C :   -0.055953
   9 H :    0.123920
  10 H :    0.138922
  11 H :    0.084253
  12 H :    0.070429
  13 H :    0.087260

  Mayer bond orders larger than 0.100000
B(  0-C ,  1-C ) :   0.8134 B(  0-C ,  8-C ) :   0.6487 B(  0-C ,  9-H ) :   0.9562
B(  0-C , 10-H ) :   0.9289 B(  1-C ,  2-N ) :   1.2742 B(  1-C ,  3-N ) :   1.1812
B(  1-C ,  8-C ) :   0.1130 B(  2-N ,  6-H ) :   0.9161 B(  2-N ,  7-H ) :   0.9864
B(  3-N ,  4-H ) :   0.9383 B(  3-N ,  5-H ) :   1.0138 B(  8-C , 11-H ) :   0.9575
B(  8-C , 12-H ) :   0.8919 B(  8-C , 13-H ) :   0.9771

Dispersion correction           -0.002999211
FINAL SINGLE POINT ENERGY      -229.055248191785

DIPOLE MOMENT
-------------
                                X             Y             Z
Electronic contribution:      1.05313      -1.07336      -3.91077
Nuclear contribution   :     -0.84604       1.34287       2.92710
                        -----------------------------------------
Total Dipole Moment    :      0.20709       0.26951      -0.98367
                        -----------------------------------------
Magnitude (a.u.)       :      1.04073
Magnitude (Debye)      :      2.64533

Rotational constants in cm-1:     0.265816     0.126189     0.097583
Rotational constants in MHz :  7968.948902  3783.040103  2925.457702

                             ****ORCA TERMINATED NORMALLY****
TOTAL RUN TIME: 0 days 0 hours 0 minutes 58 seconds 692 msec
