                         Program Version 5.0.0 -  RELEASE  -
|  1> !wB97X-D3 RIJCOSX def2-TZVPD def2/J TightSCF
|  2> *xyz 0 1
|  3> C         -0.87096        0.24804       -2.66280
|  4> C         -0.47749        0.60819       -4.10105
|  5> H          0.20677        1.45830       -4.11875
|  6> H         -1.36844        0.92942       -4.64785
|  7> C          0.18467       -0.50664       -4.91676
|  8> F         -0.15869       -1.70109       -4.65798
|  9> O          1.05594       -0.17441       -5.74037
| 10> H         -1.54056       -0.58646       -2.67455
| 11> H         -1.35339        1.08600       -2.20455
| 12> H          0.00660       -0.00662       -2.10609
| 13> *
| 14>
| 15> %MaxCore 64000
| 16>
| 17> %pal nprocs 4
| 18> end
| 19>
| 20> %scf
| 21>   MaxIter 150
| 22> end
| 23>
| 24>
| 25>                          ****END OF INPUT****

CARTESIAN COORDINATES (ANGSTROEM)
---------------------------------
  C     -0.870960    0.248040   -2.662800
  C     -0.477490    0.608190   -4.101050
  H      0.206770    1.458300   -4.118750
  H     -1.368440    0.929420   -4.647850
  C      0.184670   -0.506640   -4.916760
  F     -0.158690   -1.701090   -4.657980
  O      1.055940   -0.174410   -5.740370
  H     -1.540560   -0.586460   -2.674550
  H     -1.353390    1.086000   -2.204550
  H      0.006600   -0.006620   -2.106090

 Total Charge           Charge          ....    0
 Multiplicity           Mult            ....    1
 Number of Electrons    NEL             ....   40
 Basis Dimension        Dim             ....  236

ORBITAL ENERGIES
----------------

  NO   OCC          E(Eh)            E(eV)
   0   2.0000     -24.851640      -676.2475
   1   2.0000     -19.237690      -523.4842
   2   2.0000     -10.455322      -284.5038
   3   2.0000     -10.308480      -280.5080
   4   2.0000     -10.281746      -279.7805
   5   2.0000      -1.426651       -38.8212
   6   2.0000      -1.155774       -31.4502
   7   2.0000      -0.919920       -25.0323
   8   2.0000      -0.797567       -21.7029
   9   2.0000      -0.750384       -20.4190
  10   2.0000      -0.651170       -17.7192
  11   2.0000      -0.643965       -17.5232
  12   2.0000      -0.600678       -16.3453
  13   2.0000      -0.568720       -15.4757
  14   2.0000      -0.533657       -14.5215
  15   2.0000      -0.500692       -13.6245
  16   2.0000      -0.485552       -13.2125
  17   2.0000      -0.475029       -12.9262
  18   2.0000      -0.445047       -12.1104
  19   2.0000      -0.389512       -10.5992
  20   0.0000       0.054613         1.4861
  21   0.0000       0.063837         1.7371
  22   0.0000       0.085928         2.3382
  23   0.0000       0.092196         2.5088
  24   0.0000       0.107979         2.9383

MULLIKEN ATOMIC CHARGES
-----------------------
   0 C :   -1.111521
   1 C :   -0.144468
   2 H :    0.270218
   3 H :    0.278144
   4 C :    0.549685
   5 F :   -0.229758
   6 O :   -0.565819
   7 H :    0.311316
   8 H :    0.312330
   9 H :    0.329873
Sum of atomic charges:   -0.0000000

LOEWDIN ATOMIC CHARGES
----------------------
   0 C :   -0.095642
   1 C :   -0.151286
   2 H :    0.118185
   3 H :    0.121739
   4 C :   -0.473060
   5 F :    0.189719
   6 O :    0.080215
   7 H :    0.067832
   8 H :    0.069014
   9 H :    0.073284

  Mayer bond orders larger than 0.100000
B(  0-C ,  1-C ) :   0.6475 B(  0-C ,  7-H ) :   0.9589 B(  0-C ,  8-H ) :   0.9603
B(  0-C ,  9-H ) :   0.9479 B(  1-C ,  2-H ) :   0.9546 B(  1-C ,  3-H ) :   0.9039
B(  1-C ,  4-C ) :   0.9657 B(  4-C ,  5-F ) :   0.9660 B(  4-C ,  6-O ) :   1.6748

Dispersion correction           -0.001890936
FINAL SINGLE POINT ENERGY      -292.441722187916

DIPOLE MOMENT
-------------
                                X             Y             Z
Electronic contribution:      2.59861      -5.35963      -5.28339
Nuclear contribution   :     -3.42837       5.66737       6.17046
                        -----------------------------------------
Total Dipole Moment    :     -0.82976       0.30774       0.88707
                        -----------------------------------------
Magnitude (a.u.)       :      1.25303
Magnitude (Debye)      :      3.18496

Rotational constants in cm-1:     0.304660     0.130969     0.097716
Rotational constants in MHz :  9133.464515  3926.366384  2929.457090

                             ****ORCA TERMINATED NORMALLY****
TOTAL RUN TIME: 0 days 0 hours 0 minutes 42 seconds 564 msec
