                         Program Version 5.0.0 -  RELEASE  -
|  1> !wB97X-D3 RIJCOSX def2-TZVPD def2/J TightSCF
|  2> *xyz 0 1
|  3> C          2.48645       -2.67712       -2.56345
|  4> C          3.03764       -2.36672       -3.92351
|  5> C          2.28036       -2.45441       -4.96769
|  6> N          4.32174       -2.01793       -4.01664
|  7> H          4.87994       -1.91167       -3.17382
|  8> H          4.71015       -1.67088       -4.88356
|  9> H          1.27042       -2.41265       -4.86614
| 10> H          2.58183       -2.05528       -5.84688
| 11> C          2.49799       -1.46946       -1.61030
| 12> H          1.47259       -3.05153       -2.69437
| 13> H          3.08320       -3.49064       -2.14147
| 14> H          1.91240       -0.67831       -2.02991
| 15> H          3.50450       -1.13364       -1.47227
| 16> H          2.08509       -1.75655       -0.66585
| 17> *
| 18>
| 19> %MaxCore 64000
| 20>
| 21> %pal nprocs 4
| 22> end
| 23>
| 24> %scf
| 25>   MaxIter 150
| 26> end
| 27>
| 28>
| 29>                          ****END OF INPUT****

CARTESIAN COORDINATES (ANGSTROEM)
---------------------------------
  C      2.486450   -2.677120   -2.563450
  C      3.037640   -2.366720   -3.923510
  C      2.280360   -2.454410   -4.967690
  N      4.321740   -2.017930   -4.016640
  H      4.879940   -1.911670   -3.173820
  H      4.710150   -1.670880   -4.883560
  H      1.270420   -2.412650   -4.866140
  H      2.581830   -2.055280   -5.846880
  C      2.497990   -1.469460   -1.610300
  H      1.472590   -3.051530   -2.694370
  H      3.083200   -3.490640   -2.141470
  H      1.912400   -0.678310   -2.029910
  H      3.504500   -1.133640   -1.472270
  H      2.085090   -1.756550   -0.665850

 Total Charge           Charge          ....    0
 Multiplicity           Mult            ....    1
 Number of Electrons    NEL             ....   40
 Basis Dimension        Dim             ....  266

ORBITAL ENERGIES
----------------

  NO   OCC          E(Eh)            E(eV)
   0   2.0000     -14.421546      -392.4302
   1   2.0000     -10.296756      -280.1890
   2   2.0000     -10.274454      -279.5821
   3   2.0000     -10.262341      -279.2525
   4   2.0000     -10.201690      -277.6021
   5   2.0000      -1.042326       -28.3631
   6   2.0000      -0.896091       -24.3839
   7   2.0000      -0.840264       -22.8648
   8   2.0000      -0.747754       -20.3474
   9   2.0000      -0.672791       -18.3076
  10   2.0000      -0.626854       -17.0576
  11   2.0000      -0.580122       -15.7859
  12   2.0000      -0.536498       -14.5988
  13   2.0000      -0.531479       -14.4623
  14   2.0000      -0.485529       -13.2119
  15   2.0000      -0.480578       -13.0772
  16   2.0000      -0.449397       -12.2287
  17   2.0000      -0.428161       -11.6508
  18   2.0000      -0.420692       -11.4476
  19   2.0000      -0.285275        -7.7627
  20   0.0000       0.066998         1.8231
  21   0.0000       0.091718         2.4958
  22   0.0000       0.095590         2.6011
  23   0.0000       0.102036         2.7765
  24   0.0000       0.122044         3.3210

MULLIKEN ATOMIC CHARGES
-----------------------
   0 C :   -0.370549
   1 C :    0.760760
   2 C :   -1.320406
   3 N :   -0.483701
   4 H :    0.189248
   5 H :    0.181367
   6 H :    0.324404
   7 H :    0.356274
   8 C :   -1.105348
   9 H :    0.241152
  10 H :    0.296619
  11 H :    0.319276
  12 H :    0.300494
  13 H :    0.310410
Sum of atomic charges:    0.0000000

LOEWDIN ATOMIC CHARGES
----------------------
   0 C :   -0.197308
   1 C :   -0.497422
   2 C :    0.003939
   3 N :    0.097380
   4 H :    0.104744
   5 H :    0.111202
   6 H :    0.029792
   7 H :    0.025721
   8 C :   -0.092392
   9 H :    0.108116
  10 H :    0.113907
  11 H :    0.072912
  12 H :    0.055637
  13 H :    0.063773

  Mayer bond orders larger than 0.100000
B(  0-C ,  1-C ) :   0.8171 B(  0-C ,  8-C ) :   0.6362 B(  0-C ,  9-H ) :   0.9906
B(  0-C , 10-H ) :   0.9124 B(  1-C ,  2-C ) :   1.2460 B(  1-C ,  3-N ) :   1.0076
B(  1-C ,  7-H ) :  -0.1213 B(  2-C ,  3-N ) :   0.1298 B(  2-C ,  6-H ) :   0.9385
B(  2-C ,  7-H ) :   0.9954 B(  3-N ,  4-H ) :   0.9957 B(  3-N ,  5-H ) :   1.0082
B(  8-C , 11-H ) :   0.9942 B(  8-C , 12-H ) :   0.9277 B(  8-C , 13-H ) :   0.9728

Dispersion correction           -0.003007167
FINAL SINGLE POINT ENERGY      -212.581884708901

DIPOLE MOMENT
-------------
                                X             Y             Z
Electronic contribution:      1.52348      -0.87695      -2.12033
Nuclear contribution   :     -0.99743       1.27863       2.57190
                        -----------------------------------------
Total Dipole Moment    :      0.52605       0.40168       0.45157
                        -----------------------------------------
Magnitude (a.u.)       :      0.80124
Magnitude (Debye)      :      2.03660

Rotational constants in cm-1:     0.274050     0.130114     0.100964
Rotational constants in MHz :  8215.815505  3900.722919  3026.834930

                             ****ORCA TERMINATED NORMALLY****
TOTAL RUN TIME: 0 days 0 hours 0 minutes 57 seconds 449 msec
