                         Program Version 5.0.0 -  RELEASE  -
|  1> !wB97X-D3 RIJCOSX def2-TZVPD def2/J TightSCF
|  2> *xyz 0 1
|  3> C         -0.87096        0.24804       -2.66280
|  4> C         -0.47749        0.60819       -4.10105
|  5> H          0.20677        1.45830       -4.11875
|  6> H         -1.36844        0.92942       -4.64785
|  7> C          0.18467       -0.50664       -4.91676
|  8> O         -0.15869       -1.70109       -4.65798
|  9> F          1.05594       -0.17441       -5.74037
| 10> H         -1.54056       -0.58646       -2.67455
| 11> H         -1.35339        1.08600       -2.20455
| 12> H          0.00660       -0.00662       -2.10609
| 13> *
| 14>
| 15> %MaxCore 64000
| 16>
| 17> %pal nprocs 4
| 18> end
| 19>
| 20> %scf
| 21>   MaxIter 150
| 22> end
| 23>
| 24>
| 25>                          ****END OF INPUT****

CARTESIAN COORDINATES (ANGSTROEM)
---------------------------------
  C     -0.870960    0.248040   -2.662800
  C     -0.477490    0.608190   -4.101050
  H      0.206770    1.458300   -4.118750
  H     -1.368440    0.929420   -4.647850
  C      0.184670   -0.506640   -4.916760
  O     -0.158690   -1.701090   -4.657980
  F      1.055940   -0.174410   -5.740370
  H     -1.540560   -0.586460   -2.674550
  H     -1.353390    1.086000   -2.204550
  H      0.006600   -0.006620   -2.106090

 Total Charge           Charge          ....    0
 Multiplicity           Mult            ....    1
 Number of Electrons    NEL             ....   40
 Basis Dimension        Dim             ....  236

ORBITAL ENERGIES
----------------

  NO   OCC          E(Eh)            E(eV)
   0   2.0000     -24.861232      -676.5085
   1   2.0000     -19.234431      -523.3955
   2   2.0000     -10.457732      -284.5693
   3   2.0000     -10.309662      -280.5402
   4   2.0000     -10.275785      -279.6183
   5   2.0000      -1.445498       -39.3340
   6   2.0000      -1.140576       -31.0366
   7   2.0000      -0.915970       -24.9248
   8   2.0000      -0.807189       -21.9647
   9   2.0000      -0.749351       -20.3909
  10   2.0000      -0.659250       -17.9391
  11   2.0000      -0.644708       -17.5434
  12   2.0000      -0.612902       -16.6779
  13   2.0000      -0.567837       -15.4516
  14   2.0000      -0.532197       -14.4818
  15   2.0000      -0.491622       -13.3777
  16   2.0000      -0.472099       -12.8465
  17   2.0000      -0.470519       -12.8035
  18   2.0000      -0.440466       -11.9857
  19   2.0000      -0.387411       -10.5420
  20   0.0000       0.052740         1.4351
  21   0.0000       0.064256         1.7485
  22   0.0000       0.085941         2.3386
  23   0.0000       0.093001         2.5307
  24   0.0000       0.108105         2.9417

MULLIKEN ATOMIC CHARGES
-----------------------
   0 C :   -1.080646
   1 C :   -0.210039
   2 H :    0.294804
   3 H :    0.276623
   4 C :    0.591295
   5 O :   -0.568596
   6 F :   -0.233050
   7 H :    0.297046
   8 H :    0.321860
   9 H :    0.310703
Sum of atomic charges:   -0.0000000

LOEWDIN ATOMIC CHARGES
----------------------
   0 C :   -0.089970
   1 C :   -0.157746
   2 H :    0.109882
   3 H :    0.121725
   4 C :   -0.474277
   5 O :    0.059828
   6 F :    0.216373
   7 H :    0.071113
   8 H :    0.068617
   9 H :    0.074454

  Mayer bond orders larger than 0.100000
B(  0-C ,  1-C ) :   0.6995 B(  0-C ,  4-C ) :   0.1082 B(  0-C ,  7-H ) :   0.9787
B(  0-C ,  8-H ) :   0.9386 B(  0-C ,  9-H ) :   0.9500 B(  1-C ,  2-H ) :   0.9347
B(  1-C ,  3-H ) :   0.9071 B(  1-C ,  4-C ) :   0.9682 B(  4-C ,  5-O ) :   1.6634
B(  4-C ,  6-F ) :   0.9613

Dispersion correction           -0.001905701
FINAL SINGLE POINT ENERGY      -292.434896337901

DIPOLE MOMENT
-------------
                                X             Y             Z
Electronic contribution:      4.65021      -2.81782      -7.12164
Nuclear contribution   :     -4.75269       4.00281       7.35060
                        -----------------------------------------
Total Dipole Moment    :     -0.10249       1.18499       0.22896
                        -----------------------------------------
Magnitude (a.u.)       :      1.21125
Magnitude (Debye)      :      3.07875

Rotational constants in cm-1:     0.323805     0.124913     0.096140
Rotational constants in MHz :  9707.430323  3744.789513  2882.191141

                             ****ORCA TERMINATED NORMALLY****
TOTAL RUN TIME: 0 days 0 hours 0 minutes 46 seconds 119 msec
