                         Program Version 5.0.0 -  RELEASE  -
|  1> !wB97X-D3 RIJCOSX def2-TZVPD def2/J TightSCF
|  2> *xyz 0 1
|  3> C          2.48645       -2.67712       -2.56345
|  4> C          3.03764       -2.36672       -3.92351
|  5> N          2.28036       -2.45441       -4.96769
|  6> C          4.32174       -2.01793       -4.01664
|  7> H          4.87994       -1.91167       -3.17382
|  8> H          4.71015       -1.67088       -4.88356
|  9> H          1.27042       -2.41265       -4.86614
| 10> H          2.58183       -2.05528       -5.84688
| 11> C          2.49799       -1.46946       -1.61030
| 12> H          1.47259       -3.05153       -2.69437
| 13> H          3.08320       -3.49064       -2.14147
| 14> H          1.91240       -0.67831       -2.02991
| 15> H          3.50450       -1.13364       -1.47227
| 16> H          2.08509       -1.75655       -0.66585
| 17> *
| 18>
| 19> %MaxCore 64000
| 20>
| 21> %pal nprocs 4
| 22> end
| 23>
| 24> %scf
| 25>   MaxIter 150
| 26> end
| 27>
| 28>
| 29>                          ****END OF INPUT****

CARTESIAN COORDINATES (ANGSTROEM)
---------------------------------
  C      2.486450   -2.677120   -2.563450
  C      3.037640   -2.366720   -3.923510
  N      2.280360   -2.454410   -4.967690
  C      4.321740   -2.017930   -4.016640
  H      4.879940   -1.911670   -3.173820
  H      4.710150   -1.670880   -4.883560
  H      1.270420   -2.412650   -4.866140
  H      2.581830   -2.055280   -5.846880
  C      2.497990   -1.469460   -1.610300
  H      1.472590   -3.051530   -2.694370
  H      3.083200   -3.490640   -2.141470
  H      1.912400   -0.678310   -2.029910
  H      3.504500   -1.133640   -1.472270
  H      2.085090   -1.756550   -0.665850

 Total Charge           Charge          ....    0
 Multiplicity           Mult            ....    1
 Number of Electrons    NEL             ....   40
 Basis Dimension        Dim             ....  266

ORBITAL ENERGIES
----------------

  NO   OCC          E(Eh)            E(eV)
   0   2.0000     -14.425241      -392.5308
   1   2.0000     -10.297011      -280.1959
   2   2.0000     -10.275014      -279.5973
   3   2.0000     -10.258382      -279.1448
   4   2.0000     -10.202705      -277.6297
   5   2.0000      -1.057760       -28.7831
   6   2.0000      -0.897488       -24.4219
   7   2.0000      -0.823902       -22.4195
   8   2.0000      -0.752934       -20.4884
   9   2.0000      -0.676270       -18.4022
  10   2.0000      -0.623734       -16.9727
  11   2.0000      -0.584697       -15.9104
  12   2.0000      -0.546348       -14.8669
  13   2.0000      -0.507285       -13.8039
  14   2.0000      -0.492977       -13.4146
  15   2.0000      -0.475641       -12.9428
  16   2.0000      -0.447385       -12.1740
  17   2.0000      -0.430986       -11.7277
  18   2.0000      -0.429623       -11.6906
  19   2.0000      -0.275373        -7.4933
  20   0.0000       0.068044         1.8516
  21   0.0000       0.090204         2.4546
  22   0.0000       0.095031         2.5859
  23   0.0000       0.100930         2.7464
  24   0.0000       0.122005         3.3199

MULLIKEN ATOMIC CHARGES
-----------------------
   0 C :   -0.302387
   1 C :    0.903080
   2 N :   -0.440702
   3 C :   -1.569235
   4 H :    0.328825
   5 H :    0.327160
   6 H :    0.225529
   7 H :    0.194858
   8 C :   -1.124978
   9 H :    0.268071
  10 H :    0.266982
  11 H :    0.303711
  12 H :    0.314018
  13 H :    0.305067
Sum of atomic charges:   -0.0000000

LOEWDIN ATOMIC CHARGES
----------------------
   0 C :   -0.197297
   1 C :   -0.503534
   2 N :    0.095995
   3 C :    0.014890
   4 H :    0.022039
   5 H :    0.018342
   6 H :    0.111999
   7 H :    0.115994
   8 C :   -0.091749
   9 H :    0.101557
  10 H :    0.116632
  11 H :    0.070851
  12 H :    0.061564
  13 H :    0.062717

  Mayer bond orders larger than 0.100000
B(  0-C ,  1-C ) :   0.7080 B(  0-C ,  8-C ) :   0.5744 B(  0-C ,  9-H ) :   1.0366
B(  0-C , 10-H ) :   0.9408 B(  1-C ,  2-N ) :   1.0887 B(  1-C ,  3-C ) :   0.9799
B(  1-C ,  5-H ) :  -0.1186 B(  1-C ,  8-C ) :   0.1431 B(  2-N ,  3-C ) :   0.1131
B(  2-N ,  6-H ) :   0.9617 B(  2-N ,  7-H ) :   0.9771 B(  3-C ,  4-H ) :   0.9178
B(  3-C ,  5-H ) :   1.0182 B(  8-C , 11-H ) :   0.9746 B(  8-C , 12-H ) :   0.9558
B(  8-C , 13-H ) :   0.9558

Dispersion correction           -0.002981099
FINAL SINGLE POINT ENERGY      -212.582262208618

DIPOLE MOMENT
-------------
                                X             Y             Z
Electronic contribution:     -0.26157      -1.19246      -2.96041
Nuclear contribution   :     -0.52463       1.37972       2.79217
                        -----------------------------------------
Total Dipole Moment    :     -0.78620       0.18726      -0.16824
                        -----------------------------------------
Magnitude (a.u.)       :      0.82552
Magnitude (Debye)      :      2.09830

Rotational constants in cm-1:     0.281086     0.127387     0.100311
Rotational constants in MHz :  8426.743103  3818.969834  3007.238026

                             ****ORCA TERMINATED NORMALLY****
TOTAL RUN TIME: 0 days 0 hours 1 minutes 2 seconds 455 msec
