                         Program Version 5.0.0 -  RELEASE  -
|  1> !wB97X-D3 RIJCOSX def2-TZVPD def2/J TightSCF xyzfile
|  2>
|  3> *xyzfile 0 1 D2.xyz
|  4>
|  5> %MaxCore 64000
|  6>
|  7> %pal nprocs 18
|  8> end
|  9>
| 10> %scf
| 11>   MaxIter 150
| 12> end
| 13>
| 14>
| 15>                          ****END OF INPUT****

CARTESIAN COORDINATES (ANGSTROEM)
---------------------------------
  C      2.486452   -2.677121   -2.563447
  C     -0.870963    0.248043   -2.662804
  C     -0.477492    0.608191   -4.101052
  H      0.206773    1.458299   -4.118748
  H     -1.368442    0.929419   -4.647855
  C      0.184673   -0.506640   -4.916760
  C      3.037640   -2.366715   -3.923509
  N      2.280360   -2.454408   -4.967692
  C      4.321736   -2.017932   -4.016641
  H      4.879940   -1.911668   -3.173823
  H      4.710148   -1.670882   -4.883561
  H      1.270423   -2.412650   -4.866143
  H      2.581829   -2.055282   -5.846878
  F     -0.158685   -1.701088   -4.657981
  O      1.055938   -0.174410   -5.740373
  C      2.497991   -1.469464   -1.610303
  C      1.582841   -0.321986   -2.042619
  H      2.193083   -1.833912   -0.625420
  H      3.523356   -1.103982   -1.490392
  C      0.100160   -0.673551   -1.915815
  H      1.822311   -0.040361   -3.072834
  H      1.813180    0.557019   -1.433266
  H     -0.063284   -1.679120   -2.301112
  H     -0.168820   -0.691680   -0.853831
  H     -1.001048    1.181040   -2.104071
  H     -1.844645   -0.246592   -2.663281
  H      1.472592   -3.051527   -2.694366
  H      3.083201   -3.490638   -2.141472

 Total Charge           Charge          ....    0
 Multiplicity           Mult            ....    1
 Number of Electrons    NEL             ....   94
 Basis Dimension        Dim             ....  594

ORBITAL ENERGIES
----------------

  NO   OCC          E(Eh)            E(eV)
   0   2.0000     -24.881283      -677.0541
   1   2.0000     -19.254679      -523.9464
   2   2.0000     -14.397860      -391.7857
   3   2.0000     -10.473256      -284.9918
   4   2.0000     -10.316023      -280.7133
   5   2.0000     -10.296881      -280.1924
   6   2.0000     -10.285179      -279.8740
   7   2.0000     -10.282520      -279.8016
   8   2.0000     -10.275387      -279.6075
   9   2.0000     -10.272254      -279.5222
  10   2.0000     -10.269507      -279.4475
  11   2.0000     -10.189703      -277.2759
  12   2.0000      -1.461480       -39.7689
  13   2.0000      -1.174991       -31.9731
  14   2.0000      -1.040761       -28.3205
  15   2.0000      -0.953155       -25.9367
  16   2.0000      -0.912125       -24.8202
  17   2.0000      -0.869550       -23.6617
  18   2.0000      -0.822839       -22.3906
  19   2.0000      -0.801940       -21.8219
  20   2.0000      -0.778417       -21.1818
  21   2.0000      -0.737358       -20.0645
  22   2.0000      -0.700834       -19.0707
  23   2.0000      -0.692819       -18.8526
  24   2.0000      -0.673809       -18.3353
  25   2.0000      -0.644913       -17.5490
  26   2.0000      -0.615775       -16.7561
  27   2.0000      -0.600281       -16.3345
  28   2.0000      -0.585350       -15.9282
  29   2.0000      -0.579703       -15.7745
  30   2.0000      -0.572272       -15.5723
  31   2.0000      -0.545195       -14.8355
  32   2.0000      -0.527524       -14.3547
  33   2.0000      -0.519349       -14.1322
  34   2.0000      -0.506846       -13.7920
  35   2.0000      -0.490708       -13.3528
  36   2.0000      -0.483665       -13.1612
  37   2.0000      -0.473666       -12.8891
  38   2.0000      -0.462356       -12.5814
  39   2.0000      -0.451442       -12.2844
  40   2.0000      -0.439980       -11.9725
  41   2.0000      -0.433254       -11.7894
  42   2.0000      -0.418931       -11.3997
  43   2.0000      -0.415686       -11.3114
  44   2.0000      -0.407330       -11.0840
  45   2.0000      -0.396796       -10.7974
  46   2.0000      -0.259746        -7.0681
  47   0.0000       0.038158         1.0383
  48   0.0000       0.057107         1.5540
  49   0.0000       0.073841         2.0093
  50   0.0000       0.077037         2.0963
  51   0.0000       0.080133         2.1805

MULLIKEN ATOMIC CHARGES
-----------------------
   0 C :   -0.393473
   1 C :   -0.654168
   2 C :   -0.402729
   3 H :    0.333197
   4 H :    0.305801
   5 C :    0.593632
   6 C :    0.614226
   7 N :   -0.434958
   8 C :   -1.682365
   9 H :    0.381276
  10 H :    0.336110
  11 H :    0.352111
  12 H :    0.209873
  13 F :   -0.337701
  14 O :   -0.607793
  15 C :   -0.544371
  16 C :   -0.480701
  17 H :    0.302268
  18 H :    0.350826
  19 C :   -0.522078
  20 H :    0.269806
  21 H :    0.275557
  22 H :    0.198298
  23 H :    0.366255
  24 H :    0.293826
  25 H :    0.333375
  26 H :    0.230991
  27 H :    0.312907
Sum of atomic charges:    0.0000000

LOEWDIN ATOMIC CHARGES
----------------------
   0 C :   -0.140499
   1 C :   -0.192997
   2 C :   -0.095696
   3 H :    0.127132
   4 H :    0.127597
   5 C :   -0.462896
   6 C :   -0.483946
   7 N :    0.114435
   8 C :    0.019233
   9 H :    0.019563
  10 H :    0.019569
  11 H :    0.060228
  12 H :    0.117146
  13 F :    0.169202
  14 O :    0.093680
  15 C :   -0.190833
  16 C :   -0.194306
  17 H :    0.111172
  18 H :    0.108283
  19 C :   -0.210444
  20 H :    0.104366
  21 H :    0.119160
  22 H :    0.091586
  23 H :    0.119891
  24 H :    0.115285
  25 H :    0.110756
  26 H :    0.100646
  27 H :    0.122686

  Mayer bond orders larger than 0.100000
B(  0-C ,  6-C ) :   0.6989 B(  0-C , 15-C ) :   0.7769 B(  0-C , 19-C ) :   0.1194
B(  0-C , 26-H ) :   1.0002 B(  0-C , 27-H ) :   0.8832 B(  1-C ,  2-C ) :   0.8701
B(  1-C , 16-C ) :   0.1687 B(  1-C , 19-C ) :   0.9935 B(  1-C , 24-H ) :   0.9188
B(  1-C , 25-H ) :   0.9211 B(  2-C ,  3-H ) :   0.9481 B(  2-C ,  4-H ) :   0.8779
B(  2-C ,  5-C ) :   0.8992 B(  5-C , 13-F ) :   0.8067 B(  5-C , 14-O ) :   1.6349
B(  6-C ,  7-N ) :   1.1061 B(  6-C ,  8-C ) :   0.9611 B(  6-C , 15-C ) :   0.2827
B(  7-N ,  8-C ) :   0.1595 B(  7-N , 11-H ) :   0.7090 B(  7-N , 12-H ) :   0.8923
B(  8-C ,  9-H ) :   0.8887 B(  8-C , 10-H ) :   0.9801 B( 15-C , 16-C ) :   1.0788
B( 15-C , 17-H ) :   0.9037 B( 15-C , 18-H ) :   0.8590 B( 15-C , 19-C ) :   0.4090
B( 16-C , 19-C ) :   0.3636 B( 16-C , 20-H ) :   0.9564 B( 16-C , 21-H ) :   0.9252
B( 16-C , 22-H ) :  -0.1056 B( 19-C , 21-H ) :  -0.1077 B( 19-C , 22-H ) :   1.0569
B( 19-C , 23-H ) :   0.8216

Dispersion correction           -0.013541331
FINAL SINGLE POINT ENERGY      -582.440849382063

DIPOLE MOMENT
-------------
                                X             Y             Z
Electronic contribution:     -5.36239      -1.78753     -10.86321
Nuclear contribution   :      3.65024       2.44123      11.52670
                        -----------------------------------------
Total Dipole Moment    :     -1.71215       0.65370       0.66350
                        -----------------------------------------
Magnitude (a.u.)       :      1.94911
Magnitude (Debye)      :      4.95424

Rotational constants in cm-1:     0.040600     0.026409     0.019262
Rotational constants in MHz :  1217.142957   791.712481   577.449390

                             ****ORCA TERMINATED NORMALLY****
TOTAL RUN TIME: 0 days 0 hours 2 minutes 43 seconds 303 msec
