                         Program Version 5.0.0 -  RELEASE  -
|  1> !wB97X-D3 RIJCOSX def2-SVPD def2/J TightSCF CPCM(Water)
|  2> *xyz -1 1
|  3> C         -0.87096        0.24804       -2.66280
|  4> C         -0.47749        0.60819       -4.10105
|  5> H          0.20677        1.45830       -4.11875
|  6> H         -1.36844        0.92942       -4.64785
|  7> C          0.18467       -0.50664       -4.91676
|  8> O         -0.15869       -1.70109       -4.65798
|  9> O          1.05594       -0.17441       -5.74037
| 10> H         -1.54056       -0.58646       -2.67455
| 11> H         -1.35339        1.08600       -2.20455
| 12> H          0.00660       -0.00662       -2.10609
| 13> *
| 14>
| 15> %MaxCore 64000
| 16>
| 17> %pal nprocs 18
| 18> end
| 19>
| 20> %scf
| 21>   MaxIter 150
| 22> end
| 23>
| 24>
| 25>                          ****END OF INPUT****

CARTESIAN COORDINATES (ANGSTROEM)
---------------------------------
  C     -0.870960    0.248040   -2.662800
  C     -0.477490    0.608190   -4.101050
  H      0.206770    1.458300   -4.118750
  H     -1.368440    0.929420   -4.647850
  C      0.184670   -0.506640   -4.916760
  O     -0.158690   -1.701090   -4.657980
  O      1.055940   -0.174410   -5.740370
  H     -1.540560   -0.586460   -2.674550
  H     -1.353390    1.086000   -2.204550
  H      0.006600   -0.006620   -2.106090

 Total Charge           Charge          ....   -1
 Multiplicity           Mult            ....    1
 Number of Electrons    NEL             ....   40
 Basis Dimension        Dim             ....  146

ORBITAL ENERGIES
----------------

  NO   OCC          E(Eh)            E(eV)
   0   2.0000     -19.179508      -521.9010
   1   2.0000     -19.175166      -521.7828
   2   2.0000     -10.366539      -282.0879
   3   2.0000     -10.270739      -279.4810
   4   2.0000     -10.263309      -279.2788
   5   2.0000      -1.123809       -30.5804
   6   2.0000      -1.027039       -27.9472
   7   2.0000      -0.862528       -23.4706
   8   2.0000      -0.733163       -19.9504
   9   2.0000      -0.587659       -15.9910
  10   2.0000      -0.547697       -14.9036
  11   2.0000      -0.537012       -14.6128
  12   2.0000      -0.508291       -13.8313
  13   2.0000      -0.486519       -13.2389
  14   2.0000      -0.469571       -12.7777
  15   2.0000      -0.438502       -11.9322
  16   2.0000      -0.421677       -11.4744
  17   2.0000      -0.343218        -9.3394
  18   2.0000      -0.329667        -8.9707
  19   2.0000      -0.322986        -8.7889
  20   0.0000       0.094824         2.5803
  21   0.0000       0.121419         3.3040
  22   0.0000       0.130561         3.5528
  23   0.0000       0.137275         3.7354
  24   0.0000       0.158389         4.3100

MULLIKEN ATOMIC CHARGES
-----------------------
   0 C :    0.590600
   1 C :   -0.380494
   2 H :   -0.033813
   3 H :    0.026937
   4 C :    0.398879
   5 O :   -0.766207
   6 O :   -0.698147
   7 H :   -0.055900
   8 H :   -0.039417
   9 H :   -0.042438
Sum of atomic charges:   -1.0000000

LOEWDIN ATOMIC CHARGES
----------------------
   0 C :    0.110428
   1 C :   -0.033871
   2 H :    0.011014
   3 H :    0.027429
   4 C :   -0.320889
   5 O :   -0.371242
   6 O :   -0.358439
   7 H :   -0.027745
   8 H :   -0.021010
   9 H :   -0.015676

  Mayer bond orders larger than 0.100000
B(  0-C ,  1-C ) :   1.2783 B(  0-C ,  7-H ) :   0.8262 B(  0-C ,  8-H ) :   0.8206
B(  0-C ,  9-H ) :   0.8472 B(  1-C ,  2-H ) :   0.9495 B(  1-C ,  3-H ) :   0.8958
B(  1-C ,  4-C ) :   1.0385 B(  1-C ,  7-H ) :   0.1973 B(  1-C ,  8-H ) :   0.1901
B(  1-C ,  9-H ) :   0.1617 B(  2-H ,  4-C ) :   0.1547 B(  4-C ,  5-O ) :   1.4748
B(  4-C ,  6-O ) :   1.5033 B(  5-O ,  6-O ) :   0.1450

Dispersion correction           -0.001934019
FINAL SINGLE POINT ENERGY      -267.692613069313

DIPOLE MOMENT
-------------
                                X             Y             Z
Electronic contribution:      2.27474      -2.36370      -4.06628
Nuclear contribution   :     -3.54611       4.15440       5.90446
                        -----------------------------------------
Total Dipole Moment    :     -1.27137       1.79070       1.83818
                        -----------------------------------------
Magnitude (a.u.)       :      2.86390
Magnitude (Debye)      :      7.27945

Rotational constants in cm-1:     0.332789     0.132085     0.101080
Rotational constants in MHz :  9976.755824  3959.803182  3030.288811

                             ****ORCA TERMINATED NORMALLY****
TOTAL RUN TIME: 0 days 0 hours 0 minutes 8 seconds 339 msec
