                         Program Version 5.0.0 -  RELEASE  -
|  1> !wB97X-D3 RIJCOSX def2-SVPD def2/J TightSCF CPCM(Water)
|  2> *xyz 1 1
|  3> C          2.48645       -2.67712       -2.56345
|  4> C          3.03764       -2.36672       -3.92351
|  5> N          2.28036       -2.45441       -4.96769
|  6> N          4.32174       -2.01793       -4.01664
|  7> H          4.87994       -1.91167       -3.17382
|  8> H          4.71015       -1.67088       -4.88356
|  9> H          1.27042       -2.41265       -4.86614
| 10> H          2.58183       -2.05528       -5.84688
| 11> C          2.49799       -1.46946       -1.61030
| 12> H          1.47259       -3.05153       -2.69437
| 13> H          3.08320       -3.49064       -2.14147
| 14> H          1.91240       -0.67831       -2.02991
| 15> H          3.50450       -1.13364       -1.47227
| 16> H          2.08509       -1.75655       -0.66585
| 17> *
| 18>
| 19> %MaxCore 64000
| 20>
| 21> %pal nprocs 18
| 22> end
| 23>
| 24> %scf
| 25>   MaxIter 150
| 26> end
| 27>
| 28>
| 29>                          ****END OF INPUT****

CARTESIAN COORDINATES (ANGSTROEM)
---------------------------------
  C      2.486450   -2.677120   -2.563450
  C      3.037640   -2.366720   -3.923510
  N      2.280360   -2.454410   -4.967690
  N      4.321740   -2.017930   -4.016640
  H      4.879940   -1.911670   -3.173820
  H      4.710150   -1.670880   -4.883560
  H      1.270420   -2.412650   -4.866140
  H      2.581830   -2.055280   -5.846880
  C      2.497990   -1.469460   -1.610300
  H      1.472590   -3.051530   -2.694370
  H      3.083200   -3.490640   -2.141470
  H      1.912400   -0.678310   -2.029910
  H      3.504500   -1.133640   -1.472270
  H      2.085090   -1.756550   -0.665850

 Total Charge           Charge          ....    1
 Multiplicity           Mult            ....    1
 Number of Electrons    NEL             ....   40
 Basis Dimension        Dim             ....  172

ORBITAL ENERGIES
----------------

  NO   OCC          E(Eh)            E(eV)
   0   2.0000     -14.501007      -394.5925
   1   2.0000     -14.497199      -394.4888
   2   2.0000     -10.437974      -284.0317
   3   2.0000     -10.320853      -280.8447
   4   2.0000     -10.290913      -280.0300
   5   2.0000      -1.134753       -30.8782
   6   2.0000      -1.033976       -28.1359
   7   2.0000      -0.911385       -24.8000
   8   2.0000      -0.799578       -21.7576
   9   2.0000      -0.745666       -20.2906
  10   2.0000      -0.695209       -18.9176
  11   2.0000      -0.674607       -18.3570
  12   2.0000      -0.615718       -16.7545
  13   2.0000      -0.581257       -15.8168
  14   2.0000      -0.556069       -15.1314
  15   2.0000      -0.537513       -14.6265
  16   2.0000      -0.482309       -13.1243
  17   2.0000      -0.471847       -12.8396
  18   2.0000      -0.460568       -12.5327
  19   2.0000      -0.407874       -11.0988
  20   0.0000       0.044473         1.2102
  21   0.0000       0.088709         2.4139
  22   0.0000       0.122033         3.3207
  23   0.0000       0.130476         3.5504
  24   0.0000       0.138374         3.7653

MULLIKEN ATOMIC CHARGES
-----------------------
   0 C :   -0.371451
   1 C :    0.548488
   2 N :    0.033430
   3 N :    0.001722
   4 H :    0.078849
   5 H :   -0.068342
   6 H :    0.072378
   7 H :   -0.022122
   8 C :    0.554655
   9 H :    0.093891
  10 H :    0.101556
  11 H :   -0.040633
  12 H :   -0.032899
  13 H :    0.050478
Sum of atomic charges:    1.0000000

LOEWDIN ATOMIC CHARGES
----------------------
   0 C :    0.013089
   1 C :   -0.039196
   2 N :    0.282148
   3 N :    0.286496
   4 H :    0.053331
   5 H :    0.054397
   6 H :    0.066467
   7 H :    0.061742
   8 C :    0.154621
   9 H :    0.036412
  10 H :    0.051606
  11 H :   -0.003723
  12 H :   -0.014716
  13 H :   -0.002676

  Mayer bond orders larger than 0.100000
B(  0-C ,  1-C ) :   1.2012 B(  0-C ,  8-C ) :   1.2553 B(  0-C ,  9-H ) :   0.8865
B(  0-C , 10-H ) :   0.8769 B(  0-C , 11-H ) :   0.1483 B(  0-C , 12-H ) :   0.1754
B(  0-C , 13-H ) :   0.1425 B(  1-C ,  2-N ) :   1.1263 B(  1-C ,  3-N ) :   1.1107
B(  1-C ,  5-H ) :  -0.1291 B(  1-C ,  9-H ) :   0.1633 B(  1-C , 10-H ) :   0.1041
B(  2-N ,  3-N ) :   0.1344 B(  2-N ,  6-H ) :   1.0382 B(  2-N ,  7-H ) :   1.1778
B(  3-N ,  4-H ) :   1.0726 B(  3-N ,  5-H ) :   1.2720 B(  4-H ,  5-H ) :  -0.1656
B(  6-H ,  7-H ) :  -0.1202 B(  8-C , 11-H ) :   0.8635 B(  8-C , 12-H ) :   0.8199
B(  8-C , 13-H ) :   0.8497

Dispersion correction           -0.002999211
FINAL SINGLE POINT ENERGY      -228.917329167979

DIPOLE MOMENT
-------------
                                X             Y             Z
Electronic contribution:      1.13700      -1.02094      -4.24101
Nuclear contribution   :     -0.84604       1.34287       2.92710
                        -----------------------------------------
Total Dipole Moment    :      0.29096       0.32193      -1.31391
                        -----------------------------------------
Magnitude (a.u.)       :      1.38372
Magnitude (Debye)      :      3.51713

Rotational constants in cm-1:     0.265816     0.126189     0.097583
Rotational constants in MHz :  7968.948902  3783.040103  2925.457702

                             ****ORCA TERMINATED NORMALLY****
TOTAL RUN TIME: 0 days 0 hours 0 minutes 10 seconds 441 msec
