                         Program Version 5.0.0 -  RELEASE  -
|  1> !wB97X-D3 RIJCOSX def2-SVPD def2/J TightSCF CPCM(Water)
|  2> *xyz 0 1
|  3> C         -0.87096        0.24804       -2.66280
|  4> C         -0.47749        0.60819       -4.10105
|  5> H          0.20677        1.45830       -4.11875
|  6> H         -1.36844        0.92942       -4.64785
|  7> C          0.18467       -0.50664       -4.91676
|  8> F         -0.15869       -1.70109       -4.65798
|  9> O          1.05594       -0.17441       -5.74037
| 10> H         -1.54056       -0.58646       -2.67455
| 11> H         -1.35339        1.08600       -2.20455
| 12> H          0.00660       -0.00662       -2.10609
| 13> *
| 14>
| 15> %MaxCore 64000
| 16>
| 17> %pal nprocs 18
| 18> end
| 19>
| 20> %scf
| 21>   MaxIter 150
| 22> end
| 23>
| 24>
| 25>                          ****END OF INPUT****

CARTESIAN COORDINATES (ANGSTROEM)
---------------------------------
  C     -0.870960    0.248040   -2.662800
  C     -0.477490    0.608190   -4.101050
  H      0.206770    1.458300   -4.118750
  H     -1.368440    0.929420   -4.647850
  C      0.184670   -0.506640   -4.916760
  F     -0.158690   -1.701090   -4.657980
  O      1.055940   -0.174410   -5.740370
  H     -1.540560   -0.586460   -2.674550
  H     -1.353390    1.086000   -2.204550
  H      0.006600   -0.006620   -2.106090

 Total Charge           Charge          ....    0
 Multiplicity           Mult            ....    1
 Number of Electrons    NEL             ....   40
 Basis Dimension        Dim             ....  146

ORBITAL ENERGIES
----------------

  NO   OCC          E(Eh)            E(eV)
   0   2.0000     -24.872824      -676.8239
   1   2.0000     -19.264967      -524.2264
   2   2.0000     -10.480662      -285.1933
   3   2.0000     -10.311915      -280.6015
   4   2.0000     -10.281702      -279.7793
   5   2.0000      -1.417082       -38.5608
   6   2.0000      -1.158019       -31.5113
   7   2.0000      -0.902472       -24.5575
   8   2.0000      -0.786543       -21.4029
   9   2.0000      -0.746095       -20.3023
  10   2.0000      -0.654470       -17.8090
  11   2.0000      -0.646388       -17.5891
  12   2.0000      -0.605720       -16.4825
  13   2.0000      -0.556967       -15.1559
  14   2.0000      -0.526226       -14.3193
  15   2.0000      -0.500271       -13.6131
  16   2.0000      -0.483250       -13.1499
  17   2.0000      -0.463442       -12.6109
  18   2.0000      -0.444975       -12.1084
  19   2.0000      -0.400351       -10.8941
  20   0.0000       0.052366         1.4250
  21   0.0000       0.089291         2.4297
  22   0.0000       0.121281         3.3002
  23   0.0000       0.133115         3.6222
  24   0.0000       0.151547         4.1238

MULLIKEN ATOMIC CHARGES
-----------------------
   0 C :    0.525376
   1 C :   -0.526992
   2 H :    0.038050
   3 H :    0.117827
   4 C :    0.781061
   5 F :   -0.413406
   6 O :   -0.512737
   7 H :   -0.001532
   8 H :   -0.006900
   9 H :   -0.000747
Sum of atomic charges:   -0.0000000

LOEWDIN ATOMIC CHARGES
----------------------
   0 C :    0.133171
   1 C :    0.015018
   2 H :    0.037656
   3 H :    0.051015
   4 C :    0.008196
   5 F :   -0.040997
   6 O :   -0.177629
   7 H :   -0.012087
   8 H :   -0.007786
   9 H :   -0.006559

  Mayer bond orders larger than 0.100000
B(  0-C ,  1-C ) :   1.2953 B(  0-C ,  7-H ) :   0.8365 B(  0-C ,  8-H ) :   0.8294
B(  0-C ,  9-H ) :   0.8615 B(  1-C ,  2-H ) :   0.9791 B(  1-C ,  3-H ) :   0.8806
B(  1-C ,  4-C ) :   1.0689 B(  1-C ,  7-H ) :   0.1682 B(  1-C ,  8-H ) :   0.1884
B(  1-C ,  9-H ) :   0.1498 B(  2-H ,  4-C ) :   0.1159 B(  4-C ,  5-F ) :   0.7393
B(  4-C ,  6-O ) :   1.8148

Dispersion correction           -0.001890936
FINAL SINGLE POINT ENERGY      -292.127709610957

DIPOLE MOMENT
-------------
                                X             Y             Z
Electronic contribution:      2.35968      -5.29145      -5.06493
Nuclear contribution   :     -3.42837       5.66737       6.17046
                        -----------------------------------------
Total Dipole Moment    :     -1.06869       0.37592       1.10553
                        -----------------------------------------
Magnitude (a.u.)       :      1.58291
Magnitude (Debye)      :      4.02343

Rotational constants in cm-1:     0.304660     0.130969     0.097716
Rotational constants in MHz :  9133.464515  3926.366384  2929.457090

                             ****ORCA TERMINATED NORMALLY****
TOTAL RUN TIME: 0 days 0 hours 0 minutes 9 seconds 336 msec
