                         Program Version 5.0.0 -  RELEASE  -
|  1> !wB97X-D3 RIJCOSX def2-SVPD def2/J TightSCF CPCM(Water)
|  2> *xyz 0 1
|  3> C          2.48645       -2.67712       -2.56345
|  4> C          3.03764       -2.36672       -3.92351
|  5> C          2.28036       -2.45441       -4.96769
|  6> N          4.32174       -2.01793       -4.01664
|  7> H          4.87994       -1.91167       -3.17382
|  8> H          4.71015       -1.67088       -4.88356
|  9> H          1.27042       -2.41265       -4.86614
| 10> H          2.58183       -2.05528       -5.84688
| 11> C          2.49799       -1.46946       -1.61030
| 12> H          1.47259       -3.05153       -2.69437
| 13> H          3.08320       -3.49064       -2.14147
| 14> H          1.91240       -0.67831       -2.02991
| 15> H          3.50450       -1.13364       -1.47227
| 16> H          2.08509       -1.75655       -0.66585
| 17> *
| 18>
| 19> %MaxCore 64000
| 20>
| 21> %pal nprocs 18
| 22> end
| 23>
| 24> %scf
| 25>   MaxIter 150
| 26> end
| 27>
| 28>
| 29>                          ****END OF INPUT****

CARTESIAN COORDINATES (ANGSTROEM)
---------------------------------
  C      2.486450   -2.677120   -2.563450
  C      3.037640   -2.366720   -3.923510
  C      2.280360   -2.454410   -4.967690
  N      4.321740   -2.017930   -4.016640
  H      4.879940   -1.911670   -3.173820
  H      4.710150   -1.670880   -4.883560
  H      1.270420   -2.412650   -4.866140
  H      2.581830   -2.055280   -5.846880
  C      2.497990   -1.469460   -1.610300
  H      1.472590   -3.051530   -2.694370
  H      3.083200   -3.490640   -2.141470
  H      1.912400   -0.678310   -2.029910
  H      3.504500   -1.133640   -1.472270
  H      2.085090   -1.756550   -0.665850

 Total Charge           Charge          ....    0
 Multiplicity           Mult            ....    1
 Number of Electrons    NEL             ....   40
 Basis Dimension        Dim             ....  172

ORBITAL ENERGIES
----------------

  NO   OCC          E(Eh)            E(eV)
   0   2.0000     -14.432569      -392.7302
   1   2.0000     -10.315909      -280.7101
   2   2.0000     -10.285719      -279.8886
   3   2.0000     -10.272508      -279.5292
   4   2.0000     -10.222489      -278.1681
   5   2.0000      -1.031900       -28.0794
   6   2.0000      -0.886333       -24.1184
   7   2.0000      -0.834564       -22.7096
   8   2.0000      -0.739851       -20.1324
   9   2.0000      -0.667876       -18.1738
  10   2.0000      -0.621510       -16.9121
  11   2.0000      -0.580060       -15.7842
  12   2.0000      -0.533651       -14.5214
  13   2.0000      -0.527283       -14.3481
  14   2.0000      -0.487740       -13.2721
  15   2.0000      -0.478882       -13.0310
  16   2.0000      -0.444408       -12.0930
  17   2.0000      -0.428303       -11.6547
  18   2.0000      -0.419731       -11.4215
  19   2.0000      -0.290716        -7.9108
  20   0.0000       0.093454         2.5430
  21   0.0000       0.116962         3.1827
  22   0.0000       0.124894         3.3985
  23   0.0000       0.138565         3.7705
  24   0.0000       0.141885         3.8609

MULLIKEN ATOMIC CHARGES
-----------------------
   0 C :   -0.270339
   1 C :   -0.222601
   2 C :    0.343478
   3 N :    0.148011
   4 H :   -0.081584
   5 H :   -0.126372
   6 H :   -0.025065
   7 H :   -0.372737
   8 C :    0.601310
   9 H :    0.121502
  10 H :   -0.005443
  11 H :   -0.046150
  12 H :   -0.050103
  13 H :   -0.013907
Sum of atomic charges:   -0.0000000

LOEWDIN ATOMIC CHARGES
----------------------
   0 C :   -0.031475
   1 C :   -0.273564
   2 C :    0.132088
   3 N :    0.179758
   4 H :    0.011846
   5 H :    0.017699
   6 H :   -0.081484
   7 H :   -0.085297
   8 C :    0.132608
   9 H :    0.020566
  10 H :    0.029557
  11 H :   -0.012521
  12 H :   -0.024459
  13 H :   -0.015322

  Mayer bond orders larger than 0.100000
B(  0-C ,  1-C ) :   1.2604 B(  0-C ,  8-C ) :   1.2330 B(  0-C ,  9-H ) :   0.8714
B(  0-C , 10-H ) :   0.8983 B(  0-C , 11-H ) :   0.1366 B(  0-C , 12-H ) :   0.2021
B(  0-C , 13-H ) :   0.1738 B(  1-C ,  2-C ) :   2.0400 B(  1-C ,  3-N ) :   1.2184
B(  1-C ,  6-H ) :   0.1224 B(  1-C ,  7-H ) :   0.2560 B(  1-C ,  9-H ) :   0.1251
B(  1-C , 10-H ) :   0.1599 B(  2-C ,  3-N ) :   0.2278 B(  2-C ,  6-H ) :   0.8623
B(  2-C ,  7-H ) :   0.6948 B(  3-N ,  4-H ) :   1.1312 B(  3-N ,  5-H ) :   1.1982
B(  4-H ,  5-H ) :  -0.1411 B(  6-H ,  7-H ) :   0.1650 B(  8-C , 11-H ) :   0.8550
B(  8-C , 12-H ) :   0.7979 B(  8-C , 13-H ) :   0.8380

Dispersion correction           -0.003007167
FINAL SINGLE POINT ENERGY      -212.367649015983

DIPOLE MOMENT
-------------
                                X             Y             Z
Electronic contribution:      1.76202      -0.72200      -1.92140
Nuclear contribution   :     -0.99743       1.27863       2.57190
                        -----------------------------------------
Total Dipole Moment    :      0.76459       0.55663       0.65050
                        -----------------------------------------
Magnitude (a.u.)       :      1.14786
Magnitude (Debye)      :      2.91763

Rotational constants in cm-1:     0.274050     0.130114     0.100964
Rotational constants in MHz :  8215.815505  3900.722919  3026.834930

                             ****ORCA TERMINATED NORMALLY****
TOTAL RUN TIME: 0 days 0 hours 0 minutes 11 seconds 630 msec
