                         Program Version 5.0.0 -  RELEASE  -
|  1> !wB97X-D3 RIJCOSX def2-SVPD def2/J TightSCF CPCM(Water)
|  2> *xyz 0 1
|  3> C         -0.87096        0.24804       -2.66280
|  4> C         -0.47749        0.60819       -4.10105
|  5> H          0.20677        1.45830       -4.11875
|  6> H         -1.36844        0.92942       -4.64785
|  7> C          0.18467       -0.50664       -4.91676
|  8> O         -0.15869       -1.70109       -4.65798
|  9> F          1.05594       -0.17441       -5.74037
| 10> H         -1.54056       -0.58646       -2.67455
| 11> H         -1.35339        1.08600       -2.20455
| 12> H          0.00660       -0.00662       -2.10609
| 13> *
| 14>
| 15> %MaxCore 64000
| 16>
| 17> %pal nprocs 18
| 18> end
| 19>
| 20> %scf
| 21>   MaxIter 150
| 22> end
| 23>
| 24>
| 25>                          ****END OF INPUT****

CARTESIAN COORDINATES (ANGSTROEM)
---------------------------------
  C     -0.870960    0.248040   -2.662800
  C     -0.477490    0.608190   -4.101050
  H      0.206770    1.458300   -4.118750
  H     -1.368440    0.929420   -4.647850
  C      0.184670   -0.506640   -4.916760
  O     -0.158690   -1.701090   -4.657980
  F      1.055940   -0.174410   -5.740370
  H     -1.540560   -0.586460   -2.674550
  H     -1.353390    1.086000   -2.204550
  H      0.006600   -0.006620   -2.106090

 Total Charge           Charge          ....    0
 Multiplicity           Mult            ....    1
 Number of Electrons    NEL             ....   40
 Basis Dimension        Dim             ....  146

ORBITAL ENERGIES
----------------

  NO   OCC          E(Eh)            E(eV)
   0   2.0000     -24.881205      -677.0520
   1   2.0000     -19.261086      -524.1208
   2   2.0000     -10.482647      -285.2473
   3   2.0000     -10.312449      -280.6160
   4   2.0000     -10.281440      -279.7722
   5   2.0000      -1.435026       -39.0491
   6   2.0000      -1.142453       -31.0877
   7   2.0000      -0.900481       -24.5033
   8   2.0000      -0.799173       -21.7466
   9   2.0000      -0.744691       -20.2641
  10   2.0000      -0.663326       -18.0500
  11   2.0000      -0.644805       -17.5460
  12   2.0000      -0.615470       -16.7478
  13   2.0000      -0.557056       -15.1583
  14   2.0000      -0.533382       -14.5141
  15   2.0000      -0.486684       -13.2434
  16   2.0000      -0.467725       -12.7275
  17   2.0000      -0.465109       -12.6563
  18   2.0000      -0.443936       -12.0801
  19   2.0000      -0.399415       -10.8686
  20   0.0000       0.050045         1.3618
  21   0.0000       0.090172         2.4537
  22   0.0000       0.120839         3.2882
  23   0.0000       0.133343         3.6284
  24   0.0000       0.150674         4.1001

MULLIKEN ATOMIC CHARGES
-----------------------
   0 C :    0.534431
   1 C :   -0.526587
   2 H :    0.066611
   3 H :    0.123171
   4 C :    0.774114
   5 O :   -0.568487
   6 F :   -0.363682
   7 H :   -0.021152
   8 H :   -0.008468
   9 H :   -0.009951
Sum of atomic charges:    0.0000000

LOEWDIN ATOMIC CHARGES
----------------------
   0 C :    0.137590
   1 C :    0.010634
   2 H :    0.034552
   3 H :    0.051253
   4 C :    0.009685
   5 O :   -0.191884
   6 F :   -0.023896
   7 H :   -0.015061
   8 H :   -0.007195
   9 H :   -0.005678

  Mayer bond orders larger than 0.100000
B(  0-C ,  1-C ) :   1.3143 B(  0-C ,  7-H ) :   0.8360 B(  0-C ,  8-H ) :   0.8305
B(  0-C ,  9-H ) :   0.8591 B(  1-C ,  2-H ) :   0.9370 B(  1-C ,  3-H ) :   0.8830
B(  1-C ,  4-C ) :   1.1068 B(  1-C ,  7-H ) :   0.1812 B(  1-C ,  8-H ) :   0.1821
B(  1-C ,  9-H ) :   0.1581 B(  2-H ,  4-C ) :   0.1074 B(  4-C ,  5-O ) :   1.7949
B(  4-C ,  6-F ) :   0.7692

Dispersion correction           -0.001905701
FINAL SINGLE POINT ENERGY      -292.121319587773

DIPOLE MOMENT
-------------
                                X             Y             Z
Electronic contribution:      4.65138      -2.42044      -7.10936
Nuclear contribution   :     -4.75269       4.00281       7.35060
                        -----------------------------------------
Total Dipole Moment    :     -0.10131       1.58237       0.24124
                        -----------------------------------------
Magnitude (a.u.)       :      1.60386
Magnitude (Debye)      :      4.07669

Rotational constants in cm-1:     0.323805     0.124913     0.096140
Rotational constants in MHz :  9707.430323  3744.789513  2882.191141

                             ****ORCA TERMINATED NORMALLY****
TOTAL RUN TIME: 0 days 0 hours 0 minutes 8 seconds 794 msec
