                         Program Version 5.0.0 -  RELEASE  -
|  1> !wB97X-D3 RIJCOSX def2-SVPD def2/J TightSCF CPCM(Water)
|  2> *xyz 0 1
|  3> C          2.48645       -2.67712       -2.56345
|  4> C          3.03764       -2.36672       -3.92351
|  5> N          2.28036       -2.45441       -4.96769
|  6> C          4.32174       -2.01793       -4.01664
|  7> H          4.87994       -1.91167       -3.17382
|  8> H          4.71015       -1.67088       -4.88356
|  9> H          1.27042       -2.41265       -4.86614
| 10> H          2.58183       -2.05528       -5.84688
| 11> C          2.49799       -1.46946       -1.61030
| 12> H          1.47259       -3.05153       -2.69437
| 13> H          3.08320       -3.49064       -2.14147
| 14> H          1.91240       -0.67831       -2.02991
| 15> H          3.50450       -1.13364       -1.47227
| 16> H          2.08509       -1.75655       -0.66585
| 17> *
| 18>
| 19> %MaxCore 64000
| 20>
| 21> %pal nprocs 18
| 22> end
| 23>
| 24> %scf
| 25>   MaxIter 150
| 26> end
| 27>
| 28>
| 29>                          ****END OF INPUT****

CARTESIAN COORDINATES (ANGSTROEM)
---------------------------------
  C      2.486450   -2.677120   -2.563450
  C      3.037640   -2.366720   -3.923510
  N      2.280360   -2.454410   -4.967690
  C      4.321740   -2.017930   -4.016640
  H      4.879940   -1.911670   -3.173820
  H      4.710150   -1.670880   -4.883560
  H      1.270420   -2.412650   -4.866140
  H      2.581830   -2.055280   -5.846880
  C      2.497990   -1.469460   -1.610300
  H      1.472590   -3.051530   -2.694370
  H      3.083200   -3.490640   -2.141470
  H      1.912400   -0.678310   -2.029910
  H      3.504500   -1.133640   -1.472270
  H      2.085090   -1.756550   -0.665850

 Total Charge           Charge          ....    0
 Multiplicity           Mult            ....    1
 Number of Electrons    NEL             ....   40
 Basis Dimension        Dim             ....  172

ORBITAL ENERGIES
----------------

  NO   OCC          E(Eh)            E(eV)
   0   2.0000     -14.435173      -392.8010
   1   2.0000     -10.315867      -280.7090
   2   2.0000     -10.285765      -279.8899
   3   2.0000     -10.271816      -279.5103
   4   2.0000     -10.222655      -278.1726
   5   2.0000      -1.045998       -28.4630
   6   2.0000      -0.888653       -24.1815
   7   2.0000      -0.818614       -22.2756
   8   2.0000      -0.745947       -20.2982
   9   2.0000      -0.670619       -18.2485
  10   2.0000      -0.617706       -16.8086
  11   2.0000      -0.584723       -15.9111
  12   2.0000      -0.543305       -14.7841
  13   2.0000      -0.506726       -13.7887
  14   2.0000      -0.493544       -13.4300
  15   2.0000      -0.476750       -12.9730
  16   2.0000      -0.444125       -12.0853
  17   2.0000      -0.429569       -11.6892
  18   2.0000      -0.428840       -11.6693
  19   2.0000      -0.280984        -7.6460
  20   0.0000       0.095183         2.5901
  21   0.0000       0.114229         3.1083
  22   0.0000       0.127465         3.4685
  23   0.0000       0.129832         3.5329
  24   0.0000       0.146417         3.9842

MULLIKEN ATOMIC CHARGES
-----------------------
   0 C :   -0.115138
   1 C :   -0.212058
   2 N :    0.092579
   3 C :    0.414756
   4 H :   -0.166622
   5 H :   -0.421490
   6 H :   -0.008416
   7 H :   -0.053999
   8 C :    0.581511
   9 H :   -0.033559
  10 H :    0.055168
  11 H :   -0.075497
  12 H :   -0.092285
  13 H :    0.035050
Sum of atomic charges:   -0.0000000

LOEWDIN ATOMIC CHARGES
----------------------
   0 C :   -0.030028
   1 C :   -0.273330
   2 N :    0.168311
   3 C :    0.149196
   4 H :   -0.090639
   5 H :   -0.094664
   6 H :    0.022790
   7 H :    0.024725
   8 C :    0.132068
   9 H :    0.016402
  10 H :    0.030112
  11 H :   -0.012828
  12 H :   -0.026209
  13 H :   -0.015908

  Mayer bond orders larger than 0.100000
B(  0-C ,  1-C ) :   1.1559 B(  0-C ,  3-C ) :   0.1307 B(  0-C ,  8-C ) :   1.2640
B(  0-C ,  9-H ) :   0.8241 B(  0-C , 10-H ) :   0.8393 B(  0-C , 11-H ) :   0.1634
B(  0-C , 12-H ) :   0.1757 B(  0-C , 13-H ) :   0.1477 B(  1-C ,  2-N ) :   1.1257
B(  1-C ,  3-C ) :   1.8251 B(  1-C ,  5-H ) :   0.1441 B(  1-C ,  9-H ) :   0.2024
B(  1-C , 10-H ) :   0.1256 B(  2-N ,  3-C ) :   0.2238 B(  2-N ,  6-H ) :   0.9855
B(  2-N ,  7-H ) :   1.1184 B(  3-C ,  4-H ) :   0.8058 B(  3-C ,  5-H ) :   0.8420
B(  6-H ,  7-H ) :  -0.1059 B(  8-C , 11-H ) :   0.8575 B(  8-C , 12-H ) :   0.8512
B(  8-C , 13-H ) :   0.8197

Dispersion correction           -0.002981099
FINAL SINGLE POINT ENERGY      -212.368689104851

DIPOLE MOMENT
-------------
                                X             Y             Z
Electronic contribution:     -0.60668      -1.14085      -3.01853
Nuclear contribution   :     -0.52463       1.37972       2.79217
                        -----------------------------------------
Total Dipole Moment    :     -1.13131       0.23887      -0.22636
                        -----------------------------------------
Magnitude (a.u.)       :      1.17821
Magnitude (Debye)      :      2.99476

Rotational constants in cm-1:     0.281086     0.127387     0.100311
Rotational constants in MHz :  8426.743103  3818.969834  3007.238026

                             ****ORCA TERMINATED NORMALLY****
TOTAL RUN TIME: 0 days 0 hours 0 minutes 11 seconds 73 msec
