                         Program Version 5.0.0 -  RELEASE  -
|  1> !wB97X-D3 RIJCOSX def2-SVPD def2/J TightSCF CPCM(Water) xyzfile
|  2>
|  3> *xyzfile 0 1 D2.xyz
|  4>
|  5> %MaxCore 64000
|  6>
|  7> %pal nprocs 18
|  8> end
|  9>
| 10> %scf
| 11>   MaxIter 150
| 12> end
| 13>
| 14>
| 15>                          ****END OF INPUT****

CARTESIAN COORDINATES (ANGSTROEM)
---------------------------------
  C      2.486452   -2.677121   -2.563447
  C     -0.870963    0.248043   -2.662804
  C     -0.477492    0.608191   -4.101052
  H      0.206773    1.458299   -4.118748
  H     -1.368442    0.929419   -4.647855
  C      0.184673   -0.506640   -4.916760
  C      3.037640   -2.366715   -3.923509
  N      2.280360   -2.454408   -4.967692
  C      4.321736   -2.017932   -4.016641
  H      4.879940   -1.911668   -3.173823
  H      4.710148   -1.670882   -4.883561
  H      1.270423   -2.412650   -4.866143
  H      2.581829   -2.055282   -5.846878
  F     -0.158685   -1.701088   -4.657981
  O      1.055938   -0.174410   -5.740373
  C      2.497991   -1.469464   -1.610303
  C      1.582841   -0.321986   -2.042619
  H      2.193083   -1.833912   -0.625420
  H      3.523356   -1.103982   -1.490392
  C      0.100160   -0.673551   -1.915815
  H      1.822311   -0.040361   -3.072834
  H      1.813180    0.557019   -1.433266
  H     -0.063284   -1.679120   -2.301112
  H     -0.168820   -0.691680   -0.853831
  H     -1.001048    1.181040   -2.104071
  H     -1.844645   -0.246592   -2.663281
  H      1.472592   -3.051527   -2.694366
  H      3.083201   -3.490638   -2.141472

 Total Charge           Charge          ....    0
 Multiplicity           Mult            ....    1
 Number of Electrons    NEL             ....   94
 Basis Dimension        Dim             ....  374

ORBITAL ENERGIES
----------------

  NO   OCC          E(Eh)            E(eV)
   0   2.0000     -24.891254      -677.3255
   1   2.0000     -19.270345      -524.3727
   2   2.0000     -14.423088      -392.4722
   3   2.0000     -10.487886      -285.3899
   4   2.0000     -10.313366      -280.6410
   5   2.0000     -10.312982      -280.6305
   6   2.0000     -10.292565      -280.0749
   7   2.0000     -10.283937      -279.8401
   8   2.0000     -10.283420      -279.8261
   9   2.0000     -10.282612      -279.8041
  10   2.0000     -10.282268      -279.7947
  11   2.0000     -10.219415      -278.0844
  12   2.0000      -1.439702       -39.1763
  13   2.0000      -1.165401       -31.7122
  14   2.0000      -1.042277       -28.3618
  15   2.0000      -0.933943       -25.4139
  16   2.0000      -0.899755       -24.4836
  17   2.0000      -0.860061       -23.4034
  18   2.0000      -0.815372       -22.1874
  19   2.0000      -0.794488       -21.6191
  20   2.0000      -0.769480       -20.9386
  21   2.0000      -0.727043       -19.7839
  22   2.0000      -0.695461       -18.9245
  23   2.0000      -0.686933       -18.6924
  24   2.0000      -0.666296       -18.1308
  25   2.0000      -0.644021       -17.5247
  26   2.0000      -0.609072       -16.5737
  27   2.0000      -0.600283       -16.3345
  28   2.0000      -0.584794       -15.9131
  29   2.0000      -0.575742       -15.6667
  30   2.0000      -0.563013       -15.3204
  31   2.0000      -0.538171       -14.6444
  32   2.0000      -0.523442       -14.2436
  33   2.0000      -0.516508       -14.0549
  34   2.0000      -0.499543       -13.5933
  35   2.0000      -0.489038       -13.3074
  36   2.0000      -0.481266       -13.0959
  37   2.0000      -0.479672       -13.0525
  38   2.0000      -0.461520       -12.5586
  39   2.0000      -0.443304       -12.0629
  40   2.0000      -0.436322       -11.8729
  41   2.0000      -0.430743       -11.7211
  42   2.0000      -0.419540       -11.4163
  43   2.0000      -0.411616       -11.2006
  44   2.0000      -0.400480       -10.8976
  45   2.0000      -0.394849       -10.7444
  46   2.0000      -0.276052        -7.5118
  47   0.0000       0.042404         1.1539
  48   0.0000       0.089916         2.4467
  49   0.0000       0.101262         2.7555
  50   0.0000       0.107137         2.9153
  51   0.0000       0.113668         3.0931

MULLIKEN ATOMIC CHARGES
-----------------------
   0 C :    0.493683
   1 C :    0.422024
   2 C :    0.075146
   3 H :    0.283491
   4 H :   -0.158876
   5 C :    0.565723
   6 C :   -0.283789
   7 N :    0.310538
   8 C :    0.362808
   9 H :   -0.104491
  10 H :   -0.322135
  11 H :   -0.334678
  12 H :    0.055003
  13 F :   -0.557590
  14 O :   -0.481883
  15 C :    0.192897
  16 C :    0.116949
  17 H :   -0.046700
  18 H :   -0.046231
  19 C :   -0.004494
  20 H :   -0.139987
  21 H :   -0.174961
  22 H :    0.002615
  23 H :   -0.152633
  24 H :   -0.060787
  25 H :    0.072339
  26 H :   -0.062696
  27 H :   -0.021286
Sum of atomic charges:    0.0000000

LOEWDIN ATOMIC CHARGES
----------------------
   0 C :    0.022820
   1 C :   -0.011732
   2 C :    0.066188
   3 H :    0.043076
   4 H :    0.052193
   5 C :    0.015393
   6 C :   -0.252523
   7 N :    0.193545
   8 C :    0.149691
   9 H :   -0.092850
  10 H :   -0.094857
  11 H :   -0.074039
  12 H :    0.018395
  13 F :   -0.035181
  14 O :   -0.150901
  15 C :   -0.014721
  16 C :   -0.014625
  17 H :    0.026731
  18 H :    0.016684
  19 C :   -0.026992
  20 H :    0.002687
  21 H :    0.031517
  22 H :   -0.005189
  23 H :    0.032828
  24 H :    0.031931
  25 H :    0.029082
  26 H :    0.007884
  27 H :    0.032963

  Mayer bond orders larger than 0.100000
B(  0-C ,  6-C ) :   1.0130 B(  0-C ,  7-N ) :   0.1121 B(  0-C , 10-H ) :   0.1176
B(  0-C , 15-C ) :   1.1788 B(  0-C , 17-H ) :   0.1349 B(  0-C , 18-H ) :   0.1648
B(  0-C , 26-H ) :   0.6339 B(  0-C , 27-H ) :   0.7587 B(  1-C ,  2-C ) :   1.1883
B(  1-C ,  4-H ) :   0.1229 B(  1-C , 19-C ) :   1.2944 B(  1-C , 24-H ) :   0.8012
B(  1-C , 25-H ) :   0.7060 B(  2-C ,  3-H ) :   0.7620 B(  2-C ,  4-H ) :   0.8079
B(  2-C ,  5-C ) :   1.2313 B(  2-C , 24-H ) :   0.1230 B(  3-H ,  5-C ) :   0.1892
B(  4-H ,  5-C ) :   0.2751 B(  5-C , 13-F ) :   0.5713 B(  5-C , 14-O ) :   1.7873
B(  6-C ,  7-N ) :   1.0982 B(  6-C ,  8-C ) :   1.9012 B(  6-C ,  9-H ) :   0.1344
B(  6-C , 10-H ) :   0.1936 B(  6-C , 26-H ) :   0.2203 B(  6-C , 27-H ) :   0.1504
B(  7-N ,  8-C ) :   0.2640 B(  7-N , 11-H ) :   0.8633 B(  7-N , 12-H ) :   0.9591
B(  8-C ,  9-H ) :   0.8082 B(  8-C , 10-H ) :   0.6880 B( 11-H , 12-H ) :  -0.1234
B( 11-H , 13-F ) :   0.1753 B( 15-C , 16-C ) :   1.2167 B( 15-C , 17-H ) :   0.8672
B( 15-C , 18-H ) :   0.7485 B( 15-C , 20-H ) :   0.1585 B( 15-C , 26-H ) :   0.1873
B( 15-C , 27-H ) :   0.1406 B( 16-C , 17-H ) :   0.1371 B( 16-C , 18-H ) :   0.2024
B( 16-C , 19-C ) :   1.1650 B( 16-C , 20-H ) :   0.8530 B( 16-C , 21-H ) :   0.9244
B( 16-C , 23-H ) :   0.2155 B( 17-H , 18-H ) :  -0.1163 B( 19-C , 20-H ) :   0.1196
B( 19-C , 21-H ) :   0.1108 B( 19-C , 22-H ) :   0.8741 B( 19-C , 23-H ) :   0.8583
B( 19-C , 24-H ) :   0.1848 B( 19-C , 25-H ) :   0.2069 B( 22-H , 26-H ) :   0.1160

Dispersion correction           -0.013541331
FINAL SINGLE POINT ENERGY      -581.841350175732

DIPOLE MOMENT
-------------
                                X             Y             Z
Electronic contribution:     -5.99870      -1.68638     -10.61733
Nuclear contribution   :      3.65024       2.44123      11.52670
                        -----------------------------------------
Total Dipole Moment    :     -2.34846       0.75486       0.90937
                        -----------------------------------------
Magnitude (a.u.)       :      2.62908
Magnitude (Debye)      :      6.68258

Rotational constants in cm-1:     0.040600     0.026409     0.019262
Rotational constants in MHz :  1217.142957   791.712481   577.449390

                             ****ORCA TERMINATED NORMALLY****
TOTAL RUN TIME: 0 days 0 hours 0 minutes 54 seconds 35 msec
