                         Program Version 5.0.0 -  RELEASE  -
|  1> !BLYP D3BJ RIJCOSX def2-SVP def2/J TightSCF
|  2> *xyz -1 1
|  3> C          1.44442        5.26658       -0.97546
|  4> O          1.56525        4.23349       -1.86489
|  5> C          0.14812        5.21087       -0.13809
|  6> H          1.47425        6.26464       -1.47692
|  7> H          2.28962        5.30327       -0.26445
|  8> H         -0.69779        5.17417       -0.79230
|  9> H          0.08430        6.08276        0.47887
| 10> H          0.15965        4.33708        0.47938
| 11> *
| 12> %MaxCore 64000
| 13>
| 14> %pal nprocs 4
| 15> end
| 16>
| 17> %scf
| 18>   MaxIter 150
| 19> end
| 20>
| 21>
| 22>                          ****END OF INPUT****

CARTESIAN COORDINATES (ANGSTROEM)
---------------------------------
  C      1.444420    5.266580   -0.975460
  O      1.565250    4.233490   -1.864890
  C      0.148120    5.210870   -0.138090
  H      1.474250    6.264640   -1.476920
  H      2.289620    5.303270   -0.264450
  H     -0.697790    5.174170   -0.792300
  H      0.084300    6.082760    0.478870
  H      0.159650    4.337080    0.479380

 Total Charge           Charge          ....   -1
 Multiplicity           Mult            ....    1
 Number of Electrons    NEL             ....   26
 Basis Dimension        Dim             ....   67

ORBITAL ENERGIES
----------------

  NO   OCC          E(Eh)            E(eV)
   0   2.0000     -18.405964      -500.8517
   1   2.0000      -9.709821      -264.2177
   2   2.0000      -9.697658      -263.8867
   3   2.0000      -0.539069       -14.6688
   4   2.0000      -0.420426       -11.4404
   5   2.0000      -0.278015        -7.5652
   6   2.0000      -0.175959        -4.7881
   7   2.0000      -0.155759        -4.2384
   8   2.0000      -0.102178        -2.7804
   9   2.0000      -0.086178        -2.3450
  10   2.0000      -0.020527        -0.5586
  11   2.0000       0.119733         3.2581
  12   2.0000       0.125421         3.4129
  13   0.0000       0.232778         6.3342
  14   0.0000       0.273468         7.4414
  15   0.0000       0.285845         7.7782
  16   0.0000       0.295743         8.0476
  17   0.0000       0.335531         9.1303

MULLIKEN ATOMIC CHARGES
-----------------------
   0 C :    0.271473
   1 O :   -0.627628
   2 C :    0.180093
   3 H :   -0.214564
   4 H :   -0.210423
   5 H :   -0.113292
   6 H :   -0.175300
   7 H :   -0.110359
Sum of atomic charges:   -1.0000000

LOEWDIN ATOMIC CHARGES
----------------------
   0 C :    0.010296
   1 O :   -0.609734
   2 C :   -0.098546
   3 H :   -0.098001
   4 H :   -0.093575
   5 H :   -0.029258
   6 H :   -0.053349
   7 H :   -0.027832

  Mayer bond orders larger than 0.100000
B(  0-C ,  1-O ) :   1.5723 B(  0-C ,  2-C ) :   1.0043 B(  0-C ,  3-H ) :   0.8250
B(  0-C ,  4-H ) :   0.8299 B(  1-O ,  2-C ) :  -0.1180 B(  1-O ,  6-H ) :   0.1146
B(  2-C ,  5-H ) :   0.9303 B(  2-C ,  6-H ) :   0.8700 B(  2-C ,  7-H ) :   0.9352

Dispersion correction           -0.007729509
FINAL SINGLE POINT ENERGY      -154.215302367249

DIPOLE MOMENT
-------------
                                X             Y             Z
Electronic contribution:      1.31239      -2.08030      -2.47417
Nuclear contribution   :     -1.83256       2.47114       3.17273
                        -----------------------------------------
Total Dipole Moment    :     -0.52017       0.39085       0.69857
                        -----------------------------------------
Magnitude (a.u.)       :      0.95464
Magnitude (Debye)      :      2.42650

Rotational constants in cm-1:     1.286062     0.322579     0.284728
Rotational constants in MHz : 38555.180127  9670.683110  8535.939140

                             ****ORCA TERMINATED NORMALLY****
TOTAL RUN TIME: 0 days 0 hours 0 minutes 6 seconds 271 msec
