                         Program Version 5.0.0 -  RELEASE  -
|  1> !BLYP D3BJ RIJCOSX def2-SVP def2/J TightSCF
|  2> *xyz 1 1
|  3> C         -0.70169        4.07250       -4.00392
|  4> N          0.68053        4.61482       -4.04800
|  5> H          0.69993        5.58489       -4.38827
|  6> H          1.27804        4.05598       -4.66824
|  7> H          1.08573        4.53358       -3.10652
|  8> C         -1.70347        5.09320       -3.47740
|  9> H         -0.99590        3.74039       -5.00065
| 10> H         -0.64358        3.20191       -3.35153
| 11> H         -1.73704        5.93384       -4.13853
| 12> H         -1.40338        5.41759       -2.50291
| 13> H         -2.67335        4.64479       -3.42108
| 14> *
| 15> %MaxCore 64000
| 16>
| 17> %pal nprocs 4
| 18> end
| 19>
| 20> %scf
| 21>   MaxIter 150
| 22> end
| 23>
| 24>
| 25>                          ****END OF INPUT****

CARTESIAN COORDINATES (ANGSTROEM)
---------------------------------
  C     -0.701690    4.072500   -4.003920
  N      0.680530    4.614820   -4.048000
  H      0.699930    5.584890   -4.388270
  H      1.278040    4.055980   -4.668240
  H      1.085730    4.533580   -3.106520
  C     -1.703470    5.093200   -3.477400
  H     -0.995900    3.740390   -5.000650
  H     -0.643580    3.201910   -3.351530
  H     -1.737040    5.933840   -4.138530
  H     -1.403380    5.417590   -2.502910
  H     -2.673350    4.644790   -3.421080

 Total Charge           Charge          ....    1
 Multiplicity           Mult            ....    1
 Number of Electrons    NEL             ....   26
 Basis Dimension        Dim             ....   82

ORBITAL ENERGIES
----------------

  NO   OCC          E(Eh)            E(eV)
   0   2.0000     -14.360626      -390.7725
   1   2.0000     -10.175435      -276.8876
   2   2.0000     -10.099882      -274.8318
   3   2.0000      -1.123923       -30.5835
   4   2.0000      -0.883194       -24.0329
   5   2.0000      -0.775681       -21.1074
   6   2.0000      -0.749612       -20.3980
   7   2.0000      -0.731432       -19.9033
   8   2.0000      -0.644390       -17.5348
   9   2.0000      -0.590226       -16.0609
  10   2.0000      -0.534882       -14.5549
  11   2.0000      -0.520119       -14.1532
  12   2.0000      -0.503870       -13.7110
  13   0.0000      -0.212392        -5.7795
  14   0.0000      -0.157428        -4.2838
  15   0.0000      -0.151492        -4.1223
  16   0.0000      -0.116467        -3.1692
  17   0.0000      -0.079845        -2.1727

MULLIKEN ATOMIC CHARGES
-----------------------
   0 C :   -0.008936
   1 N :    0.082744
   2 H :    0.193899
   3 H :    0.196560
   4 H :    0.199236
   5 C :    0.049594
   6 H :    0.078279
   7 H :    0.068546
   8 H :    0.038311
   9 H :    0.031396
  10 H :    0.070371
Sum of atomic charges:    1.0000000

LOEWDIN ATOMIC CHARGES
----------------------
   0 C :    0.053999
   1 N :    0.311003
   2 H :    0.139127
   3 H :    0.144087
   4 H :    0.144270
   5 C :   -0.025983
   6 H :    0.051544
   7 H :    0.048984
   8 H :    0.036726
   9 H :    0.034955
  10 H :    0.061290

  Mayer bond orders larger than 0.100000
B(  0-C ,  1-N ) :   0.9593 B(  0-C ,  5-C ) :   1.1316 B(  0-C ,  6-H ) :   0.9480
B(  0-C ,  7-H ) :   0.9459 B(  1-N ,  2-H ) :   0.9356 B(  1-N ,  3-H ) :   0.9366
B(  1-N ,  4-H ) :   0.9420 B(  5-C ,  8-H ) :   0.9619 B(  5-C ,  9-H ) :   0.9659
B(  5-C , 10-H ) :   0.9499

Dispersion correction           -0.012438099
FINAL SINGLE POINT ENERGY      -135.357259201941

DIPOLE MOMENT
-------------
                                X             Y             Z
Electronic contribution:      1.81281      -0.31807      -0.45952
Nuclear contribution   :     -0.23930       0.27560       0.19485
                        -----------------------------------------
Total Dipole Moment    :      1.57350      -0.04247      -0.26467
                        -----------------------------------------
Magnitude (a.u.)       :      1.59617
Magnitude (Debye)      :      4.05715

Rotational constants in cm-1:     1.018556     0.279088     0.248454
Rotational constants in MHz : 30535.536069  8366.847891  7448.451392

                             ****ORCA TERMINATED NORMALLY****
TOTAL RUN TIME: 0 days 0 hours 0 minutes 6 seconds 268 msec
