                         Program Version 5.0.0 -  RELEASE  -
|  1> !BLYP D3BJ RIJCOSX def2-SVP def2/J TightSCF
|  2> *xyz 0 1
|  3> C          1.44442        5.26658       -0.97546
|  4> F          1.56525        4.23349       -1.86489
|  5> C          0.14812        5.21087       -0.13809
|  6> H          1.47425        6.26464       -1.47692
|  7> H          2.28962        5.30327       -0.26445
|  8> H         -0.69779        5.17417       -0.79230
|  9> H          0.08430        6.08276        0.47887
| 10> H          0.15965        4.33708        0.47938
| 11> *
| 12> %MaxCore 64000
| 13>
| 14> %pal nprocs 4
| 15> end
| 16>
| 17> %scf
| 18>   MaxIter 150
| 19> end
| 20>
| 21>
| 22>                          ****END OF INPUT****

CARTESIAN COORDINATES (ANGSTROEM)
---------------------------------
  C      1.444420    5.266580   -0.975460
  F      1.565250    4.233490   -1.864890
  C      0.148120    5.210870   -0.138090
  H      1.474250    6.264640   -1.476920
  H      2.289620    5.303270   -0.264450
  H     -0.697790    5.174170   -0.792300
  H      0.084300    6.082760    0.478870
  H      0.159650    4.337080    0.479380

 Total Charge           Charge          ....    0
 Multiplicity           Mult            ....    1
 Number of Electrons    NEL             ....   26
 Basis Dimension        Dim             ....   67

ORBITAL ENERGIES
----------------

  NO   OCC          E(Eh)            E(eV)
   0   2.0000     -24.267525      -660.3529
   1   2.0000      -9.993095      -271.9259
   2   2.0000      -9.916949      -269.8539
   3   2.0000      -1.057893       -28.7867
   4   2.0000      -0.672598       -18.3023
   5   2.0000      -0.550011       -14.9666
   6   2.0000      -0.437535       -11.9059
   7   2.0000      -0.425213       -11.5706
   8   2.0000      -0.387124       -10.5342
   9   2.0000      -0.346537        -9.4297
  10   2.0000      -0.341607        -9.2956
  11   2.0000      -0.271741        -7.3944
  12   2.0000      -0.267555        -7.2805
  13   0.0000       0.042342         1.1522
  14   0.0000       0.085195         2.3183
  15   0.0000       0.091169         2.4808
  16   0.0000       0.103423         2.8143
  17   0.0000       0.119986         3.2650

MULLIKEN ATOMIC CHARGES
-----------------------
   0 C :    0.238803
   1 F :   -0.225967
   2 C :    0.037182
   3 H :   -0.019021
   4 H :   -0.020506
   5 H :    0.000438
   6 H :   -0.010905
   7 H :   -0.000024
Sum of atomic charges:   -0.0000000

LOEWDIN ATOMIC CHARGES
----------------------
   0 C :    0.104989
   1 F :   -0.114596
   2 C :   -0.060034
   3 H :    0.003193
   4 H :    0.002163
   5 H :    0.020083
   6 H :    0.024912
   7 H :    0.019288

  Mayer bond orders larger than 0.100000
B(  0-C ,  1-F ) :   1.0540 B(  0-C ,  2-C ) :   1.1161 B(  0-C ,  3-H ) :   0.9465
B(  0-C ,  4-H ) :   0.9466 B(  2-C ,  5-H ) :   0.9646 B(  2-C ,  6-H ) :   0.9511
B(  2-C ,  7-H ) :   0.9662

Dispersion correction           -0.007122732
FINAL SINGLE POINT ENERGY      -178.858974301204

DIPOLE MOMENT
-------------
                                X             Y             Z
Electronic contribution:      2.32355      -2.83310      -3.78293
Nuclear contribution   :     -2.43357       3.25919       4.19687
                        -----------------------------------------
Total Dipole Moment    :     -0.11002       0.42609       0.41394
                        -----------------------------------------
Magnitude (a.u.)       :      0.60416
Magnitude (Debye)      :      1.53564

Rotational constants in cm-1:     1.264662     0.300144     0.266170
Rotational constants in MHz : 37913.611527  8998.095216  7979.576054

                             ****ORCA TERMINATED NORMALLY****
TOTAL RUN TIME: 0 days 0 hours 0 minutes 6 seconds 23 msec
