                         Program Version 5.0.0 -  RELEASE  -
|  1> !BLYP D3BJ RIJCOSX def2-SVP def2/J TightSCF
|  2> *xyz 0 1
|  3> C         -0.70169        4.07250       -4.00392
|  4> C          0.68053        4.61482       -4.04800
|  5> H          0.69993        5.58489       -4.38827
|  6> H          1.27804        4.05598       -4.66824
|  7> H          1.08573        4.53358       -3.10652
|  8> C         -1.70347        5.09320       -3.47740
|  9> H         -0.99590        3.74039       -5.00065
| 10> H         -0.64358        3.20191       -3.35153
| 11> H         -1.73704        5.93384       -4.13853
| 12> H         -1.40338        5.41759       -2.50291
| 13> H         -2.67335        4.64479       -3.42108
| 14> *
| 15> %MaxCore 64000
| 16>
| 17> %pal nprocs 4
| 18> end
| 19>
| 20> %scf
| 21>   MaxIter 150
| 22> end
| 23>
| 24>
| 25>                          ****END OF INPUT****

CARTESIAN COORDINATES (ANGSTROEM)
---------------------------------
  C     -0.701690    4.072500   -4.003920
  C      0.680530    4.614820   -4.048000
  H      0.699930    5.584890   -4.388270
  H      1.278040    4.055980   -4.668240
  H      1.085730    4.533580   -3.106520
  C     -1.703470    5.093200   -3.477400
  H     -0.995900    3.740390   -5.000650
  H     -0.643580    3.201910   -3.351530
  H     -1.737040    5.933840   -4.138530
  H     -1.403380    5.417590   -2.502910
  H     -2.673350    4.644790   -3.421080

 Total Charge           Charge          ....    0
 Multiplicity           Mult            ....    1
 Number of Electrons    NEL             ....   26
 Basis Dimension        Dim             ....   82

ORBITAL ENERGIES
----------------

  NO   OCC          E(Eh)            E(eV)
   0   2.0000      -9.906824      -269.5784
   1   2.0000      -9.901241      -269.4265
   2   2.0000      -9.885395      -268.9953
   3   2.0000      -0.701389       -19.0858
   4   2.0000      -0.607945       -16.5430
   5   2.0000      -0.510988       -13.9047
   6   2.0000      -0.411355       -11.1935
   7   2.0000      -0.388244       -10.5647
   8   2.0000      -0.349272        -9.5042
   9   2.0000      -0.338872        -9.2212
  10   2.0000      -0.288960        -7.8630
  11   2.0000      -0.285975        -7.7818
  12   2.0000      -0.278188        -7.5699
  13   0.0000       0.042410         1.1540
  14   0.0000       0.087426         2.3790
  15   0.0000       0.089978         2.4484
  16   0.0000       0.095395         2.5958
  17   0.0000       0.122246         3.3265

MULLIKEN ATOMIC CHARGES
-----------------------
   0 C :   -0.000618
   1 C :    0.148761
   2 H :   -0.039544
   3 H :   -0.044230
   4 H :   -0.036999
   5 C :    0.085012
   6 H :   -0.026457
   7 H :   -0.028251
   8 H :   -0.017353
   9 H :   -0.020655
  10 H :   -0.019666
Sum of atomic charges:   -0.0000000

LOEWDIN ATOMIC CHARGES
----------------------
   0 C :   -0.027293
   1 C :   -0.032127
   2 H :    0.006974
   3 H :    0.011194
   4 H :    0.010980
   5 C :   -0.038900
   6 H :    0.011592
   7 H :    0.014054
   8 H :    0.014377
   9 H :    0.013806
  10 H :    0.015345

  Mayer bond orders larger than 0.100000
B(  0-C ,  1-C ) :   1.1413 B(  0-C ,  5-C ) :   1.1338 B(  0-C ,  6-H ) :   0.9434
B(  0-C ,  7-H ) :   0.9419 B(  1-C ,  2-H ) :   0.9599 B(  1-C ,  3-H ) :   0.9447
B(  1-C ,  4-H ) :   0.9598 B(  5-C ,  8-H ) :   0.9650 B(  5-C ,  9-H ) :   0.9678
B(  5-C , 10-H ) :   0.9589

Dispersion correction           -0.012522075
FINAL SINGLE POINT ENERGY      -118.949894249492

DIPOLE MOMENT
-------------
                                X             Y             Z
Electronic contribution:     -0.13562      -0.29822      -0.13238
Nuclear contribution   :      0.16058       0.27975       0.12812
                        -----------------------------------------
Total Dipole Moment    :      0.02496      -0.01847      -0.00426
                        -----------------------------------------
Magnitude (a.u.)       :      0.03134
Magnitude (Debye)      :      0.07965

Rotational constants in cm-1:     1.027122     0.293327     0.260229
Rotational constants in MHz : 30792.337141  8793.723318  7801.458329

                             ****ORCA TERMINATED NORMALLY****
TOTAL RUN TIME: 0 days 0 hours 0 minutes 5 seconds 999 msec
