                         Program Version 5.0.0 -  RELEASE  -
|  1> !BLYP D3BJ RIJCOSX def2-TZVP def2/J TightSCF xyzfile
|  2>
|  3> *xyzfile 0 1 D.xyz
|  4>
|  5> %MaxCore 64000
|  6>
|  7> %pal nprocs 18
|  8> end
|  9>
| 10> %scf
| 11>   MaxIter 150
| 12> end
| 13>
| 14>
| 15>                          ****END OF INPUT****

CARTESIAN COORDINATES (ANGSTROEM)
---------------------------------
  C     -0.701686    4.072499   -4.003920
  C      0.680528    4.614820   -4.048005
  C      1.444422    5.266576   -0.975463
  F      1.565248    4.233493   -1.864885
  H      0.699926    5.584890   -4.388272
  H      1.278044    4.055977   -4.668235
  H      1.085729    4.533581   -3.106524
  C     -1.703475    5.093197   -3.477396
  H     -0.995895    3.740394   -5.000654
  H     -0.643580    3.201910   -3.351533
  C     -1.313997    5.785995   -2.169271
  H     -1.877057    5.850103   -4.251154
  H     -2.653264    4.564475   -3.354796
  H     -2.097137    6.509395   -1.929558
  H     -0.416875    6.387594   -2.339097
  C     -1.073895    4.844728   -0.979904
  H     -1.968893    4.809608   -0.352568
  C      0.148120    5.210874   -0.138092
  H     -0.909754    3.827531   -1.338975
  H      1.474250    6.264638   -1.476917
  H      2.289622    5.303267   -0.264450
  H      0.261827    4.450942    0.640711
  H     -0.002516    6.171031    0.371483

 Total Charge           Charge          ....    0
 Multiplicity           Mult            ....    1
 Number of Electrons    NEL             ....   66
 Basis Dimension        Dim             ....  338

ORBITAL ENERGIES
----------------

  NO   OCC          E(Eh)            E(eV)
   0   2.0000     -24.291485      -661.0049
   1   2.0000      -9.987872      -271.7838
   2   2.0000      -9.912859      -269.7426
   3   2.0000      -9.898965      -269.3645
   4   2.0000      -9.892411      -269.1862
   5   2.0000      -9.885733      -269.0045
   6   2.0000      -9.873469      -268.6707
   7   2.0000      -9.821406      -267.2540
   8   2.0000      -1.124382       -30.5960
   9   2.0000      -0.731893       -19.9158
  10   2.0000      -0.703524       -19.1439
  11   2.0000      -0.647450       -17.6180
  12   2.0000      -0.617683       -16.8080
  13   2.0000      -0.561430       -15.2773
  14   2.0000      -0.531426       -14.4608
  15   2.0000      -0.480277       -13.0690
  16   2.0000      -0.475068       -12.9273
  17   2.0000      -0.459043       -12.4912
  18   2.0000      -0.434106       -11.8126
  19   2.0000      -0.404082       -10.9956
  20   2.0000      -0.396716       -10.7952
  21   2.0000      -0.376675       -10.2498
  22   2.0000      -0.361354        -9.8329
  23   2.0000      -0.339180        -9.2296
  24   2.0000      -0.333101        -9.0641
  25   2.0000      -0.320340        -8.7169
  26   2.0000      -0.310599        -8.4518
  27   2.0000      -0.295583        -8.0432
  28   2.0000      -0.284752        -7.7485
  29   2.0000      -0.271555        -7.3894
  30   2.0000      -0.260828        -7.0975
  31   2.0000      -0.258355        -7.0302
  32   2.0000      -0.231472        -6.2987
  33   0.0000       0.012804         0.3484
  34   0.0000       0.027124         0.7381
  35   0.0000       0.033796         0.9196
  36   0.0000       0.047343         1.2883
  37   0.0000       0.056440         1.5358

MULLIKEN ATOMIC CHARGES
-----------------------
   0 C :   -0.122657
   1 C :   -0.398291
   2 C :   -0.004960
   3 F :   -0.172889
   4 H :    0.071696
   5 H :    0.080878
   6 H :    0.185969
   7 C :   -0.143355
   8 H :    0.065804
   9 H :    0.063963
  10 C :   -0.147471
  11 H :    0.072706
  12 H :    0.064808
  13 H :    0.071556
  14 H :    0.076298
  15 C :   -0.136374
  16 H :    0.081729
  17 C :   -0.159508
  18 H :    0.086114
  19 H :    0.098007
  20 H :    0.098433
  21 H :    0.085727
  22 H :    0.081816
Sum of atomic charges:   -0.0000000

LOEWDIN ATOMIC CHARGES
----------------------
   0 C :   -0.300525
   1 C :   -0.316134
   2 C :   -0.351769
   3 F :    0.190503
   4 H :    0.099888
   5 H :    0.101459
   6 H :    0.065481
   7 C :   -0.264476
   8 H :    0.126912
   9 H :    0.126710
  10 C :   -0.258207
  11 H :    0.132271
  12 H :    0.130460
  13 H :    0.130096
  14 H :    0.132413
  15 C :   -0.259615
  16 H :    0.132220
  17 C :   -0.269097
  18 H :    0.137482
  19 H :    0.121352
  20 H :    0.121451
  21 H :    0.132728
  22 H :    0.138396

  Mayer bond orders larger than 0.100000
B(  0-C ,  1-C ) :   0.9171 B(  0-C ,  7-C ) :   0.9841 B(  0-C ,  8-H ) :   0.9659
B(  0-C ,  9-H ) :   0.9750 B(  1-C ,  4-H ) :   0.9737 B(  1-C ,  5-H ) :   0.9748
B(  1-C ,  6-H ) :   0.9411 B(  2-C ,  3-F ) :   0.9589 B(  2-C , 17-C ) :   0.9724
B(  2-C , 19-H ) :   0.9765 B(  2-C , 20-H ) :   0.9622 B(  7-C , 10-C ) :   0.9592
B(  7-C , 11-H ) :   0.9599 B(  7-C , 12-H ) :   0.9625 B( 10-C , 13-H ) :   0.9623
B( 10-C , 14-H ) :   0.9711 B( 10-C , 15-C ) :   0.9500 B( 15-C , 16-H ) :   0.9647
B( 15-C , 17-C ) :   0.9665 B( 15-C , 18-H ) :   0.9685 B( 17-C , 21-H ) :   0.9597
B( 17-C , 22-H ) :   0.9434

Dispersion correction           -0.042900242
FINAL SINGLE POINT ENERGY      -375.549743409453

DIPOLE MOMENT
-------------
                                X             Y             Z
Electronic contribution:      5.13930      -2.30531       2.75664
Nuclear contribution   :     -5.08831       2.68947      -1.99048
                        -----------------------------------------
Total Dipole Moment    :      0.05100       0.38416       0.76617
                        -----------------------------------------
Magnitude (a.u.)       :      0.85860
Magnitude (Debye)      :      2.18238

Rotational constants in cm-1:     0.084646     0.055672     0.038419
Rotational constants in MHz :  2537.625105  1668.992890  1151.781380

                             ****ORCA TERMINATED NORMALLY****
TOTAL RUN TIME: 0 days 0 hours 0 minutes 10 seconds 945 msec
