                         Program Version 5.0.0 -  RELEASE  -
|  1> !BLYP D3BJ RIJCOSX def2-TZVPD def2/J TightSCF
|  2> *xyz -1 1
|  3> C         -1.10433        0.25137       -2.86006
|  4> C         -0.71189        0.84252       -4.21834
|  5> H          0.15463        1.49980       -4.13091
|  6> H         -1.53813        1.45922       -4.58267
|  7> C         -0.39762       -0.20587       -5.28802
|  8> O          0.61717       -0.00535       -5.99827
|  9> O         -1.13317       -1.22138       -5.34147
| 10> H         -1.95489       -0.38644       -2.98099
| 11> H         -1.34603        1.04362       -2.18269
| 12> H         -0.28606       -0.31581       -2.46809
| 13> *
| 14>
| 15> %MaxCore 64000
| 16>
| 17> %pal nprocs 4
| 18> end
| 19>
| 20> %scf
| 21>   MaxIter 150
| 22> end
| 23>
| 24>
| 25>                          ****END OF INPUT****

CARTESIAN COORDINATES (ANGSTROEM)
---------------------------------
  C     -1.104330    0.251370   -2.860060
  C     -0.711890    0.842520   -4.218340
  H      0.154630    1.499800   -4.130910
  H     -1.538130    1.459220   -4.582670
  C     -0.397620   -0.205870   -5.288020
  O      0.617170   -0.005350   -5.998270
  O     -1.133170   -1.221380   -5.341470
  H     -1.954890   -0.386440   -2.980990
  H     -1.346030    1.043620   -2.182690
  H     -0.286060   -0.315810   -2.468090

 Total Charge           Charge          ....   -1
 Multiplicity           Mult            ....    1
 Number of Electrons    NEL             ....   40
 Basis Dimension        Dim             ....  236

ORBITAL ENERGIES
----------------

  NO   OCC          E(Eh)            E(eV)
   0   2.0000     -18.512416      -503.7485
   1   2.0000     -18.511334      -503.7190
   2   2.0000      -9.782054      -266.1832
   3   2.0000      -9.738088      -264.9868
   4   2.0000      -9.729354      -264.7492
   5   2.0000      -0.727102       -19.7854
   6   2.0000      -0.640380       -17.4256
   7   2.0000      -0.525087       -14.2884
   8   2.0000      -0.404509       -11.0073
   9   2.0000      -0.260970        -7.1014
  10   2.0000      -0.239705        -6.5227
  11   2.0000      -0.205462        -5.5909
  12   2.0000      -0.177959        -4.8425
  13   2.0000      -0.165359        -4.4996
  14   2.0000      -0.154831        -4.2132
  15   2.0000      -0.129277        -3.5178
  16   2.0000      -0.114852        -3.1253
  17   2.0000      -0.009606        -0.2614
  18   2.0000       0.003382         0.0920
  19   2.0000       0.019851         0.5402
  20   0.0000       0.119926         3.2634
  21   0.0000       0.146487         3.9861
  22   0.0000       0.162622         4.4252
  23   0.0000       0.169732         4.6187
  24   0.0000       0.194427         5.2906

MULLIKEN ATOMIC CHARGES
-----------------------
   0 C :   -1.077629
   1 C :   -0.106963
   2 H :    0.189808
   3 H :    0.178351
   4 C :    0.385650
   5 O :   -0.722201
   6 O :   -0.711460
   7 H :    0.250008
   8 H :    0.317789
   9 H :    0.296647
Sum of atomic charges:   -1.0000000

LOEWDIN ATOMIC CHARGES
----------------------
   0 C :   -0.130727
   1 C :   -0.208789
   2 H :    0.080067
   3 H :    0.088040
   4 C :   -0.787357
   5 O :   -0.095299
   6 O :   -0.084456
   7 H :    0.047894
   8 H :    0.035793
   9 H :    0.054835

  Mayer bond orders larger than 0.100000
B(  0-C ,  1-C ) :   0.5284 B(  0-C ,  7-H ) :   1.0326 B(  0-C ,  8-H ) :   0.9293
B(  0-C ,  9-H ) :   0.9528 B(  1-C ,  2-H ) :   1.0296 B(  1-C ,  3-H ) :   0.9496
B(  1-C ,  4-C ) :   0.9431 B(  4-C ,  5-O ) :   1.3891 B(  4-C ,  6-O ) :   1.4023

Dispersion correction           -0.013520014
FINAL SINGLE POINT ENERGY      -267.885722049602

DIPOLE MOMENT
-------------
                                X             Y             Z
Electronic contribution:      1.57026      -2.43245      -5.30238
Nuclear contribution   :     -2.09607       3.44215       6.87744
                        -----------------------------------------
Total Dipole Moment    :     -0.52581       1.00970       1.57506
                        -----------------------------------------
Magnitude (a.u.)       :      1.94339
Magnitude (Debye)      :      4.93971

Rotational constants in cm-1:     0.324698     0.133739     0.103466
Rotational constants in MHz :  9734.203431  4009.406827  3101.846422

                             ****ORCA TERMINATED NORMALLY****
TOTAL RUN TIME: 0 days 0 hours 0 minutes 12 seconds 304 msec
