                         Program Version 5.0.0 -  RELEASE  -
|  1> !BLYP D3BJ RIJCOSX def2-TZVPD def2/J TightSCF
|  2> *xyz 1 1
|  3> C          2.23447       -2.98975       -2.39762
|  4> N          2.75680       -2.94555       -3.76503
|  5> C          1.98721       -2.59045       -4.81898
|  6> N          0.74322       -3.01749       -4.91352
|  7> N          2.49964       -1.84860       -5.80324
|  8> H          3.30978       -1.29282       -5.55895
|  9> H          1.80103       -1.30430       -6.28913
| 10> H          3.71612       -2.62880       -3.82953
| 11> H          0.39583       -3.62775       -4.18502
| 12> H          0.03920       -2.45438       -5.37137
| 13> C          2.19120       -1.61950       -1.71549
| 14> H          2.87278       -3.66637       -1.82801
| 15> H          1.24619       -3.44744       -2.40784
| 16> H          1.56387       -0.96046       -2.27853
| 17> H          3.18033       -1.21449       -1.66568
| 18> H          1.79916       -1.72608       -0.72562
| 19> *
| 20>
| 21> %MaxCore 64000
| 22>
| 23> %pal nprocs 4
| 24> end
| 25>
| 26> %scf
| 27>   MaxIter 150
| 28> end
| 29>
| 30>
| 31>                          ****END OF INPUT****

CARTESIAN COORDINATES (ANGSTROEM)
---------------------------------
  C      2.234470   -2.989750   -2.397620
  N      2.756800   -2.945550   -3.765030
  C      1.987210   -2.590450   -4.818980
  N      0.743220   -3.017490   -4.913520
  N      2.499640   -1.848600   -5.803240
  H      3.309780   -1.292820   -5.558950
  H      1.801030   -1.304300   -6.289130
  H      3.716120   -2.628800   -3.829530
  H      0.395830   -3.627750   -4.185020
  H      0.039200   -2.454380   -5.371370
  C      2.191200   -1.619500   -1.715490
  H      2.872780   -3.666370   -1.828010
  H      1.246190   -3.447440   -2.407840
  H      1.563870   -0.960460   -2.278530
  H      3.180330   -1.214490   -1.665680
  H      1.799160   -1.726080   -0.725620

 Total Charge           Charge          ....    1
 Multiplicity           Mult            ....    1
 Number of Electrons    NEL             ....   48
 Basis Dimension        Dim             ....  312

ORBITAL ENERGIES
----------------

  NO   OCC          E(Eh)            E(eV)
   0   2.0000     -14.233720      -387.3192
   1   2.0000     -14.230152      -387.2221
   2   2.0000     -14.228207      -387.1692
   3   2.0000     -10.233433      -278.4659
   4   2.0000     -10.113341      -275.1980
   5   2.0000     -10.046120      -273.3688
   6   2.0000      -1.127343       -30.6766
   7   2.0000      -1.021652       -27.8006
   8   2.0000      -1.018263       -27.7083
   9   2.0000      -0.853841       -23.2342
  10   2.0000      -0.778405       -21.1815
  11   2.0000      -0.740993       -20.1635
  12   2.0000      -0.726051       -19.7569
  13   2.0000      -0.683935       -18.6108
  14   2.0000      -0.647926       -17.6310
  15   2.0000      -0.633540       -17.2395
  16   2.0000      -0.598214       -16.2782
  17   2.0000      -0.569454       -15.4956
  18   2.0000      -0.553004       -15.0480
  19   2.0000      -0.521173       -14.1818
  20   2.0000      -0.490792       -13.3551
  21   2.0000      -0.473298       -12.8791
  22   2.0000      -0.444092       -12.0844
  23   2.0000      -0.410744       -11.1769
  24   0.0000      -0.225301        -6.1308
  25   0.0000      -0.186630        -5.0784
  26   0.0000      -0.156023        -4.2456
  27   0.0000      -0.142530        -3.8784
  28   0.0000      -0.125572        -3.4170

MULLIKEN ATOMIC CHARGES
-----------------------
   0 C :   -0.311609
   1 N :   -0.132951
   2 C :    0.559836
   3 N :   -0.268395
   4 N :   -0.347173
   5 H :    0.217626
   6 H :    0.217586
   7 H :    0.188833
   8 H :    0.230006
   9 H :    0.211215
  10 C :   -1.158518
  11 H :    0.305555
  12 H :    0.257410
  13 H :    0.330236
  14 H :    0.343871
  15 H :    0.356471
Sum of atomic charges:    1.0000000

LOEWDIN ATOMIC CHARGES
----------------------
   0 C :   -0.203016
   1 N :    0.097053
   2 C :   -0.451344
   3 N :    0.235826
   4 N :    0.221499
   5 H :    0.131878
   6 H :    0.131417
   7 H :    0.154439
   8 H :    0.127457
   9 H :    0.142043
  10 C :   -0.044930
  11 H :    0.127027
  12 H :    0.105923
  13 H :    0.069007
  14 H :    0.074105
  15 H :    0.081614

  Mayer bond orders larger than 0.100000
B(  0-C ,  1-N ) :   0.8074 B(  0-C , 10-C ) :   0.5800 B(  0-C , 11-H ) :   0.9353
B(  0-C , 12-H ) :   0.8983 B(  1-N ,  2-C ) :   1.2665 B(  1-N ,  7-H ) :   0.9286
B(  2-C ,  3-N ) :   1.1468 B(  2-C ,  4-N ) :   1.1232 B(  3-N ,  8-H ) :   0.9059
B(  3-N ,  9-H ) :   0.9635 B(  4-N ,  5-H ) :   0.9424 B(  4-N ,  6-H ) :   0.9273
B( 10-C , 13-H ) :   0.9441 B( 10-C , 14-H ) :   0.9499 B( 10-C , 15-H ) :   0.9501

Dispersion correction           -0.025052832
FINAL SINGLE POINT ENERGY      -284.398629587057

DIPOLE MOMENT
-------------
                                X             Y             Z
Electronic contribution:      0.19909      -1.70485      -5.17405
Nuclear contribution   :     -0.59121       2.30298       4.63196
                        -----------------------------------------
Total Dipole Moment    :     -0.39212       0.59813      -0.54209
                        -----------------------------------------
Magnitude (a.u.)       :      0.89743
Magnitude (Debye)      :      2.28108

Rotational constants in cm-1:     0.205874     0.074757     0.066901
Rotational constants in MHz :  6171.937773  2241.151057  2005.629823

                             ****ORCA TERMINATED NORMALLY****
TOTAL RUN TIME: 0 days 0 hours 0 minutes 28 seconds 110 msec
