                         Program Version 5.0.0 -  RELEASE  -
|  1> !BLYP D3BJ RIJCOSX def2-TZVPD def2/J TightSCF xyzfile
|  2>
|  3> *xyzfile 0 1 B.xyz
|  4>
|  5> %MaxCore 64000
|  6>
|  7> %pal nprocs 4
|  8> end
|  9>
| 10> %scf
| 11>   MaxIter 150
| 12> end
| 13>
| 14>
| 15>                          ****END OF INPUT****

CARTESIAN COORDINATES (ANGSTROEM)
---------------------------------
  C      2.234473   -2.989754   -2.397622
  N      2.756799   -2.945553   -3.765029
  C     -1.104325    0.251374   -2.860056
  C     -0.711893    0.842517   -4.218344
  H      0.154626    1.499800   -4.130909
  H     -1.538134    1.459222   -4.582671
  C     -0.397624   -0.205875   -5.288018
  C      1.987208   -2.590451   -4.818975
  N      0.743221   -3.017493   -4.913524
  N      2.499636   -1.848598   -5.803241
  H      3.309780   -1.292818   -5.558947
  H      1.801025   -1.304298   -6.289129
  H      3.716116   -2.628797   -3.829533
  H      0.395828   -3.627747   -4.185024
  H      0.039201   -2.454383   -5.371367
  O      0.617165   -0.005348   -5.998273
  O     -1.133173   -1.221380   -5.341465
  C      2.191199   -1.619503   -1.715492
  H      2.872783   -3.666368   -1.828014
  H      1.246188   -3.447444   -2.407842
  C      1.298729   -0.554314   -2.359773
  H      1.872917   -1.787955   -0.681310
  H      3.216809   -1.238432   -1.654428
  C     -0.196255   -0.863365   -2.325763
  H      1.612531   -0.371346   -3.393065
  H      1.480944    0.388638   -1.834444
  H     -0.404105   -1.761825   -2.909448
  H     -0.490439   -1.087880   -1.294131
  H     -1.143842    1.066711   -2.129680
  H     -2.114401   -0.156834   -2.930323

 Total Charge           Charge          ....    0
 Multiplicity           Mult            ....    1
 Number of Electrons    NEL             ....  102
 Basis Dimension        Dim             ....  640

ORBITAL ENERGIES
----------------

  NO   OCC          E(Eh)            E(eV)
   0   2.0000     -18.692085      -508.6375
   1   2.0000     -18.690915      -508.6056
   2   2.0000     -14.071613      -382.9081
   3   2.0000     -14.041741      -382.0952
   4   2.0000     -14.041432      -382.0868
   5   2.0000     -10.058760      -273.7128
   6   2.0000      -9.977606      -271.5045
   7   2.0000      -9.957366      -270.9537
   8   2.0000      -9.928411      -270.1658
   9   2.0000      -9.908773      -269.6314
  10   2.0000      -9.895338      -269.2658
  11   2.0000      -9.885820      -269.0068
  12   2.0000      -9.873186      -268.6631
  13   2.0000      -0.955167       -25.9914
  14   2.0000      -0.912111       -24.8198
  15   2.0000      -0.857771       -23.3411
  16   2.0000      -0.839066       -22.8322
  17   2.0000      -0.821283       -22.3482
  18   2.0000      -0.738698       -20.1010
  19   2.0000      -0.698452       -19.0058
  20   2.0000      -0.651868       -17.7382
  21   2.0000      -0.611238       -16.6326
  22   2.0000      -0.590142       -16.0586
  23   2.0000      -0.558614       -15.2007
  24   2.0000      -0.550558       -14.9814
  25   2.0000      -0.517906       -14.0929
  26   2.0000      -0.497422       -13.5356
  27   2.0000      -0.476915       -12.9775
  28   2.0000      -0.457320       -12.4443
  29   2.0000      -0.448219       -12.1967
  30   2.0000      -0.430669       -11.7191
  31   2.0000      -0.419403       -11.4125
  32   2.0000      -0.407582       -11.0909
  33   2.0000      -0.393935       -10.7195
  34   2.0000      -0.383802       -10.4438
  35   2.0000      -0.376751       -10.2519
  36   2.0000      -0.364770        -9.9259
  37   2.0000      -0.352339        -9.5876
  38   2.0000      -0.338898        -9.2219
  39   2.0000      -0.331725        -9.0267
  40   2.0000      -0.319886        -8.7045
  41   2.0000      -0.312279        -8.4975
  42   2.0000      -0.299018        -8.1367
  43   2.0000      -0.283867        -7.7244
  44   2.0000      -0.272616        -7.4183
  45   2.0000      -0.266207        -7.2438
  46   2.0000      -0.261164        -7.1066
  47   2.0000      -0.252165        -6.8617
  48   2.0000      -0.190210        -5.1759
  49   2.0000      -0.175873        -4.7858
  50   2.0000      -0.163888        -4.4596
  51   0.0000      -0.051731        -1.4077
  52   0.0000      -0.043176        -1.1749
  53   0.0000      -0.022996        -0.6257
  54   0.0000      -0.010006        -0.2723
  55   0.0000       0.001744         0.0475

MULLIKEN ATOMIC CHARGES
-----------------------
   0 C :   -0.681241
   1 N :   -0.116546
   2 C :   -0.545509
   3 C :   -0.473202
   4 H :    0.214850
   5 H :    0.284226
   6 C :    0.720249
   7 C :    0.332618
   8 N :   -0.346601
   9 N :   -0.400082
  10 H :    0.172632
  11 H :    0.330959
  12 H :    0.180444
  13 H :    0.201259
  14 H :    0.373782
  15 O :   -0.819883
  16 O :   -0.822183
  17 C :   -0.505551
  18 H :    0.264523
  19 H :    0.293649
  20 C :   -0.414533
  21 H :    0.292827
  22 H :    0.248962
  23 C :   -0.395288
  24 H :    0.266327
  25 H :    0.347206
  26 H :    0.228992
  27 H :    0.282055
  28 H :    0.235669
  29 H :    0.249391
Sum of atomic charges:   -0.0000000

LOEWDIN ATOMIC CHARGES
----------------------
   0 C :   -0.175568
   1 N :    0.084109
   2 C :   -0.194886
   3 C :   -0.124902
   4 H :    0.100721
   5 H :    0.112960
   6 C :   -0.690867
   7 C :   -0.467943
   8 N :    0.237559
   9 N :    0.203797
  10 H :    0.118240
  11 H :    0.064582
  12 H :    0.140607
  13 H :    0.117430
  14 H :    0.057083
  15 O :   -0.039577
  16 O :   -0.031055
  17 C :   -0.176186
  18 H :    0.115877
  19 H :    0.103879
  20 C :   -0.193980
  21 H :    0.112150
  22 H :    0.106503
  23 C :   -0.203583
  24 H :    0.099078
  25 H :    0.118194
  26 H :    0.085055
  27 H :    0.111118
  28 H :    0.103684
  29 H :    0.105920

  Mayer bond orders larger than 0.100000
B(  0-C ,  1-N ) :   0.8255 B(  0-C ,  8-N ) :   0.1008 B(  0-C , 17-C ) :   0.6684
B(  0-C , 18-H ) :   0.9603 B(  0-C , 19-H ) :   0.9158 B(  0-C , 23-C ) :   0.1484
B(  1-N ,  7-C ) :   1.1548 B(  1-N , 12-H ) :   0.8864 B(  2-C ,  3-C ) :   0.8169
B(  2-C , 20-C ) :   0.1778 B(  2-C , 23-C ) :   0.8802 B(  2-C , 28-H ) :   0.9767
B(  2-C , 29-H ) :   0.9011 B(  3-C ,  4-H ) :   1.0179 B(  3-C ,  5-H ) :   0.8837
B(  3-C ,  6-C ) :   0.9287 B(  3-C , 20-C ) :   0.1393 B(  6-C , 15-O ) :   1.0871
B(  6-C , 16-O ) :   1.1789 B(  7-C ,  8-N ) :   1.2797 B(  7-C ,  9-N ) :   1.1155
B(  7-C , 20-C ) :   0.1015 B(  8-N , 13-H ) :   0.8766 B(  8-N , 14-H ) :   0.6541
B(  9-N , 10-H ) :   0.9385 B(  9-N , 11-H ) :   0.7185 B( 14-H , 16-O ) :   0.1039
B( 15-O , 16-O ) :   0.1290 B( 17-C , 20-C ) :   0.8279 B( 17-C , 21-H ) :   0.9556
B( 17-C , 22-H ) :   0.9686 B( 17-C , 23-C ) :   0.1506 B( 20-C , 23-C ) :   0.3231
B( 20-C , 24-H ) :   1.0758 B( 20-C , 25-H ) :   0.7854 B( 20-C , 26-H ) :  -0.1844
B( 23-C , 24-H ) :  -0.1142 B( 23-C , 26-H ) :   1.1169 B( 23-C , 27-H ) :   0.8739

Dispersion correction           -0.070204545
FINAL SINGLE POINT ENERGY      -629.889172258975

DIPOLE MOMENT
-------------
                                X             Y             Z
Electronic contribution:      0.52700      -2.83297     -10.31338
Nuclear contribution   :      1.76912       1.50070      12.36652
                        -----------------------------------------
Total Dipole Moment    :      2.29612      -1.33227       2.05315
                        -----------------------------------------
Magnitude (a.u.)       :      3.35597
Magnitude (Debye)      :      8.53019

Rotational constants in cm-1:     0.033272     0.023886     0.017112
Rotational constants in MHz :   997.469575   716.074432   513.001395

                             ****ORCA TERMINATED NORMALLY****
TOTAL RUN TIME: 0 days 0 hours 2 minutes 6 seconds 445 msec
