                         Program Version 5.0.0 -  RELEASE  -
|  1> !BLYP D3BJ RIJCOSX def2-TZVPD def2/J TightSCF
|  2> *xyz 0 1
|  3> C         -1.10433        0.25137       -2.86006
|  4> C         -0.71189        0.84252       -4.21834
|  5> H          0.15463        1.49980       -4.13091
|  6> H         -1.53813        1.45922       -4.58267
|  7> C         -0.39762       -0.20587       -5.28802
|  8> F          0.61717       -0.00535       -5.99827
|  9> O         -1.13317       -1.22138       -5.34147
| 10> H         -1.95489       -0.38644       -2.98099
| 11> H         -1.34603        1.04362       -2.18269
| 12> H         -0.28606       -0.31581       -2.46809
| 13> *
| 14>
| 15> %MaxCore 64000
| 16>
| 17> %pal nprocs 4
| 18> end
| 19>
| 20> %scf
| 21>   MaxIter 150
| 22> end
| 23>
| 24>
| 25>                          ****END OF INPUT****

CARTESIAN COORDINATES (ANGSTROEM)
---------------------------------
  C     -1.104330    0.251370   -2.860060
  C     -0.711890    0.842520   -4.218340
  H      0.154630    1.499800   -4.130910
  H     -1.538130    1.459220   -4.582670
  C     -0.397620   -0.205870   -5.288020
  F      0.617170   -0.005350   -5.998270
  O     -1.133170   -1.221380   -5.341470
  H     -1.954890   -0.386440   -2.980990
  H     -1.346030    1.043620   -2.182690
  H     -0.286060   -0.315810   -2.468090

 Total Charge           Charge          ....    0
 Multiplicity           Mult            ....    1
 Number of Electrons    NEL             ....   40
 Basis Dimension        Dim             ....  236

ORBITAL ENERGIES
----------------

  NO   OCC          E(Eh)            E(eV)
   0   2.0000     -24.353808      -662.7008
   1   2.0000     -18.777625      -510.9652
   2   2.0000     -10.075146      -274.1587
   3   2.0000      -9.935977      -270.3717
   4   2.0000      -9.906324      -269.5648
   5   2.0000      -1.209383       -32.9090
   6   2.0000      -0.939561       -25.5667
   7   2.0000      -0.719659       -19.5829
   8   2.0000      -0.619568       -16.8593
   9   2.0000      -0.570143       -15.5144
  10   2.0000      -0.485414       -13.2088
  11   2.0000      -0.471268       -12.8239
  12   2.0000      -0.446050       -12.1376
  13   2.0000      -0.412837       -11.2339
  14   2.0000      -0.380650       -10.3580
  15   2.0000      -0.348553        -9.4846
  16   2.0000      -0.329825        -8.9750
  17   2.0000      -0.327324        -8.9069
  18   2.0000      -0.304868        -8.2959
  19   2.0000      -0.242808        -6.6072
  20   0.0000      -0.064992        -1.7685
  21   0.0000      -0.014956        -0.4070
  22   0.0000       0.012282         0.3342
  23   0.0000       0.024537         0.6677
  24   0.0000       0.032577         0.8865

MULLIKEN ATOMIC CHARGES
-----------------------
   0 C :   -1.087344
   1 C :   -0.156916
   2 H :    0.240334
   3 H :    0.238793
   4 C :    0.523605
   5 F :   -0.211034
   6 O :   -0.483341
   7 H :    0.289066
   8 H :    0.318020
   9 H :    0.328816
Sum of atomic charges:    0.0000000

LOEWDIN ATOMIC CHARGES
----------------------
   0 C :   -0.081059
   1 C :   -0.154242
   2 H :    0.104010
   3 H :    0.117932
   4 C :   -0.508435
   5 F :    0.221717
   6 O :    0.096484
   7 H :    0.067416
   8 H :    0.065333
   9 H :    0.070844

  Mayer bond orders larger than 0.100000
B(  0-C ,  1-C ) :   0.6184 B(  0-C ,  7-H ) :   1.0015 B(  0-C ,  8-H ) :   0.9356
B(  0-C ,  9-H ) :   0.9226 B(  1-C ,  2-H ) :   0.9722 B(  1-C ,  3-H ) :   0.9250
B(  1-C ,  4-C ) :   0.9336 B(  4-C ,  5-F ) :   1.0037 B(  4-C ,  6-O ) :   1.7149

Dispersion correction           -0.012837990
FINAL SINGLE POINT ENERGY      -292.455160735676

DIPOLE MOMENT
-------------
                                X             Y             Z
Electronic contribution:      3.59631      -2.39487      -7.72709
Nuclear contribution   :     -3.36368       3.36392       8.24820
                        -----------------------------------------
Total Dipole Moment    :      0.23263       0.96904       0.52111
                        -----------------------------------------
Magnitude (a.u.)       :      1.12460
Magnitude (Debye)      :      2.85849

Rotational constants in cm-1:     0.315013     0.126712     0.098430
Rotational constants in MHz :  9443.861322  3798.734540  2950.846388

                             ****ORCA TERMINATED NORMALLY****
TOTAL RUN TIME: 0 days 0 hours 0 minutes 15 seconds 843 msec
