                         Program Version 5.0.0 -  RELEASE  -
|  1> !BLYP D3BJ RIJCOSX def2-TZVPD def2/J TightSCF
|  2> *xyz 0 1
|  3> C          2.23447       -2.98975       -2.39762
|  4> C          2.75680       -2.94555       -3.76503
|  5> C          1.98721       -2.59045       -4.81898
|  6> N          0.74322       -3.01749       -4.91352
|  7> N          2.49964       -1.84860       -5.80324
|  8> H          3.30978       -1.29282       -5.55895
|  9> H          1.80103       -1.30430       -6.28913
| 10> H          3.71612       -2.62880       -3.82953
| 11> H          0.39583       -3.62775       -4.18502
| 12> H          0.03920       -2.45438       -5.37137
| 13> C          2.19120       -1.61950       -1.71549
| 14> H          2.87278       -3.66637       -1.82801
| 15> H          1.24619       -3.44744       -2.40784
| 16> H          1.56387       -0.96046       -2.27853
| 17> H          3.18033       -1.21449       -1.66568
| 18> H          1.79916       -1.72608       -0.72562
| 19> *
| 20>
| 21> %MaxCore 64000
| 22>
| 23> %pal nprocs 4
| 24> end
| 25>
| 26> %scf
| 27>   MaxIter 150
| 28> end
| 29>
| 30>
| 31>                          ****END OF INPUT****

CARTESIAN COORDINATES (ANGSTROEM)
---------------------------------
  C      2.234470   -2.989750   -2.397620
  C      2.756800   -2.945550   -3.765030
  C      1.987210   -2.590450   -4.818980
  N      0.743220   -3.017490   -4.913520
  N      2.499640   -1.848600   -5.803240
  H      3.309780   -1.292820   -5.558950
  H      1.801030   -1.304300   -6.289130
  H      3.716120   -2.628800   -3.829530
  H      0.395830   -3.627750   -4.185020
  H      0.039200   -2.454380   -5.371370
  C      2.191200   -1.619500   -1.715490
  H      2.872780   -3.666370   -1.828010
  H      1.246190   -3.447440   -2.407840
  H      1.563870   -0.960460   -2.278530
  H      3.180330   -1.214490   -1.665680
  H      1.799160   -1.726080   -0.725620

 Total Charge           Charge          ....    0
 Multiplicity           Mult            ....    1
 Number of Electrons    NEL             ....   48
 Basis Dimension        Dim             ....  312

ORBITAL ENERGIES
----------------

  NO   OCC          E(Eh)            E(eV)
   0   2.0000     -14.013084      -381.3154
   1   2.0000     -14.009453      -381.2166
   2   2.0000      -9.948052      -270.7002
   3   2.0000      -9.881990      -268.9026
   4   2.0000      -9.873096      -268.6606
   5   2.0000      -9.832997      -267.5695
   6   2.0000      -0.882493       -24.0139
   7   2.0000      -0.798325       -21.7235
   8   2.0000      -0.694748       -18.9051
   9   2.0000      -0.620172       -16.8757
  10   2.0000      -0.555079       -15.1045
  11   2.0000      -0.519389       -14.1333
  12   2.0000      -0.487986       -13.2788
  13   2.0000      -0.453302       -12.3350
  14   2.0000      -0.420721       -11.4484
  15   2.0000      -0.398696       -10.8491
  16   2.0000      -0.364309        -9.9133
  17   2.0000      -0.344218        -9.3666
  18   2.0000      -0.325237        -8.8501
  19   2.0000      -0.313748        -8.5375
  20   2.0000      -0.284674        -7.7464
  21   2.0000      -0.278892        -7.5890
  22   2.0000      -0.230745        -6.2789
  23   2.0000      -0.129428        -3.5219
  24   0.0000      -0.026200        -0.7129
  25   0.0000       0.003266         0.0889
  26   0.0000       0.012849         0.3496
  27   0.0000       0.014367         0.3909
  28   0.0000       0.033749         0.9184

MULLIKEN ATOMIC CHARGES
-----------------------
   0 C :   -0.147897
   1 C :   -0.514542
   2 C :    0.289348
   3 N :   -0.330199
   4 N :   -0.439704
   5 H :    0.194079
   6 H :    0.156173
   7 H :    0.342798
   8 H :    0.185991
   9 H :    0.119776
  10 C :   -1.257307
  11 H :    0.188891
  12 H :    0.244333
  13 H :    0.307957
  14 H :    0.331609
  15 H :    0.328694
Sum of atomic charges:    0.0000000

LOEWDIN ATOMIC CHARGES
----------------------
   0 C :   -0.285105
   1 C :   -0.128133
   2 C :   -0.559501
   3 N :    0.140659
   4 N :    0.128820
   5 H :    0.101958
   6 H :    0.089672
   7 H :    0.055489
   8 H :    0.100297
   9 H :    0.097341
  10 C :   -0.092502
  11 H :    0.094534
  12 H :    0.081881
  13 H :    0.059402
  14 H :    0.060734
  15 H :    0.054455

  Mayer bond orders larger than 0.100000
B(  0-C ,  1-C ) :   0.6697 B(  0-C , 10-C ) :   0.4417 B(  0-C , 11-H ) :   1.0778
B(  0-C , 12-H ) :   0.9606 B(  1-C ,  2-C ) :   1.4666 B(  1-C ,  7-H ) :   0.9655
B(  2-C ,  3-N ) :   0.9474 B(  2-C ,  4-N ) :   1.0074 B(  2-C ,  7-H ) :  -0.1574
B(  2-C , 10-C ) :   0.1058 B(  3-N ,  8-H ) :   0.9385 B(  3-N ,  9-H ) :   1.0326
B(  4-N ,  5-H ) :   0.9364 B(  4-N ,  6-H ) :   0.9825 B( 10-C , 13-H ) :   0.9663
B( 10-C , 14-H ) :   0.9757 B( 10-C , 15-H ) :   0.9520

Dispersion correction           -0.026197423
FINAL SINGLE POINT ENERGY      -267.906952788602

DIPOLE MOMENT
-------------
                                X             Y             Z
Electronic contribution:     -0.28929      -1.41681      -4.99949
Nuclear contribution   :     -0.44240       2.20379       4.66256
                        -----------------------------------------
Total Dipole Moment    :     -0.73169       0.78698      -0.33693
                        -----------------------------------------
Magnitude (a.u.)       :      1.12615
Magnitude (Debye)      :      2.86246

Rotational constants in cm-1:     0.209447     0.075194     0.066975
Rotational constants in MHz :  6279.068019  2254.272519  2007.845458

                             ****ORCA TERMINATED NORMALLY****
TOTAL RUN TIME: 0 days 0 hours 0 minutes 32 seconds 290 msec
