                         Program Version 5.0.0 -  RELEASE  -
|  1> !BLYP D3BJ RIJCOSX def2-TZVPD def2/J TightSCF
|  2> *xyz 0 1
|  3> C         -1.10433        0.25137       -2.86006
|  4> C         -0.71189        0.84252       -4.21834
|  5> H          0.15463        1.49980       -4.13091
|  6> H         -1.53813        1.45922       -4.58267
|  7> C         -0.39762       -0.20587       -5.28802
|  8> O          0.61717       -0.00535       -5.99827
|  9> F         -1.13317       -1.22138       -5.34147
| 10> H         -1.95489       -0.38644       -2.98099
| 11> H         -1.34603        1.04362       -2.18269
| 12> H         -0.28606       -0.31581       -2.46809
| 13> *
| 14>
| 15> %MaxCore 64000
| 16>
| 17> %pal nprocs 4
| 18> end
| 19>
| 20> %scf
| 21>   MaxIter 150
| 22> end
| 23>
| 24>
| 25>                          ****END OF INPUT****

CARTESIAN COORDINATES (ANGSTROEM)
---------------------------------
  C     -1.104330    0.251370   -2.860060
  C     -0.711890    0.842520   -4.218340
  H      0.154630    1.499800   -4.130910
  H     -1.538130    1.459220   -4.582670
  C     -0.397620   -0.205870   -5.288020
  O      0.617170   -0.005350   -5.998270
  F     -1.133170   -1.221380   -5.341470
  H     -1.954890   -0.386440   -2.980990
  H     -1.346030    1.043620   -2.182690
  H     -0.286060   -0.315810   -2.468090

 Total Charge           Charge          ....    0
 Multiplicity           Mult            ....    1
 Number of Electrons    NEL             ....   40
 Basis Dimension        Dim             ....  236

ORBITAL ENERGIES
----------------

  NO   OCC          E(Eh)            E(eV)
   0   2.0000     -24.354533      -662.7205
   1   2.0000     -18.776534      -510.9355
   2   2.0000     -10.074616      -274.1442
   3   2.0000      -9.935250      -270.3519
   4   2.0000      -9.911816      -269.7142
   5   2.0000      -1.209950       -32.9244
   6   2.0000      -0.938492       -25.5377
   7   2.0000      -0.723596       -19.6900
   8   2.0000      -0.615226       -16.7411
   9   2.0000      -0.576916       -15.6987
  10   2.0000      -0.487212       -13.2577
  11   2.0000      -0.477444       -12.9919
  12   2.0000      -0.438187       -11.9237
  13   2.0000      -0.413878       -11.2622
  14   2.0000      -0.381800       -10.3893
  15   2.0000      -0.352530        -9.5928
  16   2.0000      -0.336839        -9.1659
  17   2.0000      -0.331659        -9.0249
  18   2.0000      -0.305400        -8.3104
  19   2.0000      -0.238307        -6.4847
  20   0.0000      -0.063250        -1.7211
  21   0.0000      -0.017872        -0.4863
  22   0.0000       0.013361         0.3636
  23   0.0000       0.022578         0.6144
  24   0.0000       0.033289         0.9058

MULLIKEN ATOMIC CHARGES
-----------------------
   0 C :   -1.126635
   1 C :   -0.094820
   2 H :    0.206474
   3 H :    0.251342
   4 C :    0.508687
   5 O :   -0.485564
   6 F :   -0.216738
   7 H :    0.300746
   8 H :    0.308275
   9 H :    0.348232
Sum of atomic charges:    0.0000000

LOEWDIN ATOMIC CHARGES
----------------------
   0 C :   -0.085871
   1 C :   -0.149162
   2 H :    0.113402
   3 H :    0.116464
   4 C :   -0.512126
   5 O :    0.092626
   6 F :    0.224712
   7 H :    0.063772
   8 H :    0.065533
   9 H :    0.070651

  Mayer bond orders larger than 0.100000
B(  0-C ,  1-C ) :   0.5581 B(  0-C ,  7-H ) :   0.9778 B(  0-C ,  8-H ) :   0.9607
B(  0-C ,  9-H ) :   0.9263 B(  1-C ,  2-H ) :   1.0072 B(  1-C ,  3-H ) :   0.9132
B(  1-C ,  4-C ) :   0.9261 B(  4-C ,  5-O ) :   1.7127 B(  4-C ,  6-F ) :   1.0105

Dispersion correction           -0.012728483
FINAL SINGLE POINT ENERGY      -292.454219494392

DIPOLE MOMENT
-------------
                                X             Y             Z
Electronic contribution:      0.69958      -4.38273      -6.61562
Nuclear contribution   :     -1.45527       4.68977       7.53208
                        -----------------------------------------
Total Dipole Moment    :     -0.75569       0.30704       0.91646
                        -----------------------------------------
Magnitude (a.u.)       :      1.22688
Magnitude (Debye)      :      3.11848

Rotational constants in cm-1:     0.298240     0.132464     0.099915
Rotational constants in MHz :  8940.998095  3971.171647  2995.369122

                             ****ORCA TERMINATED NORMALLY****
TOTAL RUN TIME: 0 days 0 hours 0 minutes 12 seconds 408 msec
