                         Program Version 5.0.0 -  RELEASE  -
|  1> !BLYP D3BJ RIJCOSX def2-TZVPD def2/J TightSCF
|  2> *xyz 0 1
|  3> C          2.23447       -2.98975       -2.39762
|  4> N          2.75680       -2.94555       -3.76503
|  5> C          1.98721       -2.59045       -4.81898
|  6> C          0.74322       -3.01749       -4.91352
|  7> N          2.49964       -1.84860       -5.80324
|  8> H          3.30978       -1.29282       -5.55895
|  9> H          1.80103       -1.30430       -6.28913
| 10> H          3.71612       -2.62880       -3.82953
| 11> H          0.39583       -3.62775       -4.18502
| 12> H          0.03920       -2.45438       -5.37137
| 13> C          2.19120       -1.61950       -1.71549
| 14> H          2.87278       -3.66637       -1.82801
| 15> H          1.24619       -3.44744       -2.40784
| 16> H          1.56387       -0.96046       -2.27853
| 17> H          3.18033       -1.21449       -1.66568
| 18> H          1.79916       -1.72608       -0.72562
| 19> *
| 20>
| 21> %MaxCore 64000
| 22>
| 23> %pal nprocs 4
| 24> end
| 25>
| 26> %scf
| 27>   MaxIter 150
| 28> end
| 29>
| 30>
| 31>                          ****END OF INPUT****

CARTESIAN COORDINATES (ANGSTROEM)
---------------------------------
  C      2.234470   -2.989750   -2.397620
  N      2.756800   -2.945550   -3.765030
  C      1.987210   -2.590450   -4.818980
  C      0.743220   -3.017490   -4.913520
  N      2.499640   -1.848600   -5.803240
  H      3.309780   -1.292820   -5.558950
  H      1.801030   -1.304300   -6.289130
  H      3.716120   -2.628800   -3.829530
  H      0.395830   -3.627750   -4.185020
  H      0.039200   -2.454380   -5.371370
  C      2.191200   -1.619500   -1.715490
  H      2.872780   -3.666370   -1.828010
  H      1.246190   -3.447440   -2.407840
  H      1.563870   -0.960460   -2.278530
  H      3.180330   -1.214490   -1.665680
  H      1.799160   -1.726080   -0.725620

 Total Charge           Charge          ....    0
 Multiplicity           Mult            ....    1
 Number of Electrons    NEL             ....   48
 Basis Dimension        Dim             ....  312

ORBITAL ENERGIES
----------------

  NO   OCC          E(Eh)            E(eV)
   0   2.0000     -14.009167      -381.2088
   1   2.0000     -14.007105      -381.1527
   2   2.0000      -9.945263      -270.6244
   3   2.0000      -9.936782      -270.3936
   4   2.0000      -9.893430      -269.2139
   5   2.0000      -9.824177      -267.3294
   6   2.0000      -0.878816       -23.9138
   7   2.0000      -0.805351       -21.9147
   8   2.0000      -0.680055       -18.5052
   9   2.0000      -0.640609       -17.4319
  10   2.0000      -0.574356       -15.6290
  11   2.0000      -0.503237       -13.6938
  12   2.0000      -0.487545       -13.2668
  13   2.0000      -0.458179       -12.4677
  14   2.0000      -0.410433       -11.1684
  15   2.0000      -0.396184       -10.7807
  16   2.0000      -0.366615        -9.9761
  17   2.0000      -0.350419        -9.5354
  18   2.0000      -0.346130        -9.4187
  19   2.0000      -0.325705        -8.8629
  20   2.0000      -0.311509        -8.4766
  21   2.0000      -0.303989        -8.2720
  22   2.0000      -0.209780        -5.7084
  23   2.0000      -0.143269        -3.8985
  24   0.0000      -0.020987        -0.5711
  25   0.0000       0.004389         0.1194
  26   0.0000       0.009400         0.2558
  27   0.0000       0.017804         0.4845
  28   0.0000       0.029880         0.8131

MULLIKEN ATOMIC CHARGES
-----------------------
   0 C :   -0.222807
   1 N :   -0.207212
   2 C :    0.494129
   3 C :   -0.994716
   4 N :   -0.412565
   5 H :    0.170941
   6 H :    0.160871
   7 H :    0.144876
   8 H :    0.384948
   9 H :    0.192687
  10 C :   -1.166449
  11 H :    0.270213
  12 H :    0.224015
  13 H :    0.307127
  14 H :    0.307068
  15 H :    0.346874
Sum of atomic charges:   -0.0000000

LOEWDIN ATOMIC CHARGES
----------------------
   0 C :   -0.235795
   1 N :    0.026761
   2 C :   -0.569771
   3 C :    0.016342
   4 N :    0.125642
   5 H :    0.087390
   6 H :    0.099152
   7 H :    0.121353
   8 H :    0.006101
   9 H :    0.013214
  10 C :   -0.074806
  11 H :    0.105825
  12 H :    0.097639
  13 H :    0.062063
  14 H :    0.058034
  15 H :    0.060856

  Mayer bond orders larger than 0.100000
B(  0-C ,  1-N ) :   0.7632 B(  0-C , 10-C ) :   0.4902 B(  0-C , 11-H ) :   0.9220
B(  0-C , 12-H ) :   0.9412 B(  1-N ,  2-C ) :   0.9702 B(  1-N ,  7-H ) :   0.9624
B(  2-C ,  3-C ) :   1.4644 B(  2-C ,  4-N ) :   0.8857 B(  3-C ,  8-H ) :   0.8403
B(  3-C ,  9-H ) :   1.1459 B(  4-N ,  5-H ) :   0.9696 B(  4-N ,  6-H ) :   0.9637
B( 10-C , 13-H ) :   0.9901 B( 10-C , 14-H ) :   0.9670 B( 10-C , 15-H ) :   0.9365

Dispersion correction           -0.026016214
FINAL SINGLE POINT ENERGY      -267.902744843692

DIPOLE MOMENT
-------------
                                X             Y             Z
Electronic contribution:      1.48486      -1.29576      -3.84914
Nuclear contribution   :     -0.86957       2.18853       4.41892
                        -----------------------------------------
Total Dipole Moment    :      0.61530       0.89277       0.56978
                        -----------------------------------------
Magnitude (a.u.)       :      1.22486
Magnitude (Debye)      :      3.11334

Rotational constants in cm-1:     0.214718     0.075736     0.068547
Rotational constants in MHz :  6437.075121  2270.519635  2054.974198

                             ****ORCA TERMINATED NORMALLY****
TOTAL RUN TIME: 0 days 0 hours 0 minutes 30 seconds 227 msec
