                         Program Version 5.0.0 -  RELEASE  -
|  1> !BLYP D3BJ RIJCOSX def2-TZVPD def2/J TightSCF
|  2> *xyz 0 1
|  3> C          2.23447       -2.98975       -2.39762
|  4> N          2.75680       -2.94555       -3.76503
|  5> C          1.98721       -2.59045       -4.81898
|  6> N          0.74322       -3.01749       -4.91352
|  7> C          2.49964       -1.84860       -5.80324
|  8> H          3.30978       -1.29282       -5.55895
|  9> H          1.80103       -1.30430       -6.28913
| 10> H          3.71612       -2.62880       -3.82953
| 11> H          0.39583       -3.62775       -4.18502
| 12> H          0.03920       -2.45438       -5.37137
| 13> C          2.19120       -1.61950       -1.71549
| 14> H          2.87278       -3.66637       -1.82801
| 15> H          1.24619       -3.44744       -2.40784
| 16> H          1.56387       -0.96046       -2.27853
| 17> H          3.18033       -1.21449       -1.66568
| 18> H          1.79916       -1.72608       -0.72562
| 19> *
| 20>
| 21> %MaxCore 64000
| 22>
| 23> %pal nprocs 4
| 24> end
| 25>
| 26> %scf
| 27>   MaxIter 150
| 28> end
| 29>
| 30>
| 31>                          ****END OF INPUT****

CARTESIAN COORDINATES (ANGSTROEM)
---------------------------------
  C      2.234470   -2.989750   -2.397620
  N      2.756800   -2.945550   -3.765030
  C      1.987210   -2.590450   -4.818980
  N      0.743220   -3.017490   -4.913520
  C      2.499640   -1.848600   -5.803240
  H      3.309780   -1.292820   -5.558950
  H      1.801030   -1.304300   -6.289130
  H      3.716120   -2.628800   -3.829530
  H      0.395830   -3.627750   -4.185020
  H      0.039200   -2.454380   -5.371370
  C      2.191200   -1.619500   -1.715490
  H      2.872780   -3.666370   -1.828010
  H      1.246190   -3.447440   -2.407840
  H      1.563870   -0.960460   -2.278530
  H      3.180330   -1.214490   -1.665680
  H      1.799160   -1.726080   -0.725620

 Total Charge           Charge          ....    0
 Multiplicity           Mult            ....    1
 Number of Electrons    NEL             ....   48
 Basis Dimension        Dim             ....  312

ORBITAL ENERGIES
----------------

  NO   OCC          E(Eh)            E(eV)
   0   2.0000     -14.009927      -381.2295
   1   2.0000     -14.007807      -381.1718
   2   2.0000      -9.948029      -270.6996
   3   2.0000      -9.944247      -270.5967
   4   2.0000      -9.896999      -269.3110
   5   2.0000      -9.819500      -267.2022
   6   2.0000      -0.880417       -23.9574
   7   2.0000      -0.805440       -21.9171
   8   2.0000      -0.691157       -18.8073
   9   2.0000      -0.634058       -17.2536
  10   2.0000      -0.564216       -15.3531
  11   2.0000      -0.540657       -14.7120
  12   2.0000      -0.483425       -13.1547
  13   2.0000      -0.439544       -11.9606
  14   2.0000      -0.436293       -11.8721
  15   2.0000      -0.389613       -10.6019
  16   2.0000      -0.377513       -10.2727
  17   2.0000      -0.352989        -9.6053
  18   2.0000      -0.331742        -9.0272
  19   2.0000      -0.321364        -8.7448
  20   2.0000      -0.317498        -8.6396
  21   2.0000      -0.309206        -8.4139
  22   2.0000      -0.212006        -5.7690
  23   2.0000      -0.138368        -3.7652
  24   0.0000      -0.021583        -0.5873
  25   0.0000       0.003434         0.0934
  26   0.0000       0.006214         0.1691
  27   0.0000       0.013694         0.3726
  28   0.0000       0.029275         0.7966

MULLIKEN ATOMIC CHARGES
-----------------------
   0 C :   -0.311428
   1 N :   -0.190419
   2 C :    0.529846
   3 N :   -0.325548
   4 C :   -0.965454
   5 H :    0.229693
   6 H :    0.230639
   7 H :    0.165310
   8 H :    0.174822
   9 H :    0.147431
  10 C :   -1.133822
  11 H :    0.270715
  12 H :    0.221353
  13 H :    0.306148
  14 H :    0.303103
  15 H :    0.347610
Sum of atomic charges:    0.0000000

LOEWDIN ATOMIC CHARGES
----------------------
   0 C :   -0.241056
   1 N :    0.030009
   2 C :   -0.572655
   3 N :    0.138866
   4 C :    0.000095
   5 H :    0.002306
   6 H :    0.003494
   7 H :    0.130163
   8 H :    0.088990
   9 H :    0.110672
  10 C :   -0.073168
  11 H :    0.104843
  12 H :    0.091769
  13 H :    0.063295
  14 H :    0.062188
  15 H :    0.060188

  Mayer bond orders larger than 0.100000
B(  0-C ,  1-N ) :   0.8349 B(  0-C , 10-C ) :   0.5493 B(  0-C , 11-H ) :   0.9447
B(  0-C , 12-H ) :   0.9391 B(  1-N ,  2-C ) :   1.0621 B(  1-N ,  7-H ) :   0.9023
B(  2-C ,  3-N ) :   0.9525 B(  2-C ,  4-C ) :   1.1932 B(  2-C ,  5-H ) :  -0.1067
B(  3-N ,  8-H ) :   0.9540 B(  3-N ,  9-H ) :   0.9903 B(  4-C ,  5-H ) :   1.1519
B(  4-C ,  6-H ) :   1.0902 B( 10-C , 13-H ) :   0.9740 B( 10-C , 14-H ) :   0.9711
B( 10-C , 15-H ) :   0.9476

Dispersion correction           -0.025912518
FINAL SINGLE POINT ENERGY      -267.897318811657

DIPOLE MOMENT
-------------
                                X             Y             Z
Electronic contribution:     -0.10530      -2.40720      -2.98694
Nuclear contribution   :     -0.49695       2.43650       4.23017
                        -----------------------------------------
Total Dipole Moment    :     -0.60225       0.02930       1.24323
                        -----------------------------------------
Magnitude (a.u.)       :      1.38173
Magnitude (Debye)      :      3.51207

Rotational constants in cm-1:     0.211102     0.077011     0.069221
Rotational constants in MHz :  6328.667765  2308.731604  2075.192956

                             ****ORCA TERMINATED NORMALLY****
TOTAL RUN TIME: 0 days 0 hours 0 minutes 27 seconds 302 msec
