                         Program Version 5.0.0 -  RELEASE  -
|  1> !BLYP D3BJ RIJCOSX def2-TZVPD def2/J TightSCF xyzfile
|  2>
|  3> *xyzfile 0 1 D1.xyz
|  4>
|  5> %MaxCore 64000
|  6>
|  7> %pal nprocs 4
|  8> end
|  9>
| 10> %scf
| 11>   MaxIter 150
| 12> end
| 13>
| 14>
| 15>                          ****END OF INPUT****

CARTESIAN COORDINATES (ANGSTROEM)
---------------------------------
  C      2.234473   -2.989754   -2.397622
  C      2.756799   -2.945553   -3.765029
  C     -1.104325    0.251374   -2.860056
  C     -0.711893    0.842517   -4.218344
  H      0.154626    1.499800   -4.130909
  H     -1.538134    1.459222   -4.582671
  C     -0.397624   -0.205875   -5.288018
  C      1.987208   -2.590451   -4.818975
  N      0.743221   -3.017493   -4.913524
  N      2.499636   -1.848598   -5.803241
  H      3.309780   -1.292818   -5.558947
  H      1.801025   -1.304298   -6.289129
  H      3.716116   -2.628797   -3.829533
  H      0.395828   -3.627747   -4.185024
  H      0.039201   -2.454383   -5.371367
  F      0.617165   -0.005348   -5.998273
  O     -1.133173   -1.221380   -5.341465
  C      2.191199   -1.619503   -1.715492
  H      2.872783   -3.666368   -1.828014
  H      1.246188   -3.447444   -2.407842
  C      1.298729   -0.554314   -2.359773
  H      1.872917   -1.787955   -0.681310
  H      3.216809   -1.238432   -1.654428
  C     -0.196255   -0.863365   -2.325763
  H      1.612531   -0.371346   -3.393065
  H      1.480944    0.388638   -1.834444
  H     -0.404105   -1.761825   -2.909448
  H     -0.490439   -1.087880   -1.294131
  H     -1.143842    1.066711   -2.129680
  H     -2.114401   -0.156834   -2.930323

 Total Charge           Charge          ....    0
 Multiplicity           Mult            ....    1
 Number of Electrons    NEL             ....  102
 Basis Dimension        Dim             ....  640

ORBITAL ENERGIES
----------------

  NO   OCC          E(Eh)            E(eV)
   0   2.0000     -24.382745      -663.4882
   1   2.0000     -18.803415      -511.6669
   2   2.0000     -13.996680      -380.8690
   3   2.0000     -13.986803      -380.6003
   4   2.0000     -10.095210      -274.7046
   5   2.0000      -9.945002      -270.6172
   6   2.0000      -9.939102      -270.4567
   7   2.0000      -9.921279      -269.9717
   8   2.0000      -9.902499      -269.4607
   9   2.0000      -9.899595      -269.3817
  10   2.0000      -9.888881      -269.0901
  11   2.0000      -9.879416      -268.8326
  12   2.0000      -9.826685      -267.3977
  13   2.0000      -1.240876       -33.7659
  14   2.0000      -0.970957       -26.4211
  15   2.0000      -0.870457       -23.6864
  16   2.0000      -0.784933       -21.3591
  17   2.0000      -0.747030       -20.3277
  18   2.0000      -0.710792       -19.3416
  19   2.0000      -0.676958       -18.4210
  20   2.0000      -0.636530       -17.3209
  21   2.0000      -0.617472       -16.8023
  22   2.0000      -0.584437       -15.9033
  23   2.0000      -0.548364       -14.9217
  24   2.0000      -0.524184       -14.2638
  25   2.0000      -0.518683       -14.1141
  26   2.0000      -0.503085       -13.6896
  27   2.0000      -0.488991       -13.3061
  28   2.0000      -0.480919       -13.0865
  29   2.0000      -0.459200       -12.4955
  30   2.0000      -0.440640       -11.9904
  31   2.0000      -0.426147       -11.5961
  32   2.0000      -0.420962       -11.4550
  33   2.0000      -0.408125       -11.1056
  34   2.0000      -0.390996       -10.6395
  35   2.0000      -0.386938       -10.5291
  36   2.0000      -0.371566       -10.1108
  37   2.0000      -0.358169        -9.7463
  38   2.0000      -0.346309        -9.4235
  39   2.0000      -0.340682        -9.2704
  40   2.0000      -0.329263        -8.9597
  41   2.0000      -0.318923        -8.6783
  42   2.0000      -0.313213        -8.5230
  43   2.0000      -0.303486        -8.2583
  44   2.0000      -0.294110        -8.0031
  45   2.0000      -0.282626        -7.6906
  46   2.0000      -0.272463        -7.4141
  47   2.0000      -0.266795        -7.2599
  48   2.0000      -0.264234        -7.1902
  49   2.0000      -0.214679        -5.8417
  50   2.0000      -0.122128        -3.3233
  51   0.0000      -0.088394        -2.4053
  52   0.0000      -0.022925        -0.6238
  53   0.0000      -0.004014        -0.1092
  54   0.0000       0.001020         0.0278
  55   0.0000       0.002439         0.0664

MULLIKEN ATOMIC CHARGES
-----------------------
   0 C :   -0.372968
   1 C :   -0.668849
   2 C :   -0.537875
   3 C :   -0.495610
   4 H :    0.296260
   5 H :    0.289842
   6 C :    0.734442
   7 C :    0.050161
   8 N :   -0.420550
   9 N :   -0.544852
  10 H :    0.166583
  11 H :    0.336284
  12 H :    0.376761
  13 H :    0.194515
  14 H :    0.335308
  15 F :   -0.319225
  16 O :   -0.615576
  17 C :   -0.646244
  18 H :    0.166586
  19 H :    0.350246
  20 C :   -0.457304
  21 H :    0.254146
  22 H :    0.276229
  23 C :   -0.406252
  24 H :    0.294827
  25 H :    0.304746
  26 H :    0.246415
  27 H :    0.293323
  28 H :    0.254659
  29 H :    0.263972
Sum of atomic charges:    0.0000000

LOEWDIN ATOMIC CHARGES
----------------------
   0 C :   -0.232993
   1 C :   -0.114510
   2 C :   -0.184094
   3 C :   -0.097149
   4 H :    0.111534
   5 H :    0.124319
   6 C :   -0.481753
   7 C :   -0.547518
   8 N :    0.162195
   9 N :    0.140925
  10 H :    0.105940
  11 H :    0.064917
  12 H :    0.057171
  13 H :    0.107000
  14 H :    0.041000
  15 F :    0.205875
  16 O :    0.090382
  17 C :   -0.189853
  18 H :    0.098833
  19 H :    0.087928
  20 C :   -0.197968
  21 H :    0.103061
  22 H :    0.107069
  23 C :   -0.198198
  24 H :    0.095092
  25 H :    0.112370
  26 H :    0.089206
  27 H :    0.116826
  28 H :    0.112436
  29 H :    0.109955

  Mayer bond orders larger than 0.100000
B(  0-C ,  1-C ) :   0.7346 B(  0-C , 17-C ) :   0.6572 B(  0-C , 18-H ) :   1.1392
B(  0-C , 19-H ) :   0.8196 B(  0-C , 20-C ) :  -0.1017 B(  0-C , 23-C ) :   0.1575
B(  1-C ,  7-C ) :   1.3541 B(  1-C , 12-H ) :   1.0444 B(  2-C ,  3-C ) :   0.8325
B(  2-C , 20-C ) :   0.1380 B(  2-C , 23-C ) :   0.8439 B(  2-C , 28-H ) :   0.9617
B(  2-C , 29-H ) :   0.9097 B(  3-C ,  4-H ) :   0.9419 B(  3-C ,  5-H ) :   0.9014
B(  3-C ,  6-C ) :   0.9413 B(  3-C , 20-C ) :   0.1647 B(  6-C , 15-F ) :   0.7458
B(  6-C , 16-O ) :   1.4968 B(  7-C ,  8-N ) :   1.0267 B(  7-C ,  9-N ) :   0.8629
B(  7-C , 12-H ) :  -0.1369 B(  8-N , 13-H ) :   0.8672 B(  8-N , 14-H ) :   0.6683
B(  9-N , 10-H ) :   0.9363 B(  9-N , 11-H ) :   0.6850 B( 17-C , 20-C ) :   0.9345
B( 17-C , 21-H ) :   0.9307 B( 17-C , 22-H ) :   0.9446 B( 17-C , 23-C ) :   0.1846
B( 20-C , 23-C ) :   0.2347 B( 20-C , 24-H ) :   1.0614 B( 20-C , 25-H ) :   0.8497
B( 20-C , 26-H ) :  -0.1545 B( 23-C , 24-H ) :  -0.1657 B( 23-C , 26-H ) :   1.1448
B( 23-C , 27-H ) :   0.8475

Dispersion correction           -0.070184665
FINAL SINGLE POINT ENERGY      -637.775028728145

DIPOLE MOMENT
-------------
                                X             Y             Z
Electronic contribution:     -2.96676       2.06587     -14.51728
Nuclear contribution   :      2.31842      -0.27661      14.74721
                        -----------------------------------------
Total Dipole Moment    :     -0.64834       1.78926       0.22993
                        -----------------------------------------
Magnitude (a.u.)       :      1.91694
Magnitude (Debye)      :      4.87247

Rotational constants in cm-1:     0.032691     0.023990     0.017099
Rotational constants in MHz :   980.050971   719.190545   512.606858

                             ****ORCA TERMINATED NORMALLY****
TOTAL RUN TIME: 0 days 0 hours 1 minutes 33 seconds 209 msec
