                         Program Version 5.0.0 -  RELEASE  -
|  1> !BLYP D3BJ RIJCOSX def2-TZVPD def2/J TightSCF xyzfile
|  2>
|  3> *xyzfile 0 1 D2.xyz
|  4>
|  5> %MaxCore 64000
|  6>
|  7> %pal nprocs 4
|  8> end
|  9>
| 10> %scf
| 11>   MaxIter 150
| 12> end
| 13>
| 14>
| 15>                          ****END OF INPUT****

CARTESIAN COORDINATES (ANGSTROEM)
---------------------------------
  C      2.234473   -2.989754   -2.397622
  N      2.756799   -2.945553   -3.765029
  C     -1.104325    0.251374   -2.860056
  C     -0.711893    0.842517   -4.218344
  H      0.154626    1.499800   -4.130909
  H     -1.538134    1.459222   -4.582671
  C     -0.397624   -0.205875   -5.288018
  C      1.987208   -2.590451   -4.818975
  C      0.743221   -3.017493   -4.913524
  N      2.499636   -1.848598   -5.803241
  H      3.309780   -1.292818   -5.558947
  H      1.801025   -1.304298   -6.289129
  H      3.716116   -2.628797   -3.829533
  H      0.395828   -3.627747   -4.185024
  H      0.039201   -2.454383   -5.371367
  F      0.617165   -0.005348   -5.998273
  O     -1.133173   -1.221380   -5.341465
  C      2.191199   -1.619503   -1.715492
  H      2.872783   -3.666368   -1.828014
  H      1.246188   -3.447444   -2.407842
  C      1.298729   -0.554314   -2.359773
  H      1.872917   -1.787955   -0.681310
  H      3.216809   -1.238432   -1.654428
  C     -0.196255   -0.863365   -2.325763
  H      1.612531   -0.371346   -3.393065
  H      1.480944    0.388638   -1.834444
  H     -0.404105   -1.761825   -2.909448
  H     -0.490439   -1.087880   -1.294131
  H     -1.143842    1.066711   -2.129680
  H     -2.114401   -0.156834   -2.930323

 Total Charge           Charge          ....    0
 Multiplicity           Mult            ....    1
 Number of Electrons    NEL             ....  102
 Basis Dimension        Dim             ....  640

ORBITAL ENERGIES
----------------

  NO   OCC          E(Eh)            E(eV)
   0   2.0000     -24.370047      -663.1427
   1   2.0000     -18.783718      -511.1309
   2   2.0000     -14.000104      -380.9622
   3   2.0000     -13.992244      -380.7483
   4   2.0000     -10.082084      -274.3475
   5   2.0000      -9.937724      -270.4192
   6   2.0000      -9.931872      -270.2600
   7   2.0000      -9.931461      -270.2488
   8   2.0000      -9.916924      -269.8532
   9   2.0000      -9.905963      -269.5550
  10   2.0000      -9.905578      -269.5445
  11   2.0000      -9.899473      -269.3783
  12   2.0000      -9.802385      -266.7365
  13   2.0000      -1.228266       -33.4228
  14   2.0000      -0.951697       -25.8970
  15   2.0000      -0.869271       -23.6541
  16   2.0000      -0.797359       -21.6973
  17   2.0000      -0.741866       -20.1872
  18   2.0000      -0.706590       -19.2273
  19   2.0000      -0.659845       -17.9553
  20   2.0000      -0.635212       -17.2850
  21   2.0000      -0.619589       -16.8599
  22   2.0000      -0.594006       -16.1637
  23   2.0000      -0.553296       -15.0560
  24   2.0000      -0.523447       -14.2437
  25   2.0000      -0.504271       -13.7219
  26   2.0000      -0.487857       -13.2753
  27   2.0000      -0.479478       -13.0473
  28   2.0000      -0.476084       -12.9549
  29   2.0000      -0.463964       -12.6251
  30   2.0000      -0.439311       -11.9543
  31   2.0000      -0.426727       -11.6118
  32   2.0000      -0.416976       -11.3465
  33   2.0000      -0.398018       -10.8306
  34   2.0000      -0.391818       -10.6619
  35   2.0000      -0.376578       -10.2472
  36   2.0000      -0.365705        -9.9513
  37   2.0000      -0.358191        -9.7469
  38   2.0000      -0.346329        -9.4241
  39   2.0000      -0.337402        -9.1812
  40   2.0000      -0.328614        -8.9420
  41   2.0000      -0.321672        -8.7531
  42   2.0000      -0.312030        -8.4908
  43   2.0000      -0.310660        -8.4535
  44   2.0000      -0.298799        -8.1307
  45   2.0000      -0.289375        -7.8743
  46   2.0000      -0.279592        -7.6081
  47   2.0000      -0.277856        -7.5609
  48   2.0000      -0.237476        -6.4621
  49   2.0000      -0.200219        -5.4482
  50   2.0000      -0.129810        -3.5323
  51   0.0000      -0.074178        -2.0185
  52   0.0000      -0.022559        -0.6139
  53   0.0000      -0.007981        -0.2172
  54   0.0000      -0.003624        -0.0986
  55   0.0000       0.008682         0.2362

MULLIKEN ATOMIC CHARGES
-----------------------
   0 C :   -0.541147
   1 N :   -0.173313
   2 C :   -0.559484
   3 C :   -0.548237
   4 H :    0.291004
   5 H :    0.303093
   6 C :    0.731621
   7 C :    0.142133
   8 C :   -1.555378
   9 N :   -0.472663
  10 H :    0.164277
  11 H :    0.260825
  12 H :    0.157506
  13 H :    0.556750
  14 H :    0.821337
  15 F :   -0.331664
  16 O :   -0.559649
  17 C :   -0.629749
  18 H :    0.251077
  19 H :    0.249425
  20 C :   -0.310987
  21 H :    0.281591
  22 H :    0.246399
  23 C :   -0.391980
  24 H :    0.204376
  25 H :    0.339077
  26 H :    0.255040
  27 H :    0.289226
  28 H :    0.251429
  29 H :    0.278064
Sum of atomic charges:    0.0000000

LOEWDIN ATOMIC CHARGES
----------------------
   0 C :   -0.186572
   1 N :    0.041923
   2 C :   -0.182857
   3 C :   -0.097686
   4 H :    0.109282
   5 H :    0.123411
   6 C :   -0.478943
   7 C :   -0.559138
   8 C :    0.020469
   9 N :    0.132630
  10 H :    0.090617
  11 H :    0.071832
  12 H :    0.121994
  13 H :    0.025847
  14 H :   -0.019057
  15 F :    0.206898
  16 O :    0.091559
  17 C :   -0.178425
  18 H :    0.109557
  19 H :    0.102011
  20 C :   -0.197370
  21 H :    0.107040
  22 H :    0.103505
  23 C :   -0.196305
  24 H :    0.094571
  25 H :    0.112820
  26 H :    0.092763
  27 H :    0.115876
  28 H :    0.110856
  29 H :    0.110892

  Mayer bond orders larger than 0.100000
B(  0-C ,  1-N ) :   0.8044 B(  0-C , 17-C ) :   0.7127 B(  0-C , 18-H ) :   0.9574
B(  0-C , 19-H ) :   0.9360 B(  0-C , 20-C ) :  -0.1098 B(  0-C , 23-C ) :   0.1496
B(  1-N ,  7-C ) :   0.9688 B(  1-N ,  9-N ) :   0.1046 B(  1-N , 12-H ) :   0.8964
B(  2-C ,  3-C ) :   0.8380 B(  2-C , 20-C ) :   0.1497 B(  2-C , 23-C ) :   0.8343
B(  2-C , 28-H ) :   0.9726 B(  2-C , 29-H ) :   0.8898 B(  3-C ,  4-H ) :   0.9466
B(  3-C ,  5-H ) :   0.8933 B(  3-C ,  6-C ) :   0.9364 B(  3-C , 20-C ) :   0.1726
B(  6-C , 15-F ) :   0.7084 B(  6-C , 16-O ) :   1.6687 B(  7-C ,  8-C ) :   1.7134
B(  7-C ,  9-N ) :   0.7823 B(  7-C , 14-H ) :  -0.2451 B(  8-C , 13-H ) :   0.8392
B(  8-C , 14-H ) :   0.3824 B(  9-N , 10-H ) :   0.9215 B(  9-N , 11-H ) :   0.7741
B( 13-H , 14-H ) :   0.2226 B( 14-H , 16-O ) :  -0.1078 B( 17-C , 20-C ) :   0.8845
B( 17-C , 21-H ) :   0.9528 B( 17-C , 22-H ) :   0.9621 B( 17-C , 23-C ) :   0.1780
B( 20-C , 23-C ) :   0.2451 B( 20-C , 24-H ) :   1.1081 B( 20-C , 25-H ) :   0.8076
B( 20-C , 26-H ) :  -0.1613 B( 23-C , 24-H ) :  -0.1589 B( 23-C , 26-H ) :   1.1299
B( 23-C , 27-H ) :   0.8453

Dispersion correction           -0.070304254
FINAL SINGLE POINT ENERGY      -637.755120265925

DIPOLE MOMENT
-------------
                                X             Y             Z
Electronic contribution:     -1.51947       2.08954     -13.57475
Nuclear contribution   :      2.00823      -0.28769      14.57028
                        -----------------------------------------
Total Dipole Moment    :      0.48876       1.80186       0.99553
                        -----------------------------------------
Magnitude (a.u.)       :      2.11581
Magnitude (Debye)      :      5.37796

Rotational constants in cm-1:     0.033070     0.023715     0.016943
Rotational constants in MHz :   991.423248   710.957140   507.940500

                             ****ORCA TERMINATED NORMALLY****
TOTAL RUN TIME: 0 days 0 hours 1 minutes 27 seconds 975 msec
