                         Program Version 5.0.0 -  RELEASE  -
|  1> !BLYP D3BJ RIJCOSX def2-TZVPD def2/J TightSCF xyzfile
|  2>
|  3> *xyzfile 0 1 D3.xyz
|  4>
|  5> %MaxCore 64000
|  6>
|  7> %pal nprocs 4
|  8> end
|  9>
| 10> %scf
| 11>   MaxIter 150
| 12> end
| 13>
| 14>
| 15>                          ****END OF INPUT****

CARTESIAN COORDINATES (ANGSTROEM)
---------------------------------
  C      2.234473   -2.989754   -2.397622
  N      2.756799   -2.945553   -3.765029
  C     -1.104325    0.251374   -2.860056
  C     -0.711893    0.842517   -4.218344
  H      0.154626    1.499800   -4.130909
  H     -1.538134    1.459222   -4.582671
  C     -0.397624   -0.205875   -5.288018
  C      1.987208   -2.590451   -4.818975
  N      0.743221   -3.017493   -4.913524
  C      2.499636   -1.848598   -5.803241
  H      3.309780   -1.292818   -5.558947
  H      1.801025   -1.304298   -6.289129
  H      3.716116   -2.628797   -3.829533
  H      0.395828   -3.627747   -4.185024
  H      0.039201   -2.454383   -5.371367
  F      0.617165   -0.005348   -5.998273
  O     -1.133173   -1.221380   -5.341465
  C      2.191199   -1.619503   -1.715492
  H      2.872783   -3.666368   -1.828014
  H      1.246188   -3.447444   -2.407842
  C      1.298729   -0.554314   -2.359773
  H      1.872917   -1.787955   -0.681310
  H      3.216809   -1.238432   -1.654428
  C     -0.196255   -0.863365   -2.325763
  H      1.612531   -0.371346   -3.393065
  H      1.480944    0.388638   -1.834444
  H     -0.404105   -1.761825   -2.909448
  H     -0.490439   -1.087880   -1.294131
  H     -1.143842    1.066711   -2.129680
  H     -2.114401   -0.156834   -2.930323

 Total Charge           Charge          ....    0
 Multiplicity           Mult            ....    1
 Number of Electrons    NEL             ....  102
 Basis Dimension        Dim             ....  640

ORBITAL ENERGIES
----------------

  NO   OCC          E(Eh)            E(eV)
   0   2.0000     -24.364261      -662.9853
   1   2.0000     -18.797295      -511.5004
   2   2.0000     -13.999279      -380.9397
   3   2.0000     -13.982287      -380.4774
   4   2.0000     -10.092516      -274.6313
   5   2.0000      -9.942900      -270.5601
   6   2.0000      -9.938313      -270.4353
   7   2.0000      -9.935795      -270.3667
   8   2.0000      -9.923411      -270.0297
   9   2.0000      -9.908559      -269.6256
  10   2.0000      -9.908393      -269.6211
  11   2.0000      -9.907949      -269.6090
  12   2.0000      -9.805869      -266.8313
  13   2.0000      -1.223579       -33.2953
  14   2.0000      -0.965415       -26.2703
  15   2.0000      -0.868245       -23.6262
  16   2.0000      -0.792368       -21.5614
  17   2.0000      -0.748146       -20.3581
  18   2.0000      -0.711782       -19.3686
  19   2.0000      -0.669562       -18.2197
  20   2.0000      -0.636224       -17.3125
  21   2.0000      -0.617273       -16.7969
  22   2.0000      -0.585107       -15.9216
  23   2.0000      -0.552445       -15.0328
  24   2.0000      -0.533076       -14.5057
  25   2.0000      -0.517881       -14.0923
  26   2.0000      -0.496650       -13.5145
  27   2.0000      -0.476783       -12.9739
  28   2.0000      -0.471608       -12.8331
  29   2.0000      -0.469125       -12.7655
  30   2.0000      -0.437914       -11.9162
  31   2.0000      -0.427600       -11.6356
  32   2.0000      -0.421070       -11.4579
  33   2.0000      -0.410832       -11.1793
  34   2.0000      -0.396257       -10.7827
  35   2.0000      -0.385546       -10.4912
  36   2.0000      -0.363994        -9.9048
  37   2.0000      -0.361187        -9.8284
  38   2.0000      -0.344237        -9.3672
  39   2.0000      -0.334685        -9.1072
  40   2.0000      -0.331289        -9.0148
  41   2.0000      -0.324715        -8.8359
  42   2.0000      -0.317071        -8.6280
  43   2.0000      -0.310595        -8.4517
  44   2.0000      -0.300643        -8.1809
  45   2.0000      -0.293495        -7.9864
  46   2.0000      -0.287311        -7.8181
  47   2.0000      -0.284221        -7.7341
  48   2.0000      -0.261569        -7.1177
  49   2.0000      -0.197824        -5.3831
  50   2.0000      -0.127162        -3.4603
  51   0.0000      -0.083041        -2.2597
  52   0.0000      -0.020030        -0.5450
  53   0.0000      -0.008378        -0.2280
  54   0.0000      -0.004769        -0.1298
  55   0.0000       0.003507         0.0954

MULLIKEN ATOMIC CHARGES
-----------------------
   0 C :   -0.643056
   1 N :   -0.187637
   2 C :   -0.512106
   3 C :   -0.544793
   4 H :    0.293143
   5 H :    0.300459
   6 C :    0.730703
   7 C :    0.194300
   8 N :   -0.423302
   9 C :   -1.110670
  10 H :    0.272403
  11 H :    0.504222
  12 H :    0.182943
  13 H :    0.201908
  14 H :    0.328673
  15 F :   -0.272962
  16 O :   -0.626309
  17 C :   -0.579739
  18 H :    0.245304
  19 H :    0.266889
  20 C :   -0.382453
  21 H :    0.281106
  22 H :    0.248540
  23 C :   -0.406076
  24 H :    0.264526
  25 H :    0.323594
  26 H :    0.239554
  27 H :    0.286770
  28 H :    0.254615
  29 H :    0.269450
Sum of atomic charges:   -0.0000000

LOEWDIN ATOMIC CHARGES
----------------------
   0 C :   -0.191821
   1 N :    0.046710
   2 C :   -0.183202
   3 C :   -0.093609
   4 H :    0.112965
   5 H :    0.125118
   6 C :   -0.471016
   7 C :   -0.565156
   8 N :    0.156625
   9 C :    0.000562
  10 H :    0.010405
  11 H :   -0.010653
  12 H :    0.130640
  13 H :    0.096903
  14 H :    0.048724
  15 F :    0.210789
  16 O :    0.091222
  17 C :   -0.178094
  18 H :    0.108466
  19 H :    0.097086
  20 C :   -0.194462
  21 H :    0.105699
  22 H :    0.106720
  23 C :   -0.200282
  24 H :    0.098622
  25 H :    0.114084
  26 H :    0.088584
  27 H :    0.115554
  28 H :    0.112399
  29 H :    0.110418

  Mayer bond orders larger than 0.100000
B(  0-C ,  1-N ) :   0.8766 B(  0-C , 17-C ) :   0.6635 B(  0-C , 18-H ) :   0.9937
B(  0-C , 19-H ) :   0.9299 B(  0-C , 23-C ) :   0.1483 B(  1-N ,  7-C ) :   1.0290
B(  1-N , 12-H ) :   0.8464 B(  2-C ,  3-C ) :   0.8332 B(  2-C , 20-C ) :   0.1288
B(  2-C , 23-C ) :   0.8245 B(  2-C , 28-H ) :   0.9649 B(  2-C , 29-H ) :   0.9035
B(  3-C ,  4-H ) :   0.9427 B(  3-C ,  5-H ) :   0.8901 B(  3-C ,  6-C ) :   0.9463
B(  3-C , 20-C ) :   0.1568 B(  6-C , 15-F ) :   0.8139 B(  6-C , 16-O ) :   1.4989
B(  7-C ,  8-N ) :   0.8643 B(  7-C ,  9-C ) :   1.3951 B(  7-C , 10-H ) :  -0.1765
B(  7-C , 11-H ) :  -0.1201 B(  8-N , 13-H ) :   0.8379 B(  8-N , 14-H ) :   0.6947
B(  9-C , 10-H ) :   1.2798 B(  9-C , 11-H ) :   0.7087 B( 15-F , 16-O ) :   0.1006
B( 17-C , 20-C ) :   0.8990 B( 17-C , 21-H ) :   0.9720 B( 17-C , 22-H ) :   0.9538
B( 17-C , 23-C ) :   0.1682 B( 20-C , 23-C ) :   0.2632 B( 20-C , 24-H ) :   1.0802
B( 20-C , 25-H ) :   0.8128 B( 20-C , 26-H ) :  -0.1637 B( 23-C , 24-H ) :  -0.1507
B( 23-C , 26-H ) :   1.1342 B( 23-C , 27-H ) :   0.8580

Dispersion correction           -0.070003327
FINAL SINGLE POINT ENERGY      -637.760576710621

DIPOLE MOMENT
-------------
                                X             Y             Z
Electronic contribution:     -2.86973       1.30034     -12.79893
Nuclear contribution   :      2.27881      -0.10762      14.43322
                        -----------------------------------------
Total Dipole Moment    :     -0.59092       1.19273       1.63428
                        -----------------------------------------
Magnitude (a.u.)       :      2.10776
Magnitude (Debye)      :      5.35751

Rotational constants in cm-1:     0.033336     0.023673     0.017062
Rotational constants in MHz :   999.388459   709.685364   511.514310

                             ****ORCA TERMINATED NORMALLY****
TOTAL RUN TIME: 0 days 0 hours 1 minutes 21 seconds 511 msec
