                         Program Version 5.0.0 -  RELEASE  -
|  1> !BLYP D3BJ RIJCOSX def2-TZVPD def2/J TightSCF xyzfile
|  2>
|  3> *xyzfile 0 1 D4.xyz
|  4>
|  5> %MaxCore 64000
|  6>
|  7> %pal nprocs 4
|  8> end
|  9>
| 10> %scf
| 11>   MaxIter 150
| 12> end
| 13>
| 14>
| 15>                          ****END OF INPUT****

CARTESIAN COORDINATES (ANGSTROEM)
---------------------------------
  C      2.234473   -2.989754   -2.397622
  C      2.756799   -2.945553   -3.765029
  C     -1.104325    0.251374   -2.860056
  C     -0.711893    0.842517   -4.218344
  H      0.154626    1.499800   -4.130909
  H     -1.538134    1.459222   -4.582671
  C     -0.397624   -0.205875   -5.288018
  C      1.987208   -2.590451   -4.818975
  N      0.743221   -3.017493   -4.913524
  N      2.499636   -1.848598   -5.803241
  H      3.309780   -1.292818   -5.558947
  H      1.801025   -1.304298   -6.289129
  H      3.716116   -2.628797   -3.829533
  H      0.395828   -3.627747   -4.185024
  H      0.039201   -2.454383   -5.371367
  O      0.617165   -0.005348   -5.998273
  F     -1.133173   -1.221380   -5.341465
  C      2.191199   -1.619503   -1.715492
  H      2.872783   -3.666368   -1.828014
  H      1.246188   -3.447444   -2.407842
  C      1.298729   -0.554314   -2.359773
  H      1.872917   -1.787955   -0.681310
  H      3.216809   -1.238432   -1.654428
  C     -0.196255   -0.863365   -2.325763
  H      1.612531   -0.371346   -3.393065
  H      1.480944    0.388638   -1.834444
  H     -0.404105   -1.761825   -2.909448
  H     -0.490439   -1.087880   -1.294131
  H     -1.143842    1.066711   -2.129680
  H     -2.114401   -0.156834   -2.930323

 Total Charge           Charge          ....    0
 Multiplicity           Mult            ....    1
 Number of Electrons    NEL             ....  102
 Basis Dimension        Dim             ....  640

ORBITAL ENERGIES
----------------

  NO   OCC          E(Eh)            E(eV)
   0   2.0000     -24.383903      -663.5197
   1   2.0000     -18.803165      -511.6601
   2   2.0000     -13.997599      -380.8940
   3   2.0000     -13.983795      -380.5184
   4   2.0000     -10.095245      -274.7056
   5   2.0000      -9.944201      -270.5955
   6   2.0000      -9.937239      -270.4060
   7   2.0000      -9.924786      -270.0672
   8   2.0000      -9.907688      -269.6019
   9   2.0000      -9.898008      -269.3385
  10   2.0000      -9.887989      -269.0659
  11   2.0000      -9.879083      -268.8235
  12   2.0000      -9.824519      -267.3388
  13   2.0000      -1.242839       -33.8194
  14   2.0000      -0.968980       -26.3673
  15   2.0000      -0.868588       -23.6355
  16   2.0000      -0.782994       -21.3064
  17   2.0000      -0.750661       -20.4265
  18   2.0000      -0.710778       -19.3413
  19   2.0000      -0.676097       -18.3975
  20   2.0000      -0.633075       -17.2269
  21   2.0000      -0.617558       -16.8046
  22   2.0000      -0.587410       -15.9842
  23   2.0000      -0.549541       -14.9538
  24   2.0000      -0.530137       -14.4258
  25   2.0000      -0.518975       -14.1220
  26   2.0000      -0.505389       -13.7523
  27   2.0000      -0.500325       -13.6145
  28   2.0000      -0.467050       -12.7091
  29   2.0000      -0.459728       -12.5098
  30   2.0000      -0.434223       -11.8158
  31   2.0000      -0.429024       -11.6743
  32   2.0000      -0.420897       -11.4532
  33   2.0000      -0.403605       -10.9826
  34   2.0000      -0.388675       -10.5764
  35   2.0000      -0.385620       -10.4932
  36   2.0000      -0.376613       -10.2482
  37   2.0000      -0.354611        -9.6495
  38   2.0000      -0.349033        -9.4977
  39   2.0000      -0.343338        -9.3427
  40   2.0000      -0.338648        -9.2151
  41   2.0000      -0.317679        -8.6445
  42   2.0000      -0.313361        -8.5270
  43   2.0000      -0.302279        -8.2254
  44   2.0000      -0.294937        -8.0256
  45   2.0000      -0.282308        -7.6820
  46   2.0000      -0.273101        -7.4314
  47   2.0000      -0.266146        -7.2422
  48   2.0000      -0.260843        -7.0979
  49   2.0000      -0.214239        -5.8297
  50   2.0000      -0.120291        -3.2733
  51   0.0000      -0.086108        -2.3431
  52   0.0000      -0.024873        -0.6768
  53   0.0000      -0.004612        -0.1255
  54   0.0000       0.001341         0.0365
  55   0.0000       0.002304         0.0627

MULLIKEN ATOMIC CHARGES
-----------------------
   0 C :   -0.370181
   1 C :   -0.638620
   2 C :   -0.582404
   3 C :   -0.422663
   4 H :    0.235687
   5 H :    0.308489
   6 C :    0.707854
   7 C :   -0.035257
   8 N :   -0.444181
   9 N :   -0.513550
  10 H :    0.158621
  11 H :    0.362249
  12 H :    0.372601
  13 H :    0.203023
  14 H :    0.368286
  15 O :   -0.616900
  16 F :   -0.331917
  17 C :   -0.642473
  18 H :    0.162374
  19 H :    0.345543
  20 C :   -0.453603
  21 H :    0.255583
  22 H :    0.275999
  23 C :   -0.390050
  24 H :    0.340843
  25 H :    0.307583
  26 H :    0.220202
  27 H :    0.289528
  28 H :    0.253793
  29 H :    0.273539
Sum of atomic charges:   -0.0000000

LOEWDIN ATOMIC CHARGES
----------------------
   0 C :   -0.234903
   1 C :   -0.114787
   2 C :   -0.190765
   3 C :   -0.091819
   4 H :    0.120012
   5 H :    0.122943
   6 C :   -0.482659
   7 C :   -0.547165
   8 N :    0.161836
   9 N :    0.143864
  10 H :    0.107252
  11 H :    0.047340
  12 H :    0.058146
  13 H :    0.105607
  14 H :    0.062002
  15 O :    0.083859
  16 F :    0.208249
  17 C :   -0.190235
  18 H :    0.098384
  19 H :    0.086125
  20 C :   -0.195756
  21 H :    0.102043
  22 H :    0.107804
  23 C :   -0.201200
  24 H :    0.098640
  25 H :    0.113230
  26 H :    0.086873
  27 H :    0.116339
  28 H :    0.112409
  29 H :    0.106331

  Mayer bond orders larger than 0.100000
B(  0-C ,  1-C ) :   0.7354 B(  0-C , 17-C ) :   0.6523 B(  0-C , 18-H ) :   1.1449
B(  0-C , 19-H ) :   0.8188 B(  0-C , 23-C ) :   0.1512 B(  1-C ,  7-C ) :   1.3468
B(  1-C , 12-H ) :   1.0431 B(  2-C ,  3-C ) :   0.7761 B(  2-C , 20-C ) :   0.1478
B(  2-C , 23-C ) :   0.7639 B(  2-C , 28-H ) :   0.9624 B(  2-C , 29-H ) :   0.9434
B(  3-C ,  4-H ) :   0.9996 B(  3-C ,  5-H ) :   0.8920 B(  3-C ,  6-C ) :   0.9352
B(  3-C , 20-C ) :   0.1403 B(  3-C , 23-C ) :  -0.1163 B(  6-C , 15-O ) :   1.4505
B(  6-C , 16-F ) :   0.7820 B(  7-C ,  8-N ) :   1.0585 B(  7-C ,  9-N ) :   0.9113
B(  7-C , 12-H ) :  -0.1252 B(  7-C , 20-C ) :   0.1143 B(  8-N , 13-H ) :   0.8670
B(  8-N , 14-H ) :   0.6343 B(  9-N , 10-H ) :   0.9320 B(  9-N , 11-H ) :   0.6667
B( 17-C , 20-C ) :   0.9231 B( 17-C , 21-H ) :   0.9325 B( 17-C , 22-H ) :   0.9438
B( 17-C , 23-C ) :   0.1959 B( 20-C , 23-C ) :   0.2394 B( 20-C , 24-H ) :   1.0517
B( 20-C , 25-H ) :   0.8358 B( 20-C , 26-H ) :  -0.1555 B( 23-C , 24-H ) :  -0.1539
B( 23-C , 26-H ) :   1.1460 B( 23-C , 27-H ) :   0.8638

Dispersion correction           -0.070146325
FINAL SINGLE POINT ENERGY      -637.774604395571

DIPOLE MOMENT
-------------
                                X             Y             Z
Electronic contribution:     -5.86629       0.08354     -13.44455
Nuclear contribution   :      4.38568       1.15960      13.97148
                        -----------------------------------------
Total Dipole Moment    :     -1.48060       1.24314       0.52693
                        -----------------------------------------
Magnitude (a.u.)       :      2.00381
Magnitude (Debye)      :      5.09327

Rotational constants in cm-1:     0.032892     0.023844     0.017123
Rotational constants in MHz :   986.091711   714.821905   513.334630

                             ****ORCA TERMINATED NORMALLY****
TOTAL RUN TIME: 0 days 0 hours 1 minutes 32 seconds 690 msec
