                         Program Version 5.0.0 -  RELEASE  -
|  1> !BLYP D3BJ RIJCOSX def2-TZVPD def2/J TightSCF xyzfile
|  2>
|  3> *xyzfile 0 1 D5.xyz
|  4>
|  5> %MaxCore 64000
|  6>
|  7> %pal nprocs 4
|  8> end
|  9>
| 10> %scf
| 11>   MaxIter 150
| 12> end
| 13>
| 14>
| 15>                          ****END OF INPUT****

CARTESIAN COORDINATES (ANGSTROEM)
---------------------------------
  C      2.234473   -2.989754   -2.397622
  N      2.756799   -2.945553   -3.765029
  C     -1.104325    0.251374   -2.860056
  C     -0.711893    0.842517   -4.218344
  H      0.154626    1.499800   -4.130909
  H     -1.538134    1.459222   -4.582671
  C     -0.397624   -0.205875   -5.288018
  C      1.987208   -2.590451   -4.818975
  C      0.743221   -3.017493   -4.913524
  N      2.499636   -1.848598   -5.803241
  H      3.309780   -1.292818   -5.558947
  H      1.801025   -1.304298   -6.289129
  H      3.716116   -2.628797   -3.829533
  H      0.395828   -3.627747   -4.185024
  H      0.039201   -2.454383   -5.371367
  O      0.617165   -0.005348   -5.998273
  F     -1.133173   -1.221380   -5.341465
  C      2.191199   -1.619503   -1.715492
  H      2.872783   -3.666368   -1.828014
  H      1.246188   -3.447444   -2.407842
  C      1.298729   -0.554314   -2.359773
  H      1.872917   -1.787955   -0.681310
  H      3.216809   -1.238432   -1.654428
  C     -0.196255   -0.863365   -2.325763
  H      1.612531   -0.371346   -3.393065
  H      1.480944    0.388638   -1.834444
  H     -0.404105   -1.761825   -2.909448
  H     -0.490439   -1.087880   -1.294131
  H     -1.143842    1.066711   -2.129680
  H     -2.114401   -0.156834   -2.930323

 Total Charge           Charge          ....    0
 Multiplicity           Mult            ....    1
 Number of Electrons    NEL             ....  102
 Basis Dimension        Dim             ....  640

ORBITAL ENERGIES
----------------

  NO   OCC          E(Eh)            E(eV)
   0   2.0000     -24.358099      -662.8176
   1   2.0000     -18.788727      -511.2673
   2   2.0000     -14.000776      -380.9805
   3   2.0000     -13.981683      -380.4609
   4   2.0000     -10.083587      -274.3884
   5   2.0000      -9.936613      -270.3890
   6   2.0000      -9.933835      -270.3134
   7   2.0000      -9.932879      -270.2874
   8   2.0000      -9.920059      -269.9385
   9   2.0000      -9.905613      -269.5454
  10   2.0000      -9.904459      -269.5140
  11   2.0000      -9.903822      -269.4967
  12   2.0000      -9.810595      -266.9598
  13   2.0000      -1.218651       -33.1612
  14   2.0000      -0.954892       -25.9839
  15   2.0000      -0.866508       -23.5789
  16   2.0000      -0.792091       -21.5539
  17   2.0000      -0.744979       -20.2719
  18   2.0000      -0.706416       -19.2226
  19   2.0000      -0.659789       -17.9538
  20   2.0000      -0.632449       -17.2098
  21   2.0000      -0.616292       -16.7702
  22   2.0000      -0.592517       -16.1232
  23   2.0000      -0.553138       -15.0516
  24   2.0000      -0.522614       -14.2210
  25   2.0000      -0.506964       -13.7952
  26   2.0000      -0.486739       -13.2448
  27   2.0000      -0.482033       -13.1168
  28   2.0000      -0.472420       -12.8552
  29   2.0000      -0.458095       -12.4654
  30   2.0000      -0.432148       -11.7593
  31   2.0000      -0.427090       -11.6217
  32   2.0000      -0.419163       -11.4060
  33   2.0000      -0.398588       -10.8461
  34   2.0000      -0.392214       -10.6727
  35   2.0000      -0.369863       -10.0645
  36   2.0000      -0.365999        -9.9594
  37   2.0000      -0.361554        -9.8384
  38   2.0000      -0.344282        -9.3684
  39   2.0000      -0.336391        -9.1537
  40   2.0000      -0.330348        -8.9892
  41   2.0000      -0.325434        -8.8555
  42   2.0000      -0.314491        -8.5577
  43   2.0000      -0.312920        -8.5150
  44   2.0000      -0.296131        -8.0581
  45   2.0000      -0.288495        -7.8503
  46   2.0000      -0.285271        -7.7626
  47   2.0000      -0.279604        -7.6084
  48   2.0000      -0.250722        -6.8225
  49   2.0000      -0.196457        -5.3459
  50   2.0000      -0.133657        -3.6370
  51   0.0000      -0.072469        -1.9720
  52   0.0000      -0.019813        -0.5392
  53   0.0000      -0.009486        -0.2581
  54   0.0000      -0.000465        -0.0126
  55   0.0000       0.008161         0.2221

MULLIKEN ATOMIC CHARGES
-----------------------
   0 C :   -0.547141
   1 N :   -0.166072
   2 C :   -0.605009
   3 C :   -0.472872
   4 H :    0.231486
   5 H :    0.321692
   6 C :    0.716550
   7 C :    0.146788
   8 C :   -1.466501
   9 N :   -0.449251
  10 H :    0.160758
  11 H :    0.284434
  12 H :    0.159236
  13 H :    0.596795
  14 H :    0.645971
  15 O :   -0.629151
  16 F :   -0.290045
  17 C :   -0.616155
  18 H :    0.251308
  19 H :    0.241879
  20 C :   -0.327985
  21 H :    0.280581
  22 H :    0.246006
  23 C :   -0.356296
  24 H :    0.247734
  25 H :    0.343961
  26 H :    0.228997
  27 H :    0.287508
  28 H :    0.250637
  29 H :    0.284156
Sum of atomic charges:   -0.0000000

LOEWDIN ATOMIC CHARGES
----------------------
   0 C :   -0.187087
   1 N :    0.044831
   2 C :   -0.188897
   3 C :   -0.091331
   4 H :    0.118113
   5 H :    0.122280
   6 C :   -0.478081
   7 C :   -0.553741
   8 C :    0.018975
   9 N :    0.139833
  10 H :    0.093717
  11 H :    0.055121
  12 H :    0.123899
  13 H :    0.022343
  14 H :   -0.004623
  15 O :    0.079481
  16 F :    0.202408
  17 C :   -0.178289
  18 H :    0.109512
  19 H :    0.101021
  20 C :   -0.195564
  21 H :    0.106492
  22 H :    0.104283
  23 C :   -0.200040
  24 H :    0.097765
  25 H :    0.113681
  26 H :    0.090321
  27 H :    0.115172
  28 H :    0.110851
  29 H :    0.107556

  Mayer bond orders larger than 0.100000
B(  0-C ,  1-N ) :   0.8092 B(  0-C , 17-C ) :   0.7112 B(  0-C , 18-H ) :   0.9595
B(  0-C , 19-H ) :   0.9357 B(  0-C , 20-C ) :  -0.1051 B(  0-C , 23-C ) :   0.1448
B(  1-N ,  7-C ) :   0.9763 B(  1-N ,  9-N ) :   0.1062 B(  1-N , 12-H ) :   0.8911
B(  2-C ,  3-C ) :   0.7782 B(  2-C , 20-C ) :   0.1624 B(  2-C , 23-C ) :   0.7608
B(  2-C , 28-H ) :   0.9763 B(  2-C , 29-H ) :   0.9226 B(  3-C ,  4-H ) :   1.0117
B(  3-C ,  5-H ) :   0.8795 B(  3-C ,  6-C ) :   0.9361 B(  3-C , 20-C ) :   0.1425
B(  3-C , 23-C ) :  -0.1222 B(  6-C , 15-O ) :   1.4186 B(  6-C , 16-F ) :   0.8863
B(  7-C ,  8-C ) :   1.6839 B(  7-C ,  9-N ) :   0.8490 B(  7-C , 13-H ) :  -0.1091
B(  7-C , 14-H ) :  -0.1714 B(  8-C , 13-H ) :   0.7693 B(  8-C , 14-H ) :   0.5187
B(  9-N , 10-H ) :   0.9122 B(  9-N , 11-H ) :   0.7518 B( 13-H , 14-H ) :   0.1829
B( 17-C , 20-C ) :   0.8784 B( 17-C , 21-H ) :   0.9547 B( 17-C , 22-H ) :   0.9615
B( 17-C , 23-C ) :   0.1871 B( 20-C , 23-C ) :   0.2359 B( 20-C , 24-H ) :   1.0992
B( 20-C , 25-H ) :   0.7941 B( 20-C , 26-H ) :  -0.1636 B( 23-C , 24-H ) :  -0.1492
B( 23-C , 26-H ) :   1.1354 B( 23-C , 27-H ) :   0.8533

Dispersion correction           -0.070258299
FINAL SINGLE POINT ENERGY      -637.765184340037

DIPOLE MOMENT
-------------
                                X             Y             Z
Electronic contribution:     -4.32708       0.10080     -12.46596
Nuclear contribution   :      4.07548       1.14852      13.79455
                        -----------------------------------------
Total Dipole Moment    :     -0.25159       1.24932       1.32859
                        -----------------------------------------
Magnitude (a.u.)       :      1.84099
Magnitude (Debye)      :      4.67944

Rotational constants in cm-1:     0.033274     0.023559     0.016968
Rotational constants in MHz :   997.539108   706.293545   508.690532

                             ****ORCA TERMINATED NORMALLY****
TOTAL RUN TIME: 0 days 0 hours 1 minutes 28 seconds 834 msec
