                         Program Version 5.0.0 -  RELEASE  -
|  1> !BLYP D3BJ RIJCOSX def2-TZVPD def2/J TightSCF xyzfile
|  2>
|  3> *xyzfile 0 1 D6.xyz
|  4>
|  5> %MaxCore 64000
|  6>
|  7> %pal nprocs 4
|  8> end
|  9>
| 10> %scf
| 11>   MaxIter 150
| 12> end
| 13>
| 14>
| 15>                          ****END OF INPUT****

CARTESIAN COORDINATES (ANGSTROEM)
---------------------------------
  C      2.234473   -2.989754   -2.397622
  N      2.756799   -2.945553   -3.765029
  C     -1.104325    0.251374   -2.860056
  C     -0.711893    0.842517   -4.218344
  H      0.154626    1.499800   -4.130909
  H     -1.538134    1.459222   -4.582671
  C     -0.397624   -0.205875   -5.288018
  C      1.987208   -2.590451   -4.818975
  N      0.743221   -3.017493   -4.913524
  C      2.499636   -1.848598   -5.803241
  H      3.309780   -1.292818   -5.558947
  H      1.801025   -1.304298   -6.289129
  H      3.716116   -2.628797   -3.829533
  H      0.395828   -3.627747   -4.185024
  H      0.039201   -2.454383   -5.371367
  O      0.617165   -0.005348   -5.998273
  F     -1.133173   -1.221380   -5.341465
  C      2.191199   -1.619503   -1.715492
  H      2.872783   -3.666368   -1.828014
  H      1.246188   -3.447444   -2.407842
  C      1.298729   -0.554314   -2.359773
  H      1.872917   -1.787955   -0.681310
  H      3.216809   -1.238432   -1.654428
  C     -0.196255   -0.863365   -2.325763
  H      1.612531   -0.371346   -3.393065
  H      1.480944    0.388638   -1.834444
  H     -0.404105   -1.761825   -2.909448
  H     -0.490439   -1.087880   -1.294131
  H     -1.143842    1.066711   -2.129680
  H     -2.114401   -0.156834   -2.930323

 Total Charge           Charge          ....    0
 Multiplicity           Mult            ....    1
 Number of Electrons    NEL             ....  102
 Basis Dimension        Dim             ....  640

ORBITAL ENERGIES
----------------

  NO   OCC          E(Eh)            E(eV)
   0   2.0000     -24.371006      -663.1688
   1   2.0000     -18.784941      -511.1642
   2   2.0000     -13.999700      -380.9512
   3   2.0000     -13.995614      -380.8400
   4   2.0000     -10.079071      -274.2655
   5   2.0000      -9.939116      -270.4571
   6   2.0000      -9.937375      -270.4097
   7   2.0000      -9.934742      -270.3381
   8   2.0000      -9.923601      -270.0349
   9   2.0000      -9.912073      -269.7212
  10   2.0000      -9.908257      -269.6174
  11   2.0000      -9.906279      -269.5636
  12   2.0000      -9.799609      -266.6609
  13   2.0000      -1.230814       -33.4921
  14   2.0000      -0.950277       -25.8584
  15   2.0000      -0.871788       -23.7226
  16   2.0000      -0.798214       -21.7205
  17   2.0000      -0.749046       -20.3826
  18   2.0000      -0.710990       -19.3470
  19   2.0000      -0.667196       -18.1553
  20   2.0000      -0.636696       -17.3254
  21   2.0000      -0.611902       -16.6507
  22   2.0000      -0.593212       -16.1421
  23   2.0000      -0.551598       -15.0098
  24   2.0000      -0.541303       -14.7296
  25   2.0000      -0.518999       -14.1227
  26   2.0000      -0.500996       -13.6328
  27   2.0000      -0.491967       -13.3871
  28   2.0000      -0.474494       -12.9116
  29   2.0000      -0.448960       -12.2168
  30   2.0000      -0.437609       -11.9079
  31   2.0000      -0.427716       -11.6387
  32   2.0000      -0.417955       -11.3731
  33   2.0000      -0.409155       -11.1337
  34   2.0000      -0.393989       -10.7210
  35   2.0000      -0.386679       -10.5221
  36   2.0000      -0.364285        -9.9127
  37   2.0000      -0.358862        -9.7651
  38   2.0000      -0.340865        -9.2754
  39   2.0000      -0.336704        -9.1622
  40   2.0000      -0.333654        -9.0792
  41   2.0000      -0.326666        -8.8890
  42   2.0000      -0.320940        -8.7332
  43   2.0000      -0.311607        -8.4793
  44   2.0000      -0.292443        -7.9578
  45   2.0000      -0.291045        -7.9197
  46   2.0000      -0.290126        -7.8947
  47   2.0000      -0.283713        -7.7202
  48   2.0000      -0.237436        -6.4610
  49   2.0000      -0.202946        -5.5224
  50   2.0000      -0.125144        -3.4053
  51   0.0000      -0.071639        -1.9494
  52   0.0000      -0.023451        -0.6381
  53   0.0000      -0.009307        -0.2533
  54   0.0000      -0.007361        -0.2003
  55   0.0000       0.003870         0.1053

MULLIKEN ATOMIC CHARGES
-----------------------
   0 C :   -0.641327
   1 N :   -0.184619
   2 C :   -0.567808
   3 C :   -0.462091
   4 H :    0.230153
   5 H :    0.309827
   6 C :    0.659185
   7 C :    0.111970
   8 N :   -0.437666
   9 C :   -1.093333
  10 H :    0.244546
  11 H :    0.602309
  12 H :    0.189809
  13 H :    0.218575
  14 H :    0.348802
  15 O :   -0.544243
  16 F :   -0.343431
  17 C :   -0.573782
  18 H :    0.243952
  19 H :    0.260841
  20 C :   -0.380585
  21 H :    0.280222
  22 H :    0.249400
  23 C :   -0.378112
  24 H :    0.293328
  25 H :    0.338276
  26 H :    0.208185
  27 H :    0.285455
  28 H :    0.252370
  29 H :    0.279793
Sum of atomic charges:    0.0000000

LOEWDIN ATOMIC CHARGES
----------------------
   0 C :   -0.192879
   1 N :    0.046797
   2 C :   -0.191261
   3 C :   -0.092051
   4 H :    0.119897
   5 H :    0.121713
   6 C :   -0.485358
   7 C :   -0.560848
   8 N :    0.160027
   9 C :    0.008501
  10 H :    0.015947
  11 H :   -0.021267
  12 H :    0.131729
  13 H :    0.096349
  14 H :    0.070706
  15 O :    0.089958
  16 F :    0.202901
  17 C :   -0.178251
  18 H :    0.108345
  19 H :    0.095762
  20 C :   -0.192060
  21 H :    0.105167
  22 H :    0.107399
  23 C :   -0.203714
  24 H :    0.102454
  25 H :    0.115233
  26 H :    0.086109
  27 H :    0.114726
  28 H :    0.111520
  29 H :    0.106450

  Mayer bond orders larger than 0.100000
B(  0-C ,  1-N ) :   0.8815 B(  0-C , 17-C ) :   0.6627 B(  0-C , 18-H ) :   0.9982
B(  0-C , 19-H ) :   0.9299 B(  0-C , 23-C ) :   0.1435 B(  1-N ,  7-C ) :   1.0279
B(  1-N , 12-H ) :   0.8390 B(  2-C ,  3-C ) :   0.7814 B(  2-C , 20-C ) :   0.1446
B(  2-C , 23-C ) :   0.7531 B(  2-C , 28-H ) :   0.9670 B(  2-C , 29-H ) :   0.9365
B(  3-C ,  4-H ) :   0.9981 B(  3-C ,  5-H ) :   0.8924 B(  3-C ,  6-C ) :   0.9458
B(  3-C , 20-C ) :   0.1317 B(  3-C , 23-C ) :  -0.1086 B(  6-C , 15-O ) :   1.5548
B(  6-C , 16-F ) :   0.7500 B(  7-C ,  8-N ) :   0.9008 B(  7-C ,  9-C ) :   1.4554
B(  7-C , 10-H ) :  -0.1634 B(  7-C , 11-H ) :  -0.1409 B(  8-N , 13-H ) :   0.8334
B(  8-N , 14-H ) :   0.6729 B(  9-C , 10-H ) :   1.2862 B(  9-C , 11-H ) :   0.6381
B( 17-C , 20-C ) :   0.8973 B( 17-C , 21-H ) :   0.9729 B( 17-C , 22-H ) :   0.9530
B( 17-C , 23-C ) :   0.1808 B( 20-C , 23-C ) :   0.2599 B( 20-C , 24-H ) :   1.0728
B( 20-C , 25-H ) :   0.7932 B( 20-C , 26-H ) :  -0.1667 B( 23-C , 24-H ) :  -0.1367
B( 23-C , 26-H ) :   1.1391 B( 23-C , 27-H ) :   0.8732

Dispersion correction           -0.069976213
FINAL SINGLE POINT ENERGY      -637.751053233050

DIPOLE MOMENT
-------------
                                X             Y             Z
Electronic contribution:     -5.60524      -0.79383     -11.76778
Nuclear contribution   :      4.34606       1.32859      13.65749
                        -----------------------------------------
Total Dipole Moment    :     -1.25918       0.53476       1.88970
                        -----------------------------------------
Magnitude (a.u.)       :      2.33291
Magnitude (Debye)      :      5.92978

Rotational constants in cm-1:     0.033551     0.023540     0.017085
Rotational constants in MHz :  1005.818710   705.725032   512.192443

                             ****ORCA TERMINATED NORMALLY****
TOTAL RUN TIME: 0 days 0 hours 1 minutes 27 seconds 47 msec
