                         Program Version 5.0.0 -  RELEASE  -
|  1> !LC-BLYP RIJCOSX def2-SVPD def2/J TightSCF
|  2> *xyz -1 1
|  3> C         -0.95121        1.33498       -0.97250
|  4> C         -0.77455        2.78833       -0.54394
|  5> H         -1.35261        3.45937       -1.19259
|  6> H         -1.17101        2.90233        0.46997
|  7> C          0.69721        3.22791       -0.52513
|  8> O          1.48929        2.37470        0.19919
|  9> H          0.71600        4.26403       -0.13077
| 10> H          1.03615        3.33092       -1.58367
| 11> H         -0.56808        1.20618       -1.96322
| 12> H         -1.99081        1.08225       -0.95647
| 13> H         -0.41866        0.69710       -0.29841
| 14> *
| 15>
| 16> %MaxCore 64000
| 17> %pal nprocs 4
| 18> end
| 19>
| 20> %scf
| 21>   MaxIter 150
| 22> end
| 23>
| 24>
| 25>                          ****END OF INPUT****

CARTESIAN COORDINATES (ANGSTROEM)
---------------------------------
  C     -0.951210    1.334980   -0.972500
  C     -0.774550    2.788330   -0.543940
  H     -1.352610    3.459370   -1.192590
  H     -1.171010    2.902330    0.469970
  C      0.697210    3.227910   -0.525130
  O      1.489290    2.374700    0.199190
  H      0.716000    4.264030   -0.130770
  H      1.036150    3.330920   -1.583670
  H     -0.568080    1.206180   -1.963220
  H     -1.990810    1.082250   -0.956470
  H     -0.418660    0.697100   -0.298410

 Total Charge           Charge          ....   -1
 Multiplicity           Mult            ....    1
 Number of Electrons    NEL             ....   34
 Basis Dimension        Dim             ....  139

ORBITAL ENERGIES
----------------

  NO   OCC          E(Eh)            E(eV)
   0   2.0000     -18.626755      -506.8598
   1   2.0000      -9.902572      -269.4627
   2   2.0000      -9.900159      -269.3970
   3   2.0000      -9.894177      -269.2342
   4   2.0000      -0.774052       -21.0630
   5   2.0000      -0.684090       -18.6150
   6   2.0000      -0.570715       -15.5299
   7   2.0000      -0.466952       -12.7064
   8   2.0000      -0.381459       -10.3800
   9   2.0000      -0.372543       -10.1374
  10   2.0000      -0.320341        -8.7169
  11   2.0000      -0.288649        -7.8545
  12   2.0000      -0.262587        -7.1453
  13   2.0000      -0.249596        -6.7919
  14   2.0000      -0.211712        -5.7610
  15   2.0000      -0.071231        -1.9383
  16   2.0000      -0.067699        -1.8422
  17   0.0000       0.216699         5.8967
  18   0.0000       0.240816         6.5529
  19   0.0000       0.258628         7.0376
  20   0.0000       0.288974         7.8634
  21   0.0000       0.308941         8.4067

MULLIKEN ATOMIC CHARGES
-----------------------
   0 C :    0.834959
   1 C :   -0.336977
   2 H :   -0.171411
   3 H :   -0.128157
   4 C :    0.395534
   5 O :   -0.793789
   6 H :   -0.214661
   7 H :   -0.157758
   8 H :   -0.148105
   9 H :   -0.183394
  10 H :   -0.096242
Sum of atomic charges:   -1.0000000

LOEWDIN ATOMIC CHARGES
----------------------
   0 C :    0.074322
   1 C :   -0.129549
   2 H :   -0.004619
   3 H :    0.005806
   4 C :   -0.245289
   5 O :   -0.550050
   6 H :   -0.025881
   7 H :   -0.019769
   8 H :   -0.028130
   9 H :   -0.045246
  10 H :   -0.031595

  Mayer bond orders larger than 0.100000
B(  0-C ,  1-C ) :   1.2861 B(  0-C ,  8-H ) :   0.7616 B(  0-C ,  9-H ) :   0.7257
B(  0-C , 10-H ) :   0.7791 B(  1-C ,  2-H ) :   0.9755 B(  1-C ,  3-H ) :   0.9127
B(  1-C ,  4-C ) :   1.0703 B(  1-C ,  6-H ) :   0.1660 B(  1-C ,  7-H ) :   0.1459
B(  1-C ,  8-H ) :   0.2170 B(  1-C ,  9-H ) :   0.2432 B(  1-C , 10-H ) :   0.2278
B(  2-H ,  4-C ) :   0.1064 B(  3-H ,  4-C ) :   0.1340 B(  4-C ,  5-O ) :   1.2889
B(  4-C ,  6-H ) :   0.9244 B(  4-C ,  7-H ) :   0.9249

FINAL SINGLE POINT ENERGY      -193.111020395396

DIPOLE MOMENT
-------------
                                X             Y             Z
Electronic contribution:      2.43638       0.07804       1.38939
Nuclear contribution   :     -4.35230      -0.04018      -2.29108
                        -----------------------------------------
Total Dipole Moment    :     -1.91592       0.03786      -0.90169
                        -----------------------------------------
Magnitude (a.u.)       :      2.11784
Magnitude (Debye)      :      5.38312

Rotational constants in cm-1:     0.489965     0.184028     0.151025
Rotational constants in MHz : 14688.769521  5517.006179  4527.605157

                             ****ORCA TERMINATED NORMALLY****
TOTAL RUN TIME: 0 days 0 hours 0 minutes 11 seconds 572 msec
