                         Program Version 5.0.0 -  RELEASE  -
|  1> !LC-BLYP RIJCOSX def2-SVPD def2/J TightSCF
|  2> *xyz 1 1
|  3> C          3.95643        0.50147       -0.37910
|  4> H          3.16840        0.02920        0.20738
|  5> N          3.80389        1.96157       -0.15675
|  6> C          3.84232        0.14849       -1.85406
|  7> H          4.92323        0.17798        0.00937
|  8> H          4.62002        0.69450       -2.40215
|  9> H          4.09601       -0.91093       -1.95510
| 10> C          2.47562        0.41271       -2.48538
| 11> H          4.20643        2.24441        0.74536
| 12> H          2.80827        2.21132       -0.09610
| 13> H          4.28076        2.50155       -0.89104
| 14> H          2.49958        0.13290       -3.51787
| 15> H          2.23992        1.45318       -2.40319
| 16> H          1.73061       -0.16300       -1.97702
| 17> *
| 18>
| 19> %MaxCore 64000
| 20> %pal nprocs 4
| 21> end
| 22>
| 23> %scf
| 24>   MaxIter 150
| 25> end
| 26>
| 27>
| 28>                          ****END OF INPUT****

CARTESIAN COORDINATES (ANGSTROEM)
---------------------------------
  C      3.956430    0.501470   -0.379100
  H      3.168400    0.029200    0.207380
  N      3.803890    1.961570   -0.156750
  C      3.842320    0.148490   -1.854060
  H      4.923230    0.177980    0.009370
  H      4.620020    0.694500   -2.402150
  H      4.096010   -0.910930   -1.955100
  C      2.475620    0.412710   -2.485380
  H      4.206430    2.244410    0.745360
  H      2.808270    2.211320   -0.096100
  H      4.280760    2.501550   -0.891040
  H      2.499580    0.132900   -3.517870
  H      2.239920    1.453180   -2.403190
  H      1.730610   -0.163000   -1.977020

 Total Charge           Charge          ....    1
 Multiplicity           Mult            ....    1
 Number of Electrons    NEL             ....   34
 Basis Dimension        Dim             ....  160

ORBITAL ENERGIES
----------------

  NO   OCC          E(Eh)            E(eV)
   0   2.0000     -14.517086      -395.0300
   1   2.0000     -10.331561      -281.1361
   2   2.0000     -10.263697      -279.2894
   3   2.0000     -10.229754      -278.3658
   4   2.0000      -1.305897       -35.5353
   5   2.0000      -1.077568       -29.3221
   6   2.0000      -0.987280       -26.8652
   7   2.0000      -0.913979       -24.8706
   8   2.0000      -0.893481       -24.3128
   9   2.0000      -0.873818       -23.7778
  10   2.0000      -0.793025       -21.5793
  11   2.0000      -0.735399       -20.0112
  12   2.0000      -0.712310       -19.3829
  13   2.0000      -0.687853       -18.7174
  14   2.0000      -0.625073       -17.0091
  15   2.0000      -0.618813       -16.8388
  16   2.0000      -0.610126       -16.6024
  17   0.0000      -0.128561        -3.4983
  18   0.0000      -0.070694        -1.9237
  19   0.0000      -0.070578        -1.9205
  20   0.0000      -0.059397        -1.6163
  21   0.0000      -0.033811        -0.9200

MULLIKEN ATOMIC CHARGES
-----------------------
   0 C :    0.704652
   1 H :   -0.147993
   2 N :   -0.673286
   3 C :   -0.173472
   4 H :   -0.148358
   5 H :   -0.128751
   6 H :   -0.155443
   7 C :    0.999630
   8 H :    0.311895
   9 H :    0.371516
  10 H :    0.394408
  11 H :   -0.121878
  12 H :   -0.172387
  13 H :   -0.060534
Sum of atomic charges:    1.0000000

LOEWDIN ATOMIC CHARGES
----------------------
   0 C :    0.066683
   1 H :    0.059285
   2 N :    0.332725
   3 C :   -0.062838
   4 H :    0.059206
   5 H :    0.039616
   6 H :    0.051580
   7 C :    0.137875
   8 H :    0.109405
   9 H :    0.106053
  10 H :    0.108752
  11 H :    0.009798
  12 H :   -0.020678
  13 H :    0.002538

  Mayer bond orders larger than 0.100000
B(  0-C ,  1-H ) :   0.8138 B(  0-C ,  2-N ) :   0.8463 B(  0-C ,  3-C ) :   1.1655
B(  0-C ,  4-H ) :   0.8753 B(  0-C ,  5-H ) :   0.1143 B(  0-C ,  6-H ) :   0.1371
B(  1-H ,  2-N ) :   0.1511 B(  2-N ,  8-H ) :   0.8025 B(  2-N ,  9-H ) :   0.7826
B(  2-N , 10-H ) :   0.7093 B(  3-C ,  5-H ) :   0.8917 B(  3-C ,  6-H ) :   0.9431
B(  3-C ,  7-C ) :   1.2828 B(  3-C , 11-H ) :   0.2486 B(  3-C , 12-H ) :   0.2199
B(  3-C , 13-H ) :   0.2145 B(  7-C , 11-H ) :   0.7250 B(  7-C , 12-H ) :   0.7463
B(  7-C , 13-H ) :   0.7449

FINAL SINGLE POINT ENERGY      -174.214353998684

DIPOLE MOMENT
-------------
                                X             Y             Z
Electronic contribution:      1.01899       1.17305       1.83545
Nuclear contribution   :     -0.57302       0.26376      -0.39709
                        -----------------------------------------
Total Dipole Moment    :      0.44597       1.43681       1.43836
                        -----------------------------------------
Magnitude (a.u.)       :      2.08139
Magnitude (Debye)      :      5.29047

Rotational constants in cm-1:     0.449370     0.157244     0.134525
Rotational constants in MHz : 13471.775278  4714.062641  4032.958796

                             ****ORCA TERMINATED NORMALLY****
TOTAL RUN TIME: 0 days 0 hours 0 minutes 14 seconds 350 msec
