                         Program Version 5.0.0 -  RELEASE  -
|  1> !LC-BLYP RIJCOSX def2-SVPD def2/J TightSCF xyzfile
|  2>
|  3> *xyzfile 0 1 B.xyz
|  4>
|  5> %MaxCore 64000
|  6>
|  7> %pal nprocs 4
|  8> end
|  9>
| 10> %scf
| 11>   MaxIter 150
| 12> end
| 13>
| 14>
| 15>                          ****END OF INPUT****

CARTESIAN COORDINATES (ANGSTROEM)
---------------------------------
  C      3.956426    0.501466   -0.379100
  H      3.168398    0.029201    0.207383
  N      3.803893    1.961572   -0.156747
  C      3.842322    0.148490   -1.854058
  H      4.923231    0.177982    0.009371
  H      4.620021    0.694502   -2.402150
  H      4.096015   -0.910930   -1.955103
  C      2.475619    0.412708   -2.485377
  H      2.174689    1.445076   -2.287971
  C      1.383931   -0.532740   -1.995203
  H      2.575613    0.318574   -3.571460
  H      1.264698   -0.412309   -0.915491
  H      1.705223   -1.566885   -2.164984
  C      0.031398   -0.317260   -2.677791
  C     -0.587292    1.060853   -2.436460
  H     -0.662815   -1.089530   -2.329985
  H      0.149465   -0.478040   -3.755648
  H      0.104376    1.828590   -2.793130
  C     -0.951213    1.334978   -0.972500
  H     -1.478832    1.161355   -3.062484
  H     -0.317007    0.741648   -0.311389
  H     -1.980916    1.012842   -0.788958
  C     -0.774550    2.788332   -0.543943
  H     -1.352609    3.459372   -1.192585
  H     -1.171014    2.902331    0.469968
  C      0.697208    3.227911   -0.525126
  O      1.489294    2.374703    0.199189
  H      0.715998    4.264030   -0.130774
  H      1.036148    3.330920   -1.583669
  H      4.206425    2.244406    0.745359
  H      2.808269    2.211323   -0.096097
  H      4.280757    2.501552   -0.891037

 Total Charge           Charge          ....    0
 Multiplicity           Mult            ....    1
 Number of Electrons    NEL             ....   90
 Basis Dimension        Dim             ....  391

ORBITAL ENERGIES
----------------

  NO   OCC          E(Eh)            E(eV)
   0   2.0000     -18.827526      -512.3230
   1   2.0000     -14.265867      -388.1940
   2   2.0000     -10.152056      -276.2515
   3   2.0000     -10.108316      -275.0613
   4   2.0000     -10.082382      -274.3556
   5   2.0000     -10.069765      -274.0122
   6   2.0000     -10.069324      -274.0002
   7   2.0000     -10.064250      -273.8622
   8   2.0000     -10.052070      -273.5307
   9   2.0000     -10.038900      -273.1724
  10   2.0000     -10.032524      -272.9989
  11   2.0000      -1.083309       -29.4783
  12   2.0000      -0.977035       -26.5865
  13   2.0000      -0.922588       -25.1049
  14   2.0000      -0.883158       -24.0320
  15   2.0000      -0.844743       -22.9866
  16   2.0000      -0.801723       -21.8160
  17   2.0000      -0.764642       -20.8070
  18   2.0000      -0.727050       -19.7840
  19   2.0000      -0.699765       -19.0416
  20   2.0000      -0.676561       -18.4102
  21   2.0000      -0.673973       -18.3397
  22   2.0000      -0.651877       -17.7385
  23   2.0000      -0.613098       -16.6832
  24   2.0000      -0.596208       -16.2237
  25   2.0000      -0.575533       -15.6611
  26   2.0000      -0.573685       -15.6108
  27   2.0000      -0.543566       -14.7912
  28   2.0000      -0.528387       -14.3781
  29   2.0000      -0.524315       -14.2673
  30   2.0000      -0.502850       -13.6832
  31   2.0000      -0.493575       -13.4309
  32   2.0000      -0.483828       -13.1656
  33   2.0000      -0.464567       -12.6415
  34   2.0000      -0.456367       -12.4184
  35   2.0000      -0.444506       -12.0956
  36   2.0000      -0.436128       -11.8676
  37   2.0000      -0.422821       -11.5056
  38   2.0000      -0.413921       -11.2634
  39   2.0000      -0.407723       -11.0947
  40   2.0000      -0.386209       -10.5093
  41   2.0000      -0.382059       -10.3964
  42   2.0000      -0.376402       -10.2424
  43   2.0000      -0.279957        -7.6180
  44   2.0000      -0.273048        -7.4300
  45   0.0000       0.043353         1.1797
  46   0.0000       0.073571         2.0020
  47   0.0000       0.079017         2.1502
  48   0.0000       0.093207         2.5363
  49   0.0000       0.107895         2.9360

MULLIKEN ATOMIC CHARGES
-----------------------
   0 C :    1.039872
   1 H :   -0.090853
   2 N :    0.206127
   3 C :    0.392051
   4 H :   -0.366672
   5 H :   -0.172152
   6 H :   -0.159295
   7 C :    0.810117
   8 H :   -0.821595
   9 C :    0.148098
  10 H :   -0.154391
  11 H :   -0.202734
  12 H :   -0.229640
  13 C :    0.749872
  14 C :    0.352950
  15 H :   -0.305994
  16 H :   -0.035991
  17 H :   -0.236591
  18 C :    0.318860
  19 H :   -0.325715
  20 H :   -0.198551
  21 H :   -0.225866
  22 C :    0.428732
  23 H :   -0.240544
  24 H :   -0.014629
  25 C :    0.531187
  26 O :   -0.514879
  27 H :   -0.446156
  28 H :   -0.006425
  29 H :    0.333510
  30 H :   -0.906041
  31 H :    0.343338
Sum of atomic charges:    0.0000000

LOEWDIN ATOMIC CHARGES
----------------------
   0 C :    0.070371
   1 H :    0.042804
   2 N :    0.317656
   3 C :   -0.029408
   4 H :    0.033619
   5 H :    0.027059
   6 H :    0.034290
   7 C :   -0.029257
   8 H :   -0.001206
   9 C :   -0.038478
  10 H :    0.035450
  11 H :    0.006545
  12 H :    0.028853
  13 C :   -0.041823
  14 C :   -0.032619
  15 H :    0.028447
  16 H :    0.024348
  17 H :   -0.002218
  18 C :   -0.037831
  19 H :    0.024162
  20 H :   -0.003273
  21 H :    0.022433
  22 C :   -0.043567
  23 H :    0.024839
  24 H :    0.026253
  25 C :   -0.100561
  26 O :   -0.364632
  27 H :    0.011953
  28 H :   -0.001970
  29 H :    0.091349
  30 H :   -0.210759
  31 H :    0.087173

  Mayer bond orders larger than 0.100000
B(  0-C ,  1-H ) :   0.7303 B(  0-C ,  2-N ) :   0.8912 B(  0-C ,  3-C ) :   1.1257
B(  0-C ,  4-H ) :   0.7533 B(  0-C ,  6-H ) :   0.1545 B(  0-C , 30-H ) :  -0.1141
B(  1-H ,  2-N ) :   0.1441 B(  1-H ,  3-C ) :   0.1235 B(  1-H ,  4-H ) :  -0.1784
B(  2-N , 10-H ) :  -0.1236 B(  2-N , 29-H ) :   0.7812 B(  2-N , 30-H ) :   1.4156
B(  2-N , 31-H ) :   0.7874 B(  3-C ,  4-H ) :   0.1205 B(  3-C ,  5-H ) :   0.6713
B(  3-C ,  6-H ) :   0.8439 B(  3-C ,  7-C ) :   1.1515 B(  3-C ,  8-H ) :   0.1129
B(  5-H ,  6-H ) :  -0.1265 B(  5-H ,  7-C ) :   0.2932 B(  7-C ,  8-H ) :   0.4458
B(  7-C ,  9-C ) :   1.1181 B(  7-C , 10-H ) :   0.5830 B(  7-C , 11-H ) :   0.1395
B(  7-C , 12-H ) :   0.1672 B(  8-H ,  9-C ) :   0.3091 B(  8-H , 10-H ) :   0.1210
B(  8-H , 30-H ) :   0.1018 B(  9-C , 10-H ) :   0.1754 B(  9-C , 11-H ) :   0.8126
B(  9-C , 12-H ) :   0.7971 B(  9-C , 13-C ) :   1.1689 B(  9-C , 14-C ) :   0.1626
B(  9-C , 15-H ) :   0.3490 B(  9-C , 16-H ) :   0.1372 B(  9-C , 17-H ) :  -0.1031
B( 11-H , 20-H ) :   0.1664 B( 13-C , 14-C ) :   1.1862 B( 13-C , 15-H ) :   0.6231
B( 13-C , 16-H ) :   0.6160 B( 13-C , 17-H ) :   0.1177 B( 14-C , 16-H ) :   0.2741
B( 14-C , 17-H ) :   0.7903 B( 14-C , 18-C ) :   1.1680 B( 14-C , 19-H ) :   0.7417
B( 14-C , 20-H ) :   0.1273 B( 14-C , 21-H ) :   0.2598 B( 15-H , 16-H ) :  -0.1725
B( 17-H , 18-C ) :   0.1468 B( 18-C , 19-H ) :   0.2279 B( 18-C , 20-H ) :   0.7568
B( 18-C , 21-H ) :   0.7132 B( 18-C , 22-C ) :   1.2400 B( 18-C , 23-H ) :   0.1082
B( 18-C , 24-H ) :   0.2691 B( 18-C , 25-C ) :   0.1508 B( 20-H , 22-C ) :   0.1626
B( 21-H , 22-C ) :   0.1116 B( 22-C , 23-H ) :   0.7767 B( 22-C , 24-H ) :   0.6076
B( 22-C , 25-C ) :   1.1573 B( 22-C , 27-H ) :   0.1040 B( 22-C , 28-H ) :   0.1183
B( 23-H , 24-H ) :  -0.1083 B( 23-H , 25-C ) :   0.1940 B( 24-H , 25-C ) :   0.1334
B( 25-C , 26-O ) :   1.1117 B( 25-C , 27-H ) :   0.9746 B( 25-C , 28-H ) :   0.7587
B( 26-O , 27-H ) :  -0.1207 B( 26-O , 30-H ) :   0.5406 B( 30-H , 31-H ) :  -0.1359

FINAL SINGLE POINT ENERGY      -483.885656412062

DIPOLE MOMENT
-------------
                                X             Y             Z
Electronic contribution:      2.10415       0.93299       2.51818
Nuclear contribution   :      0.61785      -1.47632      -2.91844
                        -----------------------------------------
Total Dipole Moment    :      2.72200      -0.54334      -0.40026
                        -----------------------------------------
Magnitude (a.u.)       :      2.80441
Magnitude (Debye)      :      7.12823

Rotational constants in cm-1:     0.040993     0.027400     0.018162
Rotational constants in MHz :  1228.944366   821.418004   544.476857

                             ****ORCA TERMINATED NORMALLY****
TOTAL RUN TIME: 0 days 0 hours 2 minutes 51 seconds 262 msec
