                         Program Version 5.0.0 -  RELEASE  -
|  1> !LC-BLYP RIJCOSX def2-SVPD def2/J TightSCF
|  2> *xyz 0 1
|  3> C         -0.95121        1.33498       -0.97250
|  4> C         -0.77455        2.78833       -0.54394
|  5> H         -1.35261        3.45937       -1.19259
|  6> H         -1.17101        2.90233        0.46997
|  7> C          0.69721        3.22791       -0.52513
|  8> F          1.48929        2.37470        0.19919
|  9> H          0.71600        4.26403       -0.13077
| 10> H          1.03615        3.33092       -1.58367
| 11> H         -0.56808        1.20618       -1.96322
| 12> H         -1.99081        1.08225       -0.95647
| 13> H         -0.41866        0.69710       -0.29841
| 14> *
| 15>
| 16> %MaxCore 64000
| 17> %pal nprocs 4
| 18> end
| 19>
| 20> %scf
| 21>   MaxIter 150
| 22> end
| 23>
| 24>
| 25>                          ****END OF INPUT****

CARTESIAN COORDINATES (ANGSTROEM)
---------------------------------
  C     -0.951210    1.334980   -0.972500
  C     -0.774550    2.788330   -0.543940
  H     -1.352610    3.459370   -1.192590
  H     -1.171010    2.902330    0.469970
  C      0.697210    3.227910   -0.525130
  F      1.489290    2.374700    0.199190
  H      0.716000    4.264030   -0.130770
  H      1.036150    3.330920   -1.583670
  H     -0.568080    1.206180   -1.963220
  H     -1.990810    1.082250   -0.956470
  H     -0.418660    0.697100   -0.298410

 Total Charge           Charge          ....    0
 Multiplicity           Mult            ....    1
 Number of Electrons    NEL             ....   34
 Basis Dimension        Dim             ....  139

ORBITAL ENERGIES
----------------

  NO   OCC          E(Eh)            E(eV)
   0   2.0000     -24.465452      -665.7388
   1   2.0000     -10.164201      -276.5820
   2   2.0000     -10.092093      -274.6198
   3   2.0000     -10.071423      -274.0574
   4   2.0000      -1.266154       -34.4538
   5   2.0000      -0.894323       -24.3358
   6   2.0000      -0.794128       -21.6093
   7   2.0000      -0.699797       -19.0425
   8   2.0000      -0.617806       -16.8114
   9   2.0000      -0.602018       -16.3817
  10   2.0000      -0.578425       -15.7397
  11   2.0000      -0.540703       -14.7133
  12   2.0000      -0.500216       -13.6116
  13   2.0000      -0.477063       -12.9815
  14   2.0000      -0.453326       -12.3356
  15   2.0000      -0.426664       -11.6101
  16   2.0000      -0.423124       -11.5138
  17   0.0000       0.073364         1.9963
  18   0.0000       0.098485         2.6799
  19   0.0000       0.108066         2.9406
  20   0.0000       0.126814         3.4508
  21   0.0000       0.151536         4.1235

MULLIKEN ATOMIC CHARGES
-----------------------
   0 C :    0.862387
   1 C :   -0.291017
   2 H :   -0.157732
   3 H :   -0.135928
   4 C :    0.733329
   5 F :   -0.366873
   6 H :   -0.152180
   7 H :   -0.094109
   8 H :   -0.136023
   9 H :   -0.158299
  10 H :   -0.103554
Sum of atomic charges:   -0.0000000

LOEWDIN ATOMIC CHARGES
----------------------
   0 C :    0.109484
   1 C :   -0.081237
   2 H :    0.033078
   3 H :    0.027283
   4 C :    0.064423
   5 F :   -0.190773
   6 H :    0.035383
   7 H :    0.042211
   8 H :   -0.011731
   9 H :   -0.014566
  10 H :   -0.013554

  Mayer bond orders larger than 0.100000
B(  0-C ,  1-C ) :   1.3170 B(  0-C ,  8-H ) :   0.7572 B(  0-C ,  9-H ) :   0.7511
B(  0-C , 10-H ) :   0.7700 B(  1-C ,  2-H ) :   0.9398 B(  1-C ,  3-H ) :   0.9016
B(  1-C ,  4-C ) :   1.1995 B(  1-C ,  6-H ) :   0.1331 B(  1-C ,  7-H ) :   0.1214
B(  1-C ,  8-H ) :   0.2033 B(  1-C ,  9-H ) :   0.2294 B(  1-C , 10-H ) :   0.2042
B(  4-C ,  5-F ) :   0.8517 B(  4-C ,  6-H ) :   0.8837 B(  4-C ,  7-H ) :   0.8746

FINAL SINGLE POINT ENERGY      -217.706989896672

DIPOLE MOMENT
-------------
                                X             Y             Z
Electronic contribution:      5.48817       0.37095       2.72592
Nuclear contribution   :     -6.00193       0.02246      -3.08821
                        -----------------------------------------
Total Dipole Moment    :     -0.51376       0.39341      -0.36228
                        -----------------------------------------
Magnitude (a.u.)       :      0.74160
Magnitude (Debye)      :      1.88500

Rotational constants in cm-1:     0.475356     0.173608     0.142756
Rotational constants in MHz : 14250.818869  5204.623090  4279.716550

                             ****ORCA TERMINATED NORMALLY****
TOTAL RUN TIME: 0 days 0 hours 0 minutes 9 seconds 110 msec
