                         Program Version 5.0.0 -  RELEASE  -
|  1> !LC-BLYP RIJCOSX def2-SVPD def2/J TightSCF
|  2> *xyz 0 1
|  3> C          3.95643        0.50147       -0.37910
|  4> H          3.16840        0.02920        0.20738
|  5> C          3.80389        1.96157       -0.15675
|  6> C          3.84232        0.14849       -1.85406
|  7> H          4.92323        0.17798        0.00937
|  8> H          4.62002        0.69450       -2.40215
|  9> H          4.09601       -0.91093       -1.95510
| 10> C          2.47562        0.41271       -2.48538
| 11> H          4.20643        2.24441        0.74536
| 12> H          2.80827        2.21132       -0.09610
| 13> H          4.28076        2.50155       -0.89104
| 14> H          2.49958        0.13290       -3.51787
| 15> H          2.23992        1.45318       -2.40319
| 16> H          1.73061       -0.16300       -1.97702
| 17> *
| 18>
| 19> %MaxCore 64000
| 20> %pal nprocs 4
| 21> end
| 22>
| 23> %scf
| 24>   MaxIter 150
| 25> end
| 26>
| 27>
| 28>                          ****END OF INPUT****

CARTESIAN COORDINATES (ANGSTROEM)
---------------------------------
  C      3.956430    0.501470   -0.379100
  H      3.168400    0.029200    0.207380
  C      3.803890    1.961570   -0.156750
  C      3.842320    0.148490   -1.854060
  H      4.923230    0.177980    0.009370
  H      4.620020    0.694500   -2.402150
  H      4.096010   -0.910930   -1.955100
  C      2.475620    0.412710   -2.485380
  H      4.206430    2.244410    0.745360
  H      2.808270    2.211320   -0.096100
  H      4.280760    2.501550   -0.891040
  H      2.499580    0.132900   -3.517870
  H      2.239920    1.453180   -2.403190
  H      1.730610   -0.163000   -1.977020

 Total Charge           Charge          ....    0
 Multiplicity           Mult            ....    1
 Number of Electrons    NEL             ....   34
 Basis Dimension        Dim             ....  160

ORBITAL ENERGIES
----------------

  NO   OCC          E(Eh)            E(eV)
   0   2.0000     -10.073962      -274.1265
   1   2.0000     -10.069779      -274.0126
   2   2.0000     -10.064677      -273.8738
   3   2.0000     -10.046690      -273.3843
   4   2.0000      -0.907602       -24.6971
   5   2.0000      -0.832295       -22.6479
   6   2.0000      -0.747789       -20.3484
   7   2.0000      -0.669817       -18.2266
   8   2.0000      -0.572803       -15.5868
   9   2.0000      -0.570074       -15.5125
  10   2.0000      -0.530049       -14.4234
  11   2.0000      -0.490675       -13.3519
  12   2.0000      -0.485280       -13.2051
  13   2.0000      -0.462666       -12.5898
  14   2.0000      -0.421210       -11.4617
  15   2.0000      -0.417687       -11.3658
  16   2.0000      -0.415816       -11.3149
  17   0.0000       0.078075         2.1245
  18   0.0000       0.102488         2.7889
  19   0.0000       0.103617         2.8196
  20   0.0000       0.113937         3.1004
  21   0.0000       0.153083         4.1656

MULLIKEN ATOMIC CHARGES
-----------------------
   0 C :   -0.048370
   1 H :   -0.147939
   2 C :    1.235938
   3 C :   -0.221027
   4 H :   -0.204846
   5 H :   -0.068217
   6 H :   -0.209958
   7 C :    0.948048
   8 H :   -0.399571
   9 H :   -0.208039
  10 H :   -0.281166
  11 H :   -0.138260
  12 H :   -0.160954
  13 H :   -0.095640
Sum of atomic charges:   -0.0000000

LOEWDIN ATOMIC CHARGES
----------------------
   0 C :   -0.091564
   1 H :    0.028730
   2 C :    0.104589
   3 C :   -0.099311
   4 H :    0.027540
   5 H :    0.026954
   6 H :    0.019907
   7 C :    0.115163
   8 H :   -0.030961
   9 H :   -0.027590
  10 H :   -0.024278
  11 H :   -0.015535
  12 H :   -0.021338
  13 H :   -0.012306

  Mayer bond orders larger than 0.100000
B(  0-C ,  1-H ) :   0.8283 B(  0-C ,  2-C ) :   1.2365 B(  0-C ,  3-C ) :   1.1963
B(  0-C ,  4-H ) :   0.8806 B(  0-C ,  5-H ) :   0.1139 B(  0-C ,  6-H ) :   0.1596
B(  0-C ,  8-H ) :   0.2713 B(  0-C ,  9-H ) :   0.3035 B(  0-C , 10-H ) :   0.2610
B(  1-H ,  2-C ) :   0.1691 B(  1-H ,  3-C ) :   0.1294 B(  2-C ,  3-C ) :   0.1051
B(  2-C ,  8-H ) :   0.5839 B(  2-C ,  9-H ) :   0.5778 B(  2-C , 10-H ) :   0.6212
B(  3-C ,  5-H ) :   0.8664 B(  3-C ,  6-H ) :   0.9270 B(  3-C ,  7-C ) :   1.2853
B(  3-C , 11-H ) :   0.2536 B(  3-C , 12-H ) :   0.2282 B(  3-C , 13-H ) :   0.2205
B(  5-H ,  7-C ) :   0.1007 B(  7-C , 11-H ) :   0.6845 B(  7-C , 12-H ) :   0.7774
B(  7-C , 13-H ) :   0.7408

FINAL SINGLE POINT ENERGY      -157.819053715551

DIPOLE MOMENT
-------------
                                X             Y             Z
Electronic contribution:      0.50105      -0.62899       0.09972
Nuclear contribution   :     -0.48267       0.62853      -0.07145
                        -----------------------------------------
Total Dipole Moment    :      0.01838      -0.00046       0.02827
                        -----------------------------------------
Magnitude (a.u.)       :      0.03373
Magnitude (Debye)      :      0.08572

Rotational constants in cm-1:     0.457318     0.164089     0.140183
Rotational constants in MHz : 13710.038687  4919.250587  4202.581436

                             ****ORCA TERMINATED NORMALLY****
TOTAL RUN TIME: 0 days 0 hours 0 minutes 12 seconds 470 msec
