                         Program Version 5.0.0 -  RELEASE  -
|  1> !LC-BLYP RIJCOSX def2-SVPD def2/J TightSCF
|  2> *xyz -1 1
|  3> C         -1.36646        2.47911       -4.31393
|  4> C         -2.35773        2.30686       -3.13675
|  5> O         -3.44376        2.84652       -3.25274
|  6> O         -1.97092        1.58304       -2.15123
|  7> H         -1.80853        3.10058       -5.06443
|  8> H         -1.13980        1.52081       -4.73248
|  9> H         -0.46612        2.93495       -3.95827
| 10> *
| 11> %MaxCore 64000
| 12>
| 13> %pal nprocs 4
| 14> end
| 15>
| 16> %scf
| 17>   MaxIter 150
| 18> end
| 19>
| 20>
| 21>                          ****END OF INPUT****

CARTESIAN COORDINATES (ANGSTROEM)
---------------------------------
  C     -1.366460    2.479110   -4.313930
  C     -2.357730    2.306860   -3.136750
  O     -3.443760    2.846520   -3.252740
  O     -1.970920    1.583040   -2.151230
  H     -1.808530    3.100580   -5.064430
  H     -1.139800    1.520810   -4.732480
  H     -0.466120    2.934950   -3.958270

 Total Charge           Charge          ....   -1
 Multiplicity           Mult            ....    1
 Number of Electrons    NEL             ....   32
 Basis Dimension        Dim             ....  110

ORBITAL ENERGIES
----------------

  NO   OCC          E(Eh)            E(eV)
   0   2.0000     -18.700370      -508.8629
   1   2.0000     -18.688137      -508.5301
   2   2.0000      -9.975412      -271.4448
   3   2.0000      -9.898591      -269.3544
   4   2.0000      -0.912126       -24.8202
   5   2.0000      -0.809290       -22.0219
   6   2.0000      -0.645587       -17.5673
   7   2.0000      -0.404407       -11.0045
   8   2.0000      -0.367093        -9.9891
   9   2.0000      -0.349038        -9.4978
  10   2.0000      -0.332467        -9.0469
  11   2.0000      -0.289058        -7.8657
  12   2.0000      -0.277299        -7.5457
  13   2.0000      -0.148812        -4.0494
  14   2.0000      -0.141946        -3.8625
  15   2.0000      -0.127683        -3.4744
  16   0.0000       0.221431         6.0254
  17   0.0000       0.257007         6.9935
  18   0.0000       0.282593         7.6898
  19   0.0000       0.291565         7.9339
  20   0.0000       0.316358         8.6085

MULLIKEN ATOMIC CHARGES
-----------------------
   0 C :    0.697676
   1 C :   -0.221256
   2 O :   -0.449194
   3 O :   -0.597623
   4 H :   -0.150819
   5 H :   -0.139812
   6 H :   -0.138972
Sum of atomic charges:   -1.0000000

LOEWDIN ATOMIC CHARGES
----------------------
   0 C :    0.134210
   1 C :   -0.376844
   2 O :   -0.294053
   3 O :   -0.348870
   4 H :   -0.042439
   5 H :   -0.035476
   6 H :   -0.036529

  Mayer bond orders larger than 0.100000
B(  0-C ,  1-C ) :   1.1856 B(  0-C ,  4-H ) :   0.8283 B(  0-C ,  5-H ) :   0.7821
B(  0-C ,  6-H ) :   0.7769 B(  1-C ,  2-O ) :   1.6886 B(  1-C ,  3-O ) :   1.5785
B(  1-C ,  4-H ) :   0.2775 B(  1-C ,  5-H ) :   0.1840 B(  1-C ,  6-H ) :   0.1886

FINAL SINGLE POINT ENERGY      -227.893246871095

DIPOLE MOMENT
-------------
                                X             Y             Z
Electronic contribution:     -2.40303      -0.32411       2.65992
Nuclear contribution   :      3.20990       0.60513      -3.84153
                        -----------------------------------------
Total Dipole Moment    :      0.80688       0.28102      -1.18161
                        -----------------------------------------
Magnitude (a.u.)       :      1.45816
Magnitude (Debye)      :      3.70634

Rotational constants in cm-1:     0.394521     0.330294     0.185888
Rotational constants in MHz : 11827.441786  9901.964904  5572.768963

                             ****ORCA TERMINATED NORMALLY****
TOTAL RUN TIME: 0 days 0 hours 0 minutes 8 seconds 271 msec
