                         Program Version 5.0.0 -  RELEASE  -
|  1> !LC-BLYP RIJCOSX def2-SVPD def2/J TightSCF
|  2> *xyz 1 1
|  3> C          0.64866        1.00359       -3.64560
|  4> N          0.28128        0.67645       -2.24018
|  5> H          0.39079       -0.31925       -2.02649
|  6> H         -0.69269        0.99010       -2.13812
|  7> H          0.85421        1.21221       -1.57528
|  8> H          0.03905        0.43387       -4.31545
|  9> H          1.67860        0.76457       -3.80989
| 10> H          0.49232        2.04741       -3.82138
| 11> *
| 12> %MaxCore 64000
| 13>
| 14> %pal nprocs 4
| 15> end
| 16>
| 17> %scf
| 18>   MaxIter 150
| 19> end
| 20>
| 21>
| 22>                          ****END OF INPUT****

CARTESIAN COORDINATES (ANGSTROEM)
---------------------------------
  C      0.648660    1.003590   -3.645600
  N      0.281280    0.676450   -2.240180
  H      0.390790   -0.319250   -2.026490
  H     -0.692690    0.990100   -2.138120
  H      0.854210    1.212210   -1.575280
  H      0.039050    0.433870   -4.315450
  H      1.678600    0.764570   -3.809890
  H      0.492320    2.047410   -3.821380

 Total Charge           Charge          ....    1
 Multiplicity           Mult            ....    1
 Number of Electrons    NEL             ....   18
 Basis Dimension        Dim             ....   88

ORBITAL ENERGIES
----------------

  NO   OCC          E(Eh)            E(eV)
   0   2.0000     -14.535600      -395.5338
   1   2.0000     -10.343180      -281.4522
   2   2.0000      -1.319880       -35.9158
   3   2.0000      -1.040599       -28.3161
   4   2.0000      -0.921571       -25.0772
   5   2.0000      -0.912366       -24.8267
   6   2.0000      -0.815652       -22.1950
   7   2.0000      -0.728558       -19.8251
   8   2.0000      -0.726375       -19.7657
   9   0.0000      -0.142854        -3.8873
  10   0.0000      -0.075206        -2.0465
  11   0.0000      -0.068688        -1.8691
  12   0.0000      -0.067533        -1.8377
  13   0.0000      -0.025703        -0.6994

MULLIKEN ATOMIC CHARGES
-----------------------
   0 C :    1.122201
   1 N :   -0.682915
   2 H :    0.315510
   3 H :    0.357758
   4 H :    0.330774
   5 H :   -0.142986
   6 H :   -0.164002
   7 H :   -0.136340
Sum of atomic charges:    1.0000000

LOEWDIN ATOMIC CHARGES
----------------------
   0 C :    0.261924
   1 N :    0.315657
   2 H :    0.111857
   3 H :    0.110358
   4 H :    0.112806
   5 H :    0.029663
   6 H :    0.027659
   7 H :    0.030075

  Mayer bond orders larger than 0.100000
B(  0-C ,  1-N ) :   0.8802 B(  0-C ,  5-H ) :   0.8502 B(  0-C ,  6-H ) :   0.8686
B(  0-C ,  7-H ) :   0.8425 B(  1-N ,  2-H ) :   0.8351 B(  1-N ,  3-H ) :   0.7849
B(  1-N ,  4-H ) :   0.8210 B(  1-N ,  5-H ) :   0.1027 B(  1-N ,  7-H ) :   0.1064

FINAL SINGLE POINT ENERGY       -95.870222734079

DIPOLE MOMENT
-------------
                                X             Y             Z
Electronic contribution:     -0.26142      -0.27559       1.05734
Nuclear contribution   :      0.04246       0.12404      -0.26487
                        -----------------------------------------
Total Dipole Moment    :     -0.21897      -0.15155       0.79247
                        -----------------------------------------
Magnitude (a.u.)       :      0.83602
Magnitude (Debye)      :      2.12499

Rotational constants in cm-1:     2.856727     0.687609     0.685111
Rotational constants in MHz : 85642.512409 20614.005719 20539.101620

                             ****ORCA TERMINATED NORMALLY****
TOTAL RUN TIME: 0 days 0 hours 0 minutes 4 seconds 578 msec
