                         Program Version 5.0.0 -  RELEASE  -
|  1> !LC-BLYP RIJCOSX def2-SVPD def2/J TightSCF
|  2> *xyz 0 1
|  3> C         -1.36646        2.47911       -4.31393
|  4> C         -2.35773        2.30686       -3.13675
|  5> F         -3.44376        2.84652       -3.25274
|  6> O         -1.97092        1.58304       -2.15123
|  7> H         -1.80853        3.10058       -5.06443
|  8> H         -1.13980        1.52081       -4.73248
|  9> H         -0.46612        2.93495       -3.95827
| 10> *
| 11> %MaxCore 64000
| 12>
| 13> %pal nprocs 4
| 14> end
| 15>
| 16> %scf
| 17>   MaxIter 150
| 18> end
| 19>
| 20>
| 21>                          ****END OF INPUT****

CARTESIAN COORDINATES (ANGSTROEM)
---------------------------------
  C     -1.366460    2.479110   -4.313930
  C     -2.357730    2.306860   -3.136750
  F     -3.443760    2.846520   -3.252740
  O     -1.970920    1.583040   -2.151230
  H     -1.808530    3.100580   -5.064430
  H     -1.139800    1.520810   -4.732480
  H     -0.466120    2.934950   -3.958270

 Total Charge           Charge          ....    0
 Multiplicity           Mult            ....    1
 Number of Electrons    NEL             ....   32
 Basis Dimension        Dim             ....  110

ORBITAL ENERGIES
----------------

  NO   OCC          E(Eh)            E(eV)
   0   2.0000     -24.564954      -668.4464
   1   2.0000     -18.966739      -516.1112
   2   2.0000     -10.281139      -279.7640
   3   2.0000     -10.115077      -275.2452
   4   2.0000      -1.420655       -38.6580
   5   2.0000      -1.107041       -30.1241
   6   2.0000      -0.876866       -23.8607
   7   2.0000      -0.779525       -21.2119
   8   2.0000      -0.679872       -18.5002
   9   2.0000      -0.668527       -18.1915
  10   2.0000      -0.607233       -16.5236
  11   2.0000      -0.549915       -14.9639
  12   2.0000      -0.537707       -14.6318
  13   2.0000      -0.502006       -13.6603
  14   2.0000      -0.453151       -12.3309
  15   2.0000      -0.395340       -10.7578
  16   0.0000       0.046735         1.2717
  17   0.0000       0.060855         1.6559
  18   0.0000       0.102746         2.7959
  19   0.0000       0.137434         3.7398
  20   0.0000       0.140258         3.8166

MULLIKEN ATOMIC CHARGES
-----------------------
   0 C :    0.637608
   1 C :    0.170808
   2 F :   -0.199199
   3 O :   -0.376906
   4 H :   -0.114767
   5 H :   -0.057643
   6 H :   -0.059901
Sum of atomic charges:    0.0000000

LOEWDIN ATOMIC CHARGES
----------------------
   0 C :    0.206719
   1 C :   -0.079364
   2 F :    0.010982
   3 O :   -0.137344
   4 H :   -0.011747
   5 H :    0.005663
   6 H :    0.005091

  Mayer bond orders larger than 0.100000
B(  0-C ,  1-C ) :   1.2362 B(  0-C ,  4-H ) :   0.8444 B(  0-C ,  5-H ) :   0.7779
B(  0-C ,  6-H ) :   0.7721 B(  1-C ,  2-F ) :   0.9895 B(  1-C ,  3-O ) :   1.9089
B(  1-C ,  4-H ) :   0.1831 B(  1-C ,  5-H ) :   0.1580 B(  1-C ,  6-H ) :   0.1642

FINAL SINGLE POINT ENERGY      -252.400620764569

DIPOLE MOMENT
-------------
                                X             Y             Z
Electronic contribution:     -4.29777       0.52594       2.67000
Nuclear contribution   :      4.40923       0.04336      -3.80230
                        -----------------------------------------
Total Dipole Moment    :      0.11146       0.56930      -1.13231
                        -----------------------------------------
Magnitude (a.u.)       :      1.27226
Magnitude (Debye)      :      3.23383

Rotational constants in cm-1:     0.364425     0.322930     0.176742
Rotational constants in MHz : 10925.196996  9681.206479  5298.597717

                             ****ORCA TERMINATED NORMALLY****
TOTAL RUN TIME: 0 days 0 hours 0 minutes 8 seconds 222 msec
