                         Program Version 5.0.0 -  RELEASE  -
|  1> !LC-BLYP RIJCOSX def2-SVPD def2/J TightSCF
|  2> *xyz 0 1
|  3> C          0.64866        1.00359       -3.64560
|  4> C          0.28128        0.67645       -2.24018
|  5> H          0.39079       -0.31925       -2.02649
|  6> H         -0.69269        0.99010       -2.13812
|  7> H          0.85421        1.21221       -1.57528
|  8> H          0.03905        0.43387       -4.31545
|  9> H          1.67860        0.76457       -3.80989
| 10> H          0.49232        2.04741       -3.82138
| 11> *
| 12> %MaxCore 64000
| 13>
| 14> %pal nprocs 4
| 15> end
| 16>
| 17> %scf
| 18>   MaxIter 150
| 19> end
| 20>
| 21>
| 22>                          ****END OF INPUT****

CARTESIAN COORDINATES (ANGSTROEM)
---------------------------------
  C      0.648660    1.003590   -3.645600
  C      0.281280    0.676450   -2.240180
  H      0.390790   -0.319250   -2.026490
  H     -0.692690    0.990100   -2.138120
  H      0.854210    1.212210   -1.575280
  H      0.039050    0.433870   -4.315450
  H      1.678600    0.764570   -3.809890
  H      0.492320    2.047410   -3.821380

 Total Charge           Charge          ....    0
 Multiplicity           Mult            ....    1
 Number of Electrons    NEL             ....   18
 Basis Dimension        Dim             ....   88

ORBITAL ENERGIES
----------------

  NO   OCC          E(Eh)            E(eV)
   0   2.0000     -10.062439      -273.8129
   1   2.0000     -10.050096      -273.4770
   2   2.0000      -0.873710       -23.7749
   3   2.0000      -0.722079       -19.6488
   4   2.0000      -0.558919       -15.2090
   5   2.0000      -0.553009       -15.0482
   6   2.0000      -0.469233       -12.7685
   7   2.0000      -0.445778       -12.1302
   8   2.0000      -0.440717       -11.9925
   9   0.0000       0.079374         2.1599
  10   0.0000       0.109980         2.9927
  11   0.0000       0.160898         4.3783
  12   0.0000       0.162408         4.4193
  13   0.0000       0.180981         4.9248

MULLIKEN ATOMIC CHARGES
-----------------------
   0 C :    0.459335
   1 C :    0.815801
   2 H :   -0.301768
   3 H :   -0.238269
   4 H :   -0.262156
   5 H :   -0.155746
   6 H :   -0.169383
   7 H :   -0.147814
Sum of atomic charges:    0.0000000

LOEWDIN ATOMIC CHARGES
----------------------
   0 C :    0.062149
   1 C :    0.070290
   2 H :   -0.030987
   3 H :   -0.030723
   4 H :   -0.030388
   5 H :   -0.012846
   6 H :   -0.015566
   7 H :   -0.011929

  Mayer bond orders larger than 0.100000
B(  0-C ,  1-C ) :   1.4159 B(  0-C ,  2-H ) :   0.1863 B(  0-C ,  3-H ) :   0.2330
B(  0-C ,  4-H ) :   0.1903 B(  0-C ,  5-H ) :   0.8089 B(  0-C ,  6-H ) :   0.8387
B(  0-C ,  7-H ) :   0.8011 B(  1-C ,  2-H ) :   0.7080 B(  1-C ,  3-H ) :   0.6983
B(  1-C ,  4-H ) :   0.7000 B(  1-C ,  5-H ) :   0.1756 B(  1-C ,  6-H ) :   0.1662
B(  1-C ,  7-H ) :   0.1827

FINAL SINGLE POINT ENERGY       -79.485825951418

DIPOLE MOMENT
-------------
                                X             Y             Z
Electronic contribution:      0.01414      -0.06160       0.04132
Nuclear contribution   :     -0.02064       0.06655      -0.02194
                        -----------------------------------------
Total Dipole Moment    :     -0.00650       0.00494       0.01939
                        -----------------------------------------
Magnitude (a.u.)       :      0.02103
Magnitude (Debye)      :      0.05347

Rotational constants in cm-1:     2.856742     0.718110     0.715385
Rotational constants in MHz : 85642.970161 21528.388214 21446.695095

                             ****ORCA TERMINATED NORMALLY****
TOTAL RUN TIME: 0 days 0 hours 0 minutes 4 seconds 736 msec
