                         Program Version 5.0.0 -  RELEASE  -
|  1> !LC-BLYP RIJCOSX def2-SVPD def2/J TightSCF
|  2> *xyz 0 1
|  3> C         -1.36646        2.47911       -4.31393
|  4> C         -2.35773        2.30686       -3.13675
|  5> O         -3.44376        2.84652       -3.25274
|  6> F         -1.97092        1.58304       -2.15123
|  7> H         -1.80853        3.10058       -5.06443
|  8> H         -1.13980        1.52081       -4.73248
|  9> H         -0.46612        2.93495       -3.95827
| 10> *
| 11> %MaxCore 64000
| 12>
| 13> %pal nprocs 4
| 14> end
| 15>
| 16> %scf
| 17>   MaxIter 150
| 18> end
| 19>
| 20>
| 21>                          ****END OF INPUT****

CARTESIAN COORDINATES (ANGSTROEM)
---------------------------------
  C     -1.366460    2.479110   -4.313930
  C     -2.357730    2.306860   -3.136750
  O     -3.443760    2.846520   -3.252740
  F     -1.970920    1.583040   -2.151230
  H     -1.808530    3.100580   -5.064430
  H     -1.139800    1.520810   -4.732480
  H     -0.466120    2.934950   -3.958270

 Total Charge           Charge          ....    0
 Multiplicity           Mult            ....    1
 Number of Electrons    NEL             ....   32
 Basis Dimension        Dim             ....  110

ORBITAL ENERGIES
----------------

  NO   OCC          E(Eh)            E(eV)
   0   2.0000     -24.542111      -667.8248
   1   2.0000     -18.976744      -516.3835
   2   2.0000     -10.275426      -279.6085
   3   2.0000     -10.114330      -275.2249
   4   2.0000      -1.372862       -37.3575
   5   2.0000      -1.146201       -31.1897
   6   2.0000      -0.873632       -23.7727
   7   2.0000      -0.755075       -20.5466
   8   2.0000      -0.653694       -17.7879
   9   2.0000      -0.647009       -17.6060
  10   2.0000      -0.608058       -16.5461
  11   2.0000      -0.547570       -14.9001
  12   2.0000      -0.540924       -14.7193
  13   2.0000      -0.510795       -13.8995
  14   2.0000      -0.477603       -12.9962
  15   2.0000      -0.405166       -11.0251
  16   0.0000       0.056362         1.5337
  17   0.0000       0.062150         1.6912
  18   0.0000       0.103948         2.8286
  19   0.0000       0.134985         3.6731
  20   0.0000       0.141865         3.8603

MULLIKEN ATOMIC CHARGES
-----------------------
   0 C :    0.661475
   1 C :    0.170726
   2 O :   -0.262536
   3 F :   -0.308105
   4 H :   -0.125376
   5 H :   -0.067167
   6 H :   -0.069017
Sum of atomic charges:   -0.0000000

LOEWDIN ATOMIC CHARGES
----------------------
   0 C :    0.207481
   1 C :   -0.077059
   2 O :   -0.096100
   3 F :   -0.032619
   4 H :    0.000589
   5 H :   -0.000545
   6 H :   -0.001748

  Mayer bond orders larger than 0.100000
B(  0-C ,  1-C ) :   1.2021 B(  0-C ,  4-H ) :   0.8466 B(  0-C ,  5-H ) :   0.7787
B(  0-C ,  6-H ) :   0.7753 B(  1-C ,  2-O ) :   2.0214 B(  1-C ,  3-F ) :   0.8525
B(  1-C ,  4-H ) :   0.2335 B(  1-C ,  5-H ) :   0.1476 B(  1-C ,  6-H ) :   0.1506

FINAL SINGLE POINT ENERGY      -252.418453247049

DIPOLE MOMENT
-------------
                                X             Y             Z
Electronic contribution:     -1.88752      -1.53829       4.46711
Nuclear contribution   :      2.88734       1.34891      -4.94049
                        -----------------------------------------
Total Dipole Moment    :      0.99983      -0.18938      -0.47338
                        -----------------------------------------
Magnitude (a.u.)       :      1.12232
Magnitude (Debye)      :      2.85272

Rotational constants in cm-1:     0.375207     0.313199     0.176202
Rotational constants in MHz : 11248.433436  9389.476975  5282.390844

                             ****ORCA TERMINATED NORMALLY****
TOTAL RUN TIME: 0 days 0 hours 0 minutes 8 seconds 6 msec
