                         Program Version 5.0.0 -  RELEASE  -
|  1> !LC-BLYP RIJCOSX def2-SVPD def2/J TightSCF xyzfile
|  2>
|  3> *xyzfile 0 1 D1.xyz
|  4>
|  5> %MaxCore 64000
|  6>
|  7> %pal nprocs 4
|  8> end
|  9>
| 10> %scf
| 11>   MaxIter 150
| 12> end
| 13>
| 14>
| 15>                          ****END OF INPUT****

CARTESIAN COORDINATES (ANGSTROEM)
---------------------------------
  C      0.648656    1.003595   -3.645601
  C      0.281280    0.676454   -2.240179
  C      0.132968    2.385869   -4.024618
  C     -1.366462    2.479106   -4.313932
  C     -2.357732    2.306858   -3.136753
  H     -1.636802    1.727095   -5.063993
  H     -1.582347    3.445605   -4.768687
  H      0.390790   -0.319253   -2.026495
  H     -0.692686    0.990104   -2.138123
  H      0.854206    1.212214   -1.575279
  F     -3.443763    2.846518   -3.252744
  O     -1.970922    1.583042   -2.151229
  H      0.190993    0.239655   -4.275752
  H      1.731572    0.931729   -3.750751
  H      0.414839    3.102847   -3.245165
  H      0.683167    2.687560   -4.919721

 Total Charge           Charge          ....    0
 Multiplicity           Mult            ....    1
 Number of Electrons    NEL             ....   56
 Basis Dimension        Dim             ....  218

ORBITAL ENERGIES
----------------

  NO   OCC          E(Eh)            E(eV)
   0   2.0000     -24.574782      -668.7138
   1   2.0000     -18.971731      -516.2471
   2   2.0000     -10.290972      -280.0316
   3   2.0000     -10.126127      -275.5459
   4   2.0000     -10.094125      -274.6751
   5   2.0000     -10.065922      -273.9077
   6   2.0000      -9.995395      -271.9885
   7   2.0000      -1.429150       -38.8892
   8   2.0000      -1.128426       -30.7060
   9   2.0000      -0.922775       -25.1100
  10   2.0000      -0.862258       -23.4632
  11   2.0000      -0.794098       -21.6085
  12   2.0000      -0.765463       -20.8293
  13   2.0000      -0.693602       -18.8739
  14   2.0000      -0.681595       -18.5471
  15   2.0000      -0.665595       -18.1118
  16   2.0000      -0.631624       -17.1874
  17   2.0000      -0.591875       -16.1057
  18   2.0000      -0.556553       -15.1446
  19   2.0000      -0.541530       -14.7358
  20   2.0000      -0.514758       -14.0073
  21   2.0000      -0.487635       -13.2692
  22   2.0000      -0.480056       -13.0630
  23   2.0000      -0.459623       -12.5070
  24   2.0000      -0.444339       -12.0911
  25   2.0000      -0.418594       -11.3905
  26   2.0000      -0.410770       -11.1776
  27   2.0000      -0.344606        -9.3772
  28   0.0000       0.034412         0.9364
  29   0.0000       0.062508         1.7009
  30   0.0000       0.087434         2.3792
  31   0.0000       0.099732         2.7139
  32   0.0000       0.102977         2.8022

MULLIKEN ATOMIC CHARGES
-----------------------
   0 C :   -0.056199
   1 C :    2.566971
   2 C :    0.276378
   3 C :    0.139305
   4 C :    0.469086
   5 H :    0.114082
   6 H :   -0.052013
   7 H :   -0.195952
   8 H :   -1.956599
   9 H :   -0.093676
  10 F :   -0.234567
  11 O :   -0.295644
  12 H :   -0.077741
  13 H :   -0.307853
  14 H :   -0.096896
  15 H :   -0.198683
Sum of atomic charges:    0.0000000

LOEWDIN ATOMIC CHARGES
----------------------
   0 C :   -0.066252
   1 C :    0.118374
   2 C :   -0.033126
   3 C :    0.053247
   4 C :    0.027002
   5 H :    0.050871
   6 H :    0.030463
   7 H :   -0.024425
   8 H :   -0.206697
   9 H :   -0.018078
  10 F :    0.030748
  11 O :   -0.082424
  12 H :    0.028872
  13 H :    0.023077
  14 H :    0.041634
  15 H :    0.026714

  Mayer bond orders larger than 0.100000
B(  0-C ,  1-C ) :   0.8364 B(  0-C ,  2-C ) :   1.1855 B(  0-C ,  7-H ) :   0.2661
B(  0-C ,  8-H ) :   0.7003 B(  0-C ,  9-H ) :   0.3055 B(  0-C , 12-H ) :   0.7986
B(  0-C , 13-H ) :   0.8735 B(  0-C , 14-H ) :   0.1140 B(  0-C , 15-H ) :   0.1043
B(  1-C ,  2-C ) :   0.1216 B(  1-C ,  7-H ) :   0.3451 B(  1-C ,  8-H ) :  -2.6029
B(  1-C ,  9-H ) :   0.1223 B(  1-C , 11-O ) :  -0.1109 B(  1-C , 12-H ) :   0.1248
B(  2-C ,  3-C ) :   1.2407 B(  2-C ,  5-H ) :   0.1470 B(  2-C ,  6-H ) :   0.1677
B(  2-C , 12-H ) :   0.1018 B(  2-C , 13-H ) :   0.1444 B(  2-C , 14-H ) :   0.8175
B(  2-C , 15-H ) :   0.8195 B(  3-C ,  4-C ) :   1.1049 B(  3-C ,  5-H ) :   0.7526
B(  3-C ,  6-H ) :   0.8295 B(  3-C , 14-H ) :   0.1394 B(  3-C , 15-H ) :   0.1159
B(  4-C ,  6-H ) :   0.1185 B(  4-C , 10-F ) :   0.9369 B(  4-C , 11-O ) :   1.7917
B(  5-H , 13-H ) :  -0.1063 B(  7-H ,  8-H ) :   0.2706 B(  7-H ,  9-H ) :  -0.1511
B(  8-H ,  9-H ) :   0.5817 B(  8-H , 11-O ) :   0.3367 B(  8-H , 13-H ) :   0.1195
B( 12-H , 13-H ) :  -0.1359

FINAL SINGLE POINT ENERGY      -369.847262234423

DIPOLE MOMENT
-------------
                                X             Y             Z
Electronic contribution:    -12.99034       4.59765       1.38590
Nuclear contribution   :     12.79331      -3.91961      -2.45895
                        -----------------------------------------
Total Dipole Moment    :     -0.19702       0.67803      -1.07305
                        -----------------------------------------
Magnitude (a.u.)       :      1.28451
Magnitude (Debye)      :      3.26497

Rotational constants in cm-1:     0.162888     0.059977     0.046450
Rotational constants in MHz :  4883.250030  1798.063289  1392.548669

                             ****ORCA TERMINATED NORMALLY****
TOTAL RUN TIME: 0 days 0 hours 0 minutes 40 seconds 160 msec
