                         Program Version 5.0.0 -  RELEASE  -
|  1> !LC-BLYP RIJCOSX def2-SVPD def2/J TightSCF xyzfile
|  2>
|  3> *xyzfile 0 1 D2.xyz
|  4>
|  5> %MaxCore 64000
|  6>
|  7> %pal nprocs 4
|  8> end
|  9>
| 10> %scf
| 11>   MaxIter 150
| 12> end
| 13>
| 14>
| 15>                          ****END OF INPUT****

CARTESIAN COORDINATES (ANGSTROEM)
---------------------------------
  C      0.648656    1.003595   -3.645601
  C      0.281280    0.676454   -2.240179
  C      0.132968    2.385869   -4.024618
  C     -1.366462    2.479106   -4.313932
  C     -2.357732    2.306858   -3.136753
  H     -1.636802    1.727095   -5.063993
  H     -1.582347    3.445605   -4.768687
  H      0.390790   -0.319253   -2.026495
  H     -0.692686    0.990104   -2.138123
  H      0.854206    1.212214   -1.575279
  O     -3.443763    2.846518   -3.252744
  F     -1.970922    1.583042   -2.151229
  H      0.190993    0.239655   -4.275752
  H      1.731572    0.931729   -3.750751
  H      0.414839    3.102847   -3.245165
  H      0.683167    2.687560   -4.919721

 Total Charge           Charge          ....    0
 Multiplicity           Mult            ....    1
 Number of Electrons    NEL             ....   56
 Basis Dimension        Dim             ....  218

ORBITAL ENERGIES
----------------

  NO   OCC          E(Eh)            E(eV)
   0   2.0000     -24.550781      -668.0607
   1   2.0000     -18.982526      -516.5408
   2   2.0000     -10.278495      -279.6921
   3   2.0000     -10.122061      -275.4353
   4   2.0000     -10.098080      -274.7827
   5   2.0000     -10.079705      -274.2827
   6   2.0000     -10.028244      -272.8824
   7   2.0000      -1.392208       -37.8839
   8   2.0000      -1.151964       -31.3465
   9   2.0000      -0.931182       -25.3388
  10   2.0000      -0.869125       -23.6501
  11   2.0000      -0.787231       -21.4216
  12   2.0000      -0.780990       -21.2518
  13   2.0000      -0.691816       -18.8253
  14   2.0000      -0.670656       -18.2495
  15   2.0000      -0.662619       -18.0308
  16   2.0000      -0.613164       -16.6850
  17   2.0000      -0.579748       -15.7757
  18   2.0000      -0.559944       -15.2369
  19   2.0000      -0.555063       -15.1040
  20   2.0000      -0.526344       -14.3226
  21   2.0000      -0.497570       -13.5396
  22   2.0000      -0.488505       -13.2929
  23   2.0000      -0.468403       -12.7459
  24   2.0000      -0.439077       -11.9479
  25   2.0000      -0.431693       -11.7470
  26   2.0000      -0.424237       -11.5441
  27   2.0000      -0.393364       -10.7040
  28   0.0000       0.045315         1.2331
  29   0.0000       0.066221         1.8020
  30   0.0000       0.088313         2.4031
  31   0.0000       0.095017         2.5855
  32   0.0000       0.096259         2.6193

MULLIKEN ATOMIC CHARGES
-----------------------
   0 C :   -0.032224
   1 C :    2.620148
   2 C :    0.310274
   3 C :    0.124387
   4 C :    0.407834
   5 H :    0.112809
   6 H :   -0.065331
   7 H :   -0.162617
   8 H :   -1.907308
   9 H :   -0.078387
  10 O :   -0.231110
  11 F :   -0.404507
  12 H :   -0.084225
  13 H :   -0.309416
  14 H :   -0.104773
  15 H :   -0.195554
Sum of atomic charges:    0.0000000

LOEWDIN ATOMIC CHARGES
----------------------
   0 C :   -0.067777
   1 C :    0.132045
   2 C :   -0.042565
   3 C :    0.057990
   4 C :   -0.005936
   5 H :    0.051056
   6 H :    0.039748
   7 H :   -0.019988
   8 H :   -0.153744
   9 H :   -0.014274
  10 O :   -0.076433
  11 F :   -0.022548
  12 H :    0.030119
  13 H :    0.026189
  14 H :    0.038897
  15 H :    0.027223

  Mayer bond orders larger than 0.100000
B(  0-C ,  1-C ) :   0.8598 B(  0-C ,  2-C ) :   1.1829 B(  0-C ,  7-H ) :   0.2603
B(  0-C ,  8-H ) :   0.6460 B(  0-C ,  9-H ) :   0.3022 B(  0-C , 12-H ) :   0.8085
B(  0-C , 13-H ) :   0.8765 B(  0-C , 14-H ) :   0.1069 B(  0-C , 15-H ) :   0.1045
B(  1-C ,  2-C ) :   0.1220 B(  1-C ,  7-H ) :   0.3616 B(  1-C ,  8-H ) :  -2.6724
B(  1-C ,  9-H ) :   0.1031 B(  1-C , 11-F ) :  -0.2212 B(  1-C , 12-H ) :   0.1291
B(  2-C ,  3-C ) :   1.2105 B(  2-C ,  5-H ) :   0.1476 B(  2-C ,  6-H ) :   0.1610
B(  2-C , 12-H ) :   0.1055 B(  2-C , 13-H ) :   0.1416 B(  2-C , 14-H ) :   0.8085
B(  2-C , 15-H ) :   0.8051 B(  3-C ,  4-C ) :   1.0656 B(  3-C ,  5-H ) :   0.7532
B(  3-C ,  6-H ) :   0.8587 B(  3-C , 14-H ) :   0.1433 B(  3-C , 15-H ) :   0.1307
B(  4-C ,  6-H ) :   0.1373 B(  4-C , 10-O ) :   2.0258 B(  4-C , 11-F ) :   0.7708
B(  7-H ,  8-H ) :   0.2610 B(  7-H ,  9-H ) :  -0.1546 B(  8-H ,  9-H ) :   0.5893
B(  8-H , 11-F ) :   0.5060 B(  8-H , 13-H ) :   0.1328 B( 10-O , 11-F ) :   0.1319
B( 12-H , 13-H ) :  -0.1363

FINAL SINGLE POINT ENERGY      -369.866779086574

DIPOLE MOMENT
-------------
                                X             Y             Z
Electronic contribution:    -10.24838       2.33910       3.27818
Nuclear contribution   :     11.08738      -2.45618      -3.73478
                        -----------------------------------------
Total Dipole Moment    :      0.83900      -0.11708      -0.45660
                        -----------------------------------------
Magnitude (a.u.)       :      0.96235
Magnitude (Debye)      :      2.44610

Rotational constants in cm-1:     0.156244     0.063730     0.048063
Rotational constants in MHz :  4684.071402  1910.571278  1440.877811

                             ****ORCA TERMINATED NORMALLY****
TOTAL RUN TIME: 0 days 0 hours 0 minutes 39 seconds 937 msec
