                         Program Version 5.0.0 -  RELEASE  -
|  1> !wB97X-D3 RIJCOSX def2-SVPD def2/J TightSCF
|  2> *xyz -1 1
|  3> C         -1.10433        0.25137       -2.86006
|  4> C         -0.71189        0.84252       -4.21834
|  5> H          0.15463        1.49980       -4.13091
|  6> H         -1.53813        1.45922       -4.58267
|  7> C         -0.39762       -0.20587       -5.28802
|  8> O          0.61717       -0.00535       -5.99827
|  9> O         -1.13317       -1.22138       -5.34147
| 10> C         -0.19626       -0.86337       -2.32576
| 11> H         -1.14384        1.06671       -2.12968
| 12> H         -2.11440       -0.15683       -2.93032
| 13> H         -0.15538       -1.66172       -3.03700
| 14> H         -0.58845       -1.22999       -1.40020
| 15> H          0.78852       -0.47602       -2.16737
| 16> *
| 17>
| 18> %MaxCore 64000
| 19>
| 20> %pal nprocs 18
| 21> end
| 22>
| 23> %scf
| 24>   MaxIter 150
| 25> end
| 26>
| 27>
| 28>                          ****END OF INPUT****

CARTESIAN COORDINATES (ANGSTROEM)
---------------------------------
  C     -1.104330    0.251370   -2.860060
  C     -0.711890    0.842520   -4.218340
  H      0.154630    1.499800   -4.130910
  H     -1.538130    1.459220   -4.582670
  C     -0.397620   -0.205870   -5.288020
  O      0.617170   -0.005350   -5.998270
  O     -1.133170   -1.221380   -5.341470
  C     -0.196260   -0.863370   -2.325760
  H     -1.143840    1.066710   -2.129680
  H     -2.114400   -0.156830   -2.930320
  H     -0.155380   -1.661720   -3.037000
  H     -0.588450   -1.229990   -1.400200
  H      0.788520   -0.476020   -2.167370

 Total Charge           Charge          ....   -1
 Multiplicity           Mult            ....    1
 Number of Electrons    NEL             ....   48
 Basis Dimension        Dim             ....  182

ORBITAL ENERGIES
----------------

  NO   OCC          E(Eh)            E(eV)
   0   2.0000     -18.985011      -516.6084
   1   2.0000     -18.984216      -516.5868
   2   2.0000     -10.179654      -277.0025
   3   2.0000     -10.142014      -275.9782
   4   2.0000     -10.131673      -275.6968
   5   2.0000     -10.117717      -275.3171
   6   2.0000      -0.932003       -25.3611
   7   2.0000      -0.835882       -22.7455
   8   2.0000      -0.746210       -20.3054
   9   2.0000      -0.651403       -17.7256
  10   2.0000      -0.551042       -14.9946
  11   2.0000      -0.428201       -11.6519
  12   2.0000      -0.406307       -11.0562
  13   2.0000      -0.391999       -10.6668
  14   2.0000      -0.356494        -9.7007
  15   2.0000      -0.334815        -9.1108
  16   2.0000      -0.313391        -8.5278
  17   2.0000      -0.304104        -8.2751
  18   2.0000      -0.291569        -7.9340
  19   2.0000      -0.271483        -7.3874
  20   2.0000      -0.260224        -7.0811
  21   2.0000      -0.146811        -3.9949
  22   2.0000      -0.140368        -3.8196
  23   2.0000      -0.128548        -3.4980
  24   0.0000       0.215791         5.8720
  25   0.0000       0.238696         6.4953
  26   0.0000       0.255748         6.9593
  27   0.0000       0.265378         7.2213
  28   0.0000       0.290242         7.8979

MULLIKEN ATOMIC CHARGES
-----------------------
   0 C :   -0.408317
   1 C :    0.115348
   2 H :    0.000539
   3 H :   -0.020849
   4 C :    0.407740
   5 O :   -0.684334
   6 O :   -0.739300
   7 C :    0.610921
   8 H :   -0.160503
   9 H :    0.007352
  10 H :   -0.057066
  11 H :   -0.050239
  12 H :   -0.021292
Sum of atomic charges:   -1.0000000

LOEWDIN ATOMIC CHARGES
----------------------
   0 C :   -0.090857
   1 C :   -0.003502
   2 H :    0.003647
   3 H :    0.012701
   4 C :   -0.301922
   5 O :   -0.331379
   6 O :   -0.321926
   7 C :    0.111678
   8 H :   -0.001932
   9 H :    0.010135
  10 H :   -0.027296
  11 H :   -0.035101
  12 H :   -0.024244

  Mayer bond orders larger than 0.100000
B(  0-C ,  1-C ) :   1.1811 B(  0-C ,  2-H ) :   0.1291 B(  0-C ,  3-H ) :   0.1243
B(  0-C ,  7-C ) :   1.3059 B(  0-C ,  8-H ) :   0.9768 B(  0-C ,  9-H ) :   0.9015
B(  0-C , 10-H ) :   0.2019 B(  0-C , 11-H ) :   0.2090 B(  0-C , 12-H ) :   0.1857
B(  1-C ,  2-H ) :   0.8803 B(  1-C ,  3-H ) :   0.8383 B(  1-C ,  4-C ) :   1.0387
B(  1-C ,  8-H ) :   0.1091 B(  1-C ,  9-H ) :   0.1121 B(  2-H ,  4-C ) :   0.2077
B(  4-C ,  5-O ) :   1.4704 B(  4-C ,  6-O ) :   1.5332 B(  7-C , 10-H ) :   0.8624
B(  7-C , 11-H ) :   0.7619 B(  7-C , 12-H ) :   0.8057

Dispersion correction           -0.003359286
FINAL SINGLE POINT ENERGY      -306.863300799421

DIPOLE MOMENT
-------------
                                X             Y             Z
Electronic contribution:      0.65393      -1.00513      -7.08639
Nuclear contribution   :     -1.15173       1.87787       9.37659
                        -----------------------------------------
Total Dipole Moment    :     -0.49780       0.87274       2.29020
                        -----------------------------------------
Magnitude (a.u.)       :      2.50090
Magnitude (Debye)      :      6.35677

Rotational constants in cm-1:     0.203160     0.081703     0.075834
Rotational constants in MHz :  6090.598467  2449.397428  2273.436534

                             ****ORCA TERMINATED NORMALLY****
TOTAL RUN TIME: 0 days 0 hours 0 minutes 9 seconds 652 msec
