                         Program Version 5.0.0 -  RELEASE  -
|  1> !wB97X-D3 RIJCOSX def2-SVPD def2/J TightSCF
|  2> *xyz 1 1
|  3> C          2.23447       -2.98975       -2.39762
|  4> N          2.75680       -2.94555       -3.76503
|  5> C          1.98721       -2.59045       -4.81898
|  6> N          0.74322       -3.01749       -4.91352
|  7> N          2.49964       -1.84860       -5.80324
|  8> H          3.30978       -1.29282       -5.55895
|  9> H          1.80103       -1.30430       -6.28913
| 10> H          3.71612       -2.62880       -3.82953
| 11> H          0.39583       -3.62775       -4.18502
| 12> H          0.03920       -2.45438       -5.37137
| 13> C          2.19120       -1.61950       -1.71549
| 14> H          2.87278       -3.66637       -1.82801
| 15> H          1.24619       -3.44744       -2.40784
| 16> C          1.29873       -0.55431       -2.35977
| 17> H          1.87292       -1.78796       -0.68131
| 18> H          3.21681       -1.23843       -1.65443
| 19> H          1.61097       -0.39090       -3.37007
| 20> H          1.37981        0.35955       -1.80916
| 21> H          0.28197       -0.88750       -2.35015
| 22> *
| 23>
| 24> %MaxCore 64000
| 25>
| 26> %pal nprocs 18
| 27> end
| 28>
| 29> %scf
| 30>   MaxIter 150
| 31> end
| 32>
| 33>
| 34>                          ****END OF INPUT****

CARTESIAN COORDINATES (ANGSTROEM)
---------------------------------
  C      2.234470   -2.989750   -2.397620
  N      2.756800   -2.945550   -3.765030
  C      1.987210   -2.590450   -4.818980
  N      0.743220   -3.017490   -4.913520
  N      2.499640   -1.848600   -5.803240
  H      3.309780   -1.292820   -5.558950
  H      1.801030   -1.304300   -6.289130
  H      3.716120   -2.628800   -3.829530
  H      0.395830   -3.627750   -4.185020
  H      0.039200   -2.454380   -5.371370
  C      2.191200   -1.619500   -1.715490
  H      2.872780   -3.666370   -1.828010
  H      1.246190   -3.447440   -2.407840
  C      1.298730   -0.554310   -2.359770
  H      1.872920   -1.787960   -0.681310
  H      3.216810   -1.238430   -1.654430
  H      1.610970   -0.390900   -3.370070
  H      1.379810    0.359550   -1.809160
  H      0.281970   -0.887500   -2.350150

 Total Charge           Charge          ....    1
 Multiplicity           Mult            ....    1
 Number of Electrons    NEL             ....   56
 Basis Dimension        Dim             ....  236

ORBITAL ENERGIES
----------------

  NO   OCC          E(Eh)            E(eV)
   0   2.0000     -14.666492      -399.0955
   1   2.0000     -14.663043      -399.0017
   2   2.0000     -14.659993      -398.9187
   3   2.0000     -10.633343      -289.3480
   4   2.0000     -10.496571      -285.6262
   5   2.0000     -10.439285      -284.0674
   6   2.0000     -10.419555      -283.5305
   7   2.0000      -1.331674       -36.2367
   8   2.0000      -1.214891       -33.0589
   9   2.0000      -1.209769       -32.9195
  10   2.0000      -1.052024       -28.6270
  11   2.0000      -0.978393       -26.6234
  12   2.0000      -0.933319       -25.3969
  13   2.0000      -0.891205       -24.2509
  14   2.0000      -0.873982       -23.7823
  15   2.0000      -0.836120       -22.7520
  16   2.0000      -0.801952       -21.8222
  17   2.0000      -0.784996       -21.3608
  18   2.0000      -0.753182       -20.4951
  19   2.0000      -0.727174       -19.7874
  20   2.0000      -0.699206       -19.0264
  21   2.0000      -0.687463       -18.7068
  22   2.0000      -0.657470       -17.8907
  23   2.0000      -0.618564       -16.8320
  24   2.0000      -0.591979       -16.1086
  25   2.0000      -0.588574       -16.0159
  26   2.0000      -0.577768       -15.7219
  27   2.0000      -0.539781       -14.6882
  28   0.0000      -0.114004        -3.1022
  29   0.0000      -0.074006        -2.0138
  30   0.0000      -0.046437        -1.2636
  31   0.0000      -0.035141        -0.9562
  32   0.0000      -0.013405        -0.3648

MULLIKEN ATOMIC CHARGES
-----------------------
   0 C :    0.711299
   1 N :   -0.474314
   2 C :    1.025010
   3 N :   -0.014816
   4 N :   -0.098144
   5 H :    0.033464
   6 H :    0.063823
   7 H :   -0.125568
   8 H :    0.042166
   9 H :   -0.000416
  10 C :   -0.392888
  11 H :   -0.206257
  12 H :   -0.073047
  13 C :    0.724298
  14 H :    0.001674
  15 H :   -0.017070
  16 H :   -0.185935
  17 H :   -0.034435
  18 H :    0.021156
Sum of atomic charges:    1.0000000

LOEWDIN ATOMIC CHARGES
----------------------
   0 C :    0.073508
   1 N :    0.052410
   2 C :   -0.049799
   3 N :    0.280984
   4 N :    0.266460
   5 H :    0.037027
   6 H :    0.037247
   7 H :    0.052992
   8 H :    0.027931
   9 H :    0.051052
  10 C :   -0.046918
  11 H :    0.041542
  12 H :    0.018646
  13 C :    0.136409
  14 H :    0.039808
  15 H :    0.029729
  16 H :   -0.040032
  17 H :    0.000673
  18 H :   -0.009667

  Mayer bond orders larger than 0.100000
B(  0-C ,  1-N ) :   0.8861 B(  0-C , 10-C ) :   1.1250 B(  0-C , 11-H ) :   0.9026
B(  0-C , 12-H ) :   0.7941 B(  0-C , 14-H ) :   0.1317 B(  0-C , 15-H ) :   0.1109
B(  1-N ,  2-C ) :   1.0793 B(  1-N ,  4-N ) :   0.1480 B(  1-N ,  7-H ) :   1.1862
B(  1-N , 11-H ) :   0.1838 B(  1-N , 12-H ) :   0.1243 B(  2-C ,  3-N ) :   1.0299
B(  2-C ,  4-N ) :   0.9717 B(  2-C ,  7-H ) :  -0.1504 B(  3-N ,  4-N ) :   0.1368
B(  3-N ,  8-H ) :   0.9622 B(  3-N ,  9-H ) :   1.1674 B(  4-N ,  5-H ) :   0.9905
B(  4-N ,  6-H ) :   0.9822 B(  8-H ,  9-H ) :  -0.1480 B( 10-C , 12-H ) :   0.1342
B( 10-C , 13-C ) :   1.2682 B( 10-C , 14-H ) :   0.9371 B( 10-C , 15-H ) :   0.9471
B( 10-C , 16-H ) :   0.2196 B( 10-C , 17-H ) :   0.1903 B( 10-C , 18-H ) :   0.2166
B( 13-C , 16-H ) :   0.8320 B( 13-C , 17-H ) :   0.8099 B( 13-C , 18-H ) :   0.7477
B( 16-H , 18-H ) :   0.1299

Dispersion correction           -0.006059597
FINAL SINGLE POINT ENERGY      -323.406464157994

DIPOLE MOMENT
-------------
                                X             Y             Z
Electronic contribution:      1.23129      -3.56556      -5.58707
Nuclear contribution   :     -1.48325       3.81474       4.74728
                        -----------------------------------------
Total Dipole Moment    :     -0.25195       0.24918      -0.83980
                        -----------------------------------------
Magnitude (a.u.)       :      0.91150
Magnitude (Debye)      :      2.31685

Rotational constants in cm-1:     0.127669     0.058023     0.053953
Rotational constants in MHz :  3827.411023  1739.493733  1617.466565

                             ****ORCA TERMINATED NORMALLY****
TOTAL RUN TIME: 0 days 0 hours 0 minutes 17 seconds 535 msec
