                         Program Version 5.0.0 -  RELEASE  -
|  1> !wB97X-D3 RIJCOSX def2-SVPD def2/J TightSCF xyzfile
|  2>
|  3> *xyzfile 0 1 B.xyz
|  4>
|  5> %MaxCore 64000
|  6>
|  7> %pal nprocs 18
|  8> end
|  9>
| 10> %scf
| 11>   MaxIter 150
| 12> end
| 13>
| 14>
| 15>                          ****END OF INPUT****

CARTESIAN COORDINATES (ANGSTROEM)
---------------------------------
  C      2.234473   -2.989754   -2.397622
  N      2.756799   -2.945553   -3.765029
  C     -1.104325    0.251374   -2.860056
  C     -0.711893    0.842517   -4.218344
  H      0.154626    1.499800   -4.130909
  H     -1.538134    1.459222   -4.582671
  C     -0.397624   -0.205875   -5.288018
  C      1.987208   -2.590451   -4.818975
  N      0.743221   -3.017493   -4.913524
  N      2.499636   -1.848598   -5.803241
  H      3.309780   -1.292818   -5.558947
  H      1.801025   -1.304298   -6.289129
  H      3.716116   -2.628797   -3.829533
  H      0.395828   -3.627747   -4.185024
  H      0.039201   -2.454383   -5.371367
  O      0.617165   -0.005348   -5.998273
  O     -1.133173   -1.221380   -5.341465
  C      2.191199   -1.619503   -1.715492
  H      2.872783   -3.666368   -1.828014
  H      1.246188   -3.447444   -2.407842
  C      1.298729   -0.554314   -2.359773
  H      1.872917   -1.787955   -0.681310
  H      3.216809   -1.238432   -1.654428
  C     -0.196255   -0.863365   -2.325763
  H      1.612531   -0.371346   -3.393065
  H      1.480944    0.388638   -1.834444
  H     -0.404105   -1.761825   -2.909448
  H     -0.490439   -1.087880   -1.294131
  H     -1.143842    1.066711   -2.129680
  H     -2.114401   -0.156834   -2.930323

 Total Charge           Charge          ....    0
 Multiplicity           Mult            ....    1
 Number of Electrons    NEL             ....  102
 Basis Dimension        Dim             ....  402

ORBITAL ENERGIES
----------------

  NO   OCC          E(Eh)            E(eV)
   0   2.0000     -19.164470      -521.4917
   1   2.0000     -19.162489      -521.4378
   2   2.0000     -14.508706      -394.8020
   3   2.0000     -14.477895      -393.9636
   4   2.0000     -14.476877      -393.9359
   5   2.0000     -10.462415      -284.6968
   6   2.0000     -10.367200      -282.1059
   7   2.0000     -10.353098      -281.7221
   8   2.0000     -10.316075      -280.7147
   9   2.0000     -10.296284      -280.1761
  10   2.0000     -10.282376      -279.7977
  11   2.0000     -10.272727      -279.5351
  12   2.0000     -10.258787      -279.1558
  13   2.0000      -1.163118       -31.6500
  14   2.0000      -1.115337       -30.3499
  15   2.0000      -1.055228       -28.7142
  16   2.0000      -1.034032       -28.1374
  17   2.0000      -1.014849       -27.6155
  18   2.0000      -0.932465       -25.3737
  19   2.0000      -0.888919       -24.1887
  20   2.0000      -0.836421       -22.7602
  21   2.0000      -0.790768       -21.5179
  22   2.0000      -0.762891       -20.7593
  23   2.0000      -0.730118       -19.8675
  24   2.0000      -0.720789       -19.6137
  25   2.0000      -0.686448       -18.6792
  26   2.0000      -0.662996       -18.0410
  27   2.0000      -0.640153       -17.4195
  28   2.0000      -0.614937       -16.7333
  29   2.0000      -0.604858       -16.4590
  30   2.0000      -0.586510       -15.9598
  31   2.0000      -0.575437       -15.6584
  32   2.0000      -0.565661       -15.3924
  33   2.0000      -0.551196       -14.9988
  34   2.0000      -0.539488       -14.6802
  35   2.0000      -0.528789       -14.3891
  36   2.0000      -0.513105       -13.9623
  37   2.0000      -0.509272       -13.8580
  38   2.0000      -0.490354       -13.3432
  39   2.0000      -0.480411       -13.0727
  40   2.0000      -0.466184       -12.6855
  41   2.0000      -0.455447       -12.3934
  42   2.0000      -0.442085       -12.0297
  43   2.0000      -0.423815       -11.5326
  44   2.0000      -0.410778       -11.1778
  45   2.0000      -0.403703       -10.9853
  46   2.0000      -0.399129       -10.8608
  47   2.0000      -0.389477       -10.5982
  48   2.0000      -0.326330        -8.8799
  49   2.0000      -0.316072        -8.6007
  50   2.0000      -0.310734        -8.4555
  51   0.0000       0.054686         1.4881
  52   0.0000       0.059909         1.6302
  53   0.0000       0.079970         2.1761
  54   0.0000       0.095177         2.5899
  55   0.0000       0.104102         2.8328

MULLIKEN ATOMIC CHARGES
-----------------------
   0 C :    0.800266
   1 N :   -0.559192
   2 C :    0.495127
   3 C :    0.189504
   4 H :    0.161277
   5 H :   -0.223469
   6 C :    0.346184
   7 C :    1.068343
   8 N :    0.208082
   9 N :   -0.002232
  10 H :    0.082932
  11 H :   -0.154786
  12 H :   -0.126255
  13 H :    0.070160
  14 H :   -0.332594
  15 O :   -0.621000
  16 O :   -0.753252
  17 C :    0.337137
  18 H :   -0.308031
  19 H :    0.009561
  20 C :   -0.086905
  21 H :    0.055729
  22 H :   -0.062645
  23 C :   -0.051713
  24 H :   -0.116701
  25 H :   -0.144870
  26 H :   -0.140394
  27 H :   -0.136952
  28 H :   -0.094539
  29 H :    0.091227
Sum of atomic charges:   -0.0000000

LOEWDIN ATOMIC CHARGES
----------------------
   0 C :    0.066146
   1 N :    0.032167
   2 C :   -0.022009
   3 C :    0.030357
   4 H :    0.015944
   5 H :    0.031316
   6 C :   -0.211018
   7 C :   -0.042367
   8 N :    0.307496
   9 N :    0.270941
  10 H :    0.025271
  11 H :   -0.067796
  12 H :    0.036400
  13 H :    0.018757
  14 H :   -0.077346
  15 O :   -0.267089
  16 O :   -0.258231
  17 C :   -0.016853
  18 H :    0.026728
  19 H :    0.010044
  20 C :   -0.023382
  21 H :    0.029011
  22 H :    0.021760
  23 C :   -0.029552
  24 H :    0.005409
  25 H :    0.031633
  26 H :   -0.011917
  27 H :    0.023929
  28 H :    0.018968
  29 H :    0.025285

  Mayer bond orders larger than 0.100000
B(  0-C ,  1-N ) :   0.8660 B(  0-C , 17-C ) :   1.1069 B(  0-C , 18-H ) :   0.8277
B(  0-C , 19-H ) :   0.7982 B(  0-C , 21-H ) :   0.1338 B(  0-C , 22-H ) :   0.1208
B(  1-N ,  7-C ) :   0.9166 B(  1-N ,  8-N ) :   0.1049 B(  1-N ,  9-N ) :   0.1678
B(  1-N , 12-H ) :   1.2050 B(  1-N , 18-H ) :   0.2109 B(  1-N , 19-H ) :   0.1118
B(  2-C ,  3-C ) :   1.1773 B(  2-C ,  5-H ) :   0.1515 B(  2-C , 23-C ) :   1.2462
B(  2-C , 28-H ) :   0.8049 B(  2-C , 29-H ) :   0.6479 B(  3-C ,  4-H ) :   0.7960
B(  3-C ,  5-H ) :   0.8150 B(  3-C ,  6-C ) :   1.1278 B(  3-C , 28-H ) :   0.1479
B(  3-C , 29-H ) :   0.1187 B(  4-H ,  6-C ) :   0.2656 B(  5-H ,  6-C ) :   0.1657
B(  6-C , 15-O ) :   1.3914 B(  6-C , 16-O ) :   1.3585 B(  7-C ,  8-N ) :   0.9798
B(  7-C ,  9-N ) :   0.9011 B(  7-C , 12-H ) :  -0.1692 B(  7-C , 14-H ) :  -0.1200
B(  8-N ,  9-N ) :   0.1287 B(  8-N , 13-H ) :   0.8766 B(  8-N , 14-H ) :   1.2117
B(  9-N , 10-H ) :   0.9339 B(  9-N , 11-H ) :   0.9939 B( 11-H , 15-O ) :   0.1404
B( 13-H , 14-H ) :  -0.2250 B( 14-H , 16-O ) :   0.2255 B( 17-C , 18-H ) :   0.1022
B( 17-C , 19-H ) :   0.1165 B( 17-C , 20-C ) :   1.1981 B( 17-C , 21-H ) :   0.8079
B( 17-C , 22-H ) :   0.7427 B( 18-H , 19-H ) :  -0.1201 B( 20-C , 21-H ) :   0.1599
B( 20-C , 22-H ) :   0.2403 B( 20-C , 23-C ) :   1.2781 B( 20-C , 24-H ) :   0.9606
B( 20-C , 25-H ) :   0.8625 B( 20-C , 26-H ) :   0.1401 B( 20-C , 27-H ) :   0.2239
B( 23-C , 24-H ) :   0.1331 B( 23-C , 25-H ) :   0.1952 B( 23-C , 26-H ) :   0.9261
B( 23-C , 27-H ) :   0.7828 B( 23-C , 28-H ) :   0.1644 B( 23-C , 29-H ) :   0.2398
B( 28-H , 29-H ) :  -0.1026

Dispersion correction           -0.016101868
FINAL SINGLE POINT ENERGY      -629.262612234589

DIPOLE MOMENT
-------------
                                X             Y             Z
Electronic contribution:      0.61302      -2.85670     -10.19632
Nuclear contribution   :      1.76912       1.50070      12.36652
                        -----------------------------------------
Total Dipole Moment    :      2.38214      -1.35601       2.17020
                        -----------------------------------------
Magnitude (a.u.)       :      3.49616
Magnitude (Debye)      :      8.88653

Rotational constants in cm-1:     0.033272     0.023886     0.017112
Rotational constants in MHz :   997.469575   716.074432   513.001395

                             ****ORCA TERMINATED NORMALLY****
TOTAL RUN TIME: 0 days 0 hours 1 minutes 20 seconds 780 msec
