                         Program Version 5.0.0 -  RELEASE  -
|  1> !wB97X-D3 RIJCOSX def2-SVPD def2/J TightSCF
|  2> *xyz 0 1
|  3> C         -1.10433        0.25137       -2.86006
|  4> C         -0.71189        0.84252       -4.21834
|  5> H          0.15463        1.49980       -4.13091
|  6> H         -1.53813        1.45922       -4.58267
|  7> C         -0.39762       -0.20587       -5.28802
|  8> F          0.61717       -0.00535       -5.99827
|  9> O         -1.13317       -1.22138       -5.34147
| 10> C         -0.19626       -0.86337       -2.32576
| 11> H         -1.14384        1.06671       -2.12968
| 12> H         -2.11440       -0.15683       -2.93032
| 13> H         -0.15538       -1.66172       -3.03700
| 14> H         -0.58845       -1.22999       -1.40020
| 15> H          0.78852       -0.47602       -2.16737
| 16> *
| 17>
| 18> %MaxCore 64000
| 19>
| 20> %pal nprocs 18
| 21> end
| 22>
| 23> %scf
| 24>   MaxIter 150
| 25> end
| 26>
| 27>
| 28>                          ****END OF INPUT****

CARTESIAN COORDINATES (ANGSTROEM)
---------------------------------
  C     -1.104330    0.251370   -2.860060
  C     -0.711890    0.842520   -4.218340
  H      0.154630    1.499800   -4.130910
  H     -1.538130    1.459220   -4.582670
  C     -0.397620   -0.205870   -5.288020
  F      0.617170   -0.005350   -5.998270
  O     -1.133170   -1.221380   -5.341470
  C     -0.196260   -0.863370   -2.325760
  H     -1.143840    1.066710   -2.129680
  H     -2.114400   -0.156830   -2.930320
  H     -0.155380   -1.661720   -3.037000
  H     -0.588450   -1.229990   -1.400200
  H      0.788520   -0.476020   -2.167370

 Total Charge           Charge          ....    0
 Multiplicity           Mult            ....    1
 Number of Electrons    NEL             ....   48
 Basis Dimension        Dim             ....  182

ORBITAL ENERGIES
----------------

  NO   OCC          E(Eh)            E(eV)
   0   2.0000     -24.875687      -676.9018
   1   2.0000     -19.256133      -523.9860
   2   2.0000     -10.476314      -285.0750
   3   2.0000     -10.322759      -280.8966
   4   2.0000     -10.304044      -280.3873
   5   2.0000     -10.278898      -279.7030
   6   2.0000      -1.425949       -38.8020
   7   2.0000      -1.143760       -31.1233
   8   2.0000      -0.923570       -25.1316
   9   2.0000      -0.840097       -22.8602
  10   2.0000      -0.772263       -21.0144
  11   2.0000      -0.718178       -19.5426
  12   2.0000      -0.659243       -17.9389
  13   2.0000      -0.639549       -17.4030
  14   2.0000      -0.614855       -16.7311
  15   2.0000      -0.569739       -15.5034
  16   2.0000      -0.556968       -15.1559
  17   2.0000      -0.517651       -14.0860
  18   2.0000      -0.503407       -13.6984
  19   2.0000      -0.467079       -12.7099
  20   2.0000      -0.452705       -12.3187
  21   2.0000      -0.444645       -12.0994
  22   2.0000      -0.438037       -11.9196
  23   2.0000      -0.393919       -10.7191
  24   0.0000       0.049848         1.3564
  25   0.0000       0.085005         2.3131
  26   0.0000       0.111996         3.0476
  27   0.0000       0.117295         3.1918
  28   0.0000       0.131652         3.5824

MULLIKEN ATOMIC CHARGES
-----------------------
   0 C :   -0.396838
   1 C :   -0.016938
   2 H :    0.066333
   3 H :    0.067801
   4 C :    0.771306
   5 F :   -0.373257
   6 O :   -0.543838
   7 C :    0.605323
   8 H :   -0.108578
   9 H :    0.028914
  10 H :   -0.078419
  11 H :   -0.014478
  12 H :   -0.007330
Sum of atomic charges:    0.0000000

LOEWDIN ATOMIC CHARGES
----------------------
   0 C :   -0.062461
   1 C :    0.038642
   2 H :    0.026315
   3 H :    0.042154
   4 C :    0.002743
   5 F :   -0.036543
   6 O :   -0.137994
   7 C :    0.129667
   8 H :    0.024086
   9 H :    0.026466
  10 H :   -0.025856
  11 H :   -0.012873
  12 H :   -0.014346

  Mayer bond orders larger than 0.100000
B(  0-C ,  1-C ) :   1.2212 B(  0-C ,  2-H ) :   0.1260 B(  0-C ,  3-H ) :   0.1266
B(  0-C ,  7-C ) :   1.3294 B(  0-C ,  8-H ) :   0.9730 B(  0-C ,  9-H ) :   0.9044
B(  0-C , 10-H ) :   0.1860 B(  0-C , 11-H ) :   0.1939 B(  0-C , 12-H ) :   0.1758
B(  1-C ,  2-H ) :   0.8833 B(  1-C ,  3-H ) :   0.8344 B(  1-C ,  4-C ) :   1.1039
B(  1-C ,  8-H ) :   0.1011 B(  1-C ,  9-H ) :   0.1048 B(  2-H ,  4-C ) :   0.1065
B(  4-C ,  5-F ) :   0.7192 B(  4-C ,  6-O ) :   1.8246 B(  7-C , 10-H ) :   0.8650
B(  7-C , 11-H ) :   0.7779 B(  7-C , 12-H ) :   0.8115

Dispersion correction           -0.003283612
FINAL SINGLE POINT ENERGY      -331.394149330823

DIPOLE MOMENT
-------------
                                X             Y             Z
Electronic contribution:      2.61849      -0.65981     -10.67392
Nuclear contribution   :     -2.39146       1.63977      11.24418
                        -----------------------------------------
Total Dipole Moment    :      0.22703       0.97995       0.57026
                        -----------------------------------------
Magnitude (a.u.)       :      1.15631
Magnitude (Debye)      :      2.93910

Rotational constants in cm-1:     0.198868     0.077542     0.072498
Rotational constants in MHz :  5961.919605  2324.650173  2173.425242

                             ****ORCA TERMINATED NORMALLY****
TOTAL RUN TIME: 0 days 0 hours 0 minutes 10 seconds 341 msec
