                         Program Version 5.0.0 -  RELEASE  -
|  1> !wB97X-D3 RIJCOSX def2-SVPD def2/J TightSCF
|  2> *xyz 0 1
|  3> C          2.23447       -2.98975       -2.39762
|  4> C          2.75680       -2.94555       -3.76503
|  5> C          1.98721       -2.59045       -4.81898
|  6> N          0.74322       -3.01749       -4.91352
|  7> N          2.49964       -1.84860       -5.80324
|  8> H          3.30978       -1.29282       -5.55895
|  9> H          1.80103       -1.30430       -6.28913
| 10> H          3.71612       -2.62880       -3.82953
| 11> H          0.39583       -3.62775       -4.18502
| 12> H          0.03920       -2.45438       -5.37137
| 13> C          2.19120       -1.61950       -1.71549
| 14> H          2.87278       -3.66637       -1.82801
| 15> H          1.24619       -3.44744       -2.40784
| 16> C          1.29873       -0.55431       -2.35977
| 17> H          1.87292       -1.78796       -0.68131
| 18> H          3.21681       -1.23843       -1.65443
| 19> H          1.61097       -0.39090       -3.37007
| 20> H          1.37981        0.35955       -1.80916
| 21> H          0.28197       -0.88750       -2.35015
| 22> *
| 23>
| 24> %MaxCore 64000
| 25>
| 26> %pal nprocs 18
| 27> end
| 28>
| 29> %scf
| 30>   MaxIter 150
| 31> end
| 32>
| 33>
| 34>                          ****END OF INPUT****

CARTESIAN COORDINATES (ANGSTROEM)
---------------------------------
  C      2.234470   -2.989750   -2.397620
  C      2.756800   -2.945550   -3.765030
  C      1.987210   -2.590450   -4.818980
  N      0.743220   -3.017490   -4.913520
  N      2.499640   -1.848600   -5.803240
  H      3.309780   -1.292820   -5.558950
  H      1.801030   -1.304300   -6.289130
  H      3.716120   -2.628800   -3.829530
  H      0.395830   -3.627750   -4.185020
  H      0.039200   -2.454380   -5.371370
  C      2.191200   -1.619500   -1.715490
  H      2.872780   -3.666370   -1.828010
  H      1.246190   -3.447440   -2.407840
  C      1.298730   -0.554310   -2.359770
  H      1.872920   -1.787960   -0.681310
  H      3.216810   -1.238430   -1.654430
  H      1.610970   -0.390900   -3.370070
  H      1.379810    0.359550   -1.809160
  H      0.281970   -0.887500   -2.350150

 Total Charge           Charge          ....    0
 Multiplicity           Mult            ....    1
 Number of Electrons    NEL             ....   56
 Basis Dimension        Dim             ....  236

ORBITAL ENERGIES
----------------

  NO   OCC          E(Eh)            E(eV)
   0   2.0000     -14.445303      -393.0767
   1   2.0000     -14.441860      -392.9830
   2   2.0000     -10.341924      -281.4181
   3   2.0000     -10.272080      -279.5175
   4   2.0000     -10.267439      -279.3912
   5   2.0000     -10.266069      -279.3539
   6   2.0000     -10.214749      -277.9575
   7   2.0000      -1.083537       -29.4845
   8   2.0000      -0.988685       -26.9035
   9   2.0000      -0.899075       -24.4651
  10   2.0000      -0.832360       -22.6497
  11   2.0000      -0.769708       -20.9448
  12   2.0000      -0.707559       -19.2537
  13   2.0000      -0.673995       -18.3403
  14   2.0000      -0.648436       -17.6449
  15   2.0000      -0.611983       -16.6529
  16   2.0000      -0.571973       -15.5642
  17   2.0000      -0.553772       -15.0689
  18   2.0000      -0.542221       -14.7546
  19   2.0000      -0.513059       -13.9610
  20   2.0000      -0.488335       -13.2883
  21   2.0000      -0.474674       -12.9165
  22   2.0000      -0.449461       -12.2305
  23   2.0000      -0.434824       -11.8322
  24   2.0000      -0.411097       -11.1865
  25   2.0000      -0.406678       -11.0663
  26   2.0000      -0.373164       -10.1543
  27   2.0000      -0.248914        -6.7733
  28   0.0000       0.079554         2.1648
  29   0.0000       0.111066         3.0223
  30   0.0000       0.113198         3.0803
  31   0.0000       0.120020         3.2659
  32   0.0000       0.132099         3.5946

MULLIKEN ATOMIC CHARGES
-----------------------
   0 C :    0.140057
   1 C :   -0.066472
   2 C :    0.281327
   3 N :   -0.009892
   4 N :   -0.065890
   5 H :    0.065037
   6 H :    0.031398
   7 H :   -0.175050
   8 H :    0.018944
   9 H :   -0.096441
  10 C :   -0.328448
  11 H :   -0.047197
  12 H :   -0.166258
  13 C :    0.769682
  14 H :   -0.083118
  15 H :   -0.051732
  16 H :   -0.140468
  17 H :   -0.087067
  18 H :    0.011585
Sum of atomic charges:   -0.0000000

LOEWDIN ATOMIC CHARGES
----------------------
   0 C :   -0.071945
   1 C :   -0.021419
   2 C :   -0.247308
   3 N :    0.196821
   4 N :    0.187791
   5 H :    0.005094
   6 H :   -0.008331
   7 H :   -0.054966
   8 H :   -0.001573
   9 H :    0.002535
  10 C :   -0.072400
  11 H :    0.012530
  12 H :   -0.004432
  13 C :    0.121473
  14 H :    0.014707
  15 H :    0.019663
  16 H :   -0.037286
  17 H :   -0.020985
  18 H :   -0.019967

  Mayer bond orders larger than 0.100000
B(  0-C ,  1-C ) :   1.2311 B(  0-C ,  2-C ) :   0.1246 B(  0-C ,  7-H ) :   0.3046
B(  0-C , 10-C ) :   1.1465 B(  0-C , 11-H ) :   0.8244 B(  0-C , 12-H ) :   0.8125
B(  0-C , 14-H ) :   0.1914 B(  0-C , 15-H ) :   0.1564 B(  1-C ,  2-C ) :   1.7979
B(  1-C ,  3-N ) :   0.1216 B(  1-C ,  4-N ) :   0.2479 B(  1-C ,  7-H ) :   0.6448
B(  1-C , 11-H ) :   0.1889 B(  1-C , 12-H ) :   0.1918 B(  2-C ,  3-N ) :   1.0228
B(  2-C ,  4-N ) :   0.9345 B(  2-C ,  6-H ) :   0.1119 B(  2-C ,  7-H ) :   0.2763
B(  3-N ,  4-N ) :   0.1126 B(  3-N ,  8-H ) :   0.9748 B(  3-N ,  9-H ) :   1.1693
B(  4-N ,  5-H ) :   0.9296 B(  4-N ,  6-H ) :   0.8616 B(  8-H ,  9-H ) :  -0.1335
B( 10-C , 12-H ) :   0.1304 B( 10-C , 13-C ) :   1.2745 B( 10-C , 14-H ) :   0.9092
B( 10-C , 15-H ) :   0.9343 B( 10-C , 16-H ) :   0.2336 B( 10-C , 17-H ) :   0.2137
B( 10-C , 18-H ) :   0.2097 B( 13-C , 16-H ) :   0.8296 B( 13-C , 17-H ) :   0.7694
B( 13-C , 18-H ) :   0.7515 B( 16-H , 18-H ) :   0.1303

Dispersion correction           -0.006035613
FINAL SINGLE POINT ENERGY      -306.938780632439

DIPOLE MOMENT
-------------
                                X             Y             Z
Electronic contribution:      0.56639      -2.82920      -5.01672
Nuclear contribution   :     -1.30515       3.65216       4.73330
                        -----------------------------------------
Total Dipole Moment    :     -0.73876       0.82296      -0.28341
                        -----------------------------------------
Magnitude (a.u.)       :      1.14165
Magnitude (Debye)      :      2.90183

Rotational constants in cm-1:     0.129987     0.058163     0.054282
Rotational constants in MHz :  3896.918182  1743.696851  1627.337267

                             ****ORCA TERMINATED NORMALLY****
TOTAL RUN TIME: 0 days 0 hours 0 minutes 18 seconds 979 msec
