                         Program Version 5.0.0 -  RELEASE  -
|  1> !wB97X-D3 RIJCOSX def2-SVPD def2/J TightSCF
|  2> *xyz 0 1
|  3> C         -1.10433        0.25137       -2.86006
|  4> C         -0.71189        0.84252       -4.21834
|  5> H          0.15463        1.49980       -4.13091
|  6> H         -1.53813        1.45922       -4.58267
|  7> C         -0.39762       -0.20587       -5.28802
|  8> O          0.61717       -0.00535       -5.99827
|  9> F         -1.13317       -1.22138       -5.34147
| 10> C         -0.19626       -0.86337       -2.32576
| 11> H         -1.14384        1.06671       -2.12968
| 12> H         -2.11440       -0.15683       -2.93032
| 13> H         -0.15538       -1.66172       -3.03700
| 14> H         -0.58845       -1.22999       -1.40020
| 15> H          0.78852       -0.47602       -2.16737
| 16> *
| 17>
| 18> %MaxCore 64000
| 19>
| 20> %pal nprocs 18
| 21> end
| 22>
| 23> %scf
| 24>   MaxIter 150
| 25> end
| 26>
| 27>
| 28>                          ****END OF INPUT****

CARTESIAN COORDINATES (ANGSTROEM)
---------------------------------
  C     -1.104330    0.251370   -2.860060
  C     -0.711890    0.842520   -4.218340
  H      0.154630    1.499800   -4.130910
  H     -1.538130    1.459220   -4.582670
  C     -0.397620   -0.205870   -5.288020
  O      0.617170   -0.005350   -5.998270
  F     -1.133170   -1.221380   -5.341470
  C     -0.196260   -0.863370   -2.325760
  H     -1.143840    1.066710   -2.129680
  H     -2.114400   -0.156830   -2.930320
  H     -0.155380   -1.661720   -3.037000
  H     -0.588450   -1.229990   -1.400200
  H      0.788520   -0.476020   -2.167370

 Total Charge           Charge          ....    0
 Multiplicity           Mult            ....    1
 Number of Electrons    NEL             ....   48
 Basis Dimension        Dim             ....  182

ORBITAL ENERGIES
----------------

  NO   OCC          E(Eh)            E(eV)
   0   2.0000     -24.876374      -676.9206
   1   2.0000     -19.254729      -523.9478
   2   2.0000     -10.475297      -285.0473
   3   2.0000     -10.321588      -280.8647
   4   2.0000     -10.309311      -280.5306
   5   2.0000     -10.287183      -279.9285
   6   2.0000      -1.426388       -38.8140
   7   2.0000      -1.142022       -31.0760
   8   2.0000      -0.929302       -25.2876
   9   2.0000      -0.840602       -22.8739
  10   2.0000      -0.772388       -21.0177
  11   2.0000      -0.724579       -19.7168
  12   2.0000      -0.661472       -17.9996
  13   2.0000      -0.651316       -17.7232
  14   2.0000      -0.597357       -16.2549
  15   2.0000      -0.576959       -15.6999
  16   2.0000      -0.557833       -15.1794
  17   2.0000      -0.521320       -14.1858
  18   2.0000      -0.503814       -13.7095
  19   2.0000      -0.476351       -12.9622
  20   2.0000      -0.462545       -12.5865
  21   2.0000      -0.449603       -12.2343
  22   2.0000      -0.439641       -11.9632
  23   2.0000      -0.388184       -10.5630
  24   0.0000       0.052998         1.4421
  25   0.0000       0.082271         2.2387
  26   0.0000       0.113015         3.0753
  27   0.0000       0.116594         3.1727
  28   0.0000       0.127624         3.4728

MULLIKEN ATOMIC CHARGES
-----------------------
   0 C :   -0.394975
   1 C :    0.008144
   2 H :    0.044891
   3 H :    0.053672
   4 C :    0.791279
   5 O :   -0.494109
   6 F :   -0.421994
   7 C :    0.606514
   8 H :   -0.118519
   9 H :    0.012154
  10 H :   -0.081044
  11 H :   -0.014055
  12 H :    0.008044
Sum of atomic charges:    0.0000000

LOEWDIN ATOMIC CHARGES
----------------------
   0 C :   -0.071182
   1 C :    0.044152
   2 H :    0.037068
   3 H :    0.040041
   4 C :   -0.003859
   5 O :   -0.140728
   6 F :   -0.034415
   7 C :    0.129347
   8 H :    0.024419
   9 H :    0.021561
  10 H :   -0.024385
  11 H :   -0.012648
  12 H :   -0.009373

  Mayer bond orders larger than 0.100000
B(  0-C ,  1-C ) :   1.1880 B(  0-C ,  2-H ) :   0.1199 B(  0-C ,  3-H ) :   0.1146
B(  0-C ,  7-C ) :   1.3267 B(  0-C ,  8-H ) :   0.9811 B(  0-C ,  9-H ) :   0.9090
B(  0-C , 10-H ) :   0.1834 B(  0-C , 11-H ) :   0.1985 B(  0-C , 12-H ) :   0.1803
B(  1-C ,  2-H ) :   0.9173 B(  1-C ,  3-H ) :   0.8476 B(  1-C ,  4-C ) :   1.0572
B(  1-C ,  8-H ) :   0.1042 B(  2-H ,  4-C ) :   0.1383 B(  4-C ,  5-O ) :   1.8057
B(  4-C ,  6-F ) :   0.6999 B(  7-C , 10-H ) :   0.8624 B(  7-C , 11-H ) :   0.7771
B(  7-C , 12-H ) :   0.8150

Dispersion correction           -0.003297995
FINAL SINGLE POINT ENERGY      -331.393180500662

DIPOLE MOMENT
-------------
                                X             Y             Z
Electronic contribution:     -0.36968      -2.72079      -9.49418
Nuclear contribution   :     -0.41432       3.01336      10.50227
                        -----------------------------------------
Total Dipole Moment    :     -0.78400       0.29258       1.00809
                        -----------------------------------------
Magnitude (a.u.)       :      1.31015
Magnitude (Debye)      :      3.33015

Rotational constants in cm-1:     0.192167     0.080512     0.073747
Rotational constants in MHz :  5761.018137  2413.690728  2210.882638

                             ****ORCA TERMINATED NORMALLY****
TOTAL RUN TIME: 0 days 0 hours 0 minutes 11 seconds 736 msec
