                         Program Version 5.0.0 -  RELEASE  -
|  1> !wB97X-D3 RIJCOSX def2-SVPD def2/J TightSCF
|  2> *xyz 0 1
|  3> C          2.23447       -2.98975       -2.39762
|  4> N          2.75680       -2.94555       -3.76503
|  5> C          1.98721       -2.59045       -4.81898
|  6> C          0.74322       -3.01749       -4.91352
|  7> N          2.49964       -1.84860       -5.80324
|  8> H          3.30978       -1.29282       -5.55895
|  9> H          1.80103       -1.30430       -6.28913
| 10> H          3.71612       -2.62880       -3.82953
| 11> H          0.39583       -3.62775       -4.18502
| 12> H          0.03920       -2.45438       -5.37137
| 13> C          2.19120       -1.61950       -1.71549
| 14> H          2.87278       -3.66637       -1.82801
| 15> H          1.24619       -3.44744       -2.40784
| 16> C          1.29873       -0.55431       -2.35977
| 17> H          1.87292       -1.78796       -0.68131
| 18> H          3.21681       -1.23843       -1.65443
| 19> H          1.61097       -0.39090       -3.37007
| 20> H          1.37981        0.35955       -1.80916
| 21> H          0.28197       -0.88750       -2.35015
| 22> *
| 23>
| 24> %MaxCore 64000
| 25>
| 26> %pal nprocs 18
| 27> end
| 28>
| 29> %scf
| 30>   MaxIter 150
| 31> end
| 32>
| 33>
| 34>                          ****END OF INPUT****

CARTESIAN COORDINATES (ANGSTROEM)
---------------------------------
  C      2.234470   -2.989750   -2.397620
  N      2.756800   -2.945550   -3.765030
  C      1.987210   -2.590450   -4.818980
  C      0.743220   -3.017490   -4.913520
  N      2.499640   -1.848600   -5.803240
  H      3.309780   -1.292820   -5.558950
  H      1.801030   -1.304300   -6.289130
  H      3.716120   -2.628800   -3.829530
  H      0.395830   -3.627750   -4.185020
  H      0.039200   -2.454380   -5.371370
  C      2.191200   -1.619500   -1.715490
  H      2.872780   -3.666370   -1.828010
  H      1.246190   -3.447440   -2.407840
  C      1.298730   -0.554310   -2.359770
  H      1.872920   -1.787960   -0.681310
  H      3.216810   -1.238430   -1.654430
  H      1.610970   -0.390900   -3.370070
  H      1.379810    0.359550   -1.809160
  H      0.281970   -0.887500   -2.350150

 Total Charge           Charge          ....    0
 Multiplicity           Mult            ....    1
 Number of Electrons    NEL             ....   56
 Basis Dimension        Dim             ....  236

ORBITAL ENERGIES
----------------

  NO   OCC          E(Eh)            E(eV)
   0   2.0000     -14.440511      -392.9463
   1   2.0000     -14.439946      -392.9309
   2   2.0000     -10.338421      -281.3227
   3   2.0000     -10.322017      -280.8764
   4   2.0000     -10.290953      -280.0311
   5   2.0000     -10.274428      -279.5814
   6   2.0000     -10.206560      -277.7346
   7   2.0000      -1.080218       -29.3942
   8   2.0000      -0.998634       -27.1742
   9   2.0000      -0.889472       -24.2038
  10   2.0000      -0.830252       -22.5923
  11   2.0000      -0.797177       -21.6923
  12   2.0000      -0.711573       -19.3629
  13   2.0000      -0.665970       -18.1220
  14   2.0000      -0.647412       -17.6170
  15   2.0000      -0.613916       -16.7055
  16   2.0000      -0.574190       -15.6245
  17   2.0000      -0.558114       -15.1871
  18   2.0000      -0.526935       -14.3386
  19   2.0000      -0.511645       -13.9226
  20   2.0000      -0.500784       -13.6270
  21   2.0000      -0.478204       -13.0126
  22   2.0000      -0.464217       -12.6320
  23   2.0000      -0.454387       -12.3645
  24   2.0000      -0.439568       -11.9613
  25   2.0000      -0.429123       -11.6770
  26   2.0000      -0.347866        -9.4659
  27   2.0000      -0.264914        -7.2087
  28   0.0000       0.081811         2.2262
  29   0.0000       0.105769         2.8781
  30   0.0000       0.111821         3.0428
  31   0.0000       0.121901         3.3171
  32   0.0000       0.132900         3.6164

MULLIKEN ATOMIC CHARGES
-----------------------
   0 C :    0.715658
   1 N :   -0.415760
   2 C :    0.421481
   3 C :    0.358965
   4 N :   -0.070819
   5 H :   -0.028920
   6 H :    0.066768
   7 H :   -0.242231
   8 H :   -0.146430
   9 H :   -0.365342
  10 C :   -0.411085
  11 H :   -0.246384
  12 H :   -0.066293
  13 C :    0.765820
  14 H :   -0.047558
  15 H :   -0.046209
  16 H :   -0.202431
  17 H :   -0.036021
  18 H :   -0.003210
Sum of atomic charges:    0.0000000

LOEWDIN ATOMIC CHARGES
----------------------
   0 C :    0.049949
   1 N :   -0.007596
   2 C :   -0.256303
   3 C :    0.153019
   4 N :    0.184527
   5 H :   -0.011522
   6 H :    0.003861
   7 H :    0.015045
   8 H :   -0.100445
   9 H :   -0.086505
  10 C :   -0.066766
  11 H :    0.019162
  12 H :    0.009982
  13 C :    0.126576
  14 H :    0.019197
  15 H :    0.015344
  16 H :   -0.034944
  17 H :   -0.019134
  18 H :   -0.013449

  Mayer bond orders larger than 0.100000
B(  0-C ,  1-N ) :   0.8999 B(  0-C , 10-C ) :   1.0877 B(  0-C , 11-H ) :   0.9024
B(  0-C , 12-H ) :   0.7688 B(  0-C , 14-H ) :   0.1442 B(  0-C , 15-H ) :   0.1164
B(  1-N ,  2-C ) :   1.0018 B(  1-N ,  3-C ) :   0.2680 B(  1-N ,  4-N ) :   0.1180
B(  1-N ,  7-H ) :   1.1361 B(  1-N , 11-H ) :   0.1627 B(  1-N , 12-H ) :   0.1301
B(  2-C ,  3-C ) :   1.8663 B(  2-C ,  4-N ) :   0.8844 B(  2-C ,  7-H ) :  -0.1103
B(  2-C ,  8-H ) :   0.2939 B(  2-C ,  9-H ) :   0.1622 B(  3-C ,  4-N ) :   0.2069
B(  3-C ,  8-H ) :   0.5510 B(  3-C ,  9-H ) :   0.8675 B(  4-N ,  5-H ) :   0.9317
B(  4-N ,  6-H ) :   0.9168 B(  8-H ,  9-H ) :   0.1449 B( 10-C , 12-H ) :   0.1394
B( 10-C , 13-C ) :   1.2607 B( 10-C , 14-H ) :   0.9393 B( 10-C , 15-H ) :   0.9509
B( 10-C , 16-H ) :   0.2369 B( 10-C , 17-H ) :   0.1876 B( 10-C , 18-H ) :   0.2209
B( 13-C , 16-H ) :   0.8411 B( 13-C , 17-H ) :   0.7711 B( 13-C , 18-H ) :   0.7457
B( 16-H , 18-H ) :   0.1556

Dispersion correction           -0.006060786
FINAL SINGLE POINT ENERGY      -306.932210769831

DIPOLE MOMENT
-------------
                                X             Y             Z
Electronic contribution:      2.34996      -2.68380      -3.88517
Nuclear contribution   :     -1.74624       3.63640       4.48172
                        -----------------------------------------
Total Dipole Moment    :      0.60373       0.95260       0.59655
                        -----------------------------------------
Magnitude (a.u.)       :      1.27586
Magnitude (Debye)      :      3.24297

Rotational constants in cm-1:     0.131012     0.059513     0.054636
Rotational constants in MHz :  3927.631151  1784.169731  1637.945644

                             ****ORCA TERMINATED NORMALLY****
TOTAL RUN TIME: 0 days 0 hours 0 minutes 17 seconds 152 msec
