                         Program Version 5.0.0 -  RELEASE  -
|  1> !wB97X-D3 RIJCOSX def2-SVPD def2/J TightSCF
|  2> *xyz 0 1
|  3> C          2.23447       -2.98975       -2.39762
|  4> N          2.75680       -2.94555       -3.76503
|  5> C          1.98721       -2.59045       -4.81898
|  6> N          0.74322       -3.01749       -4.91352
|  7> C          2.49964       -1.84860       -5.80324
|  8> H          3.30978       -1.29282       -5.55895
|  9> H          1.80103       -1.30430       -6.28913
| 10> H          3.71612       -2.62880       -3.82953
| 11> H          0.39583       -3.62775       -4.18502
| 12> H          0.03920       -2.45438       -5.37137
| 13> C          2.19120       -1.61950       -1.71549
| 14> H          2.87278       -3.66637       -1.82801
| 15> H          1.24619       -3.44744       -2.40784
| 16> C          1.29873       -0.55431       -2.35977
| 17> H          1.87292       -1.78796       -0.68131
| 18> H          3.21681       -1.23843       -1.65443
| 19> H          1.61097       -0.39090       -3.37007
| 20> H          1.37981        0.35955       -1.80916
| 21> H          0.28197       -0.88750       -2.35015
| 22> *
| 23>
| 24> %MaxCore 64000
| 25>
| 26> %pal nprocs 18
| 27> end
| 28>
| 29> %scf
| 30>   MaxIter 150
| 31> end
| 32>
| 33>
| 34>                          ****END OF INPUT****

CARTESIAN COORDINATES (ANGSTROEM)
---------------------------------
  C      2.234470   -2.989750   -2.397620
  N      2.756800   -2.945550   -3.765030
  C      1.987210   -2.590450   -4.818980
  N      0.743220   -3.017490   -4.913520
  C      2.499640   -1.848600   -5.803240
  H      3.309780   -1.292820   -5.558950
  H      1.801030   -1.304300   -6.289130
  H      3.716120   -2.628800   -3.829530
  H      0.395830   -3.627750   -4.185020
  H      0.039200   -2.454380   -5.371370
  C      2.191200   -1.619500   -1.715490
  H      2.872780   -3.666370   -1.828010
  H      1.246190   -3.447440   -2.407840
  C      1.298730   -0.554310   -2.359770
  H      1.872920   -1.787960   -0.681310
  H      3.216810   -1.238430   -1.654430
  H      1.610970   -0.390900   -3.370070
  H      1.379810    0.359550   -1.809160
  H      0.281970   -0.887500   -2.350150

 Total Charge           Charge          ....    0
 Multiplicity           Mult            ....    1
 Number of Electrons    NEL             ....   56
 Basis Dimension        Dim             ....  236

ORBITAL ENERGIES
----------------

  NO   OCC          E(Eh)            E(eV)
   0   2.0000     -14.442627      -393.0039
   1   2.0000     -14.439807      -392.9271
   2   2.0000     -10.343231      -281.4536
   3   2.0000     -10.330498      -281.1071
   4   2.0000     -10.294161      -280.1184
   5   2.0000     -10.276551      -279.6392
   6   2.0000     -10.202310      -277.6190
   7   2.0000      -1.082461       -29.4553
   8   2.0000      -0.998451       -27.1692
   9   2.0000      -0.896955       -24.4074
  10   2.0000      -0.838347       -22.8126
  11   2.0000      -0.783613       -21.3232
  12   2.0000      -0.708930       -19.2910
  13   2.0000      -0.704042       -19.1580
  14   2.0000      -0.645341       -17.5606
  15   2.0000      -0.595898       -16.2152
  16   2.0000      -0.590557       -16.0699
  17   2.0000      -0.553448       -15.0601
  18   2.0000      -0.548703       -14.9310
  19   2.0000      -0.505480       -13.7548
  20   2.0000      -0.490682       -13.3521
  21   2.0000      -0.479625       -13.0513
  22   2.0000      -0.465306       -12.6616
  23   2.0000      -0.456734       -12.4284
  24   2.0000      -0.439520       -11.9599
  25   2.0000      -0.436964       -11.8904
  26   2.0000      -0.349899        -9.5212
  27   2.0000      -0.260706        -7.0942
  28   0.0000       0.082386         2.2419
  29   0.0000       0.104202         2.8355
  30   0.0000       0.106242         2.8910
  31   0.0000       0.119294         3.2461
  32   0.0000       0.131031         3.5655

MULLIKEN ATOMIC CHARGES
-----------------------
   0 C :    0.735485
   1 N :   -0.490913
   2 C :    0.268867
   3 N :    0.130218
   4 C :    0.498644
   5 H :   -0.174616
   6 H :   -0.371842
   7 H :   -0.134929
   8 H :   -0.070554
   9 H :   -0.055538
  10 C :   -0.412488
  11 H :   -0.256855
  12 H :   -0.105600
  13 C :    0.714583
  14 H :   -0.046489
  15 H :   -0.046474
  16 H :   -0.097764
  17 H :   -0.107417
  18 H :    0.023681
Sum of atomic charges:    0.0000000

LOEWDIN ATOMIC CHARGES
----------------------
   0 C :    0.042958
   1 N :   -0.003659
   2 C :   -0.251289
   3 N :    0.197784
   4 C :    0.131498
   5 H :   -0.101827
   6 H :   -0.101458
   7 H :    0.028161
   8 H :   -0.015204
   9 H :    0.017583
  10 C :   -0.067240
  11 H :    0.018085
  12 H :    0.004179
  13 C :    0.128532
  14 H :    0.017988
  15 H :    0.019299
  16 H :   -0.030000
  17 H :   -0.017748
  18 H :   -0.017644

  Mayer bond orders larger than 0.100000
B(  0-C ,  1-N ) :   0.9172 B(  0-C , 10-C ) :   1.1016 B(  0-C , 11-H ) :   0.8926
B(  0-C , 12-H ) :   0.7866 B(  0-C , 14-H ) :   0.1290 B(  0-C , 15-H ) :   0.1311
B(  1-N ,  2-C ) :   1.0087 B(  1-N ,  4-C ) :   0.1938 B(  1-N ,  7-H ) :   1.1217
B(  1-N , 11-H ) :   0.1839 B(  1-N , 12-H ) :   0.1424 B(  2-C ,  3-N ) :   1.0520
B(  2-C ,  4-C ) :   2.0548 B(  2-C ,  5-H ) :   0.2497 B(  2-C ,  6-H ) :   0.2819
B(  3-N ,  4-C ) :   0.1997 B(  3-N ,  8-H ) :   0.9658 B(  3-N ,  9-H ) :   1.0769
B(  4-C ,  5-H ) :   0.6982 B(  4-C ,  6-H ) :   0.6913 B(  5-H ,  6-H ) :   0.2513
B(  8-H ,  9-H ) :  -0.1420 B( 10-C , 12-H ) :   0.1423 B( 10-C , 13-C ) :   1.2729
B( 10-C , 14-H ) :   0.9538 B( 10-C , 15-H ) :   0.9283 B( 10-C , 16-H ) :   0.2311
B( 10-C , 17-H ) :   0.2011 B( 10-C , 18-H ) :   0.2152 B( 13-C , 16-H ) :   0.8410
B( 13-C , 17-H ) :   0.7965 B( 13-C , 18-H ) :   0.7515 B( 16-H , 18-H ) :   0.1134

Dispersion correction           -0.006083774
FINAL SINGLE POINT ENERGY      -306.927953070544

DIPOLE MOMENT
-------------
                                X             Y             Z
Electronic contribution:      0.74491      -3.81300      -3.00949
Nuclear contribution   :     -1.36148       3.89245       4.28682
                        -----------------------------------------
Total Dipole Moment    :     -0.61657       0.07946       1.27733
                        -----------------------------------------
Magnitude (a.u.)       :      1.42058
Magnitude (Debye)      :      3.61083

Rotational constants in cm-1:     0.130039     0.059901     0.055416
Rotational constants in MHz :  3898.472533  1795.778295  1661.317267

                             ****ORCA TERMINATED NORMALLY****
TOTAL RUN TIME: 0 days 0 hours 0 minutes 17 seconds 260 msec
