                         Program Version 5.0.0 -  RELEASE  -
|  1> !wB97X-D3 RIJCOSX def2-SVPD def2/J TightSCF xyzfile
|  2>
|  3> *xyzfile 0 1 D1.xyz
|  4>
|  5> %MaxCore 64000
|  6>
|  7> %pal nprocs 18
|  8> end
|  9>
| 10> %scf
| 11>   MaxIter 150
| 12> end
| 13>
| 14>
| 15>                          ****END OF INPUT****

CARTESIAN COORDINATES (ANGSTROEM)
---------------------------------
  C      2.234473   -2.989754   -2.397622
  C      2.756799   -2.945553   -3.765029
  C     -1.104325    0.251374   -2.860056
  C     -0.711893    0.842517   -4.218344
  H      0.154626    1.499800   -4.130909
  H     -1.538134    1.459222   -4.582671
  C     -0.397624   -0.205875   -5.288018
  C      1.987208   -2.590451   -4.818975
  N      0.743221   -3.017493   -4.913524
  N      2.499636   -1.848598   -5.803241
  H      3.309780   -1.292818   -5.558947
  H      1.801025   -1.304298   -6.289129
  H      3.716116   -2.628797   -3.829533
  H      0.395828   -3.627747   -4.185024
  H      0.039201   -2.454383   -5.371367
  F      0.617165   -0.005348   -5.998273
  O     -1.133173   -1.221380   -5.341465
  C      2.191199   -1.619503   -1.715492
  H      2.872783   -3.666368   -1.828014
  H      1.246188   -3.447444   -2.407842
  C      1.298729   -0.554314   -2.359773
  H      1.872917   -1.787955   -0.681310
  H      3.216809   -1.238432   -1.654428
  C     -0.196255   -0.863365   -2.325763
  H      1.612531   -0.371346   -3.393065
  H      1.480944    0.388638   -1.834444
  H     -0.404105   -1.761825   -2.909448
  H     -0.490439   -1.087880   -1.294131
  H     -1.143842    1.066711   -2.129680
  H     -2.114401   -0.156834   -2.930323

 Total Charge           Charge          ....    0
 Multiplicity           Mult            ....    1
 Number of Electrons    NEL             ....  102
 Basis Dimension        Dim             ....  402

ORBITAL ENERGIES
----------------

  NO   OCC          E(Eh)            E(eV)
   0   2.0000     -24.911882      -677.8868
   1   2.0000     -19.288073      -524.8552
   2   2.0000     -14.426265      -392.5586
   3   2.0000     -14.416647      -392.2969
   4   2.0000     -10.506408      -285.8939
   5   2.0000     -10.337523      -281.2983
   6   2.0000     -10.329644      -281.0839
   7   2.0000     -10.311264      -280.5838
   8   2.0000     -10.290356      -280.0148
   9   2.0000     -10.286629      -279.9134
  10   2.0000     -10.273474      -279.5554
  11   2.0000     -10.262708      -279.2625
  12   2.0000     -10.202465      -277.6232
  13   2.0000      -1.463413       -39.8215
  14   2.0000      -1.180884       -32.1335
  15   2.0000      -1.068757       -29.0823
  16   2.0000      -0.972925       -26.4746
  17   2.0000      -0.944918       -25.7125
  18   2.0000      -0.902983       -24.5714
  19   2.0000      -0.865590       -23.5539
  20   2.0000      -0.821102       -22.3433
  21   2.0000      -0.799596       -21.7581
  22   2.0000      -0.762550       -20.7500
  23   2.0000      -0.722651       -19.6643
  24   2.0000      -0.701034       -19.0761
  25   2.0000      -0.689671       -18.7669
  26   2.0000      -0.678427       -18.4609
  27   2.0000      -0.657544       -17.8927
  28   2.0000      -0.648888       -17.6571
  29   2.0000      -0.622447       -16.9376
  30   2.0000      -0.597702       -16.2643
  31   2.0000      -0.586936       -15.9713
  32   2.0000      -0.580014       -15.7830
  33   2.0000      -0.558574       -15.1996
  34   2.0000      -0.547349       -14.8941
  35   2.0000      -0.540381       -14.7045
  36   2.0000      -0.524699       -14.2778
  37   2.0000      -0.511169       -13.9096
  38   2.0000      -0.495038       -13.4707
  39   2.0000      -0.487025       -13.2526
  40   2.0000      -0.476409       -12.9638
  41   2.0000      -0.467621       -12.7246
  42   2.0000      -0.455323       -12.3900
  43   2.0000      -0.443474       -12.0675
  44   2.0000      -0.433715       -11.8020
  45   2.0000      -0.424016       -11.5381
  46   2.0000      -0.412033       -11.2120
  47   2.0000      -0.405510       -11.0345
  48   2.0000      -0.398466       -10.8428
  49   2.0000      -0.353631        -9.6228
  50   2.0000      -0.236745        -6.4422
  51   0.0000       0.019792         0.5386
  52   0.0000       0.074294         2.0216
  53   0.0000       0.097331         2.6485
  54   0.0000       0.101461         2.7609
  55   0.0000       0.105990         2.8841

MULLIKEN ATOMIC CHARGES
-----------------------
   0 C :    0.253134
   1 C :   -0.074544
   2 C :    0.486610
   3 C :    0.063687
   4 H :    0.208501
   5 H :   -0.175649
   6 C :    0.740000
   7 C :    0.345879
   8 N :    0.205750
   9 N :    0.051355
  10 H :    0.141051
  11 H :   -0.163605
  12 H :   -0.189242
  13 H :    0.085259
  14 H :   -0.473871
  15 F :   -0.397983
  16 O :   -0.604717
  17 C :    0.424070
  18 H :   -0.137304
  19 H :   -0.150549
  20 C :   -0.046031
  21 H :   -0.011298
  22 H :   -0.072277
  23 C :   -0.047951
  24 H :   -0.122379
  25 H :   -0.108278
  26 H :   -0.143532
  27 H :   -0.117824
  28 H :   -0.058609
  29 H :    0.090347
Sum of atomic charges:    0.0000000

LOEWDIN ATOMIC CHARGES
----------------------
   0 C :   -0.063382
   1 C :   -0.023433
   2 C :   -0.012062
   3 C :    0.055740
   4 H :    0.028804
   5 H :    0.044120
   6 C :    0.043763
   7 C :   -0.222011
   8 N :    0.228884
   9 N :    0.203858
  10 H :    0.009674
  11 H :   -0.063397
  12 H :   -0.059335
  13 H :    0.005760
  14 H :   -0.098351
  15 F :   -0.033474
  16 O :   -0.121960
  17 C :   -0.024984
  18 H :    0.012110
  19 H :   -0.007607
  20 C :   -0.028262
  21 H :    0.018524
  22 H :    0.023107
  23 C :   -0.023996
  24 H :    0.000073
  25 H :    0.024523
  26 H :   -0.006662
  27 H :    0.030997
  28 H :    0.029563
  29 H :    0.029412

  Mayer bond orders larger than 0.100000
B(  0-C ,  1-C ) :   1.1867 B(  0-C ,  7-C ) :   0.1295 B(  0-C , 12-H ) :   0.3523
B(  0-C , 17-C ) :   1.1305 B(  0-C , 18-H ) :   0.7539 B(  0-C , 19-H ) :   0.7872
B(  0-C , 21-H ) :   0.1956 B(  0-C , 22-H ) :   0.1841 B(  1-C ,  7-C ) :   1.7141
B(  1-C ,  8-N ) :   0.1355 B(  1-C ,  9-N ) :   0.3023 B(  1-C , 12-H ) :   0.5290
B(  1-C , 18-H ) :   0.2071 B(  1-C , 19-H ) :   0.1978 B(  2-C ,  3-C ) :   1.1896
B(  2-C ,  4-H ) :   0.1021 B(  2-C ,  5-H ) :   0.1735 B(  2-C , 23-C ) :   1.2496
B(  2-C , 28-H ) :   0.8007 B(  2-C , 29-H ) :   0.6588 B(  3-C ,  4-H ) :   0.8089
B(  3-C ,  5-H ) :   0.8159 B(  3-C ,  6-C ) :   1.1911 B(  3-C , 28-H ) :   0.1382
B(  3-C , 29-H ) :   0.1011 B(  4-H ,  6-C ) :   0.1475 B(  5-H ,  6-C ) :   0.1758
B(  6-C , 15-F ) :   0.6220 B(  6-C , 16-O ) :   1.6546 B(  7-C ,  8-N ) :   0.9707
B(  7-C ,  9-N ) :   0.8601 B(  7-C , 11-H ) :   0.1192 B(  7-C , 12-H ) :   0.3761
B(  8-N ,  9-N ) :   0.1047 B(  8-N , 13-H ) :   0.8809 B(  8-N , 14-H ) :   1.1850
B(  9-N , 10-H ) :   0.8506 B(  9-N , 11-H ) :   0.8199 B( 13-H , 14-H ) :  -0.2323
B( 14-H , 16-O ) :   0.1695 B( 17-C , 19-H ) :   0.1169 B( 17-C , 20-C ) :   1.2291
B( 17-C , 21-H ) :   0.7731 B( 17-C , 22-H ) :   0.7084 B( 17-C , 24-H ) :   0.1025
B( 20-C , 21-H ) :   0.1515 B( 20-C , 22-H ) :   0.2636 B( 20-C , 23-C ) :   1.2578
B( 20-C , 24-H ) :   0.9314 B( 20-C , 25-H ) :   0.7901 B( 20-C , 26-H ) :   0.1352
B( 20-C , 27-H ) :   0.2029 B( 21-H , 22-H ) :  -0.1188 B( 23-C , 24-H ) :   0.1375
B( 23-C , 25-H ) :   0.2052 B( 23-C , 26-H ) :   0.9499 B( 23-C , 27-H ) :   0.8003
B( 23-C , 28-H ) :   0.1615 B( 23-C , 29-H ) :   0.2444

Dispersion correction           -0.015947558
FINAL SINGLE POINT ENERGY      -637.134390142561

DIPOLE MOMENT
-------------
                                X             Y             Z
Electronic contribution:     -3.11785       2.28951     -14.50683
Nuclear contribution   :      2.31842      -0.27661      14.74721
                        -----------------------------------------
Total Dipole Moment    :     -0.79942       2.01290       0.24038
                        -----------------------------------------
Magnitude (a.u.)       :      2.17914
Magnitude (Debye)      :      5.53892

Rotational constants in cm-1:     0.032691     0.023990     0.017099
Rotational constants in MHz :   980.050971   719.190545   512.606858

                             ****ORCA TERMINATED NORMALLY****
TOTAL RUN TIME: 0 days 0 hours 1 minutes 7 seconds 459 msec
