                         Program Version 5.0.0 -  RELEASE  -
|  1> !wB97X-D3 RIJCOSX def2-SVPD def2/J TightSCF xyzfile
|  2>
|  3> *xyzfile 0 1 D2.xyz
|  4>
|  5> %MaxCore 64000
|  6>
|  7> %pal nprocs 18
|  8> end
|  9>
| 10> %scf
| 11>   MaxIter 150
| 12> end
| 13>
| 14>
| 15>                          ****END OF INPUT****

CARTESIAN COORDINATES (ANGSTROEM)
---------------------------------
  C      2.234473   -2.989754   -2.397622
  N      2.756799   -2.945553   -3.765029
  C     -1.104325    0.251374   -2.860056
  C     -0.711893    0.842517   -4.218344
  H      0.154626    1.499800   -4.130909
  H     -1.538134    1.459222   -4.582671
  C     -0.397624   -0.205875   -5.288018
  C      1.987208   -2.590451   -4.818975
  C      0.743221   -3.017493   -4.913524
  N      2.499636   -1.848598   -5.803241
  H      3.309780   -1.292818   -5.558947
  H      1.801025   -1.304298   -6.289129
  H      3.716116   -2.628797   -3.829533
  H      0.395828   -3.627747   -4.185024
  H      0.039201   -2.454383   -5.371367
  F      0.617165   -0.005348   -5.998273
  O     -1.133173   -1.221380   -5.341465
  C      2.191199   -1.619503   -1.715492
  H      2.872783   -3.666368   -1.828014
  H      1.246188   -3.447444   -2.407842
  C      1.298729   -0.554314   -2.359773
  H      1.872917   -1.787955   -0.681310
  H      3.216809   -1.238432   -1.654428
  C     -0.196255   -0.863365   -2.325763
  H      1.612531   -0.371346   -3.393065
  H      1.480944    0.388638   -1.834444
  H     -0.404105   -1.761825   -2.909448
  H     -0.490439   -1.087880   -1.294131
  H     -1.143842    1.066711   -2.129680
  H     -2.114401   -0.156834   -2.930323

 Total Charge           Charge          ....    0
 Multiplicity           Mult            ....    1
 Number of Electrons    NEL             ....  102
 Basis Dimension        Dim             ....  402

ORBITAL ENERGIES
----------------

  NO   OCC          E(Eh)            E(eV)
   0   2.0000     -24.894582      -677.4160
   1   2.0000     -19.262992      -524.1726
   2   2.0000     -14.431333      -392.6965
   3   2.0000     -14.423788      -392.4912
   4   2.0000     -10.484616      -285.3009
   5   2.0000     -10.326846      -281.0078
   6   2.0000     -10.323812      -280.9252
   7   2.0000     -10.318471      -280.7799
   8   2.0000     -10.304783      -280.4074
   9   2.0000     -10.293334      -280.0959
  10   2.0000     -10.292085      -280.0619
  11   2.0000     -10.286448      -279.9085
  12   2.0000     -10.184848      -277.1438
  13   2.0000      -1.445863       -39.3439
  14   2.0000      -1.156019       -31.4569
  15   2.0000      -1.069630       -29.1061
  16   2.0000      -0.989856       -26.9353
  17   2.0000      -0.937145       -25.5010
  18   2.0000      -0.897469       -24.4214
  19   2.0000      -0.845592       -23.0097
  20   2.0000      -0.818572       -22.2745
  21   2.0000      -0.801125       -21.7997
  22   2.0000      -0.772596       -21.0234
  23   2.0000      -0.727391       -19.7933
  24   2.0000      -0.696970       -18.9655
  25   2.0000      -0.677883       -18.4461
  26   2.0000      -0.654094       -17.7988
  27   2.0000      -0.652374       -17.7520
  28   2.0000      -0.637403       -17.3446
  29   2.0000      -0.628485       -17.1019
  30   2.0000      -0.598753       -16.2929
  31   2.0000      -0.586695       -15.9648
  32   2.0000      -0.573865       -15.6157
  33   2.0000      -0.551803       -15.0153
  34   2.0000      -0.546179       -14.8623
  35   2.0000      -0.526401       -14.3241
  36   2.0000      -0.517079       -14.0704
  37   2.0000      -0.509006       -13.8508
  38   2.0000      -0.498059       -13.5529
  39   2.0000      -0.483322       -13.1519
  40   2.0000      -0.473655       -12.8888
  41   2.0000      -0.463520       -12.6130
  42   2.0000      -0.459084       -12.4923
  43   2.0000      -0.451834       -12.2950
  44   2.0000      -0.442662       -12.0455
  45   2.0000      -0.425591       -11.5809
  46   2.0000      -0.416713       -11.3393
  47   2.0000      -0.413249       -11.2451
  48   2.0000      -0.383560       -10.4372
  49   2.0000      -0.338024        -9.1981
  50   2.0000      -0.250896        -6.8272
  51   0.0000       0.039316         1.0698
  52   0.0000       0.077542         2.1100
  53   0.0000       0.093787         2.5521
  54   0.0000       0.098894         2.6910
  55   0.0000       0.109594         2.9822

MULLIKEN ATOMIC CHARGES
-----------------------
   0 C :    0.784528
   1 N :   -0.439260
   2 C :    0.502883
   3 C :    0.073542
   4 H :    0.182794
   5 H :   -0.187018
   6 C :    0.648659
   7 C :    0.402000
   8 C :    0.817004
   9 N :    0.083939
  10 H :    0.060393
  11 H :   -0.144412
  12 H :   -0.196482
  13 H :   -0.052008
  14 H :   -0.774098
  15 F :   -0.421083
  16 O :   -0.632310
  17 C :    0.314689
  18 H :   -0.327307
  19 H :    0.006280
  20 C :   -0.038712
  21 H :    0.034878
  22 H :   -0.062777
  23 C :   -0.124597
  24 H :   -0.184276
  25 H :   -0.131007
  26 H :   -0.111760
  27 H :   -0.119430
  28 H :   -0.061638
  29 H :    0.096587
Sum of atomic charges:   -0.0000000

LOEWDIN ATOMIC CHARGES
----------------------
   0 C :    0.059170
   1 N :   -0.007164
   2 C :   -0.011504
   3 C :    0.053137
   4 H :    0.025173
   5 H :    0.041890
   6 C :    0.038550
   7 C :   -0.233019
   8 C :    0.179758
   9 N :    0.196564
  10 H :   -0.007631
  11 H :   -0.054006
  12 H :    0.013119
  13 H :   -0.083207
  14 H :   -0.159665
  15 F :   -0.036730
  16 O :   -0.125146
  17 C :   -0.019305
  18 H :    0.019419
  19 H :    0.006965
  20 C :   -0.027728
  21 H :    0.023152
  22 H :    0.018815
  23 C :   -0.020681
  24 H :    0.000272
  25 H :    0.025164
  26 H :   -0.002187
  27 H :    0.029431
  28 H :    0.027136
  29 H :    0.030257

  Mayer bond orders larger than 0.100000
B(  0-C ,  1-N ) :   0.9010 B(  0-C , 17-C ) :   1.0875 B(  0-C , 18-H ) :   0.8381
B(  0-C , 19-H ) :   0.7685 B(  0-C , 21-H ) :   0.1505 B(  0-C , 22-H ) :   0.1181
B(  1-N ,  7-C ) :   0.9626 B(  1-N ,  8-C ) :   0.3019 B(  1-N ,  9-N ) :   0.1380
B(  1-N , 12-H ) :   1.0955 B(  1-N , 18-H ) :   0.1945 B(  1-N , 19-H ) :   0.1246
B(  2-C ,  3-C ) :   1.1851 B(  2-C ,  5-H ) :   0.1684 B(  2-C , 23-C ) :   1.2616
B(  2-C , 28-H ) :   0.7909 B(  2-C , 29-H ) :   0.6565 B(  3-C ,  4-H ) :   0.8257
B(  3-C ,  5-H ) :   0.7997 B(  3-C ,  6-C ) :   1.1989 B(  3-C , 28-H ) :   0.1446
B(  3-C , 29-H ) :   0.1004 B(  4-H ,  6-C ) :   0.1459 B(  5-H ,  6-C ) :   0.1981
B(  6-C , 14-H ) :   0.1223 B(  6-C , 15-F ) :   0.5898 B(  6-C , 16-O ) :   1.7604
B(  7-C ,  8-C ) :   1.8802 B(  7-C ,  9-N ) :   0.8017 B(  7-C , 13-H ) :   0.3559
B(  7-C , 14-H ) :   0.1487 B(  8-C ,  9-N ) :   0.2233 B(  8-C , 13-H ) :   0.3598
B(  8-C , 14-H ) :   0.2586 B(  9-N , 10-H ) :   0.8493 B(  9-N , 11-H ) :   0.9247
B( 14-H , 16-O ) :   0.2595 B( 17-C , 19-H ) :   0.1218 B( 17-C , 20-C ) :   1.2133
B( 17-C , 21-H ) :   0.7996 B( 17-C , 22-H ) :   0.7473 B( 17-C , 24-H ) :   0.1071
B( 18-H , 19-H ) :  -0.1256 B( 20-C , 21-H ) :   0.1656 B( 20-C , 22-H ) :   0.2365
B( 20-C , 23-C ) :   1.2637 B( 20-C , 24-H ) :   0.9467 B( 20-C , 25-H ) :   0.8306
B( 20-C , 26-H ) :   0.1404 B( 20-C , 27-H ) :   0.2275 B( 23-C , 24-H ) :   0.1503
B( 23-C , 25-H ) :   0.2122 B( 23-C , 26-H ) :   0.9728 B( 23-C , 27-H ) :   0.7735
B( 23-C , 28-H ) :   0.1641 B( 23-C , 29-H ) :   0.2429 B( 28-H , 29-H ) :  -0.1022

Dispersion correction           -0.015856260
FINAL SINGLE POINT ENERGY      -637.113257405518

DIPOLE MOMENT
-------------
                                X             Y             Z
Electronic contribution:     -1.49356       2.20963     -13.51625
Nuclear contribution   :      2.00823      -0.28769      14.57028
                        -----------------------------------------
Total Dipole Moment    :      0.51466       1.92194       1.05403
                        -----------------------------------------
Magnitude (a.u.)       :      2.25160
Magnitude (Debye)      :      5.72312

Rotational constants in cm-1:     0.033070     0.023715     0.016943
Rotational constants in MHz :   991.423248   710.957140   507.940500

                             ****ORCA TERMINATED NORMALLY****
TOTAL RUN TIME: 0 days 0 hours 1 minutes 43 seconds 283 msec
