                         Program Version 5.0.0 -  RELEASE  -
|  1> !wB97X-D3 RIJCOSX def2-SVP def2/J TightSCF
|  2> *xyz -1 1
|  3> C         -5.57236       -5.80780       -0.81644
|  4> S         -6.90318       -4.61903       -0.52846
|  5> O         -8.11485       -5.25093       -0.95701
|  6> O         -6.53271       -3.42684       -1.31485
|  7> O         -6.86563       -4.29496        0.91412
|  8> H         -5.55376       -6.07856       -1.85145
|  9> H         -5.73990       -6.68165       -0.22212
| 10> H         -4.63562       -5.36690       -0.54622
| 11> *
| 12> %MaxCore 64000
| 13>
| 14> %pal nprocs 18
| 15> end
| 16>
| 17> %scf
| 18>   MaxIter 150
| 19> end
| 20>
| 21>                          ****END OF INPUT****

CARTESIAN COORDINATES (ANGSTROEM)
---------------------------------
  C     -5.572360   -5.807800   -0.816440
  S     -6.903180   -4.619030   -0.528460
  O     -8.114850   -5.250930   -0.957010
  O     -6.532710   -3.426840   -1.314850
  O     -6.865630   -4.294960    0.914120
  H     -5.553760   -6.078560   -1.851450
  H     -5.739900   -6.681650   -0.222120
  H     -4.635620   -5.366900   -0.546220

 Total Charge           Charge          ....   -1
 Multiplicity           Mult            ....    1
 Number of Electrons    NEL             ....   50
 Basis Dimension        Dim             ....   89

ORBITAL ENERGIES
----------------

  NO   OCC          E(Eh)            E(eV)
   0   2.0000     -88.937068     -2420.1007
   1   2.0000     -18.990285      -516.7519
   2   2.0000     -18.975047      -516.3373
   3   2.0000     -18.974053      -516.3102
   4   2.0000     -10.129052      -275.6255
   5   2.0000      -8.017176      -218.1584
   6   2.0000      -5.976319      -162.6239
   7   2.0000      -5.976003      -162.6153
   8   2.0000      -5.975903      -162.6126
   9   2.0000      -1.013867       -27.5887
  10   2.0000      -0.869444       -23.6588
  11   2.0000      -0.844410       -22.9776
  12   2.0000      -0.681515       -18.5450
  13   2.0000      -0.471708       -12.8358
  14   2.0000      -0.378211       -10.2916
  15   2.0000      -0.376444       -10.2436
  16   2.0000      -0.375224       -10.2104
  17   2.0000      -0.320789        -8.7291
  18   2.0000      -0.319963        -8.7066
  19   2.0000      -0.214967        -5.8495
  20   2.0000      -0.213964        -5.8223
  21   2.0000      -0.180555        -4.9132
  22   2.0000      -0.171698        -4.6721
  23   2.0000      -0.162932        -4.4336
  24   2.0000      -0.123754        -3.3675
  25   0.0000       0.310039         8.4366
  26   0.0000       0.359771         9.7899
  27   0.0000       0.361827         9.8458
  28   0.0000       0.393487        10.7073
  29   0.0000       0.472055        12.8453

MULLIKEN ATOMIC CHARGES
-----------------------
   0 C :   -0.078439
   1 S :    0.867006
   2 O :   -0.577982
   3 O :   -0.626069
   4 O :   -0.626559
   5 H :    0.012922
   6 H :    0.011393
   7 H :    0.017729
Sum of atomic charges:   -1.0000000

LOEWDIN ATOMIC CHARGES
----------------------
   0 C :   -0.211983
   1 S :    1.107750
   2 O :   -0.608377
   3 O :   -0.656040
   4 O :   -0.657148
   5 H :    0.008054
   6 H :    0.007043
   7 H :    0.010701

  Mayer bond orders larger than 0.100000
B(  0-C ,  1-S ) :   0.9004 B(  0-C ,  5-H ) :   0.9649 B(  0-C ,  6-H ) :   0.9647
B(  0-C ,  7-H ) :   0.9675 B(  1-S ,  2-O ) :   1.6483 B(  1-S ,  3-O ) :   1.5989
B(  1-S ,  4-O ) :   1.5966

Dispersion correction           -0.001521546
FINAL SINGLE POINT ENERGY      -663.356859182835

DIPOLE MOMENT
-------------
                                X             Y             Z
Electronic contribution:     -3.29973       2.77843       0.64843
Nuclear contribution   :      4.23639      -3.86101      -0.94151
                        -----------------------------------------
Total Dipole Moment    :      0.93666      -1.08258      -0.29308
                        -----------------------------------------
Magnitude (a.u.)       :      1.46123
Magnitude (Debye)      :      3.71416

Rotational constants in cm-1:     0.172406     0.155169     0.153146
Rotational constants in MHz :  5168.590738  4651.861875  4591.214998

                             ****ORCA TERMINATED NORMALLY****
TOTAL RUN TIME: 0 days 0 hours 0 minutes 5 seconds 599 msec
