                         Program Version 5.0.0 -  RELEASE  -
|  1> !wB97X-D3 RIJCOSX def2-SVP def2/J TightSCF
|  2> *xyz 1 1
|  3> C         -4.38262       -1.67089        1.21620
|  4> N         -5.76354       -1.91517        0.70501
|  5> H         -5.84081       -2.11520       -0.30065
|  6> H         -6.40882       -1.14866        0.93612
|  7> H         -6.17478       -2.79061        1.05143
|  8> H         -4.01369       -0.74796        0.81997
|  9> H         -3.74223       -2.47168        0.91037
| 10> H         -4.40201       -1.61791        2.28471
| 11> *
| 12> %MaxCore 64000
| 13>
| 14> %pal nprocs 18
| 15> end
| 16>
| 17> %scf
| 18>   MaxIter 150
| 19> end
| 20>
| 21>                          ****END OF INPUT****

CARTESIAN COORDINATES (ANGSTROEM)
---------------------------------
  C     -4.382620   -1.670890    1.216200
  N     -5.763540   -1.915170    0.705010
  H     -5.840810   -2.115200   -0.300650
  H     -6.408820   -1.148660    0.936120
  H     -6.174780   -2.790610    1.051430
  H     -4.013690   -0.747960    0.819970
  H     -3.742230   -2.471680    0.910370
  H     -4.402010   -1.617910    2.284710

 Total Charge           Charge          ....    1
 Multiplicity           Mult            ....    1
 Number of Electrons    NEL             ....   18
 Basis Dimension        Dim             ....   58

ORBITAL ENERGIES
----------------

  NO   OCC          E(Eh)            E(eV)
   0   2.0000     -14.789191      -402.4343
   1   2.0000     -10.548577      -287.0414
   2   2.0000      -1.335410       -36.3384
   3   2.0000      -1.051925       -28.6243
   4   2.0000      -0.919191       -25.0125
   5   2.0000      -0.894908       -24.3517
   6   2.0000      -0.819903       -22.3107
   7   2.0000      -0.725788       -19.7497
   8   2.0000      -0.722445       -19.6587
   9   0.0000      -0.102542        -2.7903
  10   0.0000      -0.035541        -0.9671
  11   0.0000      -0.032352        -0.8803
  12   0.0000      -0.003888        -0.1058
  13   0.0000       0.041649         1.1333

MULLIKEN ATOMIC CHARGES
-----------------------
   0 C :    0.012298
   1 N :   -0.058757
   2 H :    0.223078
   3 H :    0.233137
   4 H :    0.220818
   5 H :    0.124324
   6 H :    0.121152
   7 H :    0.123950
Sum of atomic charges:    1.0000000

LOEWDIN ATOMIC CHARGES
----------------------
   0 C :    0.073536
   1 N :    0.285468
   2 H :    0.151914
   3 H :    0.152460
   4 H :    0.151037
   5 H :    0.061971
   6 H :    0.061407
   7 H :    0.062208

  Mayer bond orders larger than 0.100000
B(  0-C ,  1-N ) :   0.9206 B(  0-C ,  5-H ) :   0.9724 B(  0-C ,  6-H ) :   0.9727
B(  0-C ,  7-H ) :   0.9716 B(  1-N ,  2-H ) :   0.9317 B(  1-N ,  3-H ) :   0.9312
B(  1-N ,  4-H ) :   0.9336

Dispersion correction           -0.000533427
FINAL SINGLE POINT ENERGY       -96.116876555826

DIPOLE MOMENT
-------------
                                X             Y             Z
Electronic contribution:     -0.98888      -0.13977      -0.36368
Nuclear contribution   :      0.12888      -0.05969       0.04130
                        -----------------------------------------
Total Dipole Moment    :     -0.86000      -0.19946      -0.32239
                        -----------------------------------------
Magnitude (a.u.)       :      0.93985
Magnitude (Debye)      :      2.38892

Rotational constants in cm-1:     2.932748     0.676653     0.669753
Rotational constants in MHz : 87921.559023 20285.538082 20078.692306

                             ****ORCA TERMINATED NORMALLY****
TOTAL RUN TIME: 0 days 0 hours 0 minutes 3 seconds 556 msec
