                         Program Version 5.0.0 -  RELEASE  -
|  1> !wB97X-D3 RIJCOSX def2-SVP def2/J TightSCF
|  2> *xyz 0 1
|  3> C         -5.57236       -5.80780       -0.81644
|  4> S         -6.90318       -4.61903       -0.52846
|  5> F         -8.11485       -5.25093       -0.95701
|  6> O         -6.53271       -3.42684       -1.31485
|  7> O         -6.86563       -4.29496        0.91412
|  8> H         -5.55376       -6.07856       -1.85145
|  9> H         -5.73990       -6.68165       -0.22212
| 10> H         -4.63562       -5.36690       -0.54622
| 11> *
| 12> %MaxCore 64000
| 13>
| 14> %pal nprocs 18
| 15> end
| 16>
| 17> %scf
| 18>   MaxIter 150
| 19> end
| 20>
| 21>                          ****END OF INPUT****

CARTESIAN COORDINATES (ANGSTROEM)
---------------------------------
  C     -5.572360   -5.807800   -0.816440
  S     -6.903180   -4.619030   -0.528460
  F     -8.114850   -5.250930   -0.957010
  O     -6.532710   -3.426840   -1.314850
  O     -6.865630   -4.294960    0.914120
  H     -5.553760   -6.078560   -1.851450
  H     -5.739900   -6.681650   -0.222120
  H     -4.635620   -5.366900   -0.546220

 Total Charge           Charge          ....    0
 Multiplicity           Mult            ....    1
 Number of Electrons    NEL             ....   50
 Basis Dimension        Dim             ....   89

ORBITAL ENERGIES
----------------

  NO   OCC          E(Eh)            E(eV)
   0   2.0000     -89.219665     -2427.7905
   1   2.0000     -24.916045      -678.0001
   2   2.0000     -19.234429      -523.3954
   3   2.0000     -19.233380      -523.3669
   4   2.0000     -10.349123      -281.6140
   5   2.0000      -8.302040      -225.9100
   6   2.0000      -6.265303      -170.4876
   7   2.0000      -6.258274      -170.2963
   8   2.0000      -6.257650      -170.2793
   9   2.0000      -1.500260       -40.8242
  10   2.0000      -1.205843       -32.8126
  11   2.0000      -1.099857       -29.9286
  12   2.0000      -0.914613       -24.8879
  13   2.0000      -0.827466       -22.5165
  14   2.0000      -0.714849       -19.4520
  15   2.0000      -0.698037       -18.9946
  16   2.0000      -0.654905       -17.8209
  17   2.0000      -0.578733       -15.7481
  18   2.0000      -0.571597       -15.5540
  19   2.0000      -0.563571       -15.3356
  20   2.0000      -0.522348       -14.2138
  21   2.0000      -0.471269       -12.8239
  22   2.0000      -0.417772       -11.3682
  23   2.0000      -0.412006       -11.2113
  24   2.0000      -0.386080       -10.5058
  25   0.0000       0.114315         3.1107
  26   0.0000       0.148008         4.0275
  27   0.0000       0.161422         4.3925
  28   0.0000       0.164961         4.4888
  29   0.0000       0.186008         5.0615

MULLIKEN ATOMIC CHARGES
-----------------------
   0 C :   -0.095823
   1 S :    0.930397
   2 F :   -0.163159
   3 O :   -0.478172
   4 O :   -0.477832
   5 H :    0.084568
   6 H :    0.084431
   7 H :    0.115590
Sum of atomic charges:   -0.0000000

LOEWDIN ATOMIC CHARGES
----------------------
   0 C :   -0.152517
   1 S :    1.165313
   2 F :   -0.108336
   3 O :   -0.520527
   4 O :   -0.520904
   5 H :    0.039359
   6 H :    0.038935
   7 H :    0.058677

  Mayer bond orders larger than 0.100000
B(  0-C ,  1-S ) :   0.9288 B(  0-C ,  5-H ) :   0.9540 B(  0-C ,  6-H ) :   0.9545
B(  0-C ,  7-H ) :   0.9586 B(  1-S ,  2-F ) :   1.0358 B(  1-S ,  3-O ) :   1.7494
B(  1-S ,  4-O ) :   1.7474

Dispersion correction           -0.001530103
FINAL SINGLE POINT ENERGY      -687.851226605247

DIPOLE MOMENT
-------------
                                X             Y             Z
Electronic contribution:     -5.26176       1.61166      -0.09821
Nuclear contribution   :      5.53040      -3.27628      -0.52239
                        -----------------------------------------
Total Dipole Moment    :      0.26864      -1.66462      -0.62060
                        -----------------------------------------
Magnitude (a.u.)       :      1.79674
Magnitude (Debye)      :      4.56695

Rotational constants in cm-1:     0.163239     0.153903     0.144751
Rotational constants in MHz :  4893.777363  4613.882823  4339.513182

                             ****ORCA TERMINATED NORMALLY****
TOTAL RUN TIME: 0 days 0 hours 0 minutes 5 seconds 848 msec
