                         Program Version 5.0.0 -  RELEASE  -
|  1> !wB97X-D3 RIJCOSX def2-SVP def2/J TightSCF
|  2> *xyz 0 1
|  3> C         -4.38262       -1.67089        1.21620
|  4> C         -5.76354       -1.91517        0.70501
|  5> H         -5.84081       -2.11520       -0.30065
|  6> H         -6.40882       -1.14866        0.93612
|  7> H         -6.17478       -2.79061        1.05143
|  8> H         -4.01369       -0.74796        0.81997
|  9> H         -3.74223       -2.47168        0.91037
| 10> H         -4.40201       -1.61791        2.28471
| 11> *
| 12> %MaxCore 64000
| 13>
| 14> %pal nprocs 18
| 15> end
| 16>
| 17> %scf
| 18>   MaxIter 150
| 19> end
| 20>
| 21>                          ****END OF INPUT****

CARTESIAN COORDINATES (ANGSTROEM)
---------------------------------
  C     -4.382620   -1.670890    1.216200
  C     -5.763540   -1.915170    0.705010
  H     -5.840810   -2.115200   -0.300650
  H     -6.408820   -1.148660    0.936120
  H     -6.174780   -2.790610    1.051430
  H     -4.013690   -0.747960    0.819970
  H     -3.742230   -2.471680    0.910370
  H     -4.402010   -1.617910    2.284710

 Total Charge           Charge          ....    0
 Multiplicity           Mult            ....    1
 Number of Electrons    NEL             ....   18
 Basis Dimension        Dim             ....   58

ORBITAL ENERGIES
----------------

  NO   OCC          E(Eh)            E(eV)
   0   2.0000     -10.267044      -279.3805
   1   2.0000     -10.251633      -278.9611
   2   2.0000      -0.874603       -23.7992
   3   2.0000      -0.731093       -19.8941
   4   2.0000      -0.549625       -14.9561
   5   2.0000      -0.536218       -14.5912
   6   2.0000      -0.470030       -12.7902
   7   2.0000      -0.443496       -12.0681
   8   2.0000      -0.429871       -11.6974
   9   0.0000       0.159218         4.3326
  10   0.0000       0.208591         5.6760
  11   0.0000       0.223389         6.0787
  12   0.0000       0.225751         6.1430
  13   0.0000       0.257053         6.9948

MULLIKEN ATOMIC CHARGES
-----------------------
   0 C :   -0.070305
   1 C :   -0.027169
   2 H :    0.002233
   3 H :    0.012838
   4 H :   -0.000092
   5 H :    0.028238
   6 H :    0.025815
   7 H :    0.028442
Sum of atomic charges:   -0.0000000

LOEWDIN ATOMIC CHARGES
----------------------
   0 C :   -0.056913
   1 C :   -0.058612
   2 H :    0.016144
   3 H :    0.015544
   4 H :    0.016338
   5 H :    0.022210
   6 H :    0.022397
   7 H :    0.022893

  Mayer bond orders larger than 0.100000
B(  0-C ,  1-C ) :   1.1063 B(  0-C ,  5-H ) :   0.9816 B(  0-C ,  6-H ) :   0.9808
B(  0-C ,  7-H ) :   0.9808 B(  1-C ,  2-H ) :   0.9731 B(  1-C ,  3-H ) :   0.9782
B(  1-C ,  4-H ) :   0.9720

Dispersion correction           -0.000522348
FINAL SINGLE POINT ENERGY       -79.730619877460

DIPOLE MOMENT
-------------
                                X             Y             Z
Electronic contribution:      0.08238       0.07570       0.03422
Nuclear contribution   :     -0.10782      -0.10031      -0.04623
                        -----------------------------------------
Total Dipole Moment    :     -0.02544      -0.02461      -0.01201
                        -----------------------------------------
Magnitude (a.u.)       :      0.03738
Magnitude (Debye)      :      0.09501

Rotational constants in cm-1:     2.932831     0.705715     0.698218
Rotational constants in MHz : 87924.050302 21156.813368 20932.044240

                             ****ORCA TERMINATED NORMALLY****
TOTAL RUN TIME: 0 days 0 hours 0 minutes 3 seconds 560 msec
