                         Program Version 5.0.0 -  RELEASE  -
|  1> !wB97X-D3 RIJCOSX def2-SVP def2/J TightSCF
|  2> *xyz 0 1
|  3> C         -5.57236       -5.80780       -0.81644
|  4> S         -6.90318       -4.61903       -0.52846
|  5> O         -8.11485       -5.25093       -0.95701
|  6> F         -6.53271       -3.42684       -1.31485
|  7> O         -6.86563       -4.29496        0.91412
|  8> H         -5.55376       -6.07856       -1.85145
|  9> H         -5.73990       -6.68165       -0.22212
| 10> H         -4.63562       -5.36690       -0.54622
| 11> *
| 12> %MaxCore 64000
| 13>
| 14> %pal nprocs 18
| 15> end
| 16>
| 17> %scf
| 18>   MaxIter 150
| 19> end
| 20>
| 21>                          ****END OF INPUT****

CARTESIAN COORDINATES (ANGSTROEM)
---------------------------------
  C     -5.572360   -5.807800   -0.816440
  S     -6.903180   -4.619030   -0.528460
  O     -8.114850   -5.250930   -0.957010
  F     -6.532710   -3.426840   -1.314850
  O     -6.865630   -4.294960    0.914120
  H     -5.553760   -6.078560   -1.851450
  H     -5.739900   -6.681650   -0.222120
  H     -4.635620   -5.366900   -0.546220

 Total Charge           Charge          ....    0
 Multiplicity           Mult            ....    1
 Number of Electrons    NEL             ....   50
 Basis Dimension        Dim             ....   89

ORBITAL ENERGIES
----------------

  NO   OCC          E(Eh)            E(eV)
   0   2.0000     -89.218210     -2427.7509
   1   2.0000     -24.893936      -677.3984
   2   2.0000     -19.249007      -523.7921
   3   2.0000     -19.234389      -523.3943
   4   2.0000     -10.348556      -281.5985
   5   2.0000      -8.300432      -225.8662
   6   2.0000      -6.263430      -170.4366
   7   2.0000      -6.256966      -170.2607
   8   2.0000      -6.256267      -170.2417
   9   2.0000      -1.462521       -39.7972
  10   2.0000      -1.223236       -33.2860
  11   2.0000      -1.116643       -30.3854
  12   2.0000      -0.912839       -24.8396
  13   2.0000      -0.808778       -22.0080
  14   2.0000      -0.696984       -18.9659
  15   2.0000      -0.671593       -18.2750
  16   2.0000      -0.650803       -17.7092
  17   2.0000      -0.578828       -15.7507
  18   2.0000      -0.574407       -15.6304
  19   2.0000      -0.564363       -15.3571
  20   2.0000      -0.530987       -14.4489
  21   2.0000      -0.481157       -13.0930
  22   2.0000      -0.431587       -11.7441
  23   2.0000      -0.417119       -11.3504
  24   2.0000      -0.399550       -10.8723
  25   0.0000       0.114098         3.1048
  26   0.0000       0.146705         3.9920
  27   0.0000       0.161875         4.4048
  28   0.0000       0.173484         4.7207
  29   0.0000       0.184268         5.0142

MULLIKEN ATOMIC CHARGES
-----------------------
   0 C :   -0.098830
   1 S :    0.940673
   2 O :   -0.436071
   3 F :   -0.207271
   4 O :   -0.483321
   5 H :    0.085382
   6 H :    0.112674
   7 H :    0.086764
Sum of atomic charges:   -0.0000000

LOEWDIN ATOMIC CHARGES
----------------------
   0 C :   -0.153922
   1 S :    1.171479
   2 O :   -0.477411
   3 F :   -0.152207
   4 O :   -0.525190
   5 H :    0.039754
   6 H :    0.056618
   7 H :    0.040879

  Mayer bond orders larger than 0.100000
B(  0-C ,  1-S ) :   0.9303 B(  0-C ,  5-H ) :   0.9542 B(  0-C ,  6-H ) :   0.9586
B(  0-C ,  7-H ) :   0.9556 B(  1-S ,  2-O ) :   1.8019 B(  1-S ,  3-F ) :   0.9861
B(  1-S ,  4-O ) :   1.7514

Dispersion correction           -0.001529238
FINAL SINGLE POINT ENERGY      -687.870810381770

DIPOLE MOMENT
-------------
                                X             Y             Z
Electronic contribution:     -2.59910       4.67890      -0.70958
Nuclear contribution   :      3.94974      -5.09866      -0.16489
                        -----------------------------------------
Total Dipole Moment    :      1.35064      -0.41976      -0.87447
                        -----------------------------------------
Magnitude (a.u.)       :      1.66287
Magnitude (Debye)      :      4.22667

Rotational constants in cm-1:     0.163657     0.151977     0.145976
Rotational constants in MHz :  4906.325390  4556.144033  4376.262759

                             ****ORCA TERMINATED NORMALLY****
TOTAL RUN TIME: 0 days 0 hours 0 minutes 4 seconds 864 msec
