                         Program Version 5.0.0 -  RELEASE  -
|  1> !wB97X-D3 RIJCOSX def2-SVP def2/J TightSCF
|  2> *xyz 0 1
|  3> C         -5.57236       -5.80780       -0.81644
|  4> S         -6.90318       -4.61903       -0.52846
|  5> O         -8.11485       -5.25093       -0.95701
|  6> O         -6.53271       -3.42684       -1.31485
|  7> F         -6.86563       -4.29496        0.91412
|  8> H         -5.55376       -6.07856       -1.85145
|  9> H         -5.73990       -6.68165       -0.22212
| 10> H         -4.63562       -5.36690       -0.54622
| 11> *
| 12> %MaxCore 64000
| 13>
| 14> %pal nprocs 18
| 15> end
| 16>
| 17> %scf
| 18>   MaxIter 150
| 19> end
| 20>
| 21>                          ****END OF INPUT****

CARTESIAN COORDINATES (ANGSTROEM)
---------------------------------
  C     -5.572360   -5.807800   -0.816440
  S     -6.903180   -4.619030   -0.528460
  O     -8.114850   -5.250930   -0.957010
  O     -6.532710   -3.426840   -1.314850
  F     -6.865630   -4.294960    0.914120
  H     -5.553760   -6.078560   -1.851450
  H     -5.739900   -6.681650   -0.222120
  H     -4.635620   -5.366900   -0.546220

 Total Charge           Charge          ....    0
 Multiplicity           Mult            ....    1
 Number of Electrons    NEL             ....   50
 Basis Dimension        Dim             ....   89

ORBITAL ENERGIES
----------------

  NO   OCC          E(Eh)            E(eV)
   0   2.0000     -89.217917     -2427.7429
   1   2.0000     -24.893755      -677.3935
   2   2.0000     -19.249100      -523.7946
   3   2.0000     -19.233508      -523.3704
   4   2.0000     -10.348581      -281.5992
   5   2.0000      -8.300174      -225.8592
   6   2.0000      -6.263139      -170.4287
   7   2.0000      -6.256700      -170.2535
   8   2.0000      -6.256038      -170.2354
   9   2.0000      -1.460514       -39.7426
  10   2.0000      -1.223999       -33.3067
  11   2.0000      -1.117467       -30.4078
  12   2.0000      -0.912078       -24.8189
  13   2.0000      -0.808396       -21.9976
  14   2.0000      -0.696270       -18.9465
  15   2.0000      -0.670301       -18.2398
  16   2.0000      -0.650204       -17.6930
  17   2.0000      -0.578592       -15.7443
  18   2.0000      -0.574080       -15.6215
  19   2.0000      -0.565227       -15.3806
  20   2.0000      -0.531131       -14.4528
  21   2.0000      -0.481270       -13.0960
  22   2.0000      -0.431597       -11.7443
  23   2.0000      -0.416596       -11.3361
  24   2.0000      -0.399629       -10.8745
  25   0.0000       0.109659         2.9840
  26   0.0000       0.146609         3.9894
  27   0.0000       0.163128         4.4389
  28   0.0000       0.174296         4.7428
  29   0.0000       0.185109         5.0371

MULLIKEN ATOMIC CHARGES
-----------------------
   0 C :   -0.097486
   1 S :    0.940276
   2 O :   -0.435647
   3 O :   -0.483009
   4 F :   -0.208920
   5 H :    0.113500
   6 H :    0.083436
   7 H :    0.087849
Sum of atomic charges:   -0.0000000

LOEWDIN ATOMIC CHARGES
----------------------
   0 C :   -0.152731
   1 S :    1.171162
   2 O :   -0.476969
   3 O :   -0.524091
   4 F :   -0.154499
   5 H :    0.057235
   6 H :    0.038477
   7 H :    0.041415

  Mayer bond orders larger than 0.100000
B(  0-C ,  1-S ) :   0.9310 B(  0-C ,  5-H ) :   0.9581 B(  0-C ,  6-H ) :   0.9546
B(  0-C ,  7-H ) :   0.9557 B(  1-S ,  2-O ) :   1.8020 B(  1-S ,  3-O ) :   1.7535
B(  1-S ,  4-F ) :   0.9835

Dispersion correction           -0.001528000
FINAL SINGLE POINT ENERGY      -687.870432644286

DIPOLE MOMENT
-------------
                                X             Y             Z
Electronic contribution:     -3.16131       3.20937       3.05062
Nuclear contribution   :      4.28235      -4.23136      -2.39177
                        -----------------------------------------
Total Dipole Moment    :      1.12104      -1.02198       0.65884
                        -----------------------------------------
Magnitude (a.u.)       :      1.65386
Magnitude (Debye)      :      4.20378

Rotational constants in cm-1:     0.164456     0.151338     0.145749
Rotational constants in MHz :  4930.268698  4537.002642  4369.437533

                             ****ORCA TERMINATED NORMALLY****
TOTAL RUN TIME: 0 days 0 hours 0 minutes 4 seconds 791 msec
