                         Program Version 5.0.0 -  RELEASE  -
|  1> !wB97X-D3 RIJCOSX def2-SVP def2/J TightSCF xyzfile
|  2>
|  3> *xyzfile 0 1 D1.xyz
|  4>
|  5> %MaxCore 64000
|  6>
|  7> %pal nprocs 18
|  8> end
|  9>
| 10> %scf
| 11>   MaxIter 150
| 12> end
| 13>
| 14>
| 15>                          ****END OF INPUT****

CARTESIAN COORDINATES (ANGSTROEM)
---------------------------------
  C     -4.382623   -1.670889    1.216201
  C     -5.763539   -1.915170    0.705012
  C     -3.281728   -2.191272    0.294361
  C     -5.572364   -5.807798   -0.816445
  S     -6.903179   -4.619033   -0.528458
  H     -5.840812   -2.115205   -0.300646
  H     -6.408823   -1.148656    0.936124
  H     -6.174781   -2.790606    1.051433
  F     -8.114853   -5.250932   -0.957007
  O     -6.532715   -3.426838   -1.314848
  H     -4.328618   -2.139223    2.198103
  H     -4.261583   -0.597399    1.357248
  O     -6.865632   -4.294957    0.914118
  C     -3.474641   -3.605898   -0.259608
  H     -2.354548   -2.127602    0.871433
  H     -3.166611   -1.499693   -0.545037
  C     -3.827078   -4.661097    0.786174
  H     -2.560559   -3.889391   -0.788050
  H     -4.255932   -3.570040   -1.019300
  C     -4.457800   -5.941875    0.229195
  H     -5.177347   -5.542575   -1.797714
  H     -6.074202   -6.768894   -0.921272
  H     -4.530506   -4.253640    1.511979
  H     -2.933400   -4.932302    1.356825
  H     -3.681064   -6.562236   -0.229885
  H     -4.843942   -6.512728    1.075805

 Total Charge           Charge          ....    0
 Multiplicity           Mult            ....    1
 Number of Electrons    NEL             ....   98
 Basis Dimension        Dim             ....  233

ORBITAL ENERGIES
----------------

  NO   OCC          E(Eh)            E(eV)
   0   2.0000     -89.227303     -2427.9983
   1   2.0000     -24.923202      -678.1948
   2   2.0000     -19.246209      -523.7160
   3   2.0000     -19.245297      -523.6912
   4   2.0000     -10.355354      -281.7835
   5   2.0000     -10.319126      -280.7977
   6   2.0000     -10.284546      -279.8567
   7   2.0000     -10.273359      -279.5523
   8   2.0000     -10.264066      -279.2994
   9   2.0000     -10.249143      -278.8934
  10   2.0000     -10.190843      -277.3069
  11   2.0000      -8.309849      -226.1225
  12   2.0000      -6.272982      -170.6965
  13   2.0000      -6.266332      -170.5156
  14   2.0000      -6.265251      -170.4861
  15   2.0000      -1.507339       -41.0168
  16   2.0000      -1.222204       -33.2579
  17   2.0000      -1.116712       -30.3873
  18   2.0000      -0.950222       -25.8569
  19   2.0000      -0.905953       -24.6522
  20   2.0000      -0.863872       -23.5071
  21   2.0000      -0.835660       -22.7395
  22   2.0000      -0.799260       -21.7490
  23   2.0000      -0.752621       -20.4799
  24   2.0000      -0.718620       -19.5547
  25   2.0000      -0.707565       -19.2538
  26   2.0000      -0.689925       -18.7738
  27   2.0000      -0.657736       -17.8979
  28   2.0000      -0.641044       -17.4437
  29   2.0000      -0.597897       -16.2696
  30   2.0000      -0.597451       -16.2575
  31   2.0000      -0.570781       -15.5317
  32   2.0000      -0.564506       -15.3610
  33   2.0000      -0.540069       -14.6960
  34   2.0000      -0.532045       -14.4777
  35   2.0000      -0.512096       -13.9348
  36   2.0000      -0.507285       -13.8039
  37   2.0000      -0.482654       -13.1337
  38   2.0000      -0.473701       -12.8900
  39   2.0000      -0.469826       -12.7846
  40   2.0000      -0.438067       -11.9204
  41   2.0000      -0.431819       -11.7504
  42   2.0000      -0.426436       -11.6039
  43   2.0000      -0.424031       -11.5385
  44   2.0000      -0.414220       -11.2715
  45   2.0000      -0.400829       -10.9071
  46   2.0000      -0.383460       -10.4345
  47   2.0000      -0.375751       -10.2247
  48   2.0000      -0.353056        -9.6072
  49   0.0000       0.105048         2.8585
  50   0.0000       0.116417         3.1679
  51   0.0000       0.146533         3.9874
  52   0.0000       0.151371         4.1190
  53   0.0000       0.162061         4.4099

MULLIKEN ATOMIC CHARGES
-----------------------
   0 C :   -0.087155
   1 C :    0.015925
   2 C :   -0.005336
   3 C :   -0.153806
   4 S :    0.985321
   5 H :    0.012013
   6 H :   -0.023400
   7 H :    0.009232
   8 F :   -0.155514
   9 O :   -0.454031
  10 H :    0.009228
  11 H :    0.009736
  12 O :   -0.452134
  13 C :   -0.061813
  14 H :    0.006695
  15 H :    0.018491
  16 C :   -0.050745
  17 H :    0.012836
  18 H :    0.022229
  19 C :   -0.008711
  20 H :    0.102811
  21 H :    0.077856
  22 H :    0.049872
  23 H :    0.026103
  24 H :    0.047847
  25 H :    0.046448
Sum of atomic charges:    0.0000000

LOEWDIN ATOMIC CHARGES
----------------------
   0 C :   -0.045853
   1 C :   -0.091094
   2 C :   -0.036779
   3 C :   -0.151733
   4 S :    1.184829
   5 H :   -0.001842
   6 H :    0.007827
   7 H :   -0.012383
   8 F :   -0.102915
   9 O :   -0.469830
  10 H :    0.012795
  11 H :    0.019187
  12 O :   -0.464609
  13 C :   -0.050759
  14 H :    0.016111
  15 H :    0.023194
  16 C :   -0.044790
  17 H :    0.020241
  18 H :    0.013326
  19 C :   -0.036043
  20 H :    0.045261
  21 H :    0.035754
  22 H :    0.028684
  23 H :    0.028197
  24 H :    0.038827
  25 H :    0.034397

  Mayer bond orders larger than 0.100000
B(  0-C ,  1-C ) :   1.0799 B(  0-C ,  2-C ) :   1.0830 B(  0-C , 10-H ) :   0.9520
B(  0-C , 11-H ) :   0.9544 B(  1-C ,  5-H ) :   0.9569 B(  1-C ,  6-H ) :   0.9366
B(  1-C ,  7-H ) :   0.9424 B(  2-C , 13-C ) :   1.0867 B(  2-C , 14-H ) :   0.9514
B(  2-C , 15-H ) :   0.9470 B(  3-C ,  4-S ) :   0.8990 B(  3-C , 19-C ) :   1.0454
B(  3-C , 20-H ) :   0.9273 B(  3-C , 21-H ) :   0.9361 B(  4-S ,  8-F ) :   1.0494
B(  4-S ,  9-O ) :   1.7043 B(  4-S , 12-O ) :   1.6907 B( 13-C , 16-C ) :   1.0555
B( 13-C , 17-H ) :   0.9464 B( 13-C , 18-H ) :   0.9355 B( 16-C , 19-C ) :   1.0817
B( 16-C , 22-H ) :   0.9426 B( 16-C , 23-H ) :   0.9429 B( 19-C , 24-H ) :   0.9417
B( 19-C , 25-H ) :   0.9505

Dispersion correction           -0.012979686
FINAL SINGLE POINT ENERGY      -923.459268179917

DIPOLE MOMENT
-------------
                                X             Y             Z
Electronic contribution:    -19.05746      -8.76843      -6.78426
Nuclear contribution   :     19.08524       6.89775       6.14221
                        -----------------------------------------
Total Dipole Moment    :      0.02777      -1.87068      -0.64205
                        -----------------------------------------
Magnitude (a.u.)       :      1.97799
Magnitude (Debye)      :      5.02765

Rotational constants in cm-1:     0.049343     0.024787     0.019726
Rotational constants in MHz :  1479.262779   743.087234   591.370705

                             ****ORCA TERMINATED NORMALLY****
TOTAL RUN TIME: 0 days 0 hours 0 minutes 21 seconds 180 msec
