                         Program Version 5.0.0 -  RELEASE  -
|  1> !BLYP D3BJ RIJCOSX def2-SVP def2/J TightSCF
|  2> *xyz -1 1
|  3> C          0.96805        1.63064       -3.71575
|  4> C         -0.50835        1.72268       -4.12430
|  5> S         -1.32861        0.14674       -4.43578
|  6> H         -0.59151        2.29496       -5.04722
|  7> H         -1.11411        2.23561       -3.37436
|  8> O         -2.57135        0.47573       -5.06834
|  9> O         -1.51496       -0.40051       -3.06342
| 10> O         -0.37793       -0.62756       -5.20114
| 11> H          1.51840        1.12197       -4.47946
| 12> H          1.05062        1.08971       -2.79625
| 13> H          1.36450        2.61606       -3.58668
| 14> *
| 15> %MaxCore 64000
| 16>
| 17> %pal nprocs 4
| 18> end
| 19>
| 20> %scf
| 21>   MaxIter 150
| 22> end
| 23>
| 24>
| 25>                          ****END OF INPUT****

CARTESIAN COORDINATES (ANGSTROEM)
---------------------------------
  C      0.968050    1.630640   -3.715750
  C     -0.508350    1.722680   -4.124300
  S     -1.328610    0.146740   -4.435780
  H     -0.591510    2.294960   -5.047220
  H     -1.114110    2.235610   -3.374360
  O     -2.571350    0.475730   -5.068340
  O     -1.514960   -0.400510   -3.063420
  O     -0.377930   -0.627560   -5.201140
  H      1.518400    1.121970   -4.479460
  H      1.050620    1.089710   -2.796250
  H      1.364500    2.616060   -3.586680

 Total Charge           Charge          ....   -1
 Multiplicity           Mult            ....    1
 Number of Electrons    NEL             ....   58
 Basis Dimension        Dim             ....  113

ORBITAL ENERGIES
----------------

  NO   OCC          E(Eh)            E(eV)
   0   2.0000     -88.080438     -2396.7906
   1   2.0000     -18.530163      -504.2314
   2   2.0000     -18.527263      -504.1524
   3   2.0000     -18.508996      -503.6554
   4   2.0000      -9.766782      -265.7676
   5   2.0000      -9.757055      -265.5030
   6   2.0000      -7.624073      -207.4616
   7   2.0000      -5.658730      -153.9819
   8   2.0000      -5.658455      -153.9744
   9   2.0000      -5.658246      -153.9687
  10   2.0000      -0.798734       -21.7347
  11   2.0000      -0.667198       -18.1554
  12   2.0000      -0.635153       -17.2834
  13   2.0000      -0.526995       -14.3403
  14   2.0000      -0.412686       -11.2298
  15   2.0000      -0.289168        -7.8686
  16   2.0000      -0.244581        -6.6554
  17   2.0000      -0.230249        -6.2654
  18   2.0000      -0.198009        -5.3881
  19   2.0000      -0.177573        -4.8320
  20   2.0000      -0.174859        -4.7582
  21   2.0000      -0.154652        -4.2083
  22   2.0000      -0.144134        -3.9221
  23   2.0000      -0.060908        -1.6574
  24   2.0000      -0.059877        -1.6293
  25   2.0000      -0.033159        -0.9023
  26   2.0000      -0.028128        -0.7654
  27   2.0000      -0.009383        -0.2553
  28   2.0000       0.023179         0.6307
  29   0.0000       0.185795         5.0557
  30   0.0000       0.234860         6.3909
  31   0.0000       0.241676         6.5763
  32   0.0000       0.247612         6.7379
  33   0.0000       0.275217         7.4890

MULLIKEN ATOMIC CHARGES
-----------------------
   0 C :    0.116628
   1 C :   -0.018078
   2 S :    0.756618
   3 H :   -0.056412
   4 H :   -0.043759
   5 O :   -0.514788
   6 O :   -0.579842
   7 O :   -0.527389
   8 H :   -0.029724
   9 H :   -0.032440
  10 H :   -0.070814
Sum of atomic charges:   -1.0000000

LOEWDIN ATOMIC CHARGES
----------------------
   0 C :   -0.061575
   1 C :   -0.182465
   2 S :    1.053638
   3 H :   -0.010169
   4 H :   -0.003296
   5 O :   -0.576094
   6 O :   -0.638864
   7 O :   -0.587431
   8 H :    0.006836
   9 H :    0.006568
  10 H :   -0.007147

  Mayer bond orders larger than 0.100000
B(  0-C ,  1-C ) :   1.0833 B(  0-C ,  8-H ) :   0.9558 B(  0-C ,  9-H ) :   0.9568
B(  0-C , 10-H ) :   0.9447 B(  1-C ,  2-S ) :   0.8667 B(  1-C ,  3-H ) :   0.9217
B(  1-C ,  4-H ) :   0.9293 B(  2-S ,  5-O ) :   1.6602 B(  2-S ,  6-O ) :   1.5888
B(  2-S ,  7-O ) :   1.6359

Dispersion correction           -0.020497875
FINAL SINGLE POINT ENERGY      -702.639990770913

DIPOLE MOMENT
-------------
                                X             Y             Z
Electronic contribution:     -5.79377      -5.57264      -1.99457
Nuclear contribution   :      6.64523       6.80157       2.07300
                        -----------------------------------------
Total Dipole Moment    :      0.85145       1.22893       0.07843
                        -----------------------------------------
Magnitude (a.u.)       :      1.49713
Magnitude (Debye)      :      3.80540

Rotational constants in cm-1:     0.163070     0.082807     0.081541
Rotational constants in MHz :  4888.719902  2482.497026  2444.541148

                             ****ORCA TERMINATED NORMALLY****
TOTAL RUN TIME: 0 days 0 hours 0 minutes 8 seconds 323 msec
