                         Program Version 5.0.0 -  RELEASE  -
|  1> !BLYP D3BJ RIJCOSX def2-SVP def2/J TightSCF
|  2> *xyz 0 1
|  3> C          0.96805        1.63064       -3.71575
|  4> C         -0.50835        1.72268       -4.12430
|  5> S         -1.32861        0.14674       -4.43578
|  6> H         -0.59151        2.29496       -5.04722
|  7> H         -1.11411        2.23561       -3.37436
|  8> F         -2.57135        0.47573       -5.06834
|  9> O         -1.51496       -0.40051       -3.06342
| 10> O         -0.37793       -0.62756       -5.20114
| 11> H          1.51840        1.12197       -4.47946
| 12> H          1.05062        1.08971       -2.79625
| 13> H          1.36450        2.61606       -3.58668
| 14> *
| 15> %MaxCore 64000
| 16>
| 17> %pal nprocs 4
| 18> end
| 19>
| 20> %scf
| 21>   MaxIter 150
| 22> end
| 23>
| 24>
| 25>                          ****END OF INPUT****

CARTESIAN COORDINATES (ANGSTROEM)
---------------------------------
  C      0.968050    1.630640   -3.715750
  C     -0.508350    1.722680   -4.124300
  S     -1.328610    0.146740   -4.435780
  H     -0.591510    2.294960   -5.047220
  H     -1.114110    2.235610   -3.374360
  F     -2.571350    0.475730   -5.068340
  O     -1.514960   -0.400510   -3.063420
  O     -0.377930   -0.627560   -5.201140
  H      1.518400    1.121970   -4.479460
  H      1.050620    1.089710   -2.796250
  H      1.364500    2.616060   -3.586680

 Total Charge           Charge          ....    0
 Multiplicity           Mult            ....    1
 Number of Electrons    NEL             ....   58
 Basis Dimension        Dim             ....  113

ORBITAL ENERGIES
----------------

  NO   OCC          E(Eh)            E(eV)
   0   2.0000     -88.352606     -2404.1966
   1   2.0000     -24.401174      -663.9897
   2   2.0000     -18.778436      -510.9872
   3   2.0000     -18.761531      -510.5272
   4   2.0000      -9.969791      -271.2918
   5   2.0000      -9.937253      -270.4064
   6   2.0000      -7.898736      -214.9355
   7   2.0000      -5.937594      -161.5701
   8   2.0000      -5.930932      -161.3889
   9   2.0000      -5.929482      -161.3494
  10   2.0000      -1.257801       -34.2265
  11   2.0000      -0.991628       -26.9836
  12   2.0000      -0.888515       -24.1777
  13   2.0000      -0.725979       -19.7549
  14   2.0000      -0.650983       -17.7141
  15   2.0000      -0.596559       -16.2332
  16   2.0000      -0.513024       -13.9601
  17   2.0000      -0.508932       -13.8487
  18   2.0000      -0.476981       -12.9793
  19   2.0000      -0.429815       -11.6959
  20   2.0000      -0.411328       -11.1928
  21   2.0000      -0.372436       -10.1345
  22   2.0000      -0.368220       -10.0198
  23   2.0000      -0.352051        -9.5798
  24   2.0000      -0.333857        -9.0847
  25   2.0000      -0.313940        -8.5427
  26   2.0000      -0.267265        -7.2726
  27   2.0000      -0.250577        -6.8185
  28   2.0000      -0.233579        -6.3560
  29   0.0000       0.007231         0.1968
  30   0.0000       0.026372         0.7176
  31   0.0000       0.049526         1.3477
  32   0.0000       0.065319         1.7774
  33   0.0000       0.075256         2.0478

MULLIKEN ATOMIC CHARGES
-----------------------
   0 C :    0.096475
   1 C :   -0.061737
   2 S :    0.834147
   3 H :    0.015129
   4 H :    0.030564
   5 F :   -0.126255
   6 O :   -0.441175
   7 O :   -0.392426
   8 H :    0.018428
   9 H :    0.019610
  10 H :    0.007240
Sum of atomic charges:    0.0000000

LOEWDIN ATOMIC CHARGES
----------------------
   0 C :   -0.034047
   1 C :   -0.146810
   2 S :    1.105255
   3 H :    0.019113
   4 H :    0.027500
   5 F :   -0.094300
   6 O :   -0.506242
   7 O :   -0.458074
   8 H :    0.027947
   9 H :    0.029238
  10 H :    0.030420

  Mayer bond orders larger than 0.100000
B(  0-C ,  1-C ) :   1.1033 B(  0-C ,  8-H ) :   0.9632 B(  0-C ,  9-H ) :   0.9672
B(  0-C , 10-H ) :   0.9533 B(  1-C ,  2-S ) :   0.9053 B(  1-C ,  3-H ) :   0.9210
B(  1-C ,  4-H ) :   0.9253 B(  2-S ,  5-F ) :   1.0539 B(  2-S ,  6-O ) :   1.7427
B(  2-S ,  7-O ) :   1.7849

Dispersion correction           -0.019595241
FINAL SINGLE POINT ENERGY      -727.150744622543

DIPOLE MOMENT
-------------
                                X             Y             Z
Electronic contribution:     -8.40163      -5.29960      -3.25227
Nuclear contribution   :      8.31000       6.74109       2.87442
                        -----------------------------------------
Total Dipole Moment    :     -0.09163       1.44149      -0.37785
                        -----------------------------------------
Magnitude (a.u.)       :      1.49300
Magnitude (Debye)      :      3.79490

Rotational constants in cm-1:     0.158705     0.080192     0.078179
Rotational constants in MHz :  4757.865601  2404.095079  2343.752507

                             ****ORCA TERMINATED NORMALLY****
TOTAL RUN TIME: 0 days 0 hours 0 minutes 7 seconds 123 msec
