                         Program Version 5.0.0 -  RELEASE  -
|  1> !BLYP D3BJ RIJCOSX def2-SVP def2/J TightSCF
|  2> *xyz 0 1
|  3> C          1.36401        0.46874       -2.81376
|  4> C          0.42884        0.32140       -1.65531
|  5> C          0.96805        1.63064       -3.71575
|  6> H          0.74858       -0.40054       -1.00134
|  7> H         -0.46105        0.02333       -2.07773
|  8> H          0.31026        1.20137       -1.13495
|  9> H          1.29485       -0.46874       -3.36468
| 10> H          2.37622        0.59740       -2.43149
| 11> H          1.65923        1.70213       -4.52942
| 12> H          0.98421        2.54058       -3.15304
| 13> H         -0.01744        1.46536       -4.09838
| 14> *
| 15> %MaxCore 64000
| 16>
| 17> %pal nprocs 4
| 18> end
| 19>
| 20> %scf
| 21>   MaxIter 150
| 22> end
| 23>
| 24>
| 25>                          ****END OF INPUT****

CARTESIAN COORDINATES (ANGSTROEM)
---------------------------------
  C      1.364010    0.468740   -2.813760
  C      0.428840    0.321400   -1.655310
  C      0.968050    1.630640   -3.715750
  H      0.748580   -0.400540   -1.001340
  H     -0.461050    0.023330   -2.077730
  H      0.310260    1.201370   -1.134950
  H      1.294850   -0.468740   -3.364680
  H      2.376220    0.597400   -2.431490
  H      1.659230    1.702130   -4.529420
  H      0.984210    2.540580   -3.153040
  H     -0.017440    1.465360   -4.098380

 Total Charge           Charge          ....    0
 Multiplicity           Mult            ....    1
 Number of Electrons    NEL             ....   26
 Basis Dimension        Dim             ....   82

ORBITAL ENERGIES
----------------

  NO   OCC          E(Eh)            E(eV)
   0   2.0000      -9.907551      -269.5982
   1   2.0000      -9.901410      -269.4311
   2   2.0000      -9.886321      -269.0205
   3   2.0000      -0.700962       -19.0742
   4   2.0000      -0.607275       -16.5248
   5   2.0000      -0.510395       -13.8885
   6   2.0000      -0.412471       -11.2239
   7   2.0000      -0.388025       -10.5587
   8   2.0000      -0.349352        -9.5064
   9   2.0000      -0.337966        -9.1965
  10   2.0000      -0.289043        -7.8653
  11   2.0000      -0.284732        -7.7480
  12   2.0000      -0.280957        -7.6452
  13   0.0000       0.041983         1.1424
  14   0.0000       0.089777         2.4430
  15   0.0000       0.090001         2.4490
  16   0.0000       0.095616         2.6018
  17   0.0000       0.122143         3.3237

MULLIKEN ATOMIC CHARGES
-----------------------
   0 C :    0.001858
   1 C :    0.141886
   2 C :    0.084046
   3 H :   -0.039143
   4 H :   -0.039102
   5 H :   -0.037449
   6 H :   -0.026991
   7 H :   -0.025551
   8 H :   -0.018698
   9 H :   -0.019351
  10 H :   -0.021504
Sum of atomic charges:    0.0000000

LOEWDIN ATOMIC CHARGES
----------------------
   0 C :   -0.025347
   1 C :   -0.030248
   2 C :   -0.039188
   3 H :    0.009428
   4 H :    0.010233
   5 H :    0.006767
   6 H :    0.013880
   7 H :    0.010665
   8 H :    0.015773
   9 H :    0.014118
  10 H :    0.013918

  Mayer bond orders larger than 0.100000
B(  0-C ,  1-C ) :   1.1337 B(  0-C ,  2-C ) :   1.1331 B(  0-C ,  6-H ) :   0.9422
B(  0-C ,  7-H ) :   0.9433 B(  1-C ,  3-H ) :   0.9492 B(  1-C ,  4-H ) :   0.9621
B(  1-C ,  5-H ) :   0.9616 B(  2-C ,  8-H ) :   0.9586 B(  2-C ,  9-H ) :   0.9664
B(  2-C , 10-H ) :   0.9668

Dispersion correction           -0.012552241
FINAL SINGLE POINT ENERGY      -118.951143066972

DIPOLE MOMENT
-------------
                                X             Y             Z
Electronic contribution:      0.35697      -0.17547      -0.01900
Nuclear contribution   :     -0.35842       0.15752       0.02695
                        -----------------------------------------
Total Dipole Moment    :     -0.00145      -0.01795       0.00795
                        -----------------------------------------
Magnitude (a.u.)       :      0.01968
Magnitude (Debye)      :      0.05003

Rotational constants in cm-1:     1.019891     0.293671     0.260247
Rotational constants in MHz : 30575.551403  8804.039097  7802.009261

                             ****ORCA TERMINATED NORMALLY****
TOTAL RUN TIME: 0 days 0 hours 0 minutes 6 seconds 709 msec
