                         Program Version 5.0.0 -  RELEASE  -
|  1> !BLYP D3BJ RIJCOSX def2-SVP def2/J TightSCF
|  2> *xyz 0 1
|  3> C          0.96805        1.63064       -3.71575
|  4> C         -0.50835        1.72268       -4.12430
|  5> S         -1.32861        0.14674       -4.43578
|  6> H         -0.59151        2.29496       -5.04722
|  7> H         -1.11411        2.23561       -3.37436
|  8> O         -2.57135        0.47573       -5.06834
|  9> F         -1.51496       -0.40051       -3.06342
| 10> O         -0.37793       -0.62756       -5.20114
| 11> H          1.51840        1.12197       -4.47946
| 12> H          1.05062        1.08971       -2.79625
| 13> H          1.36450        2.61606       -3.58668
| 14> *
| 15> %MaxCore 64000
| 16>
| 17> %pal nprocs 4
| 18> end
| 19>
| 20> %scf
| 21>   MaxIter 150
| 22> end
| 23>
| 24>
| 25>                          ****END OF INPUT****

CARTESIAN COORDINATES (ANGSTROEM)
---------------------------------
  C      0.968050    1.630640   -3.715750
  C     -0.508350    1.722680   -4.124300
  S     -1.328610    0.146740   -4.435780
  H     -0.591510    2.294960   -5.047220
  H     -1.114110    2.235610   -3.374360
  O     -2.571350    0.475730   -5.068340
  F     -1.514960   -0.400510   -3.063420
  O     -0.377930   -0.627560   -5.201140
  H      1.518400    1.121970   -4.479460
  H      1.050620    1.089710   -2.796250
  H      1.364500    2.616060   -3.586680

 Total Charge           Charge          ....    0
 Multiplicity           Mult            ....    1
 Number of Electrons    NEL             ....   58
 Basis Dimension        Dim             ....  113

ORBITAL ENERGIES
----------------

  NO   OCC          E(Eh)            E(eV)
   0   2.0000     -88.350703     -2404.1449
   1   2.0000     -24.372618      -663.2127
   2   2.0000     -18.782209      -511.0899
   3   2.0000     -18.779470      -511.0153
   4   2.0000      -9.968888      -271.2672
   5   2.0000      -9.938867      -270.4503
   6   2.0000      -7.896775      -214.8822
   7   2.0000      -5.935332      -161.5086
   8   2.0000      -5.929338      -161.3455
   9   2.0000      -5.927765      -161.3027
  10   2.0000      -1.210534       -32.9403
  11   2.0000      -1.006862       -27.3981
  12   2.0000      -0.916143       -24.9295
  13   2.0000      -0.727923       -19.8078
  14   2.0000      -0.633267       -17.2321
  15   2.0000      -0.588433       -16.0121
  16   2.0000      -0.501451       -13.6452
  17   2.0000      -0.475947       -12.9512
  18   2.0000      -0.466813       -12.7026
  19   2.0000      -0.428800       -11.6682
  20   2.0000      -0.408965       -11.1285
  21   2.0000      -0.386573       -10.5192
  22   2.0000      -0.370670       -10.0865
  23   2.0000      -0.349581        -9.5126
  24   2.0000      -0.344088        -9.3631
  25   2.0000      -0.320449        -8.7199
  26   2.0000      -0.275767        -7.5040
  27   2.0000      -0.270081        -7.3493
  28   2.0000      -0.254874        -6.9355
  29   0.0000       0.005333         0.1451
  30   0.0000       0.034154         0.9294
  31   0.0000       0.051964         1.4140
  32   0.0000       0.066068         1.7978
  33   0.0000       0.074635         2.0309

MULLIKEN ATOMIC CHARGES
-----------------------
   0 C :    0.086779
   1 C :   -0.074198
   2 S :    0.846833
   3 H :    0.049110
   4 H :    0.026724
   5 O :   -0.381504
   6 F :   -0.185567
   7 O :   -0.397004
   8 H :    0.021976
   9 H :    0.000696
  10 H :    0.006155
Sum of atomic charges:   -0.0000000

LOEWDIN ATOMIC CHARGES
----------------------
   0 C :   -0.046576
   1 C :   -0.148791
   2 S :    1.115196
   3 H :    0.040171
   4 H :    0.024952
   5 O :   -0.449203
   6 F :   -0.152562
   7 O :   -0.460951
   8 H :    0.027616
   9 H :    0.020833
  10 H :    0.029314

  Mayer bond orders larger than 0.100000
B(  0-C ,  1-C ) :   1.0805 B(  0-C ,  8-H ) :   0.9637 B(  0-C ,  9-H ) :   0.9685
B(  0-C , 10-H ) :   0.9519 B(  1-C ,  2-S ) :   0.9019 B(  1-C ,  3-H ) :   0.9330
B(  1-C ,  4-H ) :   0.9276 B(  2-S ,  5-O ) :   1.8113 B(  2-S ,  6-F ) :   0.9876
B(  2-S ,  7-O ) :   1.7918

Dispersion correction           -0.019511205
FINAL SINGLE POINT ENERGY      -727.176152228196

DIPOLE MOMENT
-------------
                                X             Y             Z
Electronic contribution:     -6.64695      -6.76442       0.10443
Nuclear contribution   :      7.20921       7.65416       0.78523
                        -----------------------------------------
Total Dipole Moment    :      0.56226       0.88974       0.88967
                        -----------------------------------------
Magnitude (a.u.)       :      1.37814
Magnitude (Debye)      :      3.50296

Rotational constants in cm-1:     0.153780     0.081282     0.079816
Rotational constants in MHz :  4610.199589  2436.778679  2392.820729

                             ****ORCA TERMINATED NORMALLY****
TOTAL RUN TIME: 0 days 0 hours 0 minutes 7 seconds 443 msec
