                         Program Version 5.0.0 -  RELEASE  -
|  1> !BLYP D3BJ RIJCOSX def2-SVP def2/J TightSCF
|  2> *xyz 0 1
|  3> C          0.96805        1.63064       -3.71575
|  4> C         -0.50835        1.72268       -4.12430
|  5> S         -1.32861        0.14674       -4.43578
|  6> H         -0.59151        2.29496       -5.04722
|  7> H         -1.11411        2.23561       -3.37436
|  8> O         -2.57135        0.47573       -5.06834
|  9> O         -1.51496       -0.40051       -3.06342
| 10> F         -0.37793       -0.62756       -5.20114
| 11> H          1.51840        1.12197       -4.47946
| 12> H          1.05062        1.08971       -2.79625
| 13> H          1.36450        2.61606       -3.58668
| 14> *
| 15> %MaxCore 64000
| 16>
| 17> %pal nprocs 4
| 18> end
| 19>
| 20> %scf
| 21>   MaxIter 150
| 22> end
| 23>
| 24>
| 25>                          ****END OF INPUT****

CARTESIAN COORDINATES (ANGSTROEM)
---------------------------------
  C      0.968050    1.630640   -3.715750
  C     -0.508350    1.722680   -4.124300
  S     -1.328610    0.146740   -4.435780
  H     -0.591510    2.294960   -5.047220
  H     -1.114110    2.235610   -3.374360
  O     -2.571350    0.475730   -5.068340
  O     -1.514960   -0.400510   -3.063420
  F     -0.377930   -0.627560   -5.201140
  H      1.518400    1.121970   -4.479460
  H      1.050620    1.089710   -2.796250
  H      1.364500    2.616060   -3.586680

 Total Charge           Charge          ....    0
 Multiplicity           Mult            ....    1
 Number of Electrons    NEL             ....   58
 Basis Dimension        Dim             ....  113

ORBITAL ENERGIES
----------------

  NO   OCC          E(Eh)            E(eV)
   0   2.0000     -88.351893     -2404.1772
   1   2.0000     -24.395634      -663.8390
   2   2.0000     -18.782035      -511.0852
   3   2.0000     -18.762045      -510.5412
   4   2.0000      -9.969529      -271.2847
   5   2.0000      -9.942343      -270.5449
   6   2.0000      -7.898066      -214.9173
   7   2.0000      -5.936981      -161.5535
   8   2.0000      -5.930284      -161.3712
   9   2.0000      -5.928808      -161.3311
  10   2.0000      -1.247458       -33.9451
  11   2.0000      -0.997499       -27.1433
  12   2.0000      -0.891585       -24.2613
  13   2.0000      -0.729910       -19.8618
  14   2.0000      -0.644572       -17.5397
  15   2.0000      -0.598857       -16.2957
  16   2.0000      -0.519150       -14.1268
  17   2.0000      -0.501351       -13.6424
  18   2.0000      -0.467954       -12.7337
  19   2.0000      -0.430952       -11.7268
  20   2.0000      -0.408719       -11.1218
  21   2.0000      -0.386517       -10.5177
  22   2.0000      -0.369565       -10.0564
  23   2.0000      -0.355179        -9.6649
  24   2.0000      -0.340422        -9.2634
  25   2.0000      -0.315850        -8.5947
  26   2.0000      -0.271407        -7.3854
  27   2.0000      -0.250988        -6.8297
  28   2.0000      -0.236692        -6.4407
  29   0.0000       0.000355         0.0096
  30   0.0000       0.035582         0.9682
  31   0.0000       0.046588         1.2677
  32   0.0000       0.069111         1.8806
  33   0.0000       0.075468         2.0536

MULLIKEN ATOMIC CHARGES
-----------------------
   0 C :    0.079060
   1 C :   -0.065510
   2 S :    0.835625
   3 H :    0.024380
   4 H :    0.056965
   5 O :   -0.375460
   6 O :   -0.441113
   7 F :   -0.141022
   8 H :   -0.001524
   9 H :    0.017723
  10 H :    0.010877
Sum of atomic charges:    0.0000000

LOEWDIN ATOMIC CHARGES
----------------------
   0 C :   -0.049451
   1 C :   -0.143970
   2 S :    1.107851
   3 H :    0.023290
   4 H :    0.044365
   5 O :   -0.444638
   6 O :   -0.506302
   7 F :   -0.106898
   8 H :    0.018512
   9 H :    0.026034
  10 H :    0.031209

  Mayer bond orders larger than 0.100000
B(  0-C ,  1-C ) :   1.0780 B(  0-C ,  8-H ) :   0.9673 B(  0-C ,  9-H ) :   0.9659
B(  0-C , 10-H ) :   0.9534 B(  1-C ,  2-S ) :   0.9078 B(  1-C ,  3-H ) :   0.9265
B(  1-C ,  4-H ) :   0.9330 B(  2-S ,  5-O ) :   1.8061 B(  2-S ,  6-O ) :   1.7437
B(  2-S ,  7-F ) :   1.0341

Dispersion correction           -0.019472425
FINAL SINGLE POINT ENERGY      -727.155631496828

DIPOLE MOMENT
-------------
                                X             Y             Z
Electronic contribution:     -4.74930      -7.12543      -3.45683
Nuclear contribution   :      6.02439       7.89075       3.01280
                        -----------------------------------------
Total Dipole Moment    :      1.27509       0.76532      -0.44403
                        -----------------------------------------
Magnitude (a.u.)       :      1.55201
Magnitude (Debye)      :      3.94489

Rotational constants in cm-1:     0.153652     0.082400     0.079295
Rotational constants in MHz :  4606.361242  2470.285703  2377.214112

                             ****ORCA TERMINATED NORMALLY****
TOTAL RUN TIME: 0 days 0 hours 0 minutes 8 seconds 254 msec
