                         Program Version 5.0.0 -  RELEASE  -
|  1> !BLYP D3BJ RIJCOSX def2-TZVP def2/J TightSCF xyzfile
|  2>
|  3> *xyzfile 0 1 D1.xyz
|  4>
|  5> %MaxCore 64000
|  6>
|  7> %pal nprocs 18
|  8> end
|  9>
| 10> %scf
| 11>   MaxIter 150
| 12> end
| 13>
| 14>
| 15>                          ****END OF INPUT****

CARTESIAN COORDINATES (ANGSTROEM)
---------------------------------
  C      1.364014    0.468742   -2.813764
  C      0.428844    0.321402   -1.655312
  C      0.968045    1.630639   -3.715749
  C     -0.508347    1.722679   -4.124300
  S     -1.328608    0.146737   -4.435781
  H     -0.591511    2.294958   -5.047219
  H     -1.114114    2.235610   -3.374362
  H      0.748578   -0.400542   -1.001345
  H     -0.461053    0.023332   -2.077731
  H      0.310258    1.201375   -1.134948
  F     -2.571347    0.475733   -5.068341
  O     -1.514963   -0.400512   -3.063420
  H      1.294847   -0.468742   -3.364684
  H      2.376216    0.597400   -2.431495
  H      1.578688    1.520652   -4.612733
  H      1.266653    2.575988   -3.250448
  O     -0.377928   -0.627558   -5.201141

 Total Charge           Charge          ....    0
 Multiplicity           Mult            ....    1
 Number of Electrons    NEL             ....   74
 Basis Dimension        Dim             ....  308

ORBITAL ENERGIES
----------------

  NO   OCC          E(Eh)            E(eV)
   0   2.0000     -88.339877     -2403.8503
   1   2.0000     -24.406790      -664.1425
   2   2.0000     -18.786067      -511.1949
   3   2.0000     -18.774508      -510.8803
   4   2.0000      -9.959528      -271.0125
   5   2.0000      -9.923036      -270.0195
   6   2.0000      -9.888417      -269.0775
   7   2.0000      -9.833622      -267.5865
   8   2.0000      -7.871521      -214.1950
   9   2.0000      -5.903620      -160.6457
  10   2.0000      -5.897224      -160.4716
  11   2.0000      -5.896677      -160.4567
  12   2.0000      -1.280929       -34.8558
  13   2.0000      -1.012485       -27.5511
  14   2.0000      -0.920529       -25.0489
  15   2.0000      -0.747344       -20.3363
  16   2.0000      -0.695734       -18.9319
  17   2.0000      -0.648811       -17.6550
  18   2.0000      -0.605292       -16.4708
  19   2.0000      -0.540565       -14.7095
  20   2.0000      -0.526357       -14.3229
  21   2.0000      -0.510634       -13.8951
  22   2.0000      -0.484503       -13.1840
  23   2.0000      -0.447401       -12.1744
  24   2.0000      -0.438354       -11.9282
  25   2.0000      -0.403650       -10.9839
  26   2.0000      -0.400830       -10.9071
  27   2.0000      -0.372022       -10.1232
  28   2.0000      -0.355115        -9.6632
  29   2.0000      -0.349728        -9.5166
  30   2.0000      -0.333074        -9.0634
  31   2.0000      -0.307127        -8.3574
  32   2.0000      -0.299155        -8.1404
  33   2.0000      -0.278745        -7.5850
  34   2.0000      -0.275324        -7.4919
  35   2.0000      -0.263442        -7.1686
  36   2.0000      -0.233266        -6.3475
  37   0.0000      -0.015175        -0.4129
  38   0.0000       0.002534         0.0690
  39   0.0000       0.028311         0.7704
  40   0.0000       0.036353         0.9892
  41   0.0000       0.043463         1.1827

MULLIKEN ATOMIC CHARGES
-----------------------
   0 C :   -0.157851
   1 C :   -0.350887
   2 C :   -0.150306
   3 C :   -0.241048
   4 S :    0.775335
   5 H :    0.123101
   6 H :    0.128237
   7 H :    0.084015
   8 H :    0.181183
   9 H :    0.063759
  10 F :   -0.072962
  11 O :   -0.386180
  12 H :    0.109733
  13 H :    0.071448
  14 H :    0.094197
  15 H :    0.097245
  16 O :   -0.369020
Sum of atomic charges:   -0.0000000

LOEWDIN ATOMIC CHARGES
----------------------
   0 C :   -0.297411
   1 C :   -0.310183
   2 C :   -0.269161
   3 C :   -0.366723
   4 S :    0.504901
   5 H :    0.133058
   6 H :    0.137862
   7 H :    0.102538
   8 H :    0.085134
   9 H :    0.097362
  10 F :    0.119911
  11 O :   -0.251084
  12 H :    0.138389
  13 H :    0.129499
  14 H :    0.141174
  15 H :    0.142731
  16 O :   -0.237997

  Mayer bond orders larger than 0.100000
B(  0-C ,  1-C ) :   0.9320 B(  0-C ,  2-C ) :   0.9748 B(  0-C , 12-H ) :   0.9712
B(  0-C , 13-H ) :   0.9612 B(  1-C ,  7-H ) :   0.9724 B(  1-C ,  8-H ) :   0.9341
B(  1-C ,  9-H ) :   0.9723 B(  2-C ,  3-C ) :   0.9590 B(  2-C , 14-H ) :   0.9633
B(  2-C , 15-H ) :   0.9464 B(  3-C ,  4-S ) :   0.9159 B(  3-C ,  5-H ) :   0.9368
B(  3-C ,  6-H ) :   0.9321 B(  4-S , 10-F ) :   1.1584 B(  4-S , 11-O ) :   1.8023
B(  4-S , 16-O ) :   1.9231 B(  8-H , 11-O ) :   0.1020

Dispersion correction           -0.036994389
FINAL SINGLE POINT ENERGY      -806.333849784055

DIPOLE MOMENT
-------------
                                X             Y             Z
Electronic contribution:    -12.49349      -4.15979      -9.71811
Nuclear contribution   :     12.25227       5.48563       9.26621
                        -----------------------------------------
Total Dipole Moment    :     -0.24121       1.32584      -0.45190
                        -----------------------------------------
Magnitude (a.u.)       :      1.42136
Magnitude (Debye)      :      3.61280

Rotational constants in cm-1:     0.103176     0.044975     0.040960
Rotational constants in MHz :  3093.138469  1348.317425  1227.945122

                             ****ORCA TERMINATED NORMALLY****
TOTAL RUN TIME: 0 days 0 hours 0 minutes 9 seconds 275 msec
