                         Program Version 5.0.0 -  RELEASE  -
|  1> !BLYP D3BJ RIJCOSX def2-TZVP def2/J TightSCF xyzfile
|  2>
|  3> *xyzfile 0 1 D3.xyz
|  4>
|  5> %MaxCore 64000
|  6>
|  7> %pal nprocs 18
|  8> end
|  9>
| 10> %scf
| 11>   MaxIter 150
| 12> end
| 13>
| 14>
| 15>                          ****END OF INPUT****

CARTESIAN COORDINATES (ANGSTROEM)
---------------------------------
  C      1.364014    0.468742   -2.813764
  C      0.428844    0.321402   -1.655312
  C      0.968045    1.630639   -3.715749
  C     -0.508347    1.722679   -4.124300
  S     -1.328608    0.146737   -4.435781
  H     -0.591511    2.294958   -5.047219
  H     -1.114114    2.235610   -3.374362
  H      0.748578   -0.400542   -1.001345
  H     -0.461053    0.023332   -2.077731
  H      0.310258    1.201375   -1.134948
  O     -2.571347    0.475733   -5.068341
  O     -1.514963   -0.400512   -3.063420
  H      1.294847   -0.468742   -3.364684
  H      2.376216    0.597400   -2.431495
  H      1.578688    1.520652   -4.612733
  H      1.266653    2.575988   -3.250448
  F     -0.377928   -0.627558   -5.201141

 Total Charge           Charge          ....    0
 Multiplicity           Mult            ....    1
 Number of Electrons    NEL             ....   74
 Basis Dimension        Dim             ....  308

ORBITAL ENERGIES
----------------

  NO   OCC          E(Eh)            E(eV)
   0   2.0000     -88.340098     -2403.8563
   1   2.0000     -24.402660      -664.0301
   2   2.0000     -18.789162      -511.2791
   3   2.0000     -18.773869      -510.8630
   4   2.0000      -9.959363      -271.0081
   5   2.0000      -9.926629      -270.1173
   6   2.0000      -9.899776      -269.3866
   7   2.0000      -9.837404      -267.6894
   8   2.0000      -7.871720      -214.2004
   9   2.0000      -5.904028      -160.6568
  10   2.0000      -5.897429      -160.4772
  11   2.0000      -5.896684      -160.4569
  12   2.0000      -1.272804       -34.6348
  13   2.0000      -1.016943       -27.6724
  14   2.0000      -0.924104       -25.1461
  15   2.0000      -0.753062       -20.4919
  16   2.0000      -0.695056       -18.9134
  17   2.0000      -0.649214       -17.6660
  18   2.0000      -0.607480       -16.5304
  19   2.0000      -0.545335       -14.8393
  20   2.0000      -0.522046       -14.2056
  21   2.0000      -0.515867       -14.0375
  22   2.0000      -0.482007       -13.1161
  23   2.0000      -0.442527       -12.0418
  24   2.0000      -0.440157       -11.9773
  25   2.0000      -0.413489       -11.2516
  26   2.0000      -0.401942       -10.9374
  27   2.0000      -0.377037       -10.2597
  28   2.0000      -0.360624        -9.8131
  29   2.0000      -0.349373        -9.5069
  30   2.0000      -0.338070        -9.1993
  31   2.0000      -0.316237        -8.6052
  32   2.0000      -0.299416        -8.1475
  33   2.0000      -0.289203        -7.8696
  34   2.0000      -0.282634        -7.6909
  35   2.0000      -0.274214        -7.4618
  36   2.0000      -0.227284        -6.1847
  37   0.0000      -0.020109        -0.5472
  38   0.0000       0.008526         0.2320
  39   0.0000       0.021550         0.5864
  40   0.0000       0.035890         0.9766
  41   0.0000       0.038700         1.0531

MULLIKEN ATOMIC CHARGES
-----------------------
   0 C :   -0.158842
   1 C :   -0.343675
   2 C :   -0.179760
   3 C :   -0.239486
   4 S :    0.787506
   5 H :    0.133428
   6 H :    0.143439
   7 H :    0.083692
   8 H :    0.186652
   9 H :    0.068228
  10 O :   -0.361590
  11 O :   -0.388372
  12 H :    0.077705
  13 H :    0.079082
  14 H :    0.094592
  15 H :    0.098177
  16 F :   -0.080777
Sum of atomic charges:    0.0000000

LOEWDIN ATOMIC CHARGES
----------------------
   0 C :   -0.302568
   1 C :   -0.312278
   2 C :   -0.281749
   3 C :   -0.358680
   4 S :    0.512698
   5 H :    0.136927
   6 H :    0.148925
   7 H :    0.102389
   8 H :    0.083402
   9 H :    0.099035
  10 O :   -0.229534
  11 O :   -0.247572
  12 H :    0.127783
  13 H :    0.131650
  14 H :    0.136166
  15 H :    0.142255
  16 F :    0.111148

  Mayer bond orders larger than 0.100000
B(  0-C ,  1-C ) :   0.9269 B(  0-C ,  2-C ) :   0.9582 B(  0-C , 12-H ) :   0.9785
B(  0-C , 13-H ) :   0.9621 B(  1-C ,  7-H ) :   0.9719 B(  1-C ,  8-H ) :   0.9297
B(  1-C ,  9-H ) :   0.9717 B(  2-C ,  3-C ) :   0.9461 B(  2-C , 14-H ) :   0.9695
B(  2-C , 15-H ) :   0.9456 B(  3-C ,  4-S ) :   0.9124 B(  3-C ,  5-H ) :   0.9442
B(  3-C ,  6-H ) :   0.9380 B(  4-S , 10-O ) :   1.9819 B(  4-S , 11-O ) :   1.7903
B(  4-S , 16-F ) :   1.1347 B(  8-H , 11-O ) :   0.1061

Dispersion correction           -0.036692829
FINAL SINGLE POINT ENERGY      -806.337050390472

DIPOLE MOMENT
-------------
                                X             Y             Z
Electronic contribution:     -8.73639      -6.01956      -9.90109
Nuclear contribution   :      9.83476       6.70164       9.41257
                        -----------------------------------------
Total Dipole Moment    :      1.09837       0.68208      -0.48851
                        -----------------------------------------
Magnitude (a.u.)       :      1.38213
Magnitude (Debye)      :      3.51311

Rotational constants in cm-1:     0.099832     0.045916     0.042219
Rotational constants in MHz :  2992.874960  1376.530174  1265.693813

                             ****ORCA TERMINATED NORMALLY****
TOTAL RUN TIME: 0 days 0 hours 0 minutes 9 seconds 821 msec
