                         Program Version 5.0.0 -  RELEASE  -
|  1> !B3LYP D3BJ RIJCOSX def2-SVPD def2/J TightSCF
|  2> *xyz -1 1
|  3> C         -2.79070       -0.78527        5.70281
|  4> C         -2.45380        0.05510        6.94145
|  5> C         -2.07842        1.48042        6.56410
|  6> H         -1.62558       -0.38216        7.49891
|  7> H         -3.32527        0.08775        7.59917
|  8> O         -0.90125        1.85816        6.82810
|  9> O         -2.93658        2.17731        5.96415
| 10> H         -1.94052       -0.82114        5.05412
| 11> H         -3.61590       -0.34261        5.18514
| 12> H         -3.05063       -1.77815        6.00536
| 13> *
| 14> %MaxCore 64000
| 15>
| 16> %pal nprocs 4
| 17> end
| 18>
| 19> %scf
| 20>   MaxIter 150
| 21> end
| 22>
| 23>
| 24>                          ****END OF INPUT****

CARTESIAN COORDINATES (ANGSTROEM)
---------------------------------
  C     -2.790700   -0.785270    5.702810
  C     -2.453800    0.055100    6.941450
  C     -2.078420    1.480420    6.564100
  H     -1.625580   -0.382160    7.498910
  H     -3.325270    0.087750    7.599170
  O     -0.901250    1.858160    6.828100
  O     -2.936580    2.177310    5.964150
  H     -1.940520   -0.821140    5.054120
  H     -3.615900   -0.342610    5.185140
  H     -3.050630   -1.778150    6.005360

 Total Charge           Charge          ....   -1
 Multiplicity           Mult            ....    1
 Number of Electrons    NEL             ....   40
 Basis Dimension        Dim             ....  146

ORBITAL ENERGIES
----------------

  NO   OCC          E(Eh)            E(eV)
   0   2.0000     -18.878327      -513.7054
   1   2.0000     -18.876961      -513.6682
   2   2.0000     -10.068748      -273.9846
   3   2.0000     -10.023414      -272.7510
   4   2.0000     -10.010217      -272.3919
   5   2.0000      -0.809334       -22.0231
   6   2.0000      -0.716186       -19.4884
   7   2.0000      -0.600123       -16.3302
   8   2.0000      -0.470315       -12.7979
   9   2.0000      -0.320011        -8.7079
  10   2.0000      -0.293220        -7.9789
  11   2.0000      -0.258147        -7.0245
  12   2.0000      -0.231506        -6.2996
  13   2.0000      -0.215649        -5.8681
  14   2.0000      -0.209313        -5.6957
  15   2.0000      -0.179141        -4.8747
  16   2.0000      -0.163508        -4.4493
  17   2.0000      -0.050601        -1.3769
  18   2.0000      -0.044704        -1.2164
  19   2.0000      -0.028705        -0.7811
  20   0.0000       0.153583         4.1792
  21   0.0000       0.186766         5.0822
  22   0.0000       0.203870         5.5476
  23   0.0000       0.217562         5.9202
  24   0.0000       0.240022         6.5313

MULLIKEN ATOMIC CHARGES
-----------------------
   0 C :    0.744797
   1 C :   -0.089066
   2 C :    0.418272
   3 H :   -0.140237
   4 H :   -0.087883
   5 O :   -0.695920
   6 O :   -0.717893
   7 H :   -0.151750
   8 H :   -0.114127
   9 H :   -0.166195
Sum of atomic charges:   -1.0000000

LOEWDIN ATOMIC CHARGES
----------------------
   0 C :    0.111570
   1 C :   -0.034184
   2 C :   -0.308770
   3 H :   -0.004480
   4 H :    0.004082
   5 O :   -0.337001
   6 O :   -0.326745
   7 H :   -0.025622
   8 H :   -0.030948
   9 H :   -0.047902

  Mayer bond orders larger than 0.100000
B(  0-C ,  1-C ) :   1.2744 B(  0-C ,  4-H ) :   0.1030 B(  0-C ,  7-H ) :   0.8122
B(  0-C ,  8-H ) :   0.7979 B(  0-C ,  9-H ) :   0.8099 B(  1-C ,  2-C ) :   1.0284
B(  1-C ,  3-H ) :   0.9309 B(  1-C ,  4-H ) :   0.8558 B(  1-C ,  7-H ) :   0.1897
B(  1-C ,  8-H ) :   0.2103 B(  1-C ,  9-H ) :   0.1768 B(  2-C ,  3-H ) :   0.2047
B(  2-C ,  5-O ) :   1.4443 B(  2-C ,  6-O ) :   1.4793

Dispersion correction           -0.010986427
FINAL SINGLE POINT ENERGY      -267.525280864583

DIPOLE MOMENT
-------------
                                X             Y             Z
Electronic contribution:      1.62357       5.52531       0.67902
Nuclear contribution   :     -2.24498      -7.51881      -0.57245
                        -----------------------------------------
Total Dipole Moment    :     -0.62142      -1.99349       0.10657
                        -----------------------------------------
Magnitude (a.u.)       :      2.09082
Magnitude (Debye)      :      5.31445

Rotational constants in cm-1:     0.305589     0.135336     0.107479
Rotational constants in MHz :  9161.317320  4057.276612  3222.126231

                             ****ORCA TERMINATED NORMALLY****
TOTAL RUN TIME: 0 days 0 hours 0 minutes 16 seconds 131 msec
