                         Program Version 5.0.0 -  RELEASE  -
|  1> !B3LYP D3BJ RIJCOSX def2-SVPD def2/J TightSCF
|  2> *xyz 1 1
|  3> C         -0.69912        3.48945        3.75516
|  4> H         -0.96672        4.34901        3.14049
|  5> N         -1.08067        3.79296        5.15686
|  6> C          0.77696        3.13839        3.61741
|  7> H         -1.33146        2.65651        3.44632
|  8> H         -0.87449        4.76274        5.42734
|  9> H         -0.68079        3.13476        5.83900
| 10> H         -2.05755        3.53169        5.34620
| 11> H          0.99957        2.92898        2.59199
| 12> H          0.99576        2.27685        4.21303
| 13> H          1.37223        3.96279        3.95046
| 14> *
| 15> %MaxCore 64000
| 16>
| 17> %pal nprocs 4
| 18> end
| 19>
| 20> %scf
| 21>   MaxIter 150
| 22> end
| 23>
| 24>
| 25>                          ****END OF INPUT****

CARTESIAN COORDINATES (ANGSTROEM)
---------------------------------
  C     -0.699120    3.489450    3.755160
  H     -0.966720    4.349010    3.140490
  N     -1.080670    3.792960    5.156860
  C      0.776960    3.138390    3.617410
  H     -1.331460    2.656510    3.446320
  H     -0.874490    4.762740    5.427340
  H     -0.680790    3.134760    5.839000
  H     -2.057550    3.531690    5.346200
  H      0.999570    2.928980    2.591990
  H      0.995760    2.276850    4.213030
  H      1.372230    3.962790    3.950460

 Total Charge           Charge          ....    1
 Multiplicity           Mult            ....    1
 Number of Electrons    NEL             ....   26
 Basis Dimension        Dim             ....  124

ORBITAL ENERGIES
----------------

  NO   OCC          E(Eh)            E(eV)
   0   2.0000     -14.666617      -399.0989
   1   2.0000     -10.438450      -284.0447
   2   2.0000     -10.359130      -281.8863
   3   2.0000      -1.210135       -32.9295
   4   2.0000      -0.961403       -26.1611
   5   2.0000      -0.842743       -22.9322
   6   2.0000      -0.817450       -22.2440
   7   2.0000      -0.768598       -20.9146
   8   2.0000      -0.700487       -19.0612
   9   2.0000      -0.644345       -17.5335
  10   2.0000      -0.583307       -15.8726
  11   2.0000      -0.569398       -15.4941
  12   2.0000      -0.552126       -15.0241
  13   0.0000      -0.199229        -5.4213
  14   0.0000      -0.140298        -3.8177
  15   0.0000      -0.137233        -3.7343
  16   0.0000      -0.125458        -3.4139
  17   0.0000      -0.095806        -2.6070

MULLIKEN ATOMIC CHARGES
-----------------------
   0 C :    0.400995
   1 H :   -0.169035
   2 N :   -0.744439
   3 C :    0.830687
   4 H :   -0.127141
   5 H :    0.379551
   6 H :    0.354757
   7 H :    0.332385
   8 H :   -0.091301
   9 H :   -0.108127
  10 H :   -0.058333
Sum of atomic charges:    1.0000000

LOEWDIN ATOMIC CHARGES
----------------------
   0 C :    0.059749
   1 H :    0.051981
   2 N :    0.327366
   3 C :    0.182139
   4 H :    0.049820
   5 H :    0.113142
   6 H :    0.103215
   7 H :    0.104916
   8 H :    0.012234
   9 H :   -0.003328
  10 H :   -0.001235

  Mayer bond orders larger than 0.100000
B(  0-C ,  1-H ) :   0.8837 B(  0-C ,  2-N ) :   0.7366 B(  0-C ,  3-C ) :   1.3181
B(  0-C ,  4-H ) :   0.8757 B(  0-C ,  8-H ) :   0.2010 B(  0-C ,  9-H ) :   0.1907
B(  0-C , 10-H ) :   0.1692 B(  1-H ,  2-N ) :   0.1284 B(  2-N ,  5-H ) :   0.7305
B(  2-N ,  6-H ) :   0.7783 B(  2-N ,  7-H ) :   0.7920 B(  3-C ,  8-H ) :   0.7927
B(  3-C ,  9-H ) :   0.8057 B(  3-C , 10-H ) :   0.7805

Dispersion correction           -0.009988775
FINAL SINGLE POINT ENERGY      -135.355867384095

DIPOLE MOMENT
-------------
                                X             Y             Z
Electronic contribution:     -1.32645       0.57242       1.09480
Nuclear contribution   :      0.33986      -0.24565       0.10678
                        -----------------------------------------
Total Dipole Moment    :     -0.98659       0.32677       1.20158
                        -----------------------------------------
Magnitude (a.u.)       :      1.58869
Magnitude (Debye)      :      4.03812

Rotational constants in cm-1:     1.016237     0.277523     0.247812
Rotational constants in MHz : 30466.024354  8319.937961  7429.230177

                             ****ORCA TERMINATED NORMALLY****
TOTAL RUN TIME: 0 days 0 hours 0 minutes 13 seconds 268 msec
