                         Program Version 5.0.0 -  RELEASE  -
|  1> !B3LYP D3BJ RIJCOSX def2-SVPD def2/J TightSCF
|  2> *xyz 0 1
|  3> C         -2.79070       -0.78527        5.70281
|  4> C         -2.45380        0.05510        6.94145
|  5> C         -2.07842        1.48042        6.56410
|  6> H         -1.62558       -0.38216        7.49891
|  7> H         -3.32527        0.08775        7.59917
|  8> F         -0.90125        1.85816        6.82810
|  9> O         -2.93658        2.17731        5.96415
| 10> H         -1.94052       -0.82114        5.05412
| 11> H         -3.61590       -0.34261        5.18514
| 12> H         -3.05063       -1.77815        6.00536
| 13> *
| 14> %MaxCore 64000
| 15>
| 16> %pal nprocs 4
| 17> end
| 18>
| 19> %scf
| 20>   MaxIter 150
| 21> end
| 22>
| 23>
| 24>                          ****END OF INPUT****

CARTESIAN COORDINATES (ANGSTROEM)
---------------------------------
  C     -2.790700   -0.785270    5.702810
  C     -2.453800    0.055100    6.941450
  C     -2.078420    1.480420    6.564100
  H     -1.625580   -0.382160    7.498910
  H     -3.325270    0.087750    7.599170
  F     -0.901250    1.858160    6.828100
  O     -2.936580    2.177310    5.964150
  H     -1.940520   -0.821140    5.054120
  H     -3.615900   -0.342610    5.185140
  H     -3.050630   -1.778150    6.005360

 Total Charge           Charge          ....    0
 Multiplicity           Mult            ....    1
 Number of Electrons    NEL             ....   40
 Basis Dimension        Dim             ....  146

ORBITAL ENERGIES
----------------

  NO   OCC          E(Eh)            E(eV)
   0   2.0000     -24.767665      -673.9624
   1   2.0000     -19.150994      -521.1250
   2   2.0000     -10.367316      -282.1090
   3   2.0000     -10.218457      -278.0583
   4   2.0000     -10.192802      -277.3602
   5   2.0000      -1.302292       -35.4372
   6   2.0000      -1.026588       -27.9349
   7   2.0000      -0.797938       -21.7130
   8   2.0000      -0.687270       -18.7016
   9   2.0000      -0.638647       -17.3785
  10   2.0000      -0.550721       -14.9859
  11   2.0000      -0.536072       -14.5873
  12   2.0000      -0.509427       -13.8622
  13   2.0000      -0.468120       -12.7382
  14   2.0000      -0.438203       -11.9241
  15   2.0000      -0.404612       -11.0101
  16   2.0000      -0.384636       -10.4665
  17   2.0000      -0.378889       -10.3101
  18   2.0000      -0.352446        -9.5905
  19   2.0000      -0.299034        -8.1371
  20   0.0000      -0.039986        -1.0881
  21   0.0000       0.012605         0.3430
  22   0.0000       0.042995         1.1700
  23   0.0000       0.055356         1.5063
  24   0.0000       0.071295         1.9400

MULLIKEN ATOMIC CHARGES
-----------------------
   0 C :    0.774107
   1 C :   -0.140230
   2 C :    0.705103
   3 H :   -0.108167
   4 H :   -0.025350
   5 F :   -0.369998
   6 O :   -0.483361
   7 H :   -0.129069
   8 H :   -0.097946
   9 H :   -0.125088
Sum of atomic charges:    0.0000000

LOEWDIN ATOMIC CHARGES
----------------------
   0 C :    0.152906
   1 C :    0.010999
   2 C :   -0.011043
   3 H :    0.019410
   4 H :    0.037617
   5 F :   -0.039718
   6 O :   -0.132239
   7 H :   -0.011617
   8 H :   -0.010901
   9 H :   -0.015414

  Mayer bond orders larger than 0.100000
B(  0-C ,  1-C ) :   1.3065 B(  0-C ,  7-H ) :   0.8094 B(  0-C ,  8-H ) :   0.7990
B(  0-C ,  9-H ) :   0.8128 B(  1-C ,  2-C ) :   1.0861 B(  1-C ,  3-H ) :   0.9348
B(  1-C ,  4-H ) :   0.8489 B(  1-C ,  7-H ) :   0.1750 B(  1-C ,  8-H ) :   0.1890
B(  1-C ,  9-H ) :   0.1668 B(  2-C ,  3-H ) :   0.1095 B(  2-C ,  5-F ) :   0.7452
B(  2-C ,  6-O ) :   1.8171 B(  5-F ,  6-O ) :   0.1056

Dispersion correction           -0.010412680
FINAL SINGLE POINT ENERGY      -292.058356003050

DIPOLE MOMENT
-------------
                                X             Y             Z
Electronic contribution:      3.96254       7.40444       1.49364
Nuclear contribution   :     -3.69486      -8.49563      -1.04945
                        -----------------------------------------
Total Dipole Moment    :      0.26769      -1.09119       0.44419
                        -----------------------------------------
Magnitude (a.u.)       :      1.20816
Magnitude (Debye)      :      3.07090

Rotational constants in cm-1:     0.293725     0.129218     0.102393
Rotational constants in MHz :  8805.653529  3873.869810  3069.666716

                             ****ORCA TERMINATED NORMALLY****
TOTAL RUN TIME: 0 days 0 hours 0 minutes 15 seconds 257 msec
