                         Program Version 5.0.0 -  RELEASE  -
|  1> !B3LYP D3BJ RIJCOSX def2-SVPD def2/J TightSCF
|  2> *xyz 0 1
|  3> C         -0.69912        3.48945        3.75516
|  4> H         -0.96672        4.34901        3.14049
|  5> C         -1.08067        3.79296        5.15686
|  6> C          0.77696        3.13839        3.61741
|  7> H         -1.33146        2.65651        3.44632
|  8> H         -0.87449        4.76274        5.42734
|  9> H         -0.68079        3.13476        5.83900
| 10> H         -2.05755        3.53169        5.34620
| 11> H          0.99957        2.92898        2.59199
| 12> H          0.99576        2.27685        4.21303
| 13> H          1.37223        3.96279        3.95046
| 14> *
| 15> %MaxCore 64000
| 16>
| 17> %pal nprocs 4
| 18> end
| 19>
| 20> %scf
| 21>   MaxIter 150
| 22> end
| 23>
| 24>
| 25>                          ****END OF INPUT****

CARTESIAN COORDINATES (ANGSTROEM)
---------------------------------
  C     -0.699120    3.489450    3.755160
  H     -0.966720    4.349010    3.140490
  C     -1.080670    3.792960    5.156860
  C      0.776960    3.138390    3.617410
  H     -1.331460    2.656510    3.446320
  H     -0.874490    4.762740    5.427340
  H     -0.680790    3.134760    5.839000
  H     -2.057550    3.531690    5.346200
  H      0.999570    2.928980    2.591990
  H      0.995760    2.276850    4.213030
  H      1.372230    3.962790    3.950460

 Total Charge           Charge          ....    0
 Multiplicity           Mult            ....    1
 Number of Electrons    NEL             ....   26
 Basis Dimension        Dim             ....  124

ORBITAL ENERGIES
----------------

  NO   OCC          E(Eh)            E(eV)
   0   2.0000     -10.170238      -276.7462
   1   2.0000     -10.162081      -276.5243
   2   2.0000     -10.145354      -276.0691
   3   2.0000      -0.783826       -21.3290
   4   2.0000      -0.685068       -18.6417
   5   2.0000      -0.582760       -15.8577
   6   2.0000      -0.471390       -12.8272
   7   2.0000      -0.438608       -11.9351
   8   2.0000      -0.400106       -10.8874
   9   2.0000      -0.396061       -10.7774
  10   2.0000      -0.341014        -9.2795
  11   2.0000      -0.329608        -8.9691
  12   2.0000      -0.325858        -8.8670
  13   0.0000       0.025065         0.6821
  14   0.0000       0.054051         1.4708
  15   0.0000       0.060684         1.6513
  16   0.0000       0.081269         2.2115
  17   0.0000       0.102756         2.7961

MULLIKEN ATOMIC CHARGES
-----------------------
   0 C :   -0.367218
   1 H :   -0.209257
   2 C :    1.148318
   3 C :    0.855380
   4 H :   -0.128357
   5 H :   -0.290102
   6 H :   -0.317591
   7 H :   -0.283513
   8 H :   -0.169056
   9 H :   -0.104907
  10 H :   -0.133698
Sum of atomic charges:   -0.0000000

LOEWDIN ATOMIC CHARGES
----------------------
   0 C :   -0.107257
   1 H :    0.018102
   2 C :    0.117547
   3 C :    0.125592
   4 H :    0.017244
   5 H :   -0.028578
   6 H :   -0.037890
   7 H :   -0.039312
   8 H :   -0.025955
   9 H :   -0.020378
  10 H :   -0.019114

  Mayer bond orders larger than 0.100000
B(  0-C ,  1-H ) :   0.9127 B(  0-C ,  2-C ) :   1.2894 B(  0-C ,  3-C ) :   1.2578
B(  0-C ,  4-H ) :   0.8720 B(  0-C ,  5-H ) :   0.2460 B(  0-C ,  6-H ) :   0.2186
B(  0-C ,  7-H ) :   0.2310 B(  0-C ,  8-H ) :   0.2131 B(  0-C ,  9-H ) :   0.1759
B(  0-C , 10-H ) :   0.1985 B(  1-H ,  2-C ) :   0.1158 B(  2-C ,  4-H ) :   0.1299
B(  2-C ,  5-H ) :   0.6547 B(  2-C ,  6-H ) :   0.5727 B(  2-C ,  7-H ) :   0.5575
B(  3-C ,  8-H ) :   0.7760 B(  3-C ,  9-H ) :   0.8013 B(  3-C , 10-H ) :   0.7874
B(  6-H ,  7-H ) :   0.2873

Dispersion correction           -0.010066383
FINAL SINGLE POINT ENERGY      -118.959244607213

DIPOLE MOMENT
-------------
                                X             Y             Z
Electronic contribution:     -0.14278       0.12159      -0.39696
Nuclear contribution   :      0.10024      -0.14218       0.41628
                        -----------------------------------------
Total Dipole Moment    :     -0.04254      -0.02059       0.01933
                        -----------------------------------------
Magnitude (a.u.)       :      0.05106
Magnitude (Debye)      :      0.12979

Rotational constants in cm-1:     1.024179     0.291605     0.259489
Rotational constants in MHz : 30704.103454  8742.106283  7779.285909

                             ****ORCA TERMINATED NORMALLY****
TOTAL RUN TIME: 0 days 0 hours 0 minutes 13 seconds 417 msec
