                         Program Version 5.0.0 -  RELEASE  -
|  1> !B3LYP D3BJ RIJCOSX def2-SVPD def2/J TightSCF
|  2> *xyz 0 1
|  3> C         -2.79070       -0.78527        5.70281
|  4> C         -2.45380        0.05510        6.94145
|  5> C         -2.07842        1.48042        6.56410
|  6> H         -1.62558       -0.38216        7.49891
|  7> H         -3.32527        0.08775        7.59917
|  8> O         -0.90125        1.85816        6.82810
|  9> F         -2.93658        2.17731        5.96415
| 10> H         -1.94052       -0.82114        5.05412
| 11> H         -3.61590       -0.34261        5.18514
| 12> H         -3.05063       -1.77815        6.00536
| 13> *
| 14> %MaxCore 64000
| 15>
| 16> %pal nprocs 4
| 17> end
| 18>
| 19> %scf
| 20>   MaxIter 150
| 21> end
| 22>
| 23>
| 24>                          ****END OF INPUT****

CARTESIAN COORDINATES (ANGSTROEM)
---------------------------------
  C     -2.790700   -0.785270    5.702810
  C     -2.453800    0.055100    6.941450
  C     -2.078420    1.480420    6.564100
  H     -1.625580   -0.382160    7.498910
  H     -3.325270    0.087750    7.599170
  O     -0.901250    1.858160    6.828100
  F     -2.936580    2.177310    5.964150
  H     -1.940520   -0.821140    5.054120
  H     -3.615900   -0.342610    5.185140
  H     -3.050630   -1.778150    6.005360

 Total Charge           Charge          ....    0
 Multiplicity           Mult            ....    1
 Number of Electrons    NEL             ....   40
 Basis Dimension        Dim             ....  146

ORBITAL ENERGIES
----------------

  NO   OCC          E(Eh)            E(eV)
   0   2.0000     -24.771005      -674.0533
   1   2.0000     -19.149122      -521.0741
   2   2.0000     -10.367108      -282.1034
   3   2.0000     -10.218125      -278.0493
   4   2.0000     -10.196886      -277.4714
   5   2.0000      -1.307734       -35.5852
   6   2.0000      -1.021673       -27.8011
   7   2.0000      -0.801061       -21.7980
   8   2.0000      -0.685282       -18.6475
   9   2.0000      -0.645095       -17.5539
  10   2.0000      -0.554944       -15.1008
  11   2.0000      -0.542771       -14.7695
  12   2.0000      -0.503699       -13.7063
  13   2.0000      -0.468575       -12.7506
  14   2.0000      -0.439100       -11.9485
  15   2.0000      -0.406999       -11.0750
  16   2.0000      -0.388214       -10.5638
  17   2.0000      -0.381348       -10.3770
  18   2.0000      -0.354268        -9.6401
  19   2.0000      -0.292910        -7.9705
  20   0.0000      -0.037493        -1.0202
  21   0.0000       0.010568         0.2876
  22   0.0000       0.043609         1.1867
  23   0.0000       0.054503         1.4831
  24   0.0000       0.072033         1.9601

MULLIKEN ATOMIC CHARGES
-----------------------
   0 C :    0.763538
   1 C :   -0.112070
   2 C :    0.719524
   3 H :   -0.118754
   4 H :   -0.038442
   5 O :   -0.466724
   6 F :   -0.387342
   7 H :   -0.126594
   8 H :   -0.111135
   9 H :   -0.122000
Sum of atomic charges:   -0.0000000

LOEWDIN ATOMIC CHARGES
----------------------
   0 C :    0.148224
   1 C :    0.014288
   2 C :   -0.014986
   3 H :    0.031194
   4 H :    0.031943
   5 O :   -0.137853
   6 F :   -0.031962
   7 H :   -0.009561
   8 H :   -0.016302
   9 H :   -0.014985

  Mayer bond orders larger than 0.100000
B(  0-C ,  1-C ) :   1.2839 B(  0-C ,  7-H ) :   0.8234 B(  0-C ,  8-H ) :   0.7889
B(  0-C ,  9-H ) :   0.8208 B(  1-C ,  2-C ) :   1.0587 B(  1-C ,  3-H ) :   0.9512
B(  1-C ,  4-H ) :   0.8490 B(  1-C ,  7-H ) :   0.1704 B(  1-C ,  8-H ) :   0.1829
B(  1-C ,  9-H ) :   0.1660 B(  2-C ,  3-H ) :   0.1524 B(  2-C ,  5-O ) :   1.8053
B(  2-C ,  6-F ) :   0.7260 B(  5-O ,  6-F ) :   0.1148

Dispersion correction           -0.010351990
FINAL SINGLE POINT ENERGY      -292.055989443262

DIPOLE MOMENT
-------------
                                X             Y             Z
Electronic contribution:      0.56934       7.91417       0.05700
Nuclear contribution   :     -1.47571      -8.84360      -0.10748
                        -----------------------------------------
Total Dipole Moment    :     -0.90637      -0.92943      -0.05048
                        -----------------------------------------
Magnitude (a.u.)       :      1.29919
Magnitude (Debye)      :      3.30228

Rotational constants in cm-1:     0.283081     0.133379     0.103386
Rotational constants in MHz :  8486.545774  3998.599544  3099.448040

                             ****ORCA TERMINATED NORMALLY****
TOTAL RUN TIME: 0 days 0 hours 0 minutes 15 seconds 954 msec
