                         Program Version 5.0.0 -  RELEASE  -
|  1> !B3LYP D3BJ RIJCOSX def2-SVPD def2/J TightSCF xyzfile
|  2>
|  3> *xyzfile 0 1 D2.xyz
|  4>
|  5> %MaxCore 64000
|  6>
|  7> %pal nprocs 4
|  8> end
|  9>
| 10> %scf
| 11>   MaxIter 150
| 12> end
| 13>
| 14>
| 15>                          ****END OF INPUT****

CARTESIAN COORDINATES (ANGSTROEM)
---------------------------------
  C     -0.699123    3.489451    3.755163
  H     -0.966716    4.349013    3.140491
  C     -1.080669    3.792957    5.156857
  C      0.776956    3.138391    3.617408
  H     -1.331455    2.656510    3.446323
  H      1.371398    3.888342    4.149744
  H      1.046926    3.232057    2.561331
  C      1.118917    1.731170    4.115155
  H      2.200573    1.654226    4.254882
  C      0.659466    0.635182    3.153306
  H      0.677024    1.576674    5.103150
  H      1.312288    0.638870    2.274207
  H     -0.339563    0.868049    2.772876
  C      0.639957   -0.771175    3.755619
  C     -0.341821   -0.965537    4.915046
  H      1.648266   -1.028665    4.097015
  H      0.398568   -1.482386    2.958453
  H     -0.279892   -2.005646    5.252547
  C     -1.789164   -0.639231    4.557496
  H     -0.032380   -0.352918    5.765118
  H     -2.107151   -1.270102    3.719619
  H     -1.856352    0.391636    4.197604
  C     -2.790700   -0.785275    5.702812
  H     -2.867308   -1.835651    6.001675
  H     -3.774554   -0.486577    5.334807
  C     -2.453797    0.055101    6.941445
  C     -2.078419    1.480421    6.564098
  H     -1.625584   -0.382163    7.498914
  H     -3.325274    0.087746    7.599175
  H     -0.874488    4.762737    5.427344
  H     -0.680793    3.134762    5.839000
  H     -2.057550    3.531691    5.346197
  O     -0.901252    1.858156    6.828104
  F     -2.936582    2.177309    5.964151

 Total Charge           Charge          ....    0
 Multiplicity           Mult            ....    1
 Number of Electrons    NEL             ....  104
 Basis Dimension        Dim             ....  434

ORBITAL ENERGIES
----------------

  NO   OCC          E(Eh)            E(eV)
   0   2.0000     -24.780912      -674.3229
   1   2.0000     -19.156109      -521.2642
   2   2.0000     -10.377950      -282.3984
   3   2.0000     -10.218844      -278.0689
   4   2.0000     -10.203916      -277.6627
   5   2.0000     -10.187905      -277.2270
   6   2.0000     -10.177202      -276.9357
   7   2.0000     -10.173067      -276.8232
   8   2.0000     -10.165940      -276.6293
   9   2.0000     -10.159029      -276.4412
  10   2.0000     -10.156465      -276.3715
  11   2.0000     -10.150315      -276.2041
  12   2.0000     -10.097290      -274.7612
  13   2.0000      -1.321662       -35.9643
  14   2.0000      -1.039024       -28.2733
  15   2.0000      -0.826751       -22.4970
  16   2.0000      -0.797809       -21.7095
  17   2.0000      -0.768991       -20.9253
  18   2.0000      -0.741882       -20.1876
  19   2.0000      -0.698747       -19.0139
  20   2.0000      -0.679642       -18.4940
  21   2.0000      -0.657058       -17.8795
  22   2.0000      -0.616529       -16.7766
  23   2.0000      -0.605297       -16.4710
  24   2.0000      -0.566961       -15.4278
  25   2.0000      -0.560091       -15.2408
  26   2.0000      -0.557002       -15.1568
  27   2.0000      -0.533560       -14.5189
  28   2.0000      -0.514343       -13.9960
  29   2.0000      -0.482683       -13.1345
  30   2.0000      -0.477831       -13.0024
  31   2.0000      -0.457898       -12.4600
  32   2.0000      -0.452543       -12.3143
  33   2.0000      -0.432296       -11.7634
  34   2.0000      -0.422771       -11.5042
  35   2.0000      -0.419065       -11.4033
  36   2.0000      -0.408648       -11.1199
  37   2.0000      -0.402210       -10.9447
  38   2.0000      -0.389430       -10.5969
  39   2.0000      -0.376880       -10.2554
  40   2.0000      -0.373227       -10.1560
  41   2.0000      -0.367500       -10.0002
  42   2.0000      -0.352469        -9.5912
  43   2.0000      -0.345501        -9.4016
  44   2.0000      -0.338076        -9.1995
  45   2.0000      -0.327448        -8.9103
  46   2.0000      -0.322213        -8.7679
  47   2.0000      -0.312731        -8.5099
  48   2.0000      -0.306433        -8.3385
  49   2.0000      -0.296922        -8.0797
  50   2.0000      -0.294119        -8.0034
  51   2.0000      -0.259403        -7.0587
  52   0.0000      -0.049458        -1.3458
  53   0.0000       0.009646         0.2625
  54   0.0000       0.029882         0.8131
  55   0.0000       0.031547         0.8584
  56   0.0000       0.038296         1.0421

MULLIKEN ATOMIC CHARGES
-----------------------
   0 C :    0.201514
   1 H :   -0.392175
   2 C :    2.258425
   3 C :    0.714602
   4 H :   -0.340634
   5 H :   -0.182011
   6 H :   -0.219123
   7 C :    0.914189
   8 H :   -0.059202
   9 C :    0.187905
  10 H :   -0.915693
  11 H :   -0.345717
  12 H :   -0.194065
  13 C :    0.910720
  14 C :    0.156901
  15 H :   -0.231021
  16 H :   -0.060119
  17 H :   -0.382887
  18 C :    0.596157
  19 H :   -0.084513
  20 H :   -0.157875
  21 H :   -0.724877
  22 C :    0.636623
  23 H :   -0.276627
  24 H :   -0.035563
  25 C :    0.518646
  26 C :    0.631348
  27 H :    0.032880
  28 H :   -0.246595
  29 H :   -0.362630
  30 H :   -0.828713
  31 H :   -0.556792
  32 O :   -0.657312
  33 F :   -0.505767
Sum of atomic charges:   -0.0000000

LOEWDIN ATOMIC CHARGES
----------------------
   0 C :   -0.035912
   1 H :    0.015949
   2 C :    0.140436
   3 C :   -0.017753
   4 H :   -0.003286
   5 H :    0.022197
   6 H :    0.012794
   7 C :   -0.003643
   8 H :    0.022395
   9 C :   -0.026139
  10 H :   -0.016787
  11 H :    0.020855
  12 H :   -0.004177
  13 C :   -0.020868
  14 C :   -0.017085
  15 H :    0.020611
  16 H :    0.017555
  17 H :    0.023429
  18 C :   -0.018314
  19 H :   -0.003590
  20 H :    0.030538
  21 H :   -0.003649
  22 C :   -0.008507
  23 H :    0.025074
  24 H :    0.022613
  25 C :    0.068144
  26 C :    0.047736
  27 H :    0.032314
  28 H :    0.034604
  29 H :   -0.019820
  30 H :   -0.126673
  31 H :   -0.078230
  32 O :   -0.125928
  33 F :   -0.026882

  Mayer bond orders larger than 0.100000
B(  0-C ,  1-H ) :   0.7761 B(  0-C ,  2-C ) :   0.7434 B(  0-C ,  3-C ) :   1.1699
B(  0-C ,  4-H ) :   0.6557 B(  0-C ,  5-H ) :   0.1743 B(  0-C ,  6-H ) :   0.1969
B(  0-C ,  7-C ) :   0.2177 B(  0-C , 10-H ) :  -0.1616 B(  0-C , 29-H ) :   0.1480
B(  0-C , 30-H ) :   0.6504 B(  0-C , 31-H ) :   0.4227 B(  1-H ,  3-C ) :   0.1041
B(  1-H ,  5-H ) :   0.1185 B(  1-H ,  8-H ) :   0.1087 B(  1-H , 30-H ) :   0.1194
B(  2-C ,  3-C ) :   0.1105 B(  2-C ,  4-H ) :   0.2307 B(  2-C , 29-H ) :   0.3593
B(  2-C , 30-H ) :  -0.5326 B(  3-C ,  4-H ) :   0.1435 B(  3-C ,  5-H ) :   0.6121
B(  3-C ,  6-H ) :   0.6402 B(  3-C ,  7-C ) :   1.1407 B(  3-C , 10-H ) :   0.2571
B(  3-C , 30-H ) :  -0.1670 B(  4-H ,  7-C ) :  -0.1100 B(  4-H , 10-H ) :   0.1088
B(  4-H , 12-H ) :   0.1122 B(  4-H , 21-H ) :   0.2143 B(  5-H ,  6-H ) :  -0.1718
B(  5-H ,  7-C ) :   0.1839 B(  5-H , 10-H ) :   0.1280 B(  6-H ,  7-C ) :   0.1548
B(  6-H ,  8-H ) :   0.1067 B(  7-C ,  8-H ) :   0.5763 B(  7-C ,  9-C ) :   1.0649
B(  7-C , 10-H ) :   0.1234 B(  7-C , 11-H ) :   0.2044 B(  7-C , 12-H ) :   0.1206
B(  8-H ,  9-C ) :   0.2223 B(  9-C , 10-H ) :   0.3119 B(  9-C , 11-H ) :   0.7933
B(  9-C , 12-H ) :   0.8442 B(  9-C , 13-C ) :   1.1638 B(  9-C , 14-C ) :   0.1411
B(  9-C , 15-H ) :   0.1535 B(  9-C , 16-H ) :   0.2722 B( 10-H , 13-C ) :  -0.1135
B( 10-H , 19-H ) :   0.1293 B( 10-H , 30-H ) :   0.1093 B( 13-C , 14-C ) :   1.1202
B( 13-C , 15-H ) :   0.5731 B( 13-C , 16-H ) :   0.6077 B( 14-C , 15-H ) :   0.3356
B( 14-C , 17-H ) :   0.8226 B( 14-C , 18-C ) :   1.1140 B( 14-C , 19-H ) :   0.8302
B( 14-C , 20-H ) :   0.1852 B( 14-C , 21-H ) :   0.3094 B( 15-H , 16-H ) :  -0.1650
B( 17-H , 18-C ) :   0.1496 B( 18-C , 19-H ) :   0.1306 B( 18-C , 20-H ) :   0.6249
B( 18-C , 21-H ) :   0.4115 B( 18-C , 22-C ) :   1.1788 B( 18-C , 23-H ) :   0.1650
B( 18-C , 24-H ) :   0.2967 B( 18-C , 25-C ) :   0.1414 B( 20-H , 21-H ) :   0.1257
B( 21-H , 22-C ) :   0.1700 B( 22-C , 23-H ) :   0.7242 B( 22-C , 24-H ) :   0.6140
B( 22-C , 25-C ) :   1.1125 B( 22-C , 26-C ) :   0.1067 B( 22-C , 28-H ) :   0.1899
B( 23-H , 24-H ) :  -0.1784 B( 23-H , 25-C ) :   0.1520 B( 25-C , 26-C ) :   1.1638
B( 25-C , 27-H ) :   0.7888 B( 25-C , 28-H ) :   0.5581 B( 26-C , 27-H ) :   0.1707
B( 26-C , 28-H ) :   0.3101 B( 26-C , 32-O ) :   1.6837 B( 26-C , 33-F ) :   0.5235
B( 29-H , 30-H ) :   0.2481 B( 30-H , 31-H ) :   0.5297 B( 30-H , 32-O ) :   0.1944
B( 31-H , 33-F ) :   0.2436 B( 32-O , 33-F ) :   0.1373

Dispersion correction           -0.061191718
FINAL SINGLE POINT ENERGY      -606.105681566631

DIPOLE MOMENT
-------------
                                X             Y             Z
Electronic contribution:     -8.94612       3.00895       9.46392
Nuclear contribution   :      8.07181      -4.09641      -9.21610
                        -----------------------------------------
Total Dipole Moment    :     -0.87431      -1.08746       0.24782
                        -----------------------------------------
Magnitude (a.u.)       :      1.41718
Magnitude (Debye)      :      3.60218

Rotational constants in cm-1:     0.028400     0.023377     0.015073
Rotational constants in MHz :   851.414727   700.831775   451.871218

                             ****ORCA TERMINATED NORMALLY****
TOTAL RUN TIME: 0 days 0 hours 2 minutes 38 seconds 726 msec
