                         Program Version 5.0.0 -  RELEASE  -
|  1> !M062X D3Zero RIJCOSX def2-SVPD def2/J TightSCF xyzfile
|  2>
|  3> *xyzfile 0 1 D5.xyz
|  4>
|  5> %MaxCore 64000
|  6>
|  7> %pal nprocs 4
|  8> end
|  9>
| 10> %scf
| 11>   MaxIter 150
| 12> end
| 13>
| 14>
| 15>                          ****END OF INPUT****

CARTESIAN COORDINATES (ANGSTROEM)
---------------------------------
  C      3.913853   -1.658291    3.015134
  N      5.039266   -0.901154    2.492821
  C      4.084215    1.742081   -2.114724
  C      4.265245    2.500518   -0.795890
  H      4.868534    3.392674   -0.981134
  H      3.307640    2.824571   -0.387809
  C      4.982240    1.650257    0.247422
  C      6.210384   -1.417261    2.178244
  C      6.535913   -2.677122    2.556078
  N      7.076754   -0.700820    1.478906
  H      7.954643   -1.121554    1.207554
  H      6.756161    0.106637    0.960278
  H      4.842168    0.017609    2.115191
  H      5.993876   -3.126918    3.282784
  H      7.498441   -2.975482    2.468776
  O      4.368065    1.389270    1.313706
  F      6.128919    1.233512   -0.045620
  C      3.139159   -2.376572    1.910609
  H      3.267235   -0.939401    3.520693
  H      4.247195   -2.355095    3.790065
  C      1.997274    0.430918   -1.399218
  C      3.412746    0.376886   -1.965497
  H      4.047407   -0.246590   -1.326706
  H      3.390774   -0.118719   -2.942839
  H      5.068475    1.598504   -2.565728
  H      3.503356    2.363939   -2.804565
  C      2.399946   -1.389579    1.009490
  H      2.440750   -3.087118    2.362976
  H      3.844475   -2.970462    1.318677
  C      2.070177   -1.936705   -0.372401
  H      1.481611   -1.061542    1.509912
  H      3.008628   -0.490001    0.897451
  C      1.322238   -0.935775   -1.256413
  H      1.472747   -2.850902   -0.283997
  H      3.003539   -2.234041   -0.862535
  H      1.376444    1.058920   -2.047420
  H      2.015341    0.929780   -0.426535
  H      0.316648   -0.787213   -0.848278
  H      1.185611   -1.379252   -2.248613

 Total Charge           Charge          ....    0
 Multiplicity           Mult            ....    1
 Number of Electrons    NEL             ....  126
 Basis Dimension        Dim             ....  510

ORBITAL ENERGIES
----------------

  NO   OCC          E(Eh)            E(eV)
   0   2.0000     -25.373004      -690.4345
   1   2.0000     -19.688181      -535.7426
   2   2.0000     -14.738638      -401.0587
   3   2.0000     -14.728089      -400.7717
   4   2.0000     -10.776377      -293.2401
   5   2.0000     -10.601847      -288.4909
   6   2.0000     -10.583492      -287.9914
   7   2.0000     -10.578846      -287.8650
   8   2.0000     -10.565699      -287.5073
   9   2.0000     -10.562905      -287.4313
  10   2.0000     -10.554896      -287.2133
  11   2.0000     -10.547915      -287.0233
  12   2.0000     -10.540275      -286.8155
  13   2.0000     -10.533618      -286.6343
  14   2.0000     -10.528252      -286.4883
  15   2.0000     -10.443042      -284.1696
  16   2.0000      -1.492263       -40.6065
  17   2.0000      -1.186421       -32.2842
  18   2.0000      -1.050042       -28.5731
  19   2.0000      -0.961996       -26.1772
  20   2.0000      -0.939319       -25.5602
  21   2.0000      -0.901818       -24.5397
  22   2.0000      -0.863636       -23.5007
  23   2.0000      -0.833986       -22.6939
  24   2.0000      -0.800502       -21.7828
  25   2.0000      -0.780581       -21.2407
  26   2.0000      -0.769153       -20.9297
  27   2.0000      -0.733650       -19.9636
  28   2.0000      -0.702795       -19.1240
  29   2.0000      -0.687703       -18.7133
  30   2.0000      -0.685831       -18.6624
  31   2.0000      -0.672389       -18.2966
  32   2.0000      -0.633889       -17.2490
  33   2.0000      -0.631530       -17.1848
  34   2.0000      -0.610517       -16.6130
  35   2.0000      -0.585610       -15.9353
  36   2.0000      -0.575443       -15.6586
  37   2.0000      -0.564635       -15.3645
  38   2.0000      -0.560117       -15.2416
  39   2.0000      -0.539684       -14.6855
  40   2.0000      -0.526645       -14.3307
  41   2.0000      -0.515185       -14.0189
  42   2.0000      -0.504083       -13.7168
  43   2.0000      -0.491533       -13.3753
  44   2.0000      -0.483231       -13.1494
  45   2.0000      -0.482555       -13.1310
  46   2.0000      -0.471099       -12.8193
  47   2.0000      -0.457931       -12.4609
  48   2.0000      -0.455727       -12.4010
  49   2.0000      -0.444056       -12.0834
  50   2.0000      -0.434945       -11.8355
  51   2.0000      -0.425311       -11.5733
  52   2.0000      -0.420471       -11.4416
  53   2.0000      -0.413329       -11.2472
  54   2.0000      -0.406070       -11.0497
  55   2.0000      -0.404965       -11.0197
  56   2.0000      -0.385754       -10.4969
  57   2.0000      -0.380732       -10.3603
  58   2.0000      -0.372407       -10.1337
  59   2.0000      -0.369927       -10.0662
  60   2.0000      -0.365067        -9.9340
  61   2.0000      -0.289851        -7.8873
  62   2.0000      -0.195923        -5.3313
  63   0.0000      -0.021979        -0.5981
  64   0.0000       0.016625         0.4524
  65   0.0000       0.038207         1.0397
  66   0.0000       0.042217         1.1488
  67   0.0000       0.047432         1.2907

MULLIKEN ATOMIC CHARGES
-----------------------
   0 C :    1.174282
   1 N :    0.232097
   2 C :    0.432719
   3 C :    0.284914
   4 H :   -0.100865
   5 H :    0.164964
   6 C :    0.691037
   7 C :    0.730540
   8 C :    0.589454
   9 N :    0.397440
  10 H :   -0.095601
  11 H :   -0.535028
  12 H :   -1.273637
  13 H :   -0.011020
  14 H :   -0.660656
  15 O :   -0.647267
  16 F :   -0.454805
  17 C :    0.389409
  18 H :   -0.354465
  19 H :   -0.126261
  20 C :   -0.075691
  21 C :   -0.093474
  22 H :   -0.012045
  23 H :   -0.195145
  24 H :   -0.022925
  25 H :   -0.106222
  26 C :    0.791641
  27 H :   -0.174951
  28 H :   -0.041477
  29 C :    0.038315
  30 H :   -0.030801
  31 H :   -1.075739
  32 C :    0.758145
  33 H :   -0.456519
  34 H :    0.135651
  35 H :   -0.457170
  36 H :    0.193898
  37 H :    0.013652
  38 H :   -0.016389
Sum of atomic charges:    0.0000000

LOEWDIN ATOMIC CHARGES
----------------------
   0 C :    0.070070
   1 N :    0.003079
   2 C :   -0.016034
   3 C :    0.067934
   4 H :    0.041982
   5 H :    0.036120
   6 C :    0.067735
   7 C :   -0.218198
   8 C :    0.157489
   9 N :    0.204178
  10 H :    0.012410
  11 H :   -0.088764
  12 H :   -0.095425
  13 H :   -0.125031
  14 H :   -0.113011
  15 O :   -0.116305
  16 F :   -0.033412
  17 C :   -0.011097
  18 H :    0.026507
  19 H :    0.011418
  20 C :   -0.031820
  21 C :   -0.027299
  22 H :    0.013926
  23 H :    0.034557
  24 H :    0.026541
  25 H :    0.032393
  26 C :   -0.034266
  27 H :    0.023578
  28 H :    0.018747
  29 C :   -0.038011
  30 H :    0.036105
  31 H :   -0.031482
  32 C :   -0.030341
  33 H :    0.026281
  34 H :    0.019206
  35 H :    0.026395
  36 H :    0.006970
  37 H :    0.024668
  38 H :    0.022206

  Mayer bond orders larger than 0.100000
B(  0-C ,  1-N ) :   0.9539 B(  0-C , 12-H ) :  -0.6139 B(  0-C , 17-C ) :   1.0330
B(  0-C , 18-H ) :   0.6847 B(  0-C , 19-H ) :   0.7397 B(  0-C , 26-C ) :   0.1605
B(  1-N ,  7-C ) :   0.8587 B(  1-N ,  8-C ) :   0.4117 B(  1-N , 12-H ) :   0.9332
B(  1-N , 18-H ) :   0.2229 B(  2-C ,  3-C ) :   1.1446 B(  2-C ,  4-H ) :   0.1528
B(  2-C , 21-C ) :   1.2274 B(  2-C , 24-H ) :   0.6972 B(  2-C , 25-H ) :   0.8442
B(  3-C ,  4-H ) :   0.7072 B(  3-C ,  5-H ) :   0.7581 B(  3-C ,  6-C ) :   1.1957
B(  3-C , 25-H ) :   0.1366 B(  4-H ,  6-C ) :   0.2677 B(  5-H ,  6-C ) :   0.1974
B(  6-C , 15-O ) :   1.6197 B(  6-C , 16-F ) :   0.4433 B(  7-C ,  8-C ) :   1.6653
B(  7-C ,  9-N ) :   0.8402 B(  7-C , 11-H ) :  -0.1644 B(  7-C , 12-H ) :  -0.6734
B(  7-C , 13-H ) :   0.3767 B(  7-C , 14-H ) :   0.3813 B(  8-C ,  9-N ) :   0.2335
B(  8-C , 12-H ) :  -0.1071 B(  8-C , 13-H ) :   0.5487 B(  8-C , 14-H ) :   0.6185
B(  9-N , 10-H ) :   1.1474 B(  9-N , 11-H ) :   1.0786 B( 10-H , 11-H ) :  -0.2457
B( 11-H , 12-H ) :   0.1506 B( 12-H , 15-O ) :   0.2080 B( 12-H , 18-H ) :   0.1636
B( 13-H , 18-H ) :  -0.1231 B( 13-H , 19-H ) :   0.1652 B( 17-C , 19-H ) :   0.1572
B( 17-C , 26-C ) :   1.1039 B( 17-C , 27-H ) :   0.9599 B( 17-C , 28-H ) :   0.9026
B( 17-C , 30-H ) :   0.1282 B( 18-H , 19-H ) :  -0.3079 B( 20-C , 21-C ) :   1.2206
B( 20-C , 22-H ) :   0.1139 B( 20-C , 23-H ) :   0.1460 B( 20-C , 29-C ) :   0.1230
B( 20-C , 32-C ) :   1.1459 B( 20-C , 35-H ) :   1.0840 B( 20-C , 36-H ) :   0.8078
B( 20-C , 37-H ) :   0.2833 B( 20-C , 38-H ) :   0.1186 B( 21-C , 22-H ) :   0.9352
B( 21-C , 23-H ) :   0.9164 B( 21-C , 24-H ) :   0.2302 B( 21-C , 25-H ) :   0.1618
B( 21-C , 35-H ) :   0.1057 B( 21-C , 36-H ) :   0.1090 B( 22-H , 33-H ) :  -0.1041
B( 22-H , 34-H ) :   0.1180 B( 24-H , 25-H ) :  -0.1611 B( 26-C , 27-H ) :   0.1571
B( 26-C , 29-C ) :   1.2303 B( 26-C , 30-H ) :   0.6014 B( 26-C , 31-H ) :   0.1012
B( 26-C , 34-H ) :   0.1492 B( 27-H , 31-H ) :   0.1209 B( 28-H , 33-H ) :  -0.1119
B( 29-C , 31-H ) :   0.1295 B( 29-C , 32-C ) :   1.0923 B( 29-C , 33-H ) :   1.1176
B( 29-C , 34-H ) :   0.8155 B( 29-C , 38-H ) :   0.2282 B( 30-H , 31-H ) :   0.2799
B( 31-H , 36-H ) :   0.1423 B( 32-C , 37-H ) :   0.6642 B( 32-C , 38-H ) :   0.6989
B( 33-H , 34-H ) :  -0.1168 B( 37-H , 38-H ) :  -0.1525

Dispersion correction           -0.002750483
FINAL SINGLE POINT ENERGY      -754.798941997837

DIPOLE MOMENT
-------------
                                X             Y             Z
Electronic contribution:     12.75381      10.35422       3.23836
Nuclear contribution   :    -13.35170      -8.48261      -5.12969
                        -----------------------------------------
Total Dipole Moment    :     -0.59789       1.87160      -1.89133
                        -----------------------------------------
Magnitude (a.u.)       :      2.72717
Magnitude (Debye)      :      6.93193

Rotational constants in cm-1:     0.019886     0.013843     0.009504
Rotational constants in MHz :   596.157485   415.004628   284.931121

                             ****ORCA TERMINATED NORMALLY****
TOTAL RUN TIME: 0 days 0 hours 4 minutes 42 seconds 758 msec
