                         Program Version 5.0.0 -  RELEASE  -
|  1> !M062X D3Zero RIJCOSX def2-TZVP def2/J TightSCF
|  2> *xyz -1 1
|  3> C          0.96805        1.63064       -3.71575
|  4> C         -0.50835        1.72268       -4.12430
|  5> S         -1.32861        0.14674       -4.43578
|  6> H         -0.59151        2.29496       -5.04722
|  7> H         -1.11411        2.23561       -3.37436
|  8> O         -2.57135        0.47573       -5.06834
|  9> O         -1.51496       -0.40051       -3.06342
| 10> O         -0.37793       -0.62756       -5.20114
| 11> H          1.51840        1.12197       -4.47946
| 12> H          1.05062        1.08971       -2.79625
| 13> H          1.36450        2.61606       -3.58668
| 14> *
| 15> %MaxCore 64000
| 16>
| 17> %pal nprocs 4
| 18> end
| 19>
| 20> %scf
| 21>   MaxIter 150
| 22> end
| 23>
| 24>
| 25>                          ****END OF INPUT****

CARTESIAN COORDINATES (ANGSTROEM)
---------------------------------
  C      0.968050    1.630640   -3.715750
  C     -0.508350    1.722680   -4.124300
  S     -1.328610    0.146740   -4.435780
  H     -0.591510    2.294960   -5.047220
  H     -1.114110    2.235610   -3.374360
  O     -2.571350    0.475730   -5.068340
  O     -1.514960   -0.400510   -3.063420
  O     -0.377930   -0.627560   -5.201140
  H      1.518400    1.121970   -4.479460
  H      1.050620    1.089710   -2.796250
  H      1.364500    2.616060   -3.586680

 Total Charge           Charge          ....   -1
 Multiplicity           Mult            ....    1
 Number of Electrons    NEL             ....   58
 Basis Dimension        Dim             ....  222

ORBITAL ENERGIES
----------------

  NO   OCC          E(Eh)            E(eV)
   0   2.0000     -89.884504     -2445.8817
   1   2.0000     -19.404941      -528.0353
   2   2.0000     -19.401686      -527.9467
   3   2.0000     -19.385133      -527.4963
   4   2.0000     -10.390274      -282.7337
   5   2.0000     -10.386272      -282.6248
   6   2.0000      -8.209067      -223.3801
   7   2.0000      -6.131822      -166.8554
   8   2.0000      -6.130581      -166.8216
   9   2.0000      -6.130420      -166.8172
  10   2.0000      -1.044952       -28.4346
  11   2.0000      -0.915558       -24.9136
  12   2.0000      -0.883760       -24.0483
  13   2.0000      -0.722919       -19.6716
  14   2.0000      -0.590426       -16.0663
  15   2.0000      -0.462400       -12.5825
  16   2.0000      -0.390187       -10.6175
  17   2.0000      -0.383525       -10.4363
  18   2.0000      -0.349161        -9.5011
  19   2.0000      -0.338391        -9.2081
  20   2.0000      -0.325063        -8.8454
  21   2.0000      -0.288569        -7.8524
  22   2.0000      -0.274587        -7.4719
  23   2.0000      -0.226190        -6.1550
  24   2.0000      -0.224818        -6.1176
  25   2.0000      -0.189874        -5.1667
  26   2.0000      -0.174419        -4.7462
  27   2.0000      -0.160622        -4.3707
  28   2.0000      -0.135112        -3.6766
  29   0.0000       0.207136         5.6365
  30   0.0000       0.249416         6.7870
  31   0.0000       0.266820         7.2605
  32   0.0000       0.269986         7.3467
  33   0.0000       0.297586         8.0977

MULLIKEN ATOMIC CHARGES
-----------------------
   0 C :   -0.402503
   1 C :   -0.307498
   2 S :    0.914202
   3 H :    0.106462
   4 H :    0.115307
   5 O :   -0.572563
   6 O :   -0.629941
   7 O :   -0.586906
   8 H :    0.137870
   9 H :    0.133907
  10 H :    0.091664
Sum of atomic charges:   -1.0000000

LOEWDIN ATOMIC CHARGES
----------------------
   0 C :   -0.343328
   1 C :   -0.431998
   2 S :    0.424422
   3 H :    0.115531
   4 H :    0.119325
   5 O :   -0.374636
   6 O :   -0.450632
   7 O :   -0.388427
   8 H :    0.114957
   9 H :    0.114911
  10 H :    0.099873

  Mayer bond orders larger than 0.100000
B(  0-C ,  1-C ) :   0.9308 B(  0-C ,  8-H ) :   0.9727 B(  0-C ,  9-H ) :   0.9737
B(  0-C , 10-H ) :   0.9698 B(  1-C ,  2-S ) :   0.8832 B(  1-C ,  3-H ) :   0.9594
B(  1-C ,  4-H ) :   0.9657 B(  2-S ,  5-O ) :   1.8080 B(  2-S ,  6-O ) :   1.7184
B(  2-S ,  7-O ) :   1.7499

Dispersion correction           -0.000146042
FINAL SINGLE POINT ENERGY      -703.156224039530

DIPOLE MOMENT
-------------
                                X             Y             Z
Electronic contribution:     -5.60151      -5.30129      -1.94159
Nuclear contribution   :      6.64523       6.80157       2.07300
                        -----------------------------------------
Total Dipole Moment    :      1.04372       1.50028       0.13140
                        -----------------------------------------
Magnitude (a.u.)       :      1.83234
Magnitude (Debye)      :      4.65743

Rotational constants in cm-1:     0.163070     0.082807     0.081541
Rotational constants in MHz :  4888.719902  2482.497026  2444.541148

                             ****ORCA TERMINATED NORMALLY****
TOTAL RUN TIME: 0 days 0 hours 0 minutes 26 seconds 349 msec
