                         Program Version 5.0.0 -  RELEASE  -
|  1> !M062X D3Zero RIJCOSX def2-TZVP def2/J TightSCF
|  2> *xyz 1 1
|  3> C          1.36401        0.46874       -2.81376
|  4> N          0.42884        0.32140       -1.65531
|  5> C          0.96805        1.63064       -3.71575
|  6> H          0.74858       -0.40054       -1.00134
|  7> H         -0.46105        0.02333       -2.07773
|  8> H          0.31026        1.20137       -1.13495
|  9> H          1.29485       -0.46874       -3.36468
| 10> H          2.37622        0.59740       -2.43149
| 11> H          1.65923        1.70213       -4.52942
| 12> H          0.98421        2.54058       -3.15304
| 13> H         -0.01744        1.46536       -4.09838
| 14> *
| 15> %MaxCore 64000
| 16>
| 17> %pal nprocs 4
| 18> end
| 19>
| 20> %scf
| 21>   MaxIter 150
| 22> end
| 23>
| 24>
| 25>                          ****END OF INPUT****

CARTESIAN COORDINATES (ANGSTROEM)
---------------------------------
  C      1.364010    0.468740   -2.813760
  N      0.428840    0.321400   -1.655310
  C      0.968050    1.630640   -3.715750
  H      0.748580   -0.400540   -1.001340
  H     -0.461050    0.023330   -2.077730
  H      0.310260    1.201370   -1.134950
  H      1.294850   -0.468740   -3.364680
  H      2.376220    0.597400   -2.431490
  H      1.659230    1.702130   -4.529420
  H      0.984210    2.540580   -3.153040
  H     -0.017440    1.465360   -4.098380

 Total Charge           Charge          ....    1
 Multiplicity           Mult            ....    1
 Number of Electrons    NEL             ....   26
 Basis Dimension        Dim             ....  141

ORBITAL ENERGIES
----------------

  NO   OCC          E(Eh)            E(eV)
   0   2.0000     -15.081633      -410.3921
   1   2.0000     -10.791512      -293.6520
   2   2.0000     -10.710281      -291.4416
   3   2.0000      -1.324447       -36.0400
   4   2.0000      -1.062081       -28.9007
   5   2.0000      -0.929451       -25.2916
   6   2.0000      -0.879592       -23.9349
   7   2.0000      -0.863164       -23.4879
   8   2.0000      -0.763058       -20.7639
   9   2.0000      -0.713699       -19.4207
  10   2.0000      -0.648422       -17.6445
  11   2.0000      -0.630741       -17.1633
  12   2.0000      -0.616911       -16.7870
  13   0.0000      -0.164235        -4.4691
  14   0.0000      -0.102787        -2.7970
  15   0.0000      -0.098419        -2.6781
  16   0.0000      -0.077959        -2.1214
  17   0.0000      -0.040131        -1.0920

MULLIKEN ATOMIC CHARGES
-----------------------
   0 C :   -0.241732
   1 N :   -0.327637
   2 C :   -0.397925
   3 H :    0.344633
   4 H :    0.339963
   5 H :    0.338230
   6 H :    0.208605
   7 H :    0.207655
   8 H :    0.195856
   9 H :    0.167797
  10 H :    0.164555
Sum of atomic charges:    1.0000000

LOEWDIN ATOMIC CHARGES
----------------------
   0 C :   -0.276193
   1 N :    0.163445
   2 C :   -0.276460
   3 H :    0.222775
   4 H :    0.228511
   5 H :    0.223040
   6 H :    0.153247
   7 H :    0.152336
   8 H :    0.148292
   9 H :    0.130736
  10 H :    0.130270

  Mayer bond orders larger than 0.100000
B(  0-C ,  1-N ) :   0.8359 B(  0-C ,  2-C ) :   0.9719 B(  0-C ,  6-H ) :   0.9557
B(  0-C ,  7-H ) :   0.9532 B(  1-N ,  3-H ) :   0.8717 B(  1-N ,  4-H ) :   0.8739
B(  1-N ,  5-H ) :   0.8685 B(  2-C ,  8-H ) :   0.9587 B(  2-C ,  9-H ) :   0.9567
B(  2-C , 10-H ) :   0.9537

Dispersion correction           -0.000052849
FINAL SINGLE POINT ENERGY      -135.507806410484

DIPOLE MOMENT
-------------
                                X             Y             Z
Electronic contribution:     -0.34144      -0.94859       1.56885
Nuclear contribution   :     -0.20470       0.31427      -0.31587
                        -----------------------------------------
Total Dipole Moment    :     -0.54614      -0.63433       1.25299
                        -----------------------------------------
Magnitude (a.u.)       :      1.50686
Magnitude (Debye)      :      3.83013

Rotational constants in cm-1:     1.011480     0.279280     0.248378
Rotational constants in MHz : 30323.408050  8372.602834  7446.185305

                             ****ORCA TERMINATED NORMALLY****
TOTAL RUN TIME: 0 days 0 hours 0 minutes 13 seconds 745 msec
