                         Program Version 5.0.0 -  RELEASE  -
|  1> !M062X D3Zero RIJCOSX def2-TZVP def2/J TightSCF
|  2> *xyz 0 1
|  3> C          0.96805        1.63064       -3.71575
|  4> C         -0.50835        1.72268       -4.12430
|  5> S         -1.32861        0.14674       -4.43578
|  6> H         -0.59151        2.29496       -5.04722
|  7> H         -1.11411        2.23561       -3.37436
|  8> F         -2.57135        0.47573       -5.06834
|  9> O         -1.51496       -0.40051       -3.06342
| 10> O         -0.37793       -0.62756       -5.20114
| 11> H          1.51840        1.12197       -4.47946
| 12> H          1.05062        1.08971       -2.79625
| 13> H          1.36450        2.61606       -3.58668
| 14> *
| 15> %MaxCore 64000
| 16>
| 17> %pal nprocs 4
| 18> end
| 19>
| 20> %scf
| 21>   MaxIter 150
| 22> end
| 23>
| 24>
| 25>                          ****END OF INPUT****

CARTESIAN COORDINATES (ANGSTROEM)
---------------------------------
  C      0.968050    1.630640   -3.715750
  C     -0.508350    1.722680   -4.124300
  S     -1.328610    0.146740   -4.435780
  H     -0.591510    2.294960   -5.047220
  H     -1.114110    2.235610   -3.374360
  F     -2.571350    0.475730   -5.068340
  O     -1.514960   -0.400510   -3.063420
  O     -0.377930   -0.627560   -5.201140
  H      1.518400    1.121970   -4.479460
  H      1.050620    1.089710   -2.796250
  H      1.364500    2.616060   -3.586680

 Total Charge           Charge          ....    0
 Multiplicity           Mult            ....    1
 Number of Electrons    NEL             ....   58
 Basis Dimension        Dim             ....  222

ORBITAL ENERGIES
----------------

  NO   OCC          E(Eh)            E(eV)
   0   2.0000     -90.152779     -2453.1818
   1   2.0000     -25.374988      -690.4885
   2   2.0000     -19.641221      -534.4648
   3   2.0000     -19.625027      -534.0241
   4   2.0000     -10.596005      -288.3320
   5   2.0000     -10.552414      -287.1458
   6   2.0000      -8.477943      -230.6965
   7   2.0000      -6.402689      -174.2260
   8   2.0000      -6.397810      -174.0933
   9   2.0000      -6.397223      -174.0773
  10   2.0000      -1.541206       -41.9383
  11   2.0000      -1.226044       -33.3623
  12   2.0000      -1.121949       -30.5298
  13   2.0000      -0.917237       -24.9593
  14   2.0000      -0.841332       -22.8938
  15   2.0000      -0.768725       -20.9181
  16   2.0000      -0.697487       -18.9796
  17   2.0000      -0.689583       -18.7645
  18   2.0000      -0.642259       -17.4768
  19   2.0000      -0.565143       -15.3783
  20   2.0000      -0.561441       -15.2776
  21   2.0000      -0.519995       -14.1498
  22   2.0000      -0.499030       -13.5793
  23   2.0000      -0.473828       -12.8935
  24   2.0000      -0.457899       -12.4601
  25   2.0000      -0.452310       -12.3080
  26   2.0000      -0.407188       -11.0801
  27   2.0000      -0.387336       -10.5399
  28   2.0000      -0.379918       -10.3381
  29   0.0000       0.055421         1.5081
  30   0.0000       0.073649         2.0041
  31   0.0000       0.097092         2.6420
  32   0.0000       0.102448         2.7878
  33   0.0000       0.111267         3.0277

MULLIKEN ATOMIC CHARGES
-----------------------
   0 C :   -0.403532
   1 C :   -0.310143
   2 S :    0.927875
   3 H :    0.158385
   4 H :    0.172691
   5 F :   -0.099933
   6 O :   -0.482168
   7 O :   -0.441934
   8 H :    0.164637
   9 H :    0.166384
  10 H :    0.147739
Sum of atomic charges:    0.0000000

LOEWDIN ATOMIC CHARGES
----------------------
   0 C :   -0.300645
   1 C :   -0.398138
   2 S :    0.549384
   3 H :    0.133641
   4 H :    0.139535
   5 F :    0.103852
   6 O :   -0.332855
   7 O :   -0.275034
   8 H :    0.127034
   9 H :    0.128150
  10 H :    0.125076

  Mayer bond orders larger than 0.100000
B(  0-C ,  1-C ) :   0.9456 B(  0-C ,  8-H ) :   0.9645 B(  0-C ,  9-H ) :   0.9650
B(  0-C , 10-H ) :   0.9611 B(  1-C ,  2-S ) :   0.9271 B(  1-C ,  3-H ) :   0.9383
B(  1-C ,  4-H ) :   0.9402 B(  2-S ,  5-F ) :   1.1338 B(  2-S ,  6-O ) :   1.8617
B(  2-S ,  7-O ) :   1.9020

Dispersion correction           -0.000141148
FINAL SINGLE POINT ENERGY      -727.664832186456

DIPOLE MOMENT
-------------
                                X             Y             Z
Electronic contribution:     -8.33415      -5.11198      -3.24947
Nuclear contribution   :      8.31000       6.74109       2.87442
                        -----------------------------------------
Total Dipole Moment    :     -0.02415       1.62911      -0.37505
                        -----------------------------------------
Magnitude (a.u.)       :      1.67190
Magnitude (Debye)      :      4.24962

Rotational constants in cm-1:     0.158705     0.080192     0.078179
Rotational constants in MHz :  4757.865601  2404.095079  2343.752507

                             ****ORCA TERMINATED NORMALLY****
TOTAL RUN TIME: 0 days 0 hours 0 minutes 29 seconds 332 msec
