                         Program Version 5.0.0 -  RELEASE  -
|  1> !M062X D3Zero RIJCOSX def2-TZVP def2/J TightSCF
|  2> *xyz 0 1
|  3> C          1.36401        0.46874       -2.81376
|  4> C          0.42884        0.32140       -1.65531
|  5> C          0.96805        1.63064       -3.71575
|  6> H          0.74858       -0.40054       -1.00134
|  7> H         -0.46105        0.02333       -2.07773
|  8> H          0.31026        1.20137       -1.13495
|  9> H          1.29485       -0.46874       -3.36468
| 10> H          2.37622        0.59740       -2.43149
| 11> H          1.65923        1.70213       -4.52942
| 12> H          0.98421        2.54058       -3.15304
| 13> H         -0.01744        1.46536       -4.09838
| 14> *
| 15> %MaxCore 64000
| 16>
| 17> %pal nprocs 4
| 18> end
| 19>
| 20> %scf
| 21>   MaxIter 150
| 22> end
| 23>
| 24>
| 25>                          ****END OF INPUT****

CARTESIAN COORDINATES (ANGSTROEM)
---------------------------------
  C      1.364010    0.468740   -2.813760
  C      0.428840    0.321400   -1.655310
  C      0.968050    1.630640   -3.715750
  H      0.748580   -0.400540   -1.001340
  H     -0.461050    0.023330   -2.077730
  H      0.310260    1.201370   -1.134950
  H      1.294850   -0.468740   -3.364680
  H      2.376220    0.597400   -2.431490
  H      1.659230    1.702130   -4.529420
  H      0.984210    2.540580   -3.153040
  H     -0.017440    1.465360   -4.098380

 Total Charge           Charge          ....    0
 Multiplicity           Mult            ....    1
 Number of Electrons    NEL             ....   26
 Basis Dimension        Dim             ....  141

ORBITAL ENERGIES
----------------

  NO   OCC          E(Eh)            E(eV)
   0   2.0000     -10.519635      -286.2538
   1   2.0000     -10.510799      -286.0134
   2   2.0000     -10.493430      -285.5407
   3   2.0000      -0.890388       -24.2287
   4   2.0000      -0.782102       -21.2821
   5   2.0000      -0.667587       -18.1660
   6   2.0000      -0.541926       -14.7466
   7   2.0000      -0.513594       -13.9756
   8   2.0000      -0.467757       -12.7283
   9   2.0000      -0.455971       -12.4076
  10   2.0000      -0.395625       -10.7655
  11   2.0000      -0.392351       -10.6764
  12   2.0000      -0.388958       -10.5841
  13   0.0000       0.072525         1.9735
  14   0.0000       0.117004         3.1838
  15   0.0000       0.123940         3.3726
  16   0.0000       0.128300         3.4912
  17   0.0000       0.144850         3.9416

MULLIKEN ATOMIC CHARGES
-----------------------
   0 C :   -0.218795
   1 C :   -0.377310
   2 C :   -0.394236
   3 H :    0.128319
   4 H :    0.123379
   5 H :    0.122224
   6 H :    0.114752
   7 H :    0.115108
   8 H :    0.131499
   9 H :    0.128404
  10 H :    0.126657
Sum of atomic charges:   -0.0000000

LOEWDIN ATOMIC CHARGES
----------------------
   0 C :   -0.324340
   1 C :   -0.302756
   2 C :   -0.308261
   3 H :    0.106627
   4 H :    0.112747
   5 H :    0.106656
   6 H :    0.133480
   7 H :    0.129332
   8 H :    0.115222
   9 H :    0.115502
  10 H :    0.115791

  Mayer bond orders larger than 0.100000
B(  0-C ,  1-C ) :   0.9440 B(  0-C ,  2-C ) :   0.9521 B(  0-C ,  6-H ) :   0.9796
B(  0-C ,  7-H ) :   0.9794 B(  1-C ,  3-H ) :   0.9848 B(  1-C ,  4-H ) :   0.9778
B(  1-C ,  5-H ) :   0.9799 B(  2-C ,  8-H ) :   0.9811 B(  2-C ,  9-H ) :   0.9759
B(  2-C , 10-H ) :   0.9732

Dispersion correction           -0.000051421
FINAL SINGLE POINT ENERGY      -119.099384698146

DIPOLE MOMENT
-------------
                                X             Y             Z
Electronic contribution:      0.37050      -0.18561      -0.01779
Nuclear contribution   :     -0.35842       0.15752       0.02695
                        -----------------------------------------
Total Dipole Moment    :      0.01208      -0.02809       0.00916
                        -----------------------------------------
Magnitude (a.u.)       :      0.03192
Magnitude (Debye)      :      0.08114

Rotational constants in cm-1:     1.019891     0.293671     0.260247
Rotational constants in MHz : 30575.551403  8804.039097  7802.009261

                             ****ORCA TERMINATED NORMALLY****
TOTAL RUN TIME: 0 days 0 hours 0 minutes 14 seconds 292 msec
