                         Program Version 5.0.0 -  RELEASE  -
|  1> !M062X D3Zero RIJCOSX def2-TZVP def2/J TightSCF
|  2> *xyz 0 1
|  3> C          0.96805        1.63064       -3.71575
|  4> C         -0.50835        1.72268       -4.12430
|  5> S         -1.32861        0.14674       -4.43578
|  6> H         -0.59151        2.29496       -5.04722
|  7> H         -1.11411        2.23561       -3.37436
|  8> O         -2.57135        0.47573       -5.06834
|  9> F         -1.51496       -0.40051       -3.06342
| 10> O         -0.37793       -0.62756       -5.20114
| 11> H          1.51840        1.12197       -4.47946
| 12> H          1.05062        1.08971       -2.79625
| 13> H          1.36450        2.61606       -3.58668
| 14> *
| 15> %MaxCore 64000
| 16>
| 17> %pal nprocs 4
| 18> end
| 19>
| 20> %scf
| 21>   MaxIter 150
| 22> end
| 23>
| 24>
| 25>                          ****END OF INPUT****

CARTESIAN COORDINATES (ANGSTROEM)
---------------------------------
  C      0.968050    1.630640   -3.715750
  C     -0.508350    1.722680   -4.124300
  S     -1.328610    0.146740   -4.435780
  H     -0.591510    2.294960   -5.047220
  H     -1.114110    2.235610   -3.374360
  O     -2.571350    0.475730   -5.068340
  F     -1.514960   -0.400510   -3.063420
  O     -0.377930   -0.627560   -5.201140
  H      1.518400    1.121970   -4.479460
  H      1.050620    1.089710   -2.796250
  H      1.364500    2.616060   -3.586680

 Total Charge           Charge          ....    0
 Multiplicity           Mult            ....    1
 Number of Electrons    NEL             ....   58
 Basis Dimension        Dim             ....  222

ORBITAL ENERGIES
----------------

  NO   OCC          E(Eh)            E(eV)
   0   2.0000     -90.150188     -2453.1113
   1   2.0000     -25.345987      -689.6994
   2   2.0000     -19.644272      -534.5478
   3   2.0000     -19.641148      -534.4628
   4   2.0000     -10.595244      -288.3113
   5   2.0000     -10.553986      -287.1886
   6   2.0000      -8.475300      -230.6246
   7   2.0000      -6.400202      -174.1584
   8   2.0000      -6.395280      -174.0244
   9   2.0000      -6.394544      -174.0044
  10   2.0000      -1.493277       -40.6341
  11   2.0000      -1.242643       -33.8140
  12   2.0000      -1.149190       -31.2711
  13   2.0000      -0.918720       -24.9996
  14   2.0000      -0.818988       -22.2858
  15   2.0000      -0.760878       -20.7045
  16   2.0000      -0.670782       -18.2529
  17   2.0000      -0.662712       -18.0333
  18   2.0000      -0.636646       -17.3240
  19   2.0000      -0.569917       -15.5082
  20   2.0000      -0.554428       -15.0868
  21   2.0000      -0.539390       -14.6775
  22   2.0000      -0.505118       -13.7450
  23   2.0000      -0.480373       -13.0716
  24   2.0000      -0.468875       -12.7587
  25   2.0000      -0.450480       -12.2582
  26   2.0000      -0.418879       -11.3983
  27   2.0000      -0.400383       -10.8950
  28   2.0000      -0.398977       -10.8567
  29   0.0000       0.049376         1.3436
  30   0.0000       0.086314         2.3487
  31   0.0000       0.092264         2.5106
  32   0.0000       0.102612         2.7922
  33   0.0000       0.117291         3.1917

MULLIKEN ATOMIC CHARGES
-----------------------
   0 C :   -0.404023
   1 C :   -0.320440
   2 S :    0.939545
   3 H :    0.181839
   4 H :    0.169558
   5 O :   -0.437901
   6 F :   -0.142681
   7 O :   -0.451875
   8 H :    0.170591
   9 H :    0.147022
  10 H :    0.148366
Sum of atomic charges:    0.0000000

LOEWDIN ATOMIC CHARGES
----------------------
   0 C :   -0.313070
   1 C :   -0.393407
   2 S :    0.557219
   3 H :    0.148197
   4 H :    0.137349
   5 O :   -0.265013
   6 F :    0.034275
   7 O :   -0.277945
   8 H :    0.127066
   9 H :    0.120898
  10 H :    0.124431

  Mayer bond orders larger than 0.100000
B(  0-C ,  1-C ) :   0.9351 B(  0-C ,  8-H ) :   0.9633 B(  0-C ,  9-H ) :   0.9677
B(  0-C , 10-H ) :   0.9629 B(  1-C ,  2-S ) :   0.9184 B(  1-C ,  3-H ) :   0.9432
B(  1-C ,  4-H ) :   0.9456 B(  2-S ,  5-O ) :   1.9421 B(  2-S ,  6-F ) :   1.0728
B(  2-S ,  7-O ) :   1.9006

Dispersion correction           -0.000151481
FINAL SINGLE POINT ENERGY      -727.689006288267

DIPOLE MOMENT
-------------
                                X             Y             Z
Electronic contribution:     -6.53763      -6.61286       0.19628
Nuclear contribution   :      7.20921       7.65416       0.78523
                        -----------------------------------------
Total Dipole Moment    :      0.67159       1.04130       0.98151
                        -----------------------------------------
Magnitude (a.u.)       :      1.58073
Magnitude (Debye)      :      4.01788

Rotational constants in cm-1:     0.153780     0.081282     0.079816
Rotational constants in MHz :  4610.199589  2436.778679  2392.820729

                             ****ORCA TERMINATED NORMALLY****
TOTAL RUN TIME: 0 days 0 hours 0 minutes 30 seconds 385 msec
