                         Program Version 5.0.0 -  RELEASE  -
|  1> !M062X D3Zero RIJCOSX def2-TZVP def2/J TightSCF
|  2> *xyz 0 1
|  3> C          0.96805        1.63064       -3.71575
|  4> C         -0.50835        1.72268       -4.12430
|  5> S         -1.32861        0.14674       -4.43578
|  6> H         -0.59151        2.29496       -5.04722
|  7> H         -1.11411        2.23561       -3.37436
|  8> O         -2.57135        0.47573       -5.06834
|  9> O         -1.51496       -0.40051       -3.06342
| 10> F         -0.37793       -0.62756       -5.20114
| 11> H          1.51840        1.12197       -4.47946
| 12> H          1.05062        1.08971       -2.79625
| 13> H          1.36450        2.61606       -3.58668
| 14> *
| 15> %MaxCore 64000
| 16>
| 17> %pal nprocs 4
| 18> end
| 19>
| 20> %scf
| 21>   MaxIter 150
| 22> end
| 23>
| 24>
| 25>                          ****END OF INPUT****

CARTESIAN COORDINATES (ANGSTROEM)
---------------------------------
  C      0.968050    1.630640   -3.715750
  C     -0.508350    1.722680   -4.124300
  S     -1.328610    0.146740   -4.435780
  H     -0.591510    2.294960   -5.047220
  H     -1.114110    2.235610   -3.374360
  O     -2.571350    0.475730   -5.068340
  O     -1.514960   -0.400510   -3.063420
  F     -0.377930   -0.627560   -5.201140
  H      1.518400    1.121970   -4.479460
  H      1.050620    1.089710   -2.796250
  H      1.364500    2.616060   -3.586680

 Total Charge           Charge          ....    0
 Multiplicity           Mult            ....    1
 Number of Electrons    NEL             ....   58
 Basis Dimension        Dim             ....  222

ORBITAL ENERGIES
----------------

  NO   OCC          E(Eh)            E(eV)
   0   2.0000     -90.152099     -2453.1633
   1   2.0000     -25.369046      -690.3268
   2   2.0000     -19.644776      -534.5615
   3   2.0000     -19.625264      -534.0306
   4   2.0000     -10.595958      -288.3307
   5   2.0000     -10.557606      -287.2871
   6   2.0000      -8.477276      -230.6784
   7   2.0000      -6.402189      -174.2124
   8   2.0000      -6.397030      -174.0720
   9   2.0000      -6.396540      -174.0587
  10   2.0000      -1.530571       -41.6489
  11   2.0000      -1.232403       -33.5354
  12   2.0000      -1.124883       -30.6096
  13   2.0000      -0.921308       -25.0701
  14   2.0000      -0.834069       -22.6962
  15   2.0000      -0.770170       -20.9574
  16   2.0000      -0.695573       -18.9275
  17   2.0000      -0.688951       -18.7473
  18   2.0000      -0.634287       -17.2598
  19   2.0000      -0.567412       -15.4401
  20   2.0000      -0.555370       -15.1124
  21   2.0000      -0.529129       -14.3983
  22   2.0000      -0.509782       -13.8719
  23   2.0000      -0.480679       -13.0799
  24   2.0000      -0.463497       -12.6124
  25   2.0000      -0.453018       -12.3273
  26   2.0000      -0.408419       -11.1136
  27   2.0000      -0.388822       -10.5804
  28   2.0000      -0.382960       -10.4209
  29   0.0000       0.045077         1.2266
  30   0.0000       0.083202         2.2640
  31   0.0000       0.096028         2.6131
  32   0.0000       0.100897         2.7456
  33   0.0000       0.113117         3.0781

MULLIKEN ATOMIC CHARGES
-----------------------
   0 C :   -0.414855
   1 C :   -0.309229
   2 S :    0.929734
   3 H :    0.168016
   4 H :    0.187625
   5 O :   -0.428297
   6 O :   -0.484671
   7 F :   -0.112775
   8 H :    0.144717
   9 H :    0.168984
  10 H :    0.150751
Sum of atomic charges:   -0.0000000

LOEWDIN ATOMIC CHARGES
----------------------
   0 C :   -0.315624
   1 C :   -0.390999
   2 S :    0.551607
   3 H :    0.137478
   4 H :    0.150534
   5 O :   -0.260985
   6 O :   -0.332981
   7 F :    0.089827
   8 H :    0.118892
   9 H :    0.126534
  10 H :    0.125717

  Mayer bond orders larger than 0.100000
B(  0-C ,  1-C ) :   0.9339 B(  0-C ,  8-H ) :   0.9677 B(  0-C ,  9-H ) :   0.9633
B(  0-C , 10-H ) :   0.9634 B(  1-C ,  2-S ) :   0.9188 B(  1-C ,  3-H ) :   0.9436
B(  1-C ,  4-H ) :   0.9424 B(  2-S ,  5-O ) :   1.9440 B(  2-S ,  6-O ) :   1.8595
B(  2-S ,  7-F ) :   1.1103

Dispersion correction           -0.000152802
FINAL SINGLE POINT ENERGY      -727.669504350559

DIPOLE MOMENT
-------------
                                X             Y             Z
Electronic contribution:     -4.59199      -6.97566      -3.46280
Nuclear contribution   :      6.02439       7.89075       3.01280
                        -----------------------------------------
Total Dipole Moment    :      1.43240       0.91509      -0.45000
                        -----------------------------------------
Magnitude (a.u.)       :      1.75831
Magnitude (Debye)      :      4.46927

Rotational constants in cm-1:     0.153652     0.082400     0.079295
Rotational constants in MHz :  4606.361242  2470.285703  2377.214112

                             ****ORCA TERMINATED NORMALLY****
TOTAL RUN TIME: 0 days 0 hours 0 minutes 29 seconds 702 msec
