                         Program Version 5.0.0 -  RELEASE  -
|  1> !M062X D3Zero RIJCOSX def2-TZVP def2/J TightSCF xyzfile
|  2>
|  3> *xyzfile 0 1 D2.xyz
|  4>
|  5> %MaxCore 64000
|  6>
|  7> %pal nprocs 18
|  8> end
|  9>
| 10> %scf
| 11>   MaxIter 150
| 12> end
| 13>
| 14>
| 15>                          ****END OF INPUT****

CARTESIAN COORDINATES (ANGSTROEM)
---------------------------------
  C      1.364014    0.468742   -2.813764
  C      0.428844    0.321402   -1.655312
  C      0.968045    1.630639   -3.715749
  C     -0.508347    1.722679   -4.124300
  S     -1.328608    0.146737   -4.435781
  H     -0.591511    2.294958   -5.047219
  H     -1.114114    2.235610   -3.374362
  H      0.748578   -0.400542   -1.001345
  H     -0.461053    0.023332   -2.077731
  H      0.310258    1.201375   -1.134948
  O     -2.571347    0.475733   -5.068341
  F     -1.514963   -0.400512   -3.063420
  H      1.294847   -0.468742   -3.364684
  H      2.376216    0.597400   -2.431495
  H      1.578688    1.520652   -4.612733
  H      1.266653    2.575988   -3.250448
  O     -0.377928   -0.627558   -5.201141

 Total Charge           Charge          ....    0
 Multiplicity           Mult            ....    1
 Number of Electrons    NEL             ....   74
 Basis Dimension        Dim             ....  308

ORBITAL ENERGIES
----------------

  NO   OCC          E(Eh)            E(eV)
   0   2.0000     -90.153796     -2453.2095
   1   2.0000     -25.352165      -689.8675
   2   2.0000     -19.647125      -534.6255
   3   2.0000     -19.644410      -534.5516
   4   2.0000     -10.594885      -288.3015
   5   2.0000     -10.558269      -287.3051
   6   2.0000     -10.534697      -286.6637
   7   2.0000     -10.493412      -285.5402
   8   2.0000      -8.479195      -230.7306
   9   2.0000      -6.404210      -174.2674
  10   2.0000      -6.399042      -174.1268
  11   2.0000      -6.398334      -174.1075
  12   2.0000      -1.507914       -41.0324
  13   2.0000      -1.246974       -33.9319
  14   2.0000      -1.152663       -31.3656
  15   2.0000      -0.939024       -25.5522
  16   2.0000      -0.878649       -23.9092
  17   2.0000      -0.813341       -22.1321
  18   2.0000      -0.787283       -21.4231
  19   2.0000      -0.691471       -18.8159
  20   2.0000      -0.682900       -18.5826
  21   2.0000      -0.668422       -18.1887
  22   2.0000      -0.636453       -17.3188
  23   2.0000      -0.575326       -15.6554
  24   2.0000      -0.557079       -15.1589
  25   2.0000      -0.551135       -14.9971
  26   2.0000      -0.542586       -14.7645
  27   2.0000      -0.501642       -13.6504
  28   2.0000      -0.481666       -13.1068
  29   2.0000      -0.472638       -12.8611
  30   2.0000      -0.469409       -12.7733
  31   2.0000      -0.426646       -11.6096
  32   2.0000      -0.422807       -11.5052
  33   2.0000      -0.405539       -11.0353
  34   2.0000      -0.399953       -10.8833
  35   2.0000      -0.393958       -10.7201
  36   2.0000      -0.384271       -10.4566
  37   0.0000       0.049589         1.3494
  38   0.0000       0.074188         2.0188
  39   0.0000       0.082549         2.2463
  40   0.0000       0.088083         2.3969
  41   0.0000       0.104210         2.8357

MULLIKEN ATOMIC CHARGES
-----------------------
   0 C :   -0.332843
   1 C :   -0.425430
   2 C :   -0.257950
   3 C :   -0.388813
   4 S :    0.937304
   5 H :    0.199975
   6 H :    0.195495
   7 H :    0.141375
   8 H :    0.144688
   9 H :    0.137864
  10 O :   -0.439232
  11 F :   -0.116958
  12 H :    0.187882
  13 H :    0.137062
  14 H :    0.162205
  15 H :    0.158009
  16 O :   -0.440634
Sum of atomic charges:   -0.0000000

LOEWDIN ATOMIC CHARGES
----------------------
   0 C :   -0.309147
   1 C :   -0.316126
   2 C :   -0.285571
   3 C :   -0.363079
   4 S :    0.569034
   5 H :    0.152344
   6 H :    0.142426
   7 H :    0.109323
   8 H :    0.088184
   9 H :    0.107154
  10 O :   -0.261731
  11 F :    0.062201
  12 H :    0.142945
  13 H :    0.137539
  14 H :    0.148038
  15 H :    0.145961
  16 O :   -0.269495

  Mayer bond orders larger than 0.100000
B(  0-C ,  1-C ) :   0.8952 B(  0-C ,  2-C ) :   0.9051 B(  0-C , 12-H ) :   0.9831
B(  0-C , 13-H ) :   0.9807 B(  1-C ,  7-H ) :   0.9882 B(  1-C ,  8-H ) :   0.9710
B(  1-C ,  9-H ) :   0.9836 B(  2-C ,  3-C ) :   0.8996 B(  2-C , 14-H ) :   0.9772
B(  2-C , 15-H ) :   0.9640 B(  3-C ,  4-S ) :   0.9240 B(  3-C ,  5-H ) :   0.9480
B(  3-C ,  6-H ) :   0.9398 B(  4-S , 10-O ) :   1.9502 B(  4-S , 11-F ) :   1.0406
B(  4-S , 16-O ) :   1.8884

Dispersion correction           -0.000433640
FINAL SINGLE POINT ENERGY      -806.257014008745

DIPOLE MOMENT
-------------
                                X             Y             Z
Electronic contribution:    -10.48404      -5.54855      -6.13553
Nuclear contribution   :     11.08796       6.45140       7.05645
                        -----------------------------------------
Total Dipole Moment    :      0.60392       0.90285       0.92093
                        -----------------------------------------
Magnitude (a.u.)       :      1.42407
Magnitude (Debye)      :      3.61969

Rotational constants in cm-1:     0.100113     0.046890     0.041843
Rotational constants in MHz :  3001.313402  1405.711946  1254.411771

                             ****ORCA TERMINATED NORMALLY****
TOTAL RUN TIME: 0 days 0 hours 0 minutes 25 seconds 47 msec
