                         Program Version 5.0.0 -  RELEASE  -
|  1> !M062X D3Zero RIJCOSX def2-TZVP def2/J TightSCF xyzfile
|  2>
|  3> *xyzfile 0 1 D3.xyz
|  4>
|  5> %MaxCore 64000
|  6>
|  7> %pal nprocs 18
|  8> end
|  9>
| 10> %scf
| 11>   MaxIter 150
| 12> end
| 13>
| 14>
| 15>                          ****END OF INPUT****

CARTESIAN COORDINATES (ANGSTROEM)
---------------------------------
  C      1.364014    0.468742   -2.813764
  C      0.428844    0.321402   -1.655312
  C      0.968045    1.630639   -3.715749
  C     -0.508347    1.722679   -4.124300
  S     -1.328608    0.146737   -4.435781
  H     -0.591511    2.294958   -5.047219
  H     -1.114114    2.235610   -3.374362
  H      0.748578   -0.400542   -1.001345
  H     -0.461053    0.023332   -2.077731
  H      0.310258    1.201375   -1.134948
  O     -2.571347    0.475733   -5.068341
  O     -1.514963   -0.400512   -3.063420
  H      1.294847   -0.468742   -3.364684
  H      2.376216    0.597400   -2.431495
  H      1.578688    1.520652   -4.612733
  H      1.266653    2.575988   -3.250448
  F     -0.377928   -0.627558   -5.201141

 Total Charge           Charge          ....    0
 Multiplicity           Mult            ....    1
 Number of Electrons    NEL             ....   74
 Basis Dimension        Dim             ....  308

ORBITAL ENERGIES
----------------

  NO   OCC          E(Eh)            E(eV)
   0   2.0000     -90.159224     -2453.3572
   1   2.0000     -25.374049      -690.4630
   2   2.0000     -19.649603      -534.6929
   3   2.0000     -19.632471      -534.2267
   4   2.0000     -10.596671      -288.3501
   5   2.0000     -10.560768      -287.3731
   6   2.0000     -10.531909      -286.5878
   7   2.0000     -10.465994      -284.7942
   8   2.0000      -8.484533      -230.8759
   9   2.0000      -6.409429      -174.4094
  10   2.0000      -6.404214      -174.2675
  11   2.0000      -6.403906      -174.2591
  12   2.0000      -1.535874       -41.7933
  13   2.0000      -1.240762       -33.7629
  14   2.0000      -1.140629       -31.0381
  15   2.0000      -0.937549       -25.5120
  16   2.0000      -0.873823       -23.7779
  17   2.0000      -0.823433       -22.4067
  18   2.0000      -0.771370       -20.9900
  19   2.0000      -0.708378       -19.2759
  20   2.0000      -0.695629       -18.9290
  21   2.0000      -0.677729       -18.4420
  22   2.0000      -0.629923       -17.1411
  23   2.0000      -0.580150       -15.7867
  24   2.0000      -0.570798       -15.5322
  25   2.0000      -0.546370       -14.8675
  26   2.0000      -0.536073       -14.5873
  27   2.0000      -0.498389       -13.5619
  28   2.0000      -0.483456       -13.1555
  29   2.0000      -0.465412       -12.6645
  30   2.0000      -0.463299       -12.6070
  31   2.0000      -0.439393       -11.9565
  32   2.0000      -0.411186       -11.1889
  33   2.0000      -0.405239       -11.0271
  34   2.0000      -0.393889       -10.7183
  35   2.0000      -0.385074       -10.4784
  36   2.0000      -0.339301        -9.2328
  37   0.0000       0.043483         1.1832
  38   0.0000       0.074154         2.0178
  39   0.0000       0.083185         2.2636
  40   0.0000       0.094102         2.5607
  41   0.0000       0.099810         2.7160

MULLIKEN ATOMIC CHARGES
-----------------------
   0 C :   -0.304790
   1 C :   -0.454499
   2 C :   -0.303406
   3 C :   -0.363305
   4 S :    0.936469
   5 H :    0.189787
   6 H :    0.206510
   7 H :    0.126641
   8 H :    0.226082
   9 H :    0.123649
  10 O :   -0.428722
  11 O :   -0.456019
  12 H :    0.149892
  13 H :    0.135463
  14 H :    0.157738
  15 H :    0.162777
  16 F :   -0.104266
Sum of atomic charges:    0.0000000

LOEWDIN ATOMIC CHARGES
----------------------
   0 C :   -0.312316
   1 C :   -0.319195
   2 C :   -0.291425
   3 C :   -0.359359
   4 S :    0.570575
   5 H :    0.142929
   6 H :    0.155240
   7 H :    0.105527
   8 H :    0.086568
   9 H :    0.103047
  10 O :   -0.256672
  11 O :   -0.280982
  12 H :    0.133249
  13 H :    0.137062
  14 H :    0.141773
  15 H :    0.148302
  16 F :    0.095676

  Mayer bond orders larger than 0.100000
B(  0-C ,  1-C ) :   0.8733 B(  0-C ,  2-C ) :   0.9027 B(  0-C , 12-H ) :   0.9966
B(  0-C , 13-H ) :   0.9793 B(  1-C ,  7-H ) :   0.9852 B(  1-C ,  8-H ) :   0.9292
B(  1-C ,  9-H ) :   0.9832 B(  2-C ,  3-C ) :   0.9077 B(  2-C , 14-H ) :   0.9845
B(  2-C , 15-H ) :   0.9624 B(  3-C ,  4-S ) :   0.9289 B(  3-C ,  5-H ) :   0.9510
B(  3-C ,  6-H ) :   0.9357 B(  4-S , 10-O ) :   1.9516 B(  4-S , 11-O ) :   1.7707
B(  4-S , 16-F ) :   1.1141

Dispersion correction           -0.000428127
FINAL SINGLE POINT ENERGY      -806.238524111999

DIPOLE MOMENT
-------------
                                X             Y             Z
Electronic contribution:     -8.63240      -5.95233      -9.92154
Nuclear contribution   :      9.83476       6.70164       9.41257
                        -----------------------------------------
Total Dipole Moment    :      1.20237       0.74931      -0.50897
                        -----------------------------------------
Magnitude (a.u.)       :      1.50539
Magnitude (Debye)      :      3.82639

Rotational constants in cm-1:     0.099832     0.045916     0.042219
Rotational constants in MHz :  2992.874960  1376.530174  1265.693813

                             ****ORCA TERMINATED NORMALLY****
TOTAL RUN TIME: 0 days 0 hours 0 minutes 26 seconds 841 msec
