                         Program Version 5.0.0 -  RELEASE  -
|  1> !CAM-B3LYP RIJCOSX def2-TZVPD def2/J TightSCF
|  2> *xyz -1 1
|  3> C         -0.77894        0.17197        1.80496
|  4> C         -0.60249       -0.63071        0.49224
|  5> H          0.31389       -1.24035        0.60350
|  6> H         -0.36383        0.11332       -0.30117
|  7> O         -1.71206       -1.37684        0.20253
|  8> H         -1.65864        0.77733        1.73736
|  9> H          0.07466        0.79896        1.95712
| 10> H         -0.87474       -0.50584        2.62734
| 11> *
| 12> %MaxCore 64000
| 13>
| 14> %pal nprocs 4
| 15> end
| 16>
| 17> %scf
| 18>   MaxIter 150
| 19> end
| 20>
| 21>
| 22>                          ****END OF INPUT****

CARTESIAN COORDINATES (ANGSTROEM)
---------------------------------
  C     -0.778940    0.171970    1.804960
  C     -0.602490   -0.630710    0.492240
  H      0.313890   -1.240350    0.603500
  H     -0.363830    0.113320   -0.301170
  O     -1.712060   -1.376840    0.202530
  H     -1.658640    0.777330    1.737360
  H      0.074660    0.798960    1.957120
  H     -0.874740   -0.505840    2.627340

 Total Charge           Charge          ....   -1
 Multiplicity           Mult            ....    1
 Number of Electrons    NEL             ....   26
 Basis Dimension        Dim             ....  159

ORBITAL ENERGIES
----------------

  NO   OCC          E(Eh)            E(eV)
   0   2.0000     -18.865139      -513.3465
   1   2.0000     -10.058563      -273.7074
   2   2.0000     -10.032876      -273.0084
   3   2.0000      -0.761646       -20.7255
   4   2.0000      -0.605430       -16.4746
   5   2.0000      -0.450189       -12.2503
   6   2.0000      -0.320702        -8.7267
   7   2.0000      -0.295887        -8.0515
   8   2.0000      -0.238773        -6.4973
   9   2.0000      -0.224763        -6.1161
  10   2.0000      -0.179448        -4.8830
  11   2.0000      -0.033189        -0.9031
  12   2.0000      -0.032638        -0.8881
  13   0.0000       0.179494         4.8843
  14   0.0000       0.201905         5.4941
  15   0.0000       0.230169         6.2632
  16   0.0000       0.232287         6.3209
  17   0.0000       0.254536         6.9263

MULLIKEN ATOMIC CHARGES
-----------------------
   0 C :   -0.952225
   1 C :   -0.296618
   2 H :    0.193671
   3 H :    0.190214
   4 O :   -0.929896
   5 H :    0.234727
   6 H :    0.328351
   7 H :    0.231776
Sum of atomic charges:   -1.0000000

LOEWDIN ATOMIC CHARGES
----------------------
   0 C :   -0.170480
   1 C :   -0.618949
   2 H :    0.055517
   3 H :    0.056928
   4 O :   -0.424708
   5 H :    0.038667
   6 H :    0.025788
   7 H :    0.037237

  Mayer bond orders larger than 0.100000
B(  0-C ,  1-C ) :   0.7362 B(  0-C ,  4-O ) :   0.2649 B(  0-C ,  5-H ) :   1.0027
B(  0-C ,  6-H ) :   0.9520 B(  0-C ,  7-H ) :   0.9985 B(  1-C ,  2-H ) :   1.0491
B(  1-C ,  3-H ) :   1.0506 B(  1-C ,  4-O ) :   0.9580

FINAL SINGLE POINT ENERGY      -154.416336489658

DIPOLE MOMENT
-------------
                                X             Y             Z
Electronic contribution:     -1.57305      -1.81430      -1.48926
Nuclear contribution   :      2.47835       2.80827       2.30058
                        -----------------------------------------
Total Dipole Moment    :      0.90530       0.99397       0.81132
                        -----------------------------------------
Magnitude (a.u.)       :      1.57028
Magnitude (Debye)      :      3.99134

Rotational constants in cm-1:     1.255775     0.327783     0.287473
Rotational constants in MHz : 37647.186859  9826.677683  8618.224821

                             ****ORCA TERMINATED NORMALLY****
TOTAL RUN TIME: 0 days 0 hours 0 minutes 22 seconds 252 msec
