                         Program Version 5.0.0 -  RELEASE  -
|  1> !CAM-B3LYP RIJCOSX def2-TZVPD def2/J TightSCF
|  2> *xyz 1 1
|  3> C         -2.12050        0.88520        1.78951
|  4> C         -0.77894        0.17197        1.80496
|  5> H         -2.32419        1.47265        2.68608
|  6> H         -2.18770        1.54127        0.91948
|  7> N         -3.17690       -0.15948        1.61070
|  8> H         -4.06474        0.23127        1.28675
|  9> H         -3.34407       -0.67151        2.48493
| 10> H         -2.71686       -0.78189        0.93588
| 11> H         -0.65708       -0.37837        0.89547
| 12> H         -0.74207       -0.50050        2.63642
| 13> H          0.00707        0.89251        1.89389
| 14> *
| 15> %MaxCore 64000
| 16>
| 17> %pal nprocs 4
| 18> end
| 19>
| 20> %scf
| 21>   MaxIter 150
| 22> end
| 23>
| 24>
| 25>                          ****END OF INPUT****

CARTESIAN COORDINATES (ANGSTROEM)
---------------------------------
  C     -2.120500    0.885200    1.789510
  C     -0.778940    0.171970    1.804960
  H     -2.324190    1.472650    2.686080
  H     -2.187700    1.541270    0.919480
  N     -3.176900   -0.159480    1.610700
  H     -4.064740    0.231270    1.286750
  H     -3.344070   -0.671510    2.484930
  H     -2.716860   -0.781890    0.935880
  H     -0.657080   -0.378370    0.895470
  H     -0.742070   -0.500500    2.636420
  H      0.007070    0.892510    1.893890

 Total Charge           Charge          ....    1
 Multiplicity           Mult            ....    1
 Number of Electrons    NEL             ....   26
 Basis Dimension        Dim             ....  183

ORBITAL ENERGIES
----------------

  NO   OCC          E(Eh)            E(eV)
   0   2.0000     -14.721911      -400.6036
   1   2.0000     -10.499708      -285.7116
   2   2.0000     -10.422423      -283.6085
   3   2.0000      -1.299792       -35.3691
   4   2.0000      -1.049819       -28.5670
   5   2.0000      -0.923587       -25.1321
   6   2.0000      -0.876326       -23.8460
   7   2.0000      -0.865525       -23.5521
   8   2.0000      -0.760689       -20.6994
   9   2.0000      -0.714329       -19.4379
  10   2.0000      -0.651962       -17.7408
  11   2.0000      -0.644789       -17.5456
  12   2.0000      -0.623257       -16.9597
  13   0.0000      -0.164409        -4.4738
  14   0.0000      -0.107216        -2.9175
  15   0.0000      -0.104174        -2.8347
  16   0.0000      -0.101601        -2.7647
  17   0.0000      -0.068324        -1.8592

MULLIKEN ATOMIC CHARGES
-----------------------
   0 C :   -0.315451
   1 C :   -1.217372
   2 H :    0.345526
   3 H :    0.323461
   4 N :   -0.296655
   5 H :    0.344183
   6 H :    0.338495
   7 H :    0.328940
   8 H :    0.441321
   9 H :    0.374995
  10 H :    0.332557
Sum of atomic charges:    1.0000000

LOEWDIN ATOMIC CHARGES
----------------------
   0 C :   -0.195530
   1 C :   -0.060600
   2 H :    0.138277
   3 H :    0.136938
   4 N :    0.183145
   5 H :    0.180057
   6 H :    0.182305
   7 H :    0.167639
   8 H :    0.084831
   9 H :    0.087343
  10 H :    0.095594

  Mayer bond orders larger than 0.100000
B(  0-C ,  1-C ) :   0.5499 B(  0-C ,  2-H ) :   0.9165 B(  0-C ,  3-H ) :   0.9327
B(  0-C ,  4-N ) :   0.8917 B(  1-C ,  8-H ) :   0.8461 B(  1-C ,  9-H ) :   0.9268
B(  1-C , 10-H ) :   0.9769 B(  4-N ,  5-H ) :   0.8715 B(  4-N ,  6-H ) :   0.8769
B(  4-N ,  7-H ) :   0.8677

FINAL SINGLE POINT ENERGY      -135.504612822756

DIPOLE MOMENT
-------------
                                X             Y             Z
Electronic contribution:     -1.81489      -0.14977      -0.05664
Nuclear contribution   :      0.50278      -0.30871      -0.06979
                        -----------------------------------------
Total Dipole Moment    :     -1.31211      -0.45848      -0.12643
                        -----------------------------------------
Magnitude (a.u.)       :      1.39565
Magnitude (Debye)      :      3.54746

Rotational constants in cm-1:     0.963746     0.295157     0.256910
Rotational constants in MHz : 28892.375247  8848.576767  7701.963879

                             ****ORCA TERMINATED NORMALLY****
TOTAL RUN TIME: 0 days 0 hours 0 minutes 25 seconds 476 msec
