                         Program Version 5.0.0 -  RELEASE  -
|  1> !CAM-B3LYP RIJCOSX def2-TZVPD def2/J TightSCF xyzfile
|  2>
|  3> *xyzfile 0 1 B.xyz
|  4>
|  5> %MaxCore 64000
|  6>
|  7> %pal nprocs 4
|  8> end
|  9>
| 10> %scf
| 11>   MaxIter 150
| 12> end
| 13>
| 14>
| 15>                          ****END OF INPUT****

CARTESIAN COORDINATES (ANGSTROEM)
---------------------------------
  C     -2.120502    0.885196    1.789506
  C     -0.778939    0.171966    1.804965
  H     -2.324193    1.472649    2.686078
  H     -2.187698    1.541272    0.919482
  N     -3.176900   -0.159484    1.610700
  H      0.015695    0.910767    1.939153
  H     -0.743553   -0.506827    2.665420
  C     -0.602493   -0.630712    0.492240
  H      0.313894   -1.240346    0.603498
  H     -0.363829    0.113322   -0.301169
  O     -1.712061   -1.376836    0.202535
  H     -4.064736    0.231272    1.286754
  H     -3.344073   -0.671511    2.484928
  H     -2.716861   -0.781886    0.935880

 Total Charge           Charge          ....    0
 Multiplicity           Mult            ....    1
 Number of Electrons    NEL             ....   42
 Basis Dimension        Dim             ....  269

ORBITAL ENERGIES
----------------

  NO   OCC          E(Eh)            E(eV)
   0   2.0000     -19.069669      -518.9121
   1   2.0000     -14.470157      -393.7530
   2   2.0000     -10.308318      -280.5036
   3   2.0000     -10.241333      -278.6808
   4   2.0000     -10.237575      -278.5786
   5   2.0000      -1.076128       -29.2829
   6   2.0000      -0.976186       -26.5634
   7   2.0000      -0.854006       -23.2387
   8   2.0000      -0.734561       -19.9884
   9   2.0000      -0.668538       -18.1919
  10   2.0000      -0.645725       -17.5711
  11   2.0000      -0.618920       -16.8417
  12   2.0000      -0.556687       -15.1482
  13   2.0000      -0.507336       -13.8053
  14   2.0000      -0.473434       -12.8828
  15   2.0000      -0.470315       -12.7979
  16   2.0000      -0.426672       -11.6103
  17   2.0000      -0.407580       -11.0908
  18   2.0000      -0.383954       -10.4479
  19   2.0000      -0.249048        -6.7770
  20   2.0000      -0.241929        -6.5832
  21   0.0000       0.005209         0.1417
  22   0.0000       0.040093         1.0910
  23   0.0000       0.042231         1.1492
  24   0.0000       0.062832         1.7098
  25   0.0000       0.085945         2.3387

MULLIKEN ATOMIC CHARGES
-----------------------
   0 C :   -0.576455
   1 C :   -0.493845
   2 H :    0.295376
   3 H :    0.298301
   4 N :   -0.237917
   5 H :    0.277054
   6 H :    0.279705
   7 C :   -0.338528
   8 H :    0.262577
   9 H :    0.237055
  10 O :   -0.860430
  11 H :    0.289530
  12 H :    0.293675
  13 H :    0.273903
Sum of atomic charges:    0.0000000

LOEWDIN ATOMIC CHARGES
----------------------
   0 C :   -0.177821
   1 C :   -0.192714
   2 H :    0.115189
   3 H :    0.128488
   4 N :    0.130863
   5 H :    0.110288
   6 H :    0.110723
   7 C :   -0.423741
   8 H :    0.098863
   9 H :    0.100005
  10 O :   -0.285693
  11 H :    0.155360
  12 H :    0.159831
  13 H :   -0.029641

  Mayer bond orders larger than 0.100000
B(  0-C ,  1-C ) :   0.7833 B(  0-C ,  2-H ) :   0.9830 B(  0-C ,  3-H ) :   0.9170
B(  0-C ,  4-N ) :   0.9266 B(  1-C ,  5-H ) :   1.0082 B(  1-C ,  6-H ) :   0.9345
B(  1-C ,  7-C ) :   0.9145 B(  1-C , 10-O ) :   0.1446 B(  4-N , 10-O ) :  -0.1183
B(  4-N , 11-H ) :   0.9131 B(  4-N , 12-H ) :   0.9014 B(  4-N , 13-H ) :   0.6277
B(  7-C ,  8-H ) :   1.0095 B(  7-C ,  9-H ) :   1.0241 B(  7-C , 10-O ) :   0.8031
B( 10-O , 13-H ) :   0.4266

FINAL SINGLE POINT ENERGY      -249.635135385417

DIPOLE MOMENT
-------------
                                X             Y             Z
Electronic contribution:     -1.49302      -1.42408      -0.78082
Nuclear contribution   :      0.08650       3.01678       2.47433
                        -----------------------------------------
Total Dipole Moment    :     -1.40652       1.59269       1.69351
                        -----------------------------------------
Magnitude (a.u.)       :      2.71716
Magnitude (Debye)      :      6.90647

Rotational constants in cm-1:     0.238796     0.156489     0.106146
Rotational constants in MHz :  7158.916762  4691.413084  3182.185740

                             ****ORCA TERMINATED NORMALLY****
TOTAL RUN TIME: 0 days 0 hours 0 minutes 59 seconds 380 msec
