                         Program Version 5.0.0 -  RELEASE  -
|  1> !CAM-B3LYP RIJCOSX def2-TZVPD def2/J TightSCF
|  2> *xyz 0 1
|  3> C         -0.77894        0.17197        1.80496
|  4> C         -0.60249       -0.63071        0.49224
|  5> H          0.31389       -1.24035        0.60350
|  6> H         -0.36383        0.11332       -0.30117
|  7> F         -1.71206       -1.37684        0.20253
|  8> H         -1.65864        0.77733        1.73736
|  9> H          0.07466        0.79896        1.95712
| 10> H         -0.87474       -0.50584        2.62734
| 11> *
| 12> %MaxCore 64000
| 13>
| 14> %pal nprocs 4
| 15> end
| 16>
| 17> %scf
| 18>   MaxIter 150
| 19> end
| 20>
| 21>
| 22>                          ****END OF INPUT****

CARTESIAN COORDINATES (ANGSTROEM)
---------------------------------
  C     -0.778940    0.171970    1.804960
  C     -0.602490   -0.630710    0.492240
  H      0.313890   -1.240350    0.603500
  H     -0.363830    0.113320   -0.301170
  F     -1.712060   -1.376840    0.202530
  H     -1.658640    0.777330    1.737360
  H      0.074660    0.798960    1.957120
  H     -0.874740   -0.505840    2.627340

 Total Charge           Charge          ....    0
 Multiplicity           Mult            ....    1
 Number of Electrons    NEL             ....   26
 Basis Dimension        Dim             ....  159

ORBITAL ENERGIES
----------------

  NO   OCC          E(Eh)            E(eV)
   0   2.0000     -24.745588      -673.3617
   1   2.0000     -10.324820      -280.9526
   2   2.0000     -10.238171      -278.5948
   3   2.0000      -1.282901       -34.9095
   4   2.0000      -0.845837       -23.0164
   5   2.0000      -0.711488       -19.3606
   6   2.0000      -0.582490       -15.8504
   7   2.0000      -0.571036       -15.5387
   8   2.0000      -0.531888       -14.4734
   9   2.0000      -0.476102       -12.9554
  10   2.0000      -0.469542       -12.7769
  11   2.0000      -0.403104       -10.9690
  12   2.0000      -0.400327       -10.8935
  13   0.0000       0.035943         0.9781
  14   0.0000       0.060436         1.6445
  15   0.0000       0.080778         2.1981
  16   0.0000       0.083581         2.2744
  17   0.0000       0.112222         3.0537

MULLIKEN ATOMIC CHARGES
-----------------------
   0 C :   -0.948300
   1 C :   -0.118808
   2 H :    0.237097
   3 H :    0.232397
   4 F :   -0.296694
   5 H :    0.288547
   6 H :    0.324881
   7 H :    0.280881
Sum of atomic charges:   -0.0000000

LOEWDIN ATOMIC CHARGES
----------------------
   0 C :   -0.084332
   1 C :   -0.288275
   2 H :    0.111103
   3 H :    0.113561
   4 F :   -0.045625
   5 H :    0.064572
   6 H :    0.065598
   7 H :    0.063399

  Mayer bond orders larger than 0.100000
B(  0-C ,  1-C ) :   0.7412 B(  0-C ,  5-H ) :   0.9566 B(  0-C ,  6-H ) :   0.9350
B(  0-C ,  7-H ) :   0.9588 B(  1-C ,  2-H ) :   0.9772 B(  1-C ,  3-H ) :   0.9809
B(  1-C ,  4-F ) :   0.8120

FINAL SINGLE POINT ENERGY      -179.063088178883

DIPOLE MOMENT
-------------
                                X             Y             Z
Electronic contribution:     -2.71732      -3.27954      -2.82061
Nuclear contribution   :      3.27800       3.70743       3.04146
                        -----------------------------------------
Total Dipole Moment    :      0.56069       0.42789       0.22085
                        -----------------------------------------
Magnitude (a.u.)       :      0.73908
Magnitude (Debye)      :      1.87859

Rotational constants in cm-1:     1.234437     0.305084     0.268865
Rotational constants in MHz : 37007.496448  9146.194083  8060.380630

                             ****ORCA TERMINATED NORMALLY****
TOTAL RUN TIME: 0 days 0 hours 0 minutes 17 seconds 791 msec
