                         Program Version 5.0.0 -  RELEASE  -
|  1> !CAM-B3LYP RIJCOSX def2-TZVPD def2/J TightSCF
|  2> *xyz 0 1
|  3> C         -2.12050        0.88520        1.78951
|  4> C         -0.77894        0.17197        1.80496
|  5> H         -2.32419        1.47265        2.68608
|  6> H         -2.18770        1.54127        0.91948
|  7> C         -3.17690       -0.15948        1.61070
|  8> H         -4.06474        0.23127        1.28675
|  9> H         -3.34407       -0.67151        2.48493
| 10> H         -2.71686       -0.78189        0.93588
| 11> H         -0.65708       -0.37837        0.89547
| 12> H         -0.74207       -0.50050        2.63642
| 13> H          0.00707        0.89251        1.89389
| 14> *
| 15> %MaxCore 64000
| 16>
| 17> %pal nprocs 4
| 18> end
| 19>
| 20> %scf
| 21>   MaxIter 150
| 22> end
| 23>
| 24>
| 25>                          ****END OF INPUT****

CARTESIAN COORDINATES (ANGSTROEM)
---------------------------------
  C     -2.120500    0.885200    1.789510
  C     -0.778940    0.171970    1.804960
  H     -2.324190    1.472650    2.686080
  H     -2.187700    1.541270    0.919480
  C     -3.176900   -0.159480    1.610700
  H     -4.064740    0.231270    1.286750
  H     -3.344070   -0.671510    2.484930
  H     -2.716860   -0.781890    0.935880
  H     -0.657080   -0.378370    0.895470
  H     -0.742070   -0.500500    2.636420
  H      0.007070    0.892510    1.893890

 Total Charge           Charge          ....    0
 Multiplicity           Mult            ....    1
 Number of Electrons    NEL             ....   26
 Basis Dimension        Dim             ....  183

ORBITAL ENERGIES
----------------

  NO   OCC          E(Eh)            E(eV)
   0   2.0000     -10.228507      -278.3318
   1   2.0000     -10.219997      -278.1003
   2   2.0000     -10.200201      -277.5616
   3   2.0000      -0.879191       -23.9240
   4   2.0000      -0.766317       -20.8526
   5   2.0000      -0.662817       -18.0362
   6   2.0000      -0.543493       -14.7892
   7   2.0000      -0.523821       -14.2539
   8   2.0000      -0.467498       -12.7213
   9   2.0000      -0.452051       -12.3009
  10   2.0000      -0.405212       -11.0264
  11   2.0000      -0.396153       -10.7799
  12   2.0000      -0.392541       -10.6816
  13   0.0000       0.040979         1.1151
  14   0.0000       0.061451         1.6722
  15   0.0000       0.063964         1.7405
  16   0.0000       0.088789         2.4161
  17   0.0000       0.109925         2.9912

MULLIKEN ATOMIC CHARGES
-----------------------
   0 C :   -0.071097
   1 C :   -1.143963
   2 H :    0.257246
   3 H :    0.237632
   4 C :   -1.228568
   5 H :    0.338482
   6 H :    0.345443
   7 H :    0.322043
   8 H :    0.335268
   9 H :    0.303025
  10 H :    0.304489
Sum of atomic charges:   -0.0000000

LOEWDIN ATOMIC CHARGES
----------------------
   0 C :   -0.316010
   1 C :   -0.124946
   2 H :    0.104220
   3 H :    0.104087
   4 C :   -0.124959
   5 H :    0.051539
   6 H :    0.057192
   7 H :    0.048160
   8 H :    0.067154
   9 H :    0.071035
  10 H :    0.062528

  Mayer bond orders larger than 0.100000
B(  0-C ,  1-C ) :   0.5937 B(  0-C ,  2-H ) :   0.9470 B(  0-C ,  3-H ) :   0.9871
B(  0-C ,  4-C ) :   0.5759 B(  1-C ,  8-H ) :   0.9521 B(  1-C ,  9-H ) :   0.9807
B(  1-C , 10-H ) :   0.9835 B(  4-C ,  5-H ) :   0.9398 B(  4-C ,  6-H ) :   0.9510
B(  4-C ,  7-H ) :   0.9544

FINAL SINGLE POINT ENERGY      -119.090272890049

DIPOLE MOMENT
-------------
                                X             Y             Z
Electronic contribution:     -0.14392       0.47216       0.11299
Nuclear contribution   :      0.13334      -0.45108      -0.10852
                        -----------------------------------------
Total Dipole Moment    :     -0.01058       0.02107       0.00447
                        -----------------------------------------
Magnitude (a.u.)       :      0.02400
Magnitude (Debye)      :      0.06100

Rotational constants in cm-1:     0.972269     0.310387     0.269029
Rotational constants in MHz : 29147.878530  9305.178981  8065.286472

                             ****ORCA TERMINATED NORMALLY****
TOTAL RUN TIME: 0 days 0 hours 0 minutes 23 seconds 577 msec
