                         Program Version 5.0.0 -  RELEASE  -
|  1> !CAM-B3LYP RIJCOSX def2-TZVPD def2/J TightSCF xyzfile
|  2>
|  3> *xyzfile 0 1 D.xyz
|  4>
|  5> %MaxCore 64000
|  6>
|  7> %pal nprocs 4
|  8> end
|  9>
| 10> %scf
| 11>   MaxIter 150
| 12> end
| 13>
| 14>
| 15>                          ****END OF INPUT****

CARTESIAN COORDINATES (ANGSTROEM)
---------------------------------
  C     -2.120502    0.885196    1.789506
  C     -0.778939    0.171966    1.804965
  H     -2.324193    1.472649    2.686078
  H     -2.187698    1.541272    0.919482
  C     -3.176900   -0.159484    1.610700
  H      0.015695    0.910767    1.939153
  H     -0.743553   -0.506827    2.665420
  C     -0.602493   -0.630712    0.492240
  H      0.313894   -1.240346    0.603498
  H     -0.363829    0.113322   -0.301169
  F     -1.712061   -1.376836    0.202535
  H     -4.064736    0.231272    1.286754
  H     -3.344073   -0.671511    2.484928
  H     -2.716861   -0.781886    0.935880

 Total Charge           Charge          ....    0
 Multiplicity           Mult            ....    1
 Number of Electrons    NEL             ....   42
 Basis Dimension        Dim             ....  269

ORBITAL ENERGIES
----------------

  NO   OCC          E(Eh)            E(eV)
   0   2.0000     -24.762533      -673.8228
   1   2.0000     -10.331787      -281.1422
   2   2.0000     -10.247761      -278.8558
   3   2.0000     -10.226862      -278.2871
   4   2.0000     -10.164885      -276.6006
   5   2.0000      -1.314951       -35.7816
   6   2.0000      -0.890318       -24.2268
   7   2.0000      -0.816814       -22.2266
   8   2.0000      -0.716399       -19.4942
   9   2.0000      -0.669798       -18.2261
  10   2.0000      -0.605295       -16.4709
  11   2.0000      -0.600505       -16.3406
  12   2.0000      -0.562555       -15.3079
  13   2.0000      -0.510399       -13.8887
  14   2.0000      -0.483594       -13.1593
  15   2.0000      -0.474041       -12.8993
  16   2.0000      -0.446031       -12.1371
  17   2.0000      -0.413092       -11.2408
  18   2.0000      -0.392454       -10.6792
  19   2.0000      -0.388439       -10.5700
  20   2.0000      -0.340813        -9.2740
  21   0.0000       0.035198         0.9578
  22   0.0000       0.057468         1.5638
  23   0.0000       0.057804         1.5729
  24   0.0000       0.060216         1.6386
  25   0.0000       0.090859         2.4724

MULLIKEN ATOMIC CHARGES
-----------------------
   0 C :   -0.307375
   1 C :   -0.518770
   2 H :    0.230783
   3 H :    0.250247
   4 C :   -1.217994
   5 H :    0.256514
   6 H :    0.285815
   7 C :   -0.297362
   8 H :    0.291960
   9 H :    0.271152
  10 F :   -0.308108
  11 H :    0.344006
  12 H :    0.360738
  13 H :    0.358393
Sum of atomic charges:   -0.0000000

LOEWDIN ATOMIC CHARGES
----------------------
   0 C :   -0.257934
   1 C :   -0.189818
   2 H :    0.106320
   3 H :    0.111670
   4 C :   -0.105737
   5 H :    0.112802
   6 H :    0.116401
   7 C :   -0.200397
   8 H :    0.120916
   9 H :    0.128833
  10 F :   -0.039592
  11 H :    0.057158
  12 H :    0.062752
  13 H :   -0.023374

  Mayer bond orders larger than 0.100000
B(  0-C ,  1-C ) :   0.7604 B(  0-C ,  2-H ) :   0.9959 B(  0-C ,  3-H ) :   0.9846
B(  0-C ,  4-C ) :   0.6130 B(  1-C ,  5-H ) :   0.9998 B(  1-C ,  6-H ) :   0.9682
B(  1-C ,  7-C ) :   0.8710 B(  4-C , 11-H ) :   0.9702 B(  4-C , 12-H ) :   0.9680
B(  4-C , 13-H ) :   0.9908 B(  7-C ,  8-H ) :   0.9626 B(  7-C ,  9-H ) :   0.9854
B(  7-C , 10-F ) :   0.8037 B( 10-F , 13-H ) :  -0.1218

FINAL SINGLE POINT ENERGY      -257.609031300894

DIPOLE MOMENT
-------------
                                X             Y             Z
Electronic contribution:      0.90130      -4.19061      -3.73196
Nuclear contribution   :     -0.20666       4.43855       3.76066
                        -----------------------------------------
Total Dipole Moment    :      0.69464       0.24794       0.02869
                        -----------------------------------------
Magnitude (a.u.)       :      0.73812
Magnitude (Debye)      :      1.87615

Rotational constants in cm-1:     0.236353     0.155239     0.105045
Rotational constants in MHz :  7085.692869  4653.957069  3149.180346

                             ****ORCA TERMINATED NORMALLY****
TOTAL RUN TIME: 0 days 0 hours 1 minutes 0 seconds 403 msec
