                         Program Version 5.0.0 -  RELEASE  -
|  1> !PBE0 D3BJ RIJCOSX def2-SVPD def2/J TightSCF
|  2> *xyz -1 1
|  3> C         -5.57236       -5.80780       -0.81644
|  4> S         -6.90318       -4.61903       -0.52846
|  5> O         -8.11485       -5.25093       -0.95701
|  6> O         -6.53271       -3.42684       -1.31485
|  7> O         -6.86563       -4.29496        0.91412
|  8> C         -4.45780       -5.94187        0.22919
|  9> H         -5.17735       -5.54257       -1.79771
| 10> H         -6.07420       -6.76889       -0.92127
| 11> H         -3.75515       -6.68239       -0.09144
| 12> H         -4.88182       -6.23486        1.16689
| 13> H         -3.95908       -5.00189        0.34143
| 14> *
| 15> %MaxCore 64000
| 16>
| 17> %pal nprocs 4
| 18> end
| 19>
| 20> %scf
| 21>   MaxIter 150
| 22> end
| 23>
| 24>                          ****END OF INPUT****

CARTESIAN COORDINATES (ANGSTROEM)
---------------------------------
  C     -5.572360   -5.807800   -0.816440
  S     -6.903180   -4.619030   -0.528460
  O     -8.114850   -5.250930   -0.957010
  O     -6.532710   -3.426840   -1.314850
  O     -6.865630   -4.294960    0.914120
  C     -4.457800   -5.941870    0.229190
  H     -5.177350   -5.542570   -1.797710
  H     -6.074200   -6.768890   -0.921270
  H     -3.755150   -6.682390   -0.091440
  H     -4.881820   -6.234860    1.166890
  H     -3.959080   -5.001890    0.341430

 Total Charge           Charge          ....   -1
 Multiplicity           Mult            ....    1
 Number of Electrons    NEL             ....   58
 Basis Dimension        Dim             ....  176

ORBITAL ENERGIES
----------------

  NO   OCC          E(Eh)            E(eV)
   0   2.0000     -89.037200     -2422.8254
   1   2.0000     -19.002006      -517.0709
   2   2.0000     -18.988216      -516.6956
   3   2.0000     -18.987421      -516.6740
   4   2.0000     -10.098713      -274.7999
   5   2.0000     -10.094719      -274.6913
   6   2.0000      -7.996641      -217.5997
   7   2.0000      -5.938880      -161.6051
   8   2.0000      -5.938727      -161.6010
   9   2.0000      -5.938349      -161.5907
  10   2.0000      -0.956011       -26.0144
  11   2.0000      -0.815350       -22.1868
  12   2.0000      -0.790944       -21.5227
  13   2.0000      -0.651736       -17.7346
  14   2.0000      -0.528103       -14.3704
  15   2.0000      -0.399176       -10.8621
  16   2.0000      -0.335292        -9.1238
  17   2.0000      -0.331646        -9.0245
  18   2.0000      -0.294971        -8.0266
  19   2.0000      -0.278432        -7.5765
  20   2.0000      -0.276554        -7.5254
  21   2.0000      -0.242608        -6.6017
  22   2.0000      -0.234358        -6.3772
  23   2.0000      -0.164925        -4.4878
  24   2.0000      -0.163144        -4.4394
  25   2.0000      -0.129785        -3.5316
  26   2.0000      -0.117867        -3.2073
  27   2.0000      -0.113672        -3.0932
  28   2.0000      -0.076411        -2.0792
  29   0.0000       0.146160         3.9772
  30   0.0000       0.175261         4.7691
  31   0.0000       0.183387         4.9902
  32   0.0000       0.189436         5.1548
  33   0.0000       0.209583         5.7031

MULLIKEN ATOMIC CHARGES
-----------------------
   0 C :   -0.493953
   1 S :    1.405423
   2 O :   -0.803458
   3 O :   -0.858939
   4 O :   -0.869447
   5 C :    0.575101
   6 H :    0.046256
   7 H :    0.060857
   8 H :   -0.056387
   9 H :    0.009305
  10 H :   -0.014758
Sum of atomic charges:   -1.0000000

LOEWDIN ATOMIC CHARGES
----------------------
   0 C :   -0.126752
   1 S :    0.877450
   2 O :   -0.576405
   3 O :   -0.603638
   4 O :   -0.595901
   5 C :    0.098131
   6 H :   -0.000258
   7 H :   -0.005977
   8 H :   -0.032505
   9 H :   -0.019897
  10 H :   -0.014249

  Mayer bond orders larger than 0.100000
B(  0-C ,  1-S ) :   0.8940 B(  0-C ,  5-C ) :   1.3159 B(  0-C ,  6-H ) :   0.9795
B(  0-C ,  7-H ) :   0.9819 B(  0-C ,  8-H ) :   0.1812 B(  0-C ,  9-H ) :   0.1832
B(  0-C , 10-H ) :   0.1732 B(  1-S ,  2-O ) :   1.3160 B(  1-S ,  3-O ) :   1.2571
B(  1-S ,  4-O ) :   1.2463 B(  5-C ,  8-H ) :   0.8000 B(  5-C ,  9-H ) :   0.8377
B(  5-C , 10-H ) :   0.8519

Dispersion correction           -0.008153665
FINAL SINGLE POINT ENERGY      -702.315945184292

DIPOLE MOMENT
-------------
                                X             Y             Z
Electronic contribution:     -6.63512       4.27372      -0.92228
Nuclear contribution   :      8.13140      -5.68016       0.80206
                        -----------------------------------------
Total Dipole Moment    :      1.49629      -1.40644      -0.12022
                        -----------------------------------------
Magnitude (a.u.)       :      2.05703
Magnitude (Debye)      :      5.22857

Rotational constants in cm-1:     0.162101     0.080498     0.079099
Rotational constants in MHz :  4859.669771  2413.267251  2371.338602

                             ****ORCA TERMINATED NORMALLY****
TOTAL RUN TIME: 0 days 0 hours 0 minutes 21 seconds 76 msec
