                         Program Version 5.0.0 -  RELEASE  -
|  1> !PBE0 D3BJ RIJCOSX def2-SVPD def2/J TightSCF
|  2> *xyz 1 1
|  3> C         -4.38262       -1.67089        1.21620
|  4> N         -5.76354       -1.91517        0.70501
|  5> C         -3.28173       -2.19127        0.29436
|  6> H         -5.84081       -2.11520       -0.30065
|  7> H         -6.40882       -1.14866        0.93612
|  8> H         -6.17478       -2.79061        1.05143
|  9> H         -4.32862       -2.13922        2.19810
| 10> H         -4.26158       -0.59740        1.35725
| 11> H         -3.36057       -1.71407       -0.66008
| 12> H         -3.38775       -3.24919        0.17403
| 13> H         -2.32559       -1.97514        0.72329
| 14> *
| 15> %MaxCore 64000
| 16>
| 17> %pal nprocs 4
| 18> end
| 19>
| 20> %scf
| 21>   MaxIter 150
| 22> end
| 23>
| 24>                          ****END OF INPUT****

CARTESIAN COORDINATES (ANGSTROEM)
---------------------------------
  C     -4.382620   -1.670890    1.216200
  N     -5.763540   -1.915170    0.705010
  C     -3.281730   -2.191270    0.294360
  H     -5.840810   -2.115200   -0.300650
  H     -6.408820   -1.148660    0.936120
  H     -6.174780   -2.790610    1.051430
  H     -4.328620   -2.139220    2.198100
  H     -4.261580   -0.597400    1.357250
  H     -3.360570   -1.714070   -0.660080
  H     -3.387750   -3.249190    0.174030
  H     -2.325590   -1.975140    0.723290

 Total Charge           Charge          ....    1
 Multiplicity           Mult            ....    1
 Number of Electrons    NEL             ....   26
 Basis Dimension        Dim             ....  124

ORBITAL ENERGIES
----------------

  NO   OCC          E(Eh)            E(eV)
   0   2.0000     -14.733139      -400.9091
   1   2.0000     -10.488398      -285.4038
   2   2.0000     -10.407907      -283.2135
   3   2.0000      -1.234322       -33.5876
   4   2.0000      -0.984499       -26.7896
   5   2.0000      -0.865925       -23.5630
   6   2.0000      -0.814017       -22.1505
   7   2.0000      -0.792844       -21.5744
   8   2.0000      -0.718834       -19.5605
   9   2.0000      -0.654723       -17.8159
  10   2.0000      -0.597567       -16.2606
  11   2.0000      -0.579941       -15.7810
  12   2.0000      -0.560783       -15.2597
  13   0.0000      -0.185179        -5.0390
  14   0.0000      -0.130244        -3.5441
  15   0.0000      -0.127200        -3.4613
  16   0.0000      -0.113919        -3.0999
  17   0.0000      -0.085246        -2.3197

MULLIKEN ATOMIC CHARGES
-----------------------
   0 C :    0.153913
   1 N :   -0.861588
   2 C :    0.393275
   3 H :    0.401433
   4 H :    0.405638
   5 H :    0.379921
   6 H :   -0.003096
   7 H :    0.027943
   8 H :    0.016038
   9 H :    0.046931
  10 H :    0.039592
Sum of atomic charges:    1.0000000

LOEWDIN ATOMIC CHARGES
----------------------
   0 C :    0.062565
   1 N :    0.324008
   2 C :    0.166614
   3 H :    0.103963
   4 H :    0.110399
   5 H :    0.106627
   6 H :    0.052903
   7 H :    0.052272
   8 H :    0.002146
   9 H :    0.001975
  10 H :    0.016529

  Mayer bond orders larger than 0.100000
B(  0-C ,  1-N ) :   0.6591 B(  0-C ,  2-C ) :   1.3634 B(  0-C ,  6-H ) :   0.9312
B(  0-C ,  7-H ) :   0.9319 B(  0-C ,  8-H ) :   0.1478 B(  0-C ,  9-H ) :   0.1327
B(  0-C , 10-H ) :   0.1541 B(  1-N ,  3-H ) :   0.7212 B(  1-N ,  4-H ) :   0.7297
B(  1-N ,  5-H ) :   0.7825 B(  2-C ,  8-H ) :   0.8656 B(  2-C ,  9-H ) :   0.8503
B(  2-C , 10-H ) :   0.8641

Dispersion correction           -0.004977265
FINAL SINGLE POINT ENERGY      -135.279770575514

DIPOLE MOMENT
-------------
                                X             Y             Z
Electronic contribution:     -1.80581       0.23897       0.30596
Nuclear contribution   :      0.19437      -0.25358      -0.32106
                        -----------------------------------------
Total Dipole Moment    :     -1.61144      -0.01461      -0.01510
                        -----------------------------------------
Magnitude (a.u.)       :      1.61158
Magnitude (Debye)      :      4.09630

Rotational constants in cm-1:     1.030014     0.272489     0.242697
Rotational constants in MHz : 30879.030706  8169.007780  7275.865152

                             ****ORCA TERMINATED NORMALLY****
TOTAL RUN TIME: 0 days 0 hours 0 minutes 10 seconds 882 msec
