                         Program Version 5.0.0 -  RELEASE  -
|  1> !PBE0 D3BJ RIJCOSX def2-SVPD def2/J TightSCF
|  2> *xyz 0 1
|  3> C         -5.57236       -5.80780       -0.81644
|  4> S         -6.90318       -4.61903       -0.52846
|  5> F         -8.11485       -5.25093       -0.95701
|  6> O         -6.53271       -3.42684       -1.31485
|  7> O         -6.86563       -4.29496        0.91412
|  8> C         -4.45780       -5.94187        0.22919
|  9> H         -5.17735       -5.54257       -1.79771
| 10> H         -6.07420       -6.76889       -0.92127
| 11> H         -3.75515       -6.68239       -0.09144
| 12> H         -4.88182       -6.23486        1.16689
| 13> H         -3.95908       -5.00189        0.34143
| 14> *
| 15> %MaxCore 64000
| 16>
| 17> %pal nprocs 4
| 18> end
| 19>
| 20> %scf
| 21>   MaxIter 150
| 22> end
| 23>
| 24>                          ****END OF INPUT****

CARTESIAN COORDINATES (ANGSTROEM)
---------------------------------
  C     -5.572360   -5.807800   -0.816440
  S     -6.903180   -4.619030   -0.528460
  F     -8.114850   -5.250930   -0.957010
  O     -6.532710   -3.426840   -1.314850
  O     -6.865630   -4.294960    0.914120
  C     -4.457800   -5.941870    0.229190
  H     -5.177350   -5.542570   -1.797710
  H     -6.074200   -6.768890   -0.921270
  H     -3.755150   -6.682390   -0.091440
  H     -4.881820   -6.234860    1.166890
  H     -3.959080   -5.001890    0.341430

 Total Charge           Charge          ....    0
 Multiplicity           Mult            ....    1
 Number of Electrons    NEL             ....   58
 Basis Dimension        Dim             ....  176

ORBITAL ENERGIES
----------------

  NO   OCC          E(Eh)            E(eV)
   0   2.0000     -89.298590     -2429.9382
   1   2.0000     -24.910316      -677.8442
   2   2.0000     -19.223142      -523.0883
   3   2.0000     -19.222966      -523.0835
   4   2.0000     -10.301906      -280.3291
   5   2.0000     -10.256812      -279.1021
   6   2.0000      -8.258907      -224.7363
   7   2.0000      -6.205215      -168.8525
   8   2.0000      -6.198654      -168.6740
   9   2.0000      -6.197559      -168.6442
  10   2.0000      -1.420423       -38.6517
  11   2.0000      -1.125848       -30.6359
  12   2.0000      -1.022573       -27.8256
  13   2.0000      -0.844127       -22.9699
  14   2.0000      -0.765062       -20.8184
  15   2.0000      -0.701937       -19.1007
  16   2.0000      -0.617160       -16.7938
  17   2.0000      -0.614166       -16.7123
  18   2.0000      -0.576315       -15.6823
  19   2.0000      -0.511519       -13.9192
  20   2.0000      -0.499974       -13.6050
  21   2.0000      -0.464257       -12.6331
  22   2.0000      -0.447912       -12.1883
  23   2.0000      -0.422895       -11.5076
  24   2.0000      -0.406561       -11.0631
  25   2.0000      -0.397183       -10.8079
  26   2.0000      -0.340940        -9.2775
  27   2.0000      -0.339065        -9.2264
  28   2.0000      -0.316427        -8.6104
  29   0.0000       0.001357         0.0369
  30   0.0000       0.017399         0.4734
  31   0.0000       0.040149         1.0925
  32   0.0000       0.044036         1.1983
  33   0.0000       0.051817         1.4100

MULLIKEN ATOMIC CHARGES
-----------------------
   0 C :   -0.513642
   1 S :    1.561792
   2 F :   -0.402602
   3 O :   -0.716908
   4 O :   -0.728897
   5 C :    0.572985
   6 H :    0.087558
   7 H :    0.107954
   8 H :   -0.017663
   9 H :    0.035686
  10 H :    0.013736
Sum of atomic charges:   -0.0000000

LOEWDIN ATOMIC CHARGES
----------------------
   0 C :   -0.091300
   1 S :    1.144117
   2 F :   -0.257088
   3 O :   -0.486118
   4 O :   -0.483181
   5 C :    0.142185
   6 H :    0.022211
   7 H :    0.011813
   8 H :   -0.002103
   9 H :   -0.003518
  10 H :    0.002982

  Mayer bond orders larger than 0.100000
B(  0-C ,  1-S ) :   0.9531 B(  0-C ,  5-C ) :   1.3749 B(  0-C ,  6-H ) :   0.9725
B(  0-C ,  7-H ) :   0.9375 B(  0-C ,  8-H ) :   0.1736 B(  0-C ,  9-H ) :   0.1787
B(  0-C , 10-H ) :   0.1636 B(  1-S ,  2-F ) :   0.6688 B(  1-S ,  3-O ) :   1.4741
B(  1-S ,  4-O ) :   1.4598 B(  5-C ,  8-H ) :   0.7962 B(  5-C ,  9-H ) :   0.8331
B(  5-C , 10-H ) :   0.8521

Dispersion correction           -0.007790481
FINAL SINGLE POINT ENERGY      -726.782856251131

DIPOLE MOMENT
-------------
                                X             Y             Z
Electronic contribution:     -9.35535       3.54504      -1.86033
Nuclear contribution   :      9.80704      -5.24335       1.35017
                        -----------------------------------------
Total Dipole Moment    :      0.45169      -1.69831      -0.51016
                        -----------------------------------------
Magnitude (a.u.)       :      1.82990
Magnitude (Debye)      :      4.65124

Rotational constants in cm-1:     0.156316     0.078308     0.076228
Rotational constants in MHz :  4686.224999  2347.601204  2285.245115

                             ****ORCA TERMINATED NORMALLY****
TOTAL RUN TIME: 0 days 0 hours 0 minutes 21 seconds 261 msec
