                         Program Version 5.0.0 -  RELEASE  -
|  1> !PBE0 D3BJ RIJCOSX def2-SVPD def2/J TightSCF
|  2> *xyz 0 1
|  3> C         -4.38262       -1.67089        1.21620
|  4> C         -5.76354       -1.91517        0.70501
|  5> C         -3.28173       -2.19127        0.29436
|  6> H         -5.84081       -2.11520       -0.30065
|  7> H         -6.40882       -1.14866        0.93612
|  8> H         -6.17478       -2.79061        1.05143
|  9> H         -4.32862       -2.13922        2.19810
| 10> H         -4.26158       -0.59740        1.35725
| 11> H         -3.36057       -1.71407       -0.66008
| 12> H         -3.38775       -3.24919        0.17403
| 13> H         -2.32559       -1.97514        0.72329
| 14> *
| 15> %MaxCore 64000
| 16>
| 17> %pal nprocs 4
| 18> end
| 19>
| 20> %scf
| 21>   MaxIter 150
| 22> end
| 23>
| 24>                          ****END OF INPUT****

CARTESIAN COORDINATES (ANGSTROEM)
---------------------------------
  C     -4.382620   -1.670890    1.216200
  C     -5.763540   -1.915170    0.705010
  C     -3.281730   -2.191270    0.294360
  H     -5.840810   -2.115200   -0.300650
  H     -6.408820   -1.148660    0.936120
  H     -6.174780   -2.790610    1.051430
  H     -4.328620   -2.139220    2.198100
  H     -4.261580   -0.597400    1.357250
  H     -3.360570   -1.714070   -0.660080
  H     -3.387750   -3.249190    0.174030
  H     -2.325590   -1.975140    0.723290

 Total Charge           Charge          ....    0
 Multiplicity           Mult            ....    1
 Number of Electrons    NEL             ....   26
 Basis Dimension        Dim             ....  124

ORBITAL ENERGIES
----------------

  NO   OCC          E(Eh)            E(eV)
   0   2.0000     -10.221168      -278.1321
   1   2.0000     -10.211612      -277.8721
   2   2.0000     -10.193350      -277.3752
   3   2.0000      -0.805382       -21.9156
   4   2.0000      -0.706930       -19.2365
   5   2.0000      -0.603178       -16.4133
   6   2.0000      -0.476560       -12.9678
   7   2.0000      -0.455571       -12.3967
   8   2.0000      -0.423634       -11.5277
   9   2.0000      -0.397862       -10.8264
  10   2.0000      -0.353121        -9.6089
  11   2.0000      -0.346162        -9.4196
  12   2.0000      -0.332240        -9.0407
  13   0.0000       0.033992         0.9250
  14   0.0000       0.063166         1.7188
  15   0.0000       0.069300         1.8857
  16   0.0000       0.093408         2.5418
  17   0.0000       0.115933         3.1547

MULLIKEN ATOMIC CHARGES
-----------------------
   0 C :   -0.670470
   1 C :    0.773569
   2 C :    0.474805
   3 H :   -0.251049
   4 H :   -0.107987
   5 H :   -0.138991
   6 H :   -0.064756
   7 H :   -0.001471
   8 H :    0.023730
   9 H :   -0.014603
  10 H :   -0.022778
Sum of atomic charges:   -0.0000000

LOEWDIN ATOMIC CHARGES
----------------------
   0 C :   -0.110687
   1 C :    0.112032
   2 C :    0.110815
   3 H :   -0.036444
   4 H :   -0.030846
   5 H :   -0.034098
   6 H :    0.020343
   7 H :    0.019603
   8 H :   -0.015015
   9 H :   -0.014960
  10 H :   -0.020744

  Mayer bond orders larger than 0.100000
B(  0-C ,  1-C ) :   1.2990 B(  0-C ,  2-C ) :   1.2797 B(  0-C ,  3-H ) :   0.1743
B(  0-C ,  4-H ) :   0.1739 B(  0-C ,  5-H ) :   0.2067 B(  0-C ,  6-H ) :   0.9607
B(  0-C ,  7-H ) :   0.9460 B(  0-C ,  8-H ) :   0.1386 B(  0-C ,  9-H ) :   0.1568
B(  0-C , 10-H ) :   0.1836 B(  1-C ,  3-H ) :   0.7272 B(  1-C ,  4-H ) :   0.7757
B(  1-C ,  5-H ) :   0.6774 B(  1-C ,  6-H ) :   0.1085 B(  2-C ,  8-H ) :   0.8578
B(  2-C ,  9-H ) :   0.8654 B(  2-C , 10-H ) :   0.8310 B(  3-H ,  5-H ) :   0.2933

Dispersion correction           -0.004997554
FINAL SINGLE POINT ENERGY      -118.892453002016

DIPOLE MOMENT
-------------
                                X             Y             Z
Electronic contribution:      0.18555       0.23755       0.33914
Nuclear contribution   :     -0.21528      -0.24783      -0.32864
                        -----------------------------------------
Total Dipole Moment    :     -0.02972      -0.01028       0.01049
                        -----------------------------------------
Magnitude (a.u.)       :      0.03315
Magnitude (Debye)      :      0.08427

Rotational constants in cm-1:     1.037566     0.286459     0.254172
Rotational constants in MHz : 31105.431429  8587.814531  7619.871198

                             ****ORCA TERMINATED NORMALLY****
TOTAL RUN TIME: 0 days 0 hours 0 minutes 10 seconds 989 msec
