                         Program Version 5.0.0 -  RELEASE  -
|  1> !PBE0 D3BJ RIJCOSX def2-SVPD def2/J TightSCF
|  2> *xyz 0 1
|  3> C         -5.57236       -5.80780       -0.81644
|  4> S         -6.90318       -4.61903       -0.52846
|  5> O         -8.11485       -5.25093       -0.95701
|  6> F         -6.53271       -3.42684       -1.31485
|  7> O         -6.86563       -4.29496        0.91412
|  8> C         -4.45780       -5.94187        0.22919
|  9> H         -5.17735       -5.54257       -1.79771
| 10> H         -6.07420       -6.76889       -0.92127
| 11> H         -3.75515       -6.68239       -0.09144
| 12> H         -4.88182       -6.23486        1.16689
| 13> H         -3.95908       -5.00189        0.34143
| 14> *
| 15> %MaxCore 64000
| 16>
| 17> %pal nprocs 4
| 18> end
| 19>
| 20> %scf
| 21>   MaxIter 150
| 22> end
| 23>
| 24>                          ****END OF INPUT****

CARTESIAN COORDINATES (ANGSTROEM)
---------------------------------
  C     -5.572360   -5.807800   -0.816440
  S     -6.903180   -4.619030   -0.528460
  O     -8.114850   -5.250930   -0.957010
  F     -6.532710   -3.426840   -1.314850
  O     -6.865630   -4.294960    0.914120
  C     -4.457800   -5.941870    0.229190
  H     -5.177350   -5.542570   -1.797710
  H     -6.074200   -6.768890   -0.921270
  H     -3.755150   -6.682390   -0.091440
  H     -4.881820   -6.234860    1.166890
  H     -3.959080   -5.001890    0.341430

 Total Charge           Charge          ....    0
 Multiplicity           Mult            ....    1
 Number of Electrons    NEL             ....   58
 Basis Dimension        Dim             ....  176

ORBITAL ENERGIES
----------------

  NO   OCC          E(Eh)            E(eV)
   0   2.0000     -89.296430     -2429.8794
   1   2.0000     -24.888345      -677.2463
   2   2.0000     -19.237422      -523.4769
   3   2.0000     -19.222790      -523.0787
   4   2.0000     -10.301068      -280.3063
   5   2.0000     -10.256311      -279.0884
   6   2.0000      -8.256708      -224.6764
   7   2.0000      -6.202797      -168.7867
   8   2.0000      -6.196699      -168.6208
   9   2.0000      -6.195560      -168.5898
  10   2.0000      -1.382833       -37.6288
  11   2.0000      -1.143063       -31.1043
  12   2.0000      -1.038706       -28.2646
  13   2.0000      -0.843527       -22.9535
  14   2.0000      -0.750211       -20.4143
  15   2.0000      -0.694240       -18.8912
  16   2.0000      -0.600133       -16.3305
  17   2.0000      -0.589599       -16.0438
  18   2.0000      -0.572191       -15.5701
  19   2.0000      -0.510613       -13.8945
  20   2.0000      -0.500245       -13.6124
  21   2.0000      -0.475633       -12.9426
  22   2.0000      -0.450621       -12.2620
  23   2.0000      -0.420317       -11.4374
  24   2.0000      -0.416440       -11.3319
  25   2.0000      -0.399889       -10.8815
  26   2.0000      -0.354758        -9.6534
  27   2.0000      -0.342354        -9.3159
  28   2.0000      -0.329186        -8.9576
  29   0.0000       0.001310         0.0356
  30   0.0000       0.022129         0.6022
  31   0.0000       0.038025         1.0347
  32   0.0000       0.045420         1.2359
  33   0.0000       0.051560         1.4030

MULLIKEN ATOMIC CHARGES
-----------------------
   0 C :   -0.512329
   1 S :    1.561282
   2 O :   -0.676452
   3 F :   -0.437379
   4 O :   -0.738041
   5 C :    0.598194
   6 H :    0.087273
   7 H :    0.104883
   8 H :   -0.019041
   9 H :    0.035649
  10 H :   -0.004037
Sum of atomic charges:   -0.0000000

LOEWDIN ATOMIC CHARGES
----------------------
   0 C :   -0.085881
   1 S :    1.140492
   2 O :   -0.462001
   3 F :   -0.277953
   4 O :   -0.482293
   5 C :    0.134941
   6 H :    0.017076
   7 H :    0.024458
   8 H :   -0.003638
   9 H :   -0.002209
  10 H :   -0.002992

  Mayer bond orders larger than 0.100000
B(  0-C ,  1-S ) :   0.9644 B(  0-C ,  5-C ) :   1.3601 B(  0-C ,  6-H ) :   0.9480
B(  0-C ,  7-H ) :   0.9744 B(  0-C ,  8-H ) :   0.1755 B(  0-C ,  9-H ) :   0.1774
B(  0-C , 10-H ) :   0.1685 B(  1-S ,  2-O ) :   1.5302 B(  1-S ,  3-F ) :   0.6105
B(  1-S ,  4-O ) :   1.4643 B(  5-C ,  8-H ) :   0.7944 B(  5-C ,  9-H ) :   0.8370
B(  5-C , 10-H ) :   0.8493

Dispersion correction           -0.007776780
FINAL SINGLE POINT ENERGY      -726.802067759315

DIPOLE MOMENT
-------------
                                X             Y             Z
Electronic contribution:     -6.68401       6.64300      -2.48572
Nuclear contribution   :      8.15840      -7.14411       1.72305
                        -----------------------------------------
Total Dipole Moment    :      1.47439      -0.50111      -0.76267
                        -----------------------------------------
Magnitude (a.u.)       :      1.73395
Magnitude (Debye)      :      4.40735

Rotational constants in cm-1:     0.153926     0.078297     0.077402
Rotational constants in MHz :  4614.585804  2347.272644  2320.438903

                             ****ORCA TERMINATED NORMALLY****
TOTAL RUN TIME: 0 days 0 hours 0 minutes 21 seconds 275 msec
