                         Program Version 5.0.0 -  RELEASE  -
|  1> !PBE0 D3BJ RIJCOSX def2-SVPD def2/J TightSCF
|  2> *xyz 0 1
|  3> C         -5.57236       -5.80780       -0.81644
|  4> S         -6.90318       -4.61903       -0.52846
|  5> O         -8.11485       -5.25093       -0.95701
|  6> O         -6.53271       -3.42684       -1.31485
|  7> F         -6.86563       -4.29496        0.91412
|  8> C         -4.45780       -5.94187        0.22919
|  9> H         -5.17735       -5.54257       -1.79771
| 10> H         -6.07420       -6.76889       -0.92127
| 11> H         -3.75515       -6.68239       -0.09144
| 12> H         -4.88182       -6.23486        1.16689
| 13> H         -3.95908       -5.00189        0.34143
| 14> *
| 15> %MaxCore 64000
| 16>
| 17> %pal nprocs 4
| 18> end
| 19>
| 20> %scf
| 21>   MaxIter 150
| 22> end
| 23>
| 24>                          ****END OF INPUT****

CARTESIAN COORDINATES (ANGSTROEM)
---------------------------------
  C     -5.572360   -5.807800   -0.816440
  S     -6.903180   -4.619030   -0.528460
  O     -8.114850   -5.250930   -0.957010
  O     -6.532710   -3.426840   -1.314850
  F     -6.865630   -4.294960    0.914120
  C     -4.457800   -5.941870    0.229190
  H     -5.177350   -5.542570   -1.797710
  H     -6.074200   -6.768890   -0.921270
  H     -3.755150   -6.682390   -0.091440
  H     -4.881820   -6.234860    1.166890
  H     -3.959080   -5.001890    0.341430

 Total Charge           Charge          ....    0
 Multiplicity           Mult            ....    1
 Number of Electrons    NEL             ....   58
 Basis Dimension        Dim             ....  176

ORBITAL ENERGIES
----------------

  NO   OCC          E(Eh)            E(eV)
   0   2.0000     -89.295987     -2429.8673
   1   2.0000     -24.887255      -677.2166
   2   2.0000     -19.237169      -523.4700
   3   2.0000     -19.222072      -523.0592
   4   2.0000     -10.300349      -280.2867
   5   2.0000     -10.263431      -279.2822
   6   2.0000      -8.256273      -224.6646
   7   2.0000      -6.202420      -168.7764
   8   2.0000      -6.196319      -168.6104
   9   2.0000      -6.195039      -168.5756
  10   2.0000      -1.379931       -37.5498
  11   2.0000      -1.143732       -31.1225
  12   2.0000      -1.039512       -28.2866
  13   2.0000      -0.846259       -23.0279
  14   2.0000      -0.747231       -20.3332
  15   2.0000      -0.698647       -19.0112
  16   2.0000      -0.605600       -16.4792
  17   2.0000      -0.588716       -16.0198
  18   2.0000      -0.564678       -15.3657
  19   2.0000      -0.514821       -14.0090
  20   2.0000      -0.494884       -13.4665
  21   2.0000      -0.470708       -12.8086
  22   2.0000      -0.464670       -12.6443
  23   2.0000      -0.429575       -11.6893
  24   2.0000      -0.413660       -11.2563
  25   2.0000      -0.404259       -11.0004
  26   2.0000      -0.355111        -9.6630
  27   2.0000      -0.341138        -9.2828
  28   2.0000      -0.328760        -8.9460
  29   0.0000      -0.005177        -0.1409
  30   0.0000       0.034241         0.9317
  31   0.0000       0.041772         1.1367
  32   0.0000       0.046017         1.2522
  33   0.0000       0.049670         1.3516

MULLIKEN ATOMIC CHARGES
-----------------------
   0 C :   -0.489249
   1 S :    1.547150
   2 O :   -0.672465
   3 O :   -0.726140
   4 F :   -0.448313
   5 C :    0.578692
   6 H :    0.091388
   7 H :    0.110934
   8 H :   -0.012415
   9 H :    0.017290
  10 H :    0.003129
Sum of atomic charges:   -0.0000000

LOEWDIN ATOMIC CHARGES
----------------------
   0 C :   -0.079764
   1 S :    1.139384
   2 O :   -0.461647
   3 O :   -0.487343
   4 F :   -0.276107
   5 C :    0.129235
   6 H :    0.030399
   7 H :    0.019180
   8 H :   -0.002933
   9 H :   -0.007971
  10 H :   -0.002433

  Mayer bond orders larger than 0.100000
B(  0-C ,  1-S ) :   0.9694 B(  0-C ,  5-C ) :   1.3342 B(  0-C ,  6-H ) :   0.9646
B(  0-C ,  7-H ) :   0.9693 B(  0-C ,  8-H ) :   0.1793 B(  0-C ,  9-H ) :   0.1673
B(  0-C , 10-H ) :   0.1564 B(  1-S ,  2-O ) :   1.5274 B(  1-S ,  3-O ) :   1.4706
B(  1-S ,  4-F ) :   0.6107 B(  5-C ,  8-H ) :   0.7963 B(  5-C ,  9-H ) :   0.8413
B(  5-C , 10-H ) :   0.8561

Dispersion correction           -0.007744215
FINAL SINGLE POINT ENERGY      -726.802365077131

DIPOLE MOMENT
-------------
                                X             Y             Z
Electronic contribution:     -7.22988       5.14125       1.29438
Nuclear contribution   :      8.50531      -6.23950      -0.59960
                        -----------------------------------------
Total Dipole Moment    :      1.27543      -1.09825       0.69478
                        -----------------------------------------
Magnitude (a.u.)       :      1.82088
Magnitude (Debye)      :      4.62831

Rotational constants in cm-1:     0.152799     0.080212     0.076962
Rotational constants in MHz :  4580.804531  2404.707790  2307.252710

                             ****ORCA TERMINATED NORMALLY****
TOTAL RUN TIME: 0 days 0 hours 0 minutes 20 seconds 235 msec
