                         Program Version 5.0.0 -  RELEASE  -
|  1> !PBE0 D3BJ RIJCOSX def2-SVPD def2/J TightSCF xyzfile
|  2>
|  3> *xyzfile 0 1 D3.xyz
|  4>
|  5> %MaxCore 64000
|  6>
|  7> %pal nprocs 4
|  8> end
|  9>
| 10> %scf
| 11>   MaxIter 150
| 12> end
| 13>
| 14>
| 15>                          ****END OF INPUT****

CARTESIAN COORDINATES (ANGSTROEM)
---------------------------------
  C     -4.382623   -1.670889    1.216201
  C     -5.763539   -1.915170    0.705012
  C     -3.281728   -2.191272    0.294361
  C     -5.572364   -5.807798   -0.816445
  S     -6.903179   -4.619033   -0.528458
  H     -5.840812   -2.115205   -0.300646
  H     -6.408823   -1.148656    0.936124
  H     -6.174781   -2.790606    1.051433
  O     -8.114853   -5.250932   -0.957007
  O     -6.532715   -3.426838   -1.314848
  H     -4.328618   -2.139223    2.198103
  H     -4.261583   -0.597399    1.357248
  F     -6.865632   -4.294957    0.914118
  C     -3.474641   -3.605898   -0.259608
  H     -2.354548   -2.127602    0.871433
  H     -3.166611   -1.499693   -0.545037
  C     -3.827078   -4.661097    0.786174
  H     -2.560559   -3.889391   -0.788050
  H     -4.255932   -3.570040   -1.019300
  C     -4.457800   -5.941875    0.229195
  H     -5.177347   -5.542575   -1.797714
  H     -6.074202   -6.768894   -0.921272
  H     -4.530506   -4.253640    1.511979
  H     -2.933400   -4.932302    1.356825
  H     -3.681064   -6.562236   -0.229885
  H     -4.843942   -6.512728    1.075805

 Total Charge           Charge          ....    0
 Multiplicity           Mult            ....    1
 Number of Electrons    NEL             ....   98
 Basis Dimension        Dim             ....  356

ORBITAL ENERGIES
----------------

  NO   OCC          E(Eh)            E(eV)
   0   2.0000     -89.302066     -2430.0328
   1   2.0000     -24.892912      -677.3706
   2   2.0000     -19.241232      -523.5805
   3   2.0000     -19.225840      -523.1617
   4   2.0000     -10.299707      -280.2693
   5   2.0000     -10.268615      -279.4232
   6   2.0000     -10.244524      -278.7677
   7   2.0000     -10.229316      -278.3538
   8   2.0000     -10.222095      -278.1573
   9   2.0000     -10.212290      -277.8905
  10   2.0000     -10.163689      -276.5680
  11   2.0000      -8.261105      -224.7961
  12   2.0000      -6.207362      -168.9109
  13   2.0000      -6.201250      -168.7446
  14   2.0000      -6.199858      -168.7067
  15   2.0000      -1.389327       -37.8055
  16   2.0000      -1.148689       -31.2574
  17   2.0000      -1.047044       -28.4915
  18   2.0000      -0.861811       -23.4511
  19   2.0000      -0.822345       -22.3772
  20   2.0000      -0.775493       -21.1022
  21   2.0000      -0.750327       -20.4174
  22   2.0000      -0.715237       -19.4626
  23   2.0000      -0.673506       -18.3270
  24   2.0000      -0.639407       -17.3991
  25   2.0000      -0.606489       -16.5034
  26   2.0000      -0.599898       -16.3241
  27   2.0000      -0.569077       -15.4854
  28   2.0000      -0.562618       -15.3096
  29   2.0000      -0.513828       -13.9820
  30   2.0000      -0.507259       -13.8032
  31   2.0000      -0.495297       -13.4777
  32   2.0000      -0.478812       -13.0291
  33   2.0000      -0.467562       -12.7230
  34   2.0000      -0.462543       -12.5864
  35   2.0000      -0.442671       -12.0457
  36   2.0000      -0.421074       -11.4580
  37   2.0000      -0.410659       -11.1746
  38   2.0000      -0.404710       -11.0127
  39   2.0000      -0.404189       -10.9985
  40   2.0000      -0.375972       -10.2307
  41   2.0000      -0.369203       -10.0465
  42   2.0000      -0.361406        -9.8344
  43   2.0000      -0.347577        -9.4581
  44   2.0000      -0.345988        -9.4148
  45   2.0000      -0.337210        -9.1760
  46   2.0000      -0.319831        -8.7030
  47   2.0000      -0.315964        -8.5978
  48   2.0000      -0.300522        -8.1776
  49   0.0000      -0.003166        -0.0862
  50   0.0000       0.026425         0.7191
  51   0.0000       0.030510         0.8302
  52   0.0000       0.034755         0.9457
  53   0.0000       0.043049         1.1714

MULLIKEN ATOMIC CHARGES
-----------------------
   0 C :   -0.177725
   1 C :    1.541943
   2 C :    0.317791
   3 C :    0.013667
   4 S :    1.581776
   5 H :   -0.248029
   6 H :   -0.341567
   7 H :   -0.706141
   8 O :   -0.776495
   9 O :   -0.692814
  10 H :    0.174285
  11 H :   -0.317926
  12 F :   -0.519622
  13 C :   -0.039478
  14 H :   -0.000181
  15 H :    0.119830
  16 C :   -0.096960
  17 H :   -0.265091
  18 H :    0.068582
  19 C :    0.338052
  20 H :    0.228478
  21 H :   -0.162302
  22 H :    0.059708
  23 H :   -0.174377
  24 H :    0.038151
  25 H :    0.036444
Sum of atomic charges:    0.0000000

LOEWDIN ATOMIC CHARGES
----------------------
   0 C :   -0.048880
   1 C :    0.136050
   2 C :   -0.025674
   3 C :   -0.026291
   4 S :    1.177137
   5 H :   -0.092818
   6 H :   -0.015736
   7 H :   -0.106497
   8 O :   -0.445339
   9 O :   -0.463054
  10 H :    0.015930
  11 H :    0.019650
  12 F :   -0.275473
  13 C :   -0.012983
  14 H :    0.018647
  15 H :    0.029337
  16 C :   -0.017188
  17 H :    0.027473
  18 H :   -0.013096
  19 C :   -0.029953
  20 H :    0.032578
  21 H :    0.019428
  22 H :   -0.002443
  23 H :    0.034096
  24 H :    0.035429
  25 H :    0.029671

  Mayer bond orders larger than 0.100000
B(  0-C ,  1-C ) :   1.1859 B(  0-C ,  2-C ) :   1.1818 B(  0-C ,  5-H ) :   0.2809
B(  0-C ,  7-H ) :   0.2786 B(  0-C , 10-H ) :   0.7049 B(  0-C , 11-H ) :   1.0836
B(  0-C , 14-H ) :   0.1571 B(  0-C , 15-H ) :   0.1441 B(  1-C ,  2-C ) :   0.1146
B(  1-C ,  5-H ) :   0.1862 B(  1-C ,  6-H ) :   0.6545 B(  1-C ,  7-H ) :  -0.1504
B(  1-C , 10-H ) :   0.1902 B(  2-C , 10-H ) :   0.1099 B(  2-C , 13-C ) :   1.3070
B(  2-C , 14-H ) :   0.8025 B(  2-C , 15-H ) :   0.6902 B(  2-C , 17-H ) :   0.1007
B(  3-C ,  4-S ) :   0.9510 B(  3-C ,  8-O ) :   0.1147 B(  3-C , 19-C ) :   1.2450
B(  3-C , 20-H ) :   0.8446 B(  3-C , 21-H ) :   0.9603 B(  3-C , 24-H ) :   0.1155
B(  3-C , 25-H ) :   0.1099 B(  4-S ,  8-O ) :   1.5059 B(  4-S ,  9-O ) :   1.3868
B(  4-S , 12-F ) :   0.5756 B(  5-H ,  7-H ) :   0.8261 B(  5-H ,  9-O ) :   0.1351
B(  5-H , 11-H ) :   0.1401 B(  5-H , 18-H ) :   0.1326 B(  6-H , 11-H ) :  -0.1258
B(  6-H , 17-H ) :   0.1021 B(  6-H , 18-H ) :  -0.1279 B(  7-H , 10-H ) :  -0.1031
B(  7-H , 17-H ) :  -0.1018 B(  9-O , 12-F ) :   0.1107 B( 10-H , 11-H ) :  -0.1801
B( 10-H , 22-H ) :   0.1260 B( 13-C , 14-H ) :   0.1629 B( 13-C , 15-H ) :   0.2119
B( 13-C , 16-C ) :   1.1951 B( 13-C , 17-H ) :   0.9094 B( 13-C , 18-H ) :   0.8443
B( 13-C , 23-H ) :   0.1687 B( 16-C , 17-H ) :   0.1800 B( 16-C , 18-H ) :   0.1412
B( 16-C , 19-C ) :   1.2872 B( 16-C , 22-H ) :   0.8712 B( 16-C , 23-H ) :   0.8898
B( 16-C , 24-H ) :   0.1357 B( 16-C , 25-H ) :   0.2179 B( 19-C , 21-H ) :   0.1942
B( 19-C , 24-H ) :   0.7848 B( 19-C , 25-H ) :   0.7228

Dispersion correction           -0.026500464
FINAL SINGLE POINT ENERGY      -922.959248091476

DIPOLE MOMENT
-------------
                                X             Y             Z
Electronic contribution:    -16.50305      -6.86801      -3.45033
Nuclear contribution   :     17.63907       5.79106       3.97609
                        -----------------------------------------
Total Dipole Moment    :      1.13602      -1.07695       0.52577
                        -----------------------------------------
Magnitude (a.u.)       :      1.65130
Magnitude (Debye)      :      4.19728

Rotational constants in cm-1:     0.048663     0.025472     0.020259
Rotational constants in MHz :  1458.892793   763.621130   607.350055

                             ****ORCA TERMINATED NORMALLY****
TOTAL RUN TIME: 0 days 0 hours 1 minutes 46 seconds 14 msec
