                         Program Version 5.0.0 -  RELEASE  -
|  1> !wB97X-D3 RIJCOSX def2-SVPD def2/J TightSCF CPCM(Water)
|  2> *xyz -1 1
|  3> C         -7.33044       -2.67899       -3.20681
|  4> S         -6.01966       -2.92697       -4.41913
|  5> O         -5.64583       -1.58838       -4.91931
|  6> O         -4.88196       -3.50370       -3.66724
|  7> O         -6.54927       -3.80515       -5.42507
|  8> C         -7.46900       -1.24615       -2.71383
|  9> H         -7.11825       -3.37982       -2.39805
| 10> H         -8.24184       -3.00474       -3.70651
| 11> H         -7.67580       -0.60214       -3.54292
| 12> H         -6.55749       -0.94096       -2.24382
| 13> H         -8.27114       -1.18777       -2.00810
| 14> *
| 15> %MaxCore 64000
| 16>
| 17> %pal nprocs 18
| 18> end
| 19>
| 20> %scf
| 21>   MaxIter 150
| 22> end
| 23>
| 24>
| 25>                          ****END OF INPUT****

CARTESIAN COORDINATES (ANGSTROEM)
---------------------------------
  C     -7.330440   -2.678990   -3.206810
  S     -6.019660   -2.926970   -4.419130
  O     -5.645830   -1.588380   -4.919310
  O     -4.881960   -3.503700   -3.667240
  O     -6.549270   -3.805150   -5.425070
  C     -7.469000   -1.246150   -2.713830
  H     -7.118250   -3.379820   -2.398050
  H     -8.241840   -3.004740   -3.706510
  H     -7.675800   -0.602140   -3.542920
  H     -6.557490   -0.940960   -2.243820
  H     -8.271140   -1.187770   -2.008100

 Total Charge           Charge          ....   -1
 Multiplicity           Mult            ....    1
 Number of Electrons    NEL             ....   58
 Basis Dimension        Dim             ....  176

ORBITAL ENERGIES
----------------

  NO   OCC          E(Eh)            E(eV)
   0   2.0000     -89.152035     -2425.9502
   1   2.0000     -19.210492      -522.7441
   2   2.0000     -19.200022      -522.4592
   3   2.0000     -19.198464      -522.4168
   4   2.0000     -10.300317      -280.2859
   5   2.0000     -10.275200      -279.6024
   6   2.0000      -8.226559      -223.8561
   7   2.0000      -6.186415      -168.3409
   8   2.0000      -6.186382      -168.3400
   9   2.0000      -6.184599      -168.2915
  10   2.0000      -1.226205       -33.3667
  11   2.0000      -1.084312       -29.5056
  12   2.0000      -1.062170       -28.9031
  13   2.0000      -0.888298       -24.1718
  14   2.0000      -0.761573       -20.7234
  15   2.0000      -0.653487       -17.7823
  16   2.0000      -0.587829       -15.9956
  17   2.0000      -0.570970       -15.5369
  18   2.0000      -0.554089       -15.0775
  19   2.0000      -0.535654       -14.5759
  20   2.0000      -0.504089       -13.7170
  21   2.0000      -0.467071       -12.7097
  22   2.0000      -0.457969       -12.4620
  23   2.0000      -0.433712       -11.8019
  24   2.0000      -0.429980       -11.7003
  25   2.0000      -0.388020       -10.5586
  26   2.0000      -0.378988       -10.3128
  27   2.0000      -0.372989       -10.1496
  28   2.0000      -0.344250        -9.3675
  29   0.0000       0.080953         2.2028
  30   0.0000       0.100620         2.7380
  31   0.0000       0.102278         2.7831
  32   0.0000       0.103262         2.8099
  33   0.0000       0.144249         3.9252

MULLIKEN ATOMIC CHARGES
-----------------------
   0 C :   -0.397220
   1 S :    1.278025
   2 O :   -0.862501
   3 O :   -0.859685
   4 O :   -0.805016
   5 C :    0.683350
   6 H :    0.026356
   7 H :    0.042669
   8 H :   -0.004844
   9 H :   -0.021357
  10 H :   -0.079778
Sum of atomic charges:   -1.0000000

LOEWDIN ATOMIC CHARGES
----------------------
   0 C :   -0.107239
   1 S :    0.865894
   2 O :   -0.622817
   3 O :   -0.637965
   4 O :   -0.603358
   5 C :    0.109793
   6 H :    0.016427
   7 H :    0.011293
   8 H :   -0.016101
   9 H :   -0.007374
  10 H :   -0.008554

  Mayer bond orders larger than 0.100000
B(  0-C ,  1-S ) :   0.9070 B(  0-C ,  5-C ) :   1.2784 B(  0-C ,  6-H ) :   0.9837
B(  0-C ,  7-H ) :   0.9855 B(  0-C ,  8-H ) :   0.1833 B(  0-C ,  9-H ) :   0.1749
B(  0-C , 10-H ) :   0.1851 B(  1-S ,  2-O ) :   1.2851 B(  1-S ,  3-O ) :   1.2748
B(  1-S ,  4-O ) :   1.3541 B(  5-C ,  8-H ) :   0.8152 B(  5-C ,  9-H ) :   0.8174
B(  5-C , 10-H ) :   0.8236

Dispersion correction           -0.002806043
FINAL SINGLE POINT ENERGY      -702.795403802123

DIPOLE MOMENT
-------------
                                X             Y             Z
Electronic contribution:      3.96039      -3.32909      -4.50856
Nuclear contribution   :     -6.18165       4.01759       6.33106
                        -----------------------------------------
Total Dipole Moment    :     -2.22126       0.68850       1.82250
                        -----------------------------------------
Magnitude (a.u.)       :      2.95459
Magnitude (Debye)      :      7.50996

Rotational constants in cm-1:     0.161711     0.082788     0.081165
Rotational constants in MHz :  4847.971521  2481.906910  2433.276832

                             ****ORCA TERMINATED NORMALLY****
TOTAL RUN TIME: 0 days 0 hours 0 minutes 10 seconds 441 msec
