                         Program Version 5.0.0 -  RELEASE  -
|  1> !wB97X-D3 RIJCOSX def2-SVPD def2/J TightSCF CPCM(Water)
|  2> *xyz 1 1
|  3> C         -2.16038       -1.36949       -3.46710
|  4> N         -3.03011       -1.91086       -4.54107
|  5> C         -2.04772        0.14658       -3.51177
|  6> H         -3.47744       -2.79151       -4.25710
|  7> H         -2.53801       -2.01786       -5.43808
|  8> H         -3.89159       -1.37604       -4.71437
|  9> H         -1.18444       -1.84400       -3.56639
| 10> H         -2.59819       -1.70838       -2.52848
| 11> H         -1.61525        0.44478       -4.44395
| 12> H         -1.42718        0.48198       -2.70720
| 13> H         -3.02145        0.57958       -3.41560
| 14> *
| 15> %MaxCore 64000
| 16>
| 17> %pal nprocs 18
| 18> end
| 19>
| 20> %scf
| 21>   MaxIter 150
| 22> end
| 23>
| 24>
| 25>                          ****END OF INPUT****

CARTESIAN COORDINATES (ANGSTROEM)
---------------------------------
  C     -2.160380   -1.369490   -3.467100
  N     -3.030110   -1.910860   -4.541070
  C     -2.047720    0.146580   -3.511770
  H     -3.477440   -2.791510   -4.257100
  H     -2.538010   -2.017860   -5.438080
  H     -3.891590   -1.376040   -4.714370
  H     -1.184440   -1.844000   -3.566390
  H     -2.598190   -1.708380   -2.528480
  H     -1.615250    0.444780   -4.443950
  H     -1.427180    0.481980   -2.707200
  H     -3.021450    0.579580   -3.415600

 Total Charge           Charge          ....    1
 Multiplicity           Mult            ....    1
 Number of Electrons    NEL             ....   26
 Basis Dimension        Dim             ....  124

ORBITAL ENERGIES
----------------

  NO   OCC          E(Eh)            E(eV)
   0   2.0000     -14.555064      -396.0634
   1   2.0000     -10.352005      -281.6924
   2   2.0000     -10.288984      -279.9775
   3   2.0000      -1.108875       -30.1740
   4   2.0000      -0.887372       -24.1466
   5   2.0000      -0.762697       -20.7540
   6   2.0000      -0.694715       -18.9041
   7   2.0000      -0.658086       -17.9074
   8   2.0000      -0.602719       -16.4008
   9   2.0000      -0.555124       -15.1057
  10   2.0000      -0.500348       -13.6152
  11   2.0000      -0.481723       -13.1083
  12   2.0000      -0.462923       -12.5968
  13   0.0000       0.085997         2.3401
  14   0.0000       0.118879         3.2349
  15   0.0000       0.126849         3.4517
  16   0.0000       0.147232         4.0064
  17   0.0000       0.167173         4.5490

MULLIKEN ATOMIC CHARGES
-----------------------
   0 C :    0.151928
   1 N :   -0.973392
   2 C :    0.433025
   3 H :    0.427133
   4 H :    0.475741
   5 H :    0.435478
   6 H :   -0.031928
   7 H :    0.002462
   8 H :    0.047400
   9 H :    0.028345
  10 H :    0.003807
Sum of atomic charges:    1.0000000

LOEWDIN ATOMIC CHARGES
----------------------
   0 C :    0.058079
   1 N :    0.343412
   2 C :    0.149529
   3 H :    0.116389
   4 H :    0.122662
   5 H :    0.116144
   6 H :    0.050926
   7 H :    0.049948
   8 H :   -0.003100
   9 H :    0.000172
  10 H :   -0.004161

  Mayer bond orders larger than 0.100000
B(  0-C ,  1-N ) :   0.6735 B(  0-C ,  2-C ) :   1.3028 B(  0-C ,  6-H ) :   0.9541
B(  0-C ,  7-H ) :   0.9546 B(  0-C ,  8-H ) :   0.1396 B(  0-C ,  9-H ) :   0.1646
B(  0-C , 10-H ) :   0.1497 B(  1-N ,  3-H ) :   0.7005 B(  1-N ,  4-H ) :   0.6281
B(  1-N ,  5-H ) :   0.6890 B(  1-N ,  6-H ) :   0.1091 B(  2-C ,  8-H ) :   0.8407
B(  2-C ,  9-H ) :   0.8445 B(  2-C , 10-H ) :   0.8718

Dispersion correction           -0.001538115
FINAL SINGLE POINT ENERGY      -135.519293708497

DIPOLE MOMENT
-------------
                                X             Y             Z
Electronic contribution:     -0.87234      -1.78168      -0.99741
Nuclear contribution   :     -0.15215       0.37393      -0.04773
                        -----------------------------------------
Total Dipole Moment    :     -1.02448      -1.40775      -1.04514
                        -----------------------------------------
Magnitude (a.u.)       :      2.03067
Magnitude (Debye)      :      5.16156

Rotational constants in cm-1:     1.020762     0.277172     0.247319
Rotational constants in MHz : 30601.664035  8309.399682  7414.438136

                             ****ORCA TERMINATED NORMALLY****
TOTAL RUN TIME: 0 days 0 hours 0 minutes 6 seconds 422 msec
