                         Program Version 5.0.0 -  RELEASE  -
|  1> !wB97X-D3 RIJCOSX def2-SVPD def2/J TightSCF CPCM(Water)
|  2> *xyz 0 1
|  3> C         -7.33044       -2.67899       -3.20681
|  4> S         -6.01966       -2.92697       -4.41913
|  5> F         -5.64583       -1.58838       -4.91931
|  6> O         -4.88196       -3.50370       -3.66724
|  7> O         -6.54927       -3.80515       -5.42507
|  8> C         -7.46900       -1.24615       -2.71383
|  9> H         -7.11825       -3.37982       -2.39805
| 10> H         -8.24184       -3.00474       -3.70651
| 11> H         -7.67580       -0.60214       -3.54292
| 12> H         -6.55749       -0.94096       -2.24382
| 13> H         -8.27114       -1.18777       -2.00810
| 14> *
| 15> %MaxCore 64000
| 16>
| 17> %pal nprocs 18
| 18> end
| 19>
| 20> %scf
| 21>   MaxIter 150
| 22> end
| 23>
| 24>
| 25>                          ****END OF INPUT****

CARTESIAN COORDINATES (ANGSTROEM)
---------------------------------
  C     -7.330440   -2.678990   -3.206810
  S     -6.019660   -2.926970   -4.419130
  F     -5.645830   -1.588380   -4.919310
  O     -4.881960   -3.503700   -3.667240
  O     -6.549270   -3.805150   -5.425070
  C     -7.469000   -1.246150   -2.713830
  H     -7.118250   -3.379820   -2.398050
  H     -8.241840   -3.004740   -3.706510
  H     -7.675800   -0.602140   -3.542920
  H     -6.557490   -0.940960   -2.243820
  H     -8.271140   -1.187770   -2.008100

 Total Charge           Charge          ....    0
 Multiplicity           Mult            ....    1
 Number of Electrons    NEL             ....   58
 Basis Dimension        Dim             ....  176

ORBITAL ENERGIES
----------------

  NO   OCC          E(Eh)            E(eV)
   0   2.0000     -89.238236     -2428.2958
   1   2.0000     -24.904115      -677.6754
   2   2.0000     -19.271786      -524.4120
   3   2.0000     -19.258836      -524.0596
   4   2.0000     -10.341635      -281.4102
   5   2.0000     -10.293844      -280.1097
   6   2.0000      -8.312813      -226.2031
   7   2.0000      -6.276430      -170.7904
   8   2.0000      -6.270594      -170.6315
   9   2.0000      -6.268342      -170.5702
  10   2.0000      -1.464533       -39.8520
  11   2.0000      -1.236631       -33.6504
  12   2.0000      -1.133401       -30.8414
  13   2.0000      -0.929383       -25.2898
  14   2.0000      -0.829316       -22.5668
  15   2.0000      -0.775378       -21.0991
  16   2.0000      -0.688583       -18.7373
  17   2.0000      -0.676374       -18.4051
  18   2.0000      -0.655287       -17.8313
  19   2.0000      -0.588403       -16.0113
  20   2.0000      -0.575828       -15.6691
  21   2.0000      -0.556269       -15.1368
  22   2.0000      -0.536349       -14.5948
  23   2.0000      -0.505625       -13.7587
  24   2.0000      -0.484795       -13.1919
  25   2.0000      -0.478368       -13.0171
  26   2.0000      -0.438244       -11.9252
  27   2.0000      -0.426536       -11.6066
  28   2.0000      -0.419787       -11.4230
  29   0.0000       0.067850         1.8463
  30   0.0000       0.094168         2.5624
  31   0.0000       0.098484         2.6799
  32   0.0000       0.099586         2.7099
  33   0.0000       0.125661         3.4194

MULLIKEN ATOMIC CHARGES
-----------------------
   0 C :   -0.467127
   1 S :    1.505440
   2 F :   -0.427667
   3 O :   -0.750323
   4 O :   -0.690958
   5 C :    0.604030
   6 H :    0.096870
   7 H :    0.108396
   8 H :    0.040462
   9 H :    0.017849
  10 H :   -0.036973
Sum of atomic charges:    0.0000000

LOEWDIN ATOMIC CHARGES
----------------------
   0 C :   -0.061925
   1 S :    1.142379
   2 F :   -0.261459
   3 O :   -0.529301
   4 O :   -0.496063
   5 C :    0.131112
   6 H :    0.039878
   7 H :    0.030780
   8 H :   -0.002045
   9 H :    0.002292
  10 H :    0.004352

  Mayer bond orders larger than 0.100000
B(  0-C ,  1-S ) :   0.9697 B(  0-C ,  5-C ) :   1.2981 B(  0-C ,  6-H ) :   0.9776
B(  0-C ,  7-H ) :   0.9843 B(  0-C ,  8-H ) :   0.1655 B(  0-C ,  9-H ) :   0.1572
B(  0-C , 10-H ) :   0.1846 B(  1-S ,  2-F ) :   0.6609 B(  1-S ,  3-O ) :   1.4621
B(  1-S ,  4-O ) :   1.5327 B(  5-C ,  8-H ) :   0.8281 B(  5-C ,  9-H ) :   0.8329
B(  5-C , 10-H ) :   0.8264

Dispersion correction           -0.002799584
FINAL SINGLE POINT ENERGY      -727.201308758871

DIPOLE MOMENT
-------------
                                X             Y             Z
Electronic contribution:      5.25866      -1.38007      -6.16646
Nuclear contribution   :     -6.81251       2.87933       7.15058
                        -----------------------------------------
Total Dipole Moment    :     -1.55385       1.49926       0.98411
                        -----------------------------------------
Magnitude (a.u.)       :      2.37291
Magnitude (Debye)      :      6.03147

Rotational constants in cm-1:     0.152543     0.082494     0.078987
Rotational constants in MHz :  4573.135887  2473.116216  2367.980829

                             ****ORCA TERMINATED NORMALLY****
TOTAL RUN TIME: 0 days 0 hours 0 minutes 11 seconds 957 msec
