                         Program Version 5.0.0 -  RELEASE  -
|  1> !wB97X-D3 RIJCOSX def2-SVPD def2/J TightSCF CPCM(Water)
|  2> *xyz 0 1
|  3> C         -2.16038       -1.36949       -3.46710
|  4> C         -3.03011       -1.91086       -4.54107
|  5> C         -2.04772        0.14658       -3.51177
|  6> H         -3.47744       -2.79151       -4.25710
|  7> H         -2.53801       -2.01786       -5.43808
|  8> H         -3.89159       -1.37604       -4.71437
|  9> H         -1.18444       -1.84400       -3.56639
| 10> H         -2.59819       -1.70838       -2.52848
| 11> H         -1.61525        0.44478       -4.44395
| 12> H         -1.42718        0.48198       -2.70720
| 13> H         -3.02145        0.57958       -3.41560
| 14> *
| 15> %MaxCore 64000
| 16>
| 17> %pal nprocs 18
| 18> end
| 19>
| 20> %scf
| 21>   MaxIter 150
| 22> end
| 23>
| 24>
| 25>                          ****END OF INPUT****

CARTESIAN COORDINATES (ANGSTROEM)
---------------------------------
  C     -2.160380   -1.369490   -3.467100
  C     -3.030110   -1.910860   -4.541070
  C     -2.047720    0.146580   -3.511770
  H     -3.477440   -2.791510   -4.257100
  H     -2.538010   -2.017860   -5.438080
  H     -3.891590   -1.376040   -4.714370
  H     -1.184440   -1.844000   -3.566390
  H     -2.598190   -1.708380   -2.528480
  H     -1.615250    0.444780   -4.443950
  H     -1.427180    0.481980   -2.707200
  H     -3.021450    0.579580   -3.415600

 Total Charge           Charge          ....    0
 Multiplicity           Mult            ....    1
 Number of Electrons    NEL             ....   26
 Basis Dimension        Dim             ....  124

ORBITAL ENERGIES
----------------

  NO   OCC          E(Eh)            E(eV)
   0   2.0000     -10.272360      -279.5251
   1   2.0000     -10.263671      -279.2887
   2   2.0000     -10.245026      -278.7813
   3   2.0000      -0.897855       -24.4319
   4   2.0000      -0.795770       -21.6540
   5   2.0000      -0.689439       -18.7606
   6   2.0000      -0.567783       -15.4502
   7   2.0000      -0.537022       -14.6131
   8   2.0000      -0.496471       -13.5096
   9   2.0000      -0.487152       -13.2561
  10   2.0000      -0.430455       -11.7133
  11   2.0000      -0.417907       -11.3718
  12   2.0000      -0.416384       -11.3304
  13   0.0000       0.101849         2.7714
  14   0.0000       0.127417         3.4672
  15   0.0000       0.134988         3.6732
  16   0.0000       0.168043         4.5727
  17   0.0000       0.187203         5.0941

MULLIKEN ATOMIC CHARGES
-----------------------
   0 C :   -0.602638
   1 C :    0.806367
   2 C :    0.548012
   3 H :   -0.158431
   4 H :   -0.153158
   5 H :   -0.227320
   6 H :   -0.088392
   7 H :   -0.032953
   8 H :   -0.034422
   9 H :   -0.045570
  10 H :   -0.011495
Sum of atomic charges:   -0.0000000

LOEWDIN ATOMIC CHARGES
----------------------
   0 C :   -0.116384
   1 C :    0.104313
   2 C :    0.109725
   3 H :   -0.034315
   4 H :   -0.025134
   5 H :   -0.032843
   6 H :    0.022715
   7 H :    0.021324
   8 H :   -0.013654
   9 H :   -0.020761
  10 H :   -0.014987

  Mayer bond orders larger than 0.100000
B(  0-C ,  1-C ) :   1.2885 B(  0-C ,  2-C ) :   1.2356 B(  0-C ,  3-H ) :   0.1913
B(  0-C ,  4-H ) :   0.2135 B(  0-C ,  5-H ) :   0.1787 B(  0-C ,  6-H ) :   0.9725
B(  0-C ,  7-H ) :   0.9405 B(  0-C ,  8-H ) :   0.1703 B(  0-C ,  9-H ) :   0.1761
B(  0-C , 10-H ) :   0.1393 B(  1-C ,  3-H ) :   0.7031 B(  1-C ,  4-H ) :   0.7433
B(  1-C ,  5-H ) :   0.7200 B(  1-C ,  6-H ) :   0.1090 B(  2-C ,  8-H ) :   0.8486
B(  2-C ,  9-H ) :   0.8392 B(  2-C , 10-H ) :   0.8577 B(  3-H ,  5-H ) :   0.2103
B(  4-H ,  5-H ) :   0.1184

Dispersion correction           -0.001485600
FINAL SINGLE POINT ENERGY      -119.010793429703

DIPOLE MOMENT
-------------
                                X             Y             Z
Electronic contribution:      0.30398      -0.14123       0.27455
Nuclear contribution   :     -0.34625       0.09603      -0.26933
                        -----------------------------------------
Total Dipole Moment    :     -0.04226      -0.04519       0.00522
                        -----------------------------------------
Magnitude (a.u.)       :      0.06210
Magnitude (Debye)      :      0.15784

Rotational constants in cm-1:     1.028617     0.291238     0.258956
Rotational constants in MHz : 30837.159054  8731.095379  7763.318586

                             ****ORCA TERMINATED NORMALLY****
TOTAL RUN TIME: 0 days 0 hours 0 minutes 6 seconds 69 msec
