                         Program Version 5.0.0 -  RELEASE  -
|  1> !wB97X-D3 RIJCOSX def2-SVPD def2/J TightSCF CPCM(Water)
|  2> *xyz 0 1
|  3> C         -7.33044       -2.67899       -3.20681
|  4> S         -6.01966       -2.92697       -4.41913
|  5> O         -5.64583       -1.58838       -4.91931
|  6> F         -4.88196       -3.50370       -3.66724
|  7> O         -6.54927       -3.80515       -5.42507
|  8> C         -7.46900       -1.24615       -2.71383
|  9> H         -7.11825       -3.37982       -2.39805
| 10> H         -8.24184       -3.00474       -3.70651
| 11> H         -7.67580       -0.60214       -3.54292
| 12> H         -6.55749       -0.94096       -2.24382
| 13> H         -8.27114       -1.18777       -2.00810
| 14> *
| 15> %MaxCore 64000
| 16>
| 17> %pal nprocs 18
| 18> end
| 19>
| 20> %scf
| 21>   MaxIter 150
| 22> end
| 23>
| 24>
| 25>                          ****END OF INPUT****

CARTESIAN COORDINATES (ANGSTROEM)
---------------------------------
  C     -7.330440   -2.678990   -3.206810
  S     -6.019660   -2.926970   -4.419130
  O     -5.645830   -1.588380   -4.919310
  F     -4.881960   -3.503700   -3.667240
  O     -6.549270   -3.805150   -5.425070
  C     -7.469000   -1.246150   -2.713830
  H     -7.118250   -3.379820   -2.398050
  H     -8.241840   -3.004740   -3.706510
  H     -7.675800   -0.602140   -3.542920
  H     -6.557490   -0.940960   -2.243820
  H     -8.271140   -1.187770   -2.008100

 Total Charge           Charge          ....    0
 Multiplicity           Mult            ....    1
 Number of Electrons    NEL             ....   58
 Basis Dimension        Dim             ....  176

ORBITAL ENERGIES
----------------

  NO   OCC          E(Eh)            E(eV)
   0   2.0000     -89.237581     -2428.2780
   1   2.0000     -24.900802      -677.5853
   2   2.0000     -19.271394      -524.4013
   3   2.0000     -19.260507      -524.1050
   4   2.0000     -10.341142      -281.3968
   5   2.0000     -10.291390      -280.0430
   6   2.0000      -8.312119      -226.1842
   7   2.0000      -6.275652      -170.7692
   8   2.0000      -6.269907      -170.6128
   9   2.0000      -6.267748      -170.5541
  10   2.0000      -1.460408       -39.7397
  11   2.0000      -1.236756       -33.6538
  12   2.0000      -1.135585       -30.9008
  13   2.0000      -0.926641       -25.2152
  14   2.0000      -0.831199       -22.6181
  15   2.0000      -0.770531       -20.9672
  16   2.0000      -0.678879       -18.4732
  17   2.0000      -0.671754       -18.2793
  18   2.0000      -0.661715       -18.0062
  19   2.0000      -0.591070       -16.0838
  20   2.0000      -0.576363       -15.6836
  21   2.0000      -0.564798       -15.3689
  22   2.0000      -0.521989       -14.2040
  23   2.0000      -0.501947       -13.6587
  24   2.0000      -0.488408       -13.2903
  25   2.0000      -0.470523       -12.8036
  26   2.0000      -0.438904       -11.9432
  27   2.0000      -0.430449       -11.7131
  28   2.0000      -0.422133       -11.4868
  29   0.0000       0.070335         1.9139
  30   0.0000       0.094098         2.5605
  31   0.0000       0.099102         2.6967
  32   0.0000       0.101404         2.7594
  33   0.0000       0.115879         3.1532

MULLIKEN ATOMIC CHARGES
-----------------------
   0 C :   -0.487686
   1 S :    1.519003
   2 O :   -0.760302
   3 F :   -0.416732
   4 O :   -0.698257
   5 C :    0.649123
   6 H :    0.102770
   7 H :    0.111761
   8 H :    0.026907
   9 H :    0.000400
  10 H :   -0.046988
Sum of atomic charges:   -0.0000000

LOEWDIN ATOMIC CHARGES
----------------------
   0 C :   -0.063673
   1 S :    1.146041
   2 O :   -0.517827
   3 F :   -0.266603
   4 O :   -0.497378
   5 C :    0.130568
   6 H :    0.035299
   7 H :    0.034059
   8 H :   -0.005850
   9 H :    0.001286
  10 H :    0.004078

  Mayer bond orders larger than 0.100000
B(  0-C ,  1-S ) :   0.9589 B(  0-C ,  5-C ) :   1.3107 B(  0-C ,  6-H ) :   0.9597
B(  0-C ,  7-H ) :   0.9847 B(  0-C ,  8-H ) :   0.1761 B(  0-C ,  9-H ) :   0.1714
B(  0-C , 10-H ) :   0.1814 B(  1-S ,  2-O ) :   1.4690 B(  1-S ,  3-F ) :   0.6491
B(  1-S ,  4-O ) :   1.5316 B(  5-C ,  8-H ) :   0.8242 B(  5-C ,  9-H ) :   0.8250
B(  5-C , 10-H ) :   0.8282

Dispersion correction           -0.002786952
FINAL SINGLE POINT ENERGY      -727.203847596803

DIPOLE MOMENT
-------------
                                X             Y             Z
Electronic contribution:      6.76641      -5.08358      -3.75139
Nuclear contribution   :     -7.60849       4.87515       5.84588
                        -----------------------------------------
Total Dipole Moment    :     -0.84208      -0.20843       2.09449
                        -----------------------------------------
Magnitude (a.u.)       :      2.26703
Magnitude (Debye)      :      5.76234

Rotational constants in cm-1:     0.153704     0.080342     0.079431
Rotational constants in MHz :  4607.928650  2408.599360  2381.267225

                             ****ORCA TERMINATED NORMALLY****
TOTAL RUN TIME: 0 days 0 hours 0 minutes 11 seconds 388 msec
