                         Program Version 5.0.0 -  RELEASE  -
|  1> !wB97X-D3 RIJCOSX def2-SVPD def2/J TightSCF CPCM(Water)
|  2> *xyz 0 1
|  3> C         -7.33044       -2.67899       -3.20681
|  4> S         -6.01966       -2.92697       -4.41913
|  5> O         -5.64583       -1.58838       -4.91931
|  6> O         -4.88196       -3.50370       -3.66724
|  7> F         -6.54927       -3.80515       -5.42507
|  8> C         -7.46900       -1.24615       -2.71383
|  9> H         -7.11825       -3.37982       -2.39805
| 10> H         -8.24184       -3.00474       -3.70651
| 11> H         -7.67580       -0.60214       -3.54292
| 12> H         -6.55749       -0.94096       -2.24382
| 13> H         -8.27114       -1.18777       -2.00810
| 14> *
| 15> %MaxCore 64000
| 16>
| 17> %pal nprocs 18
| 18> end
| 19>
| 20> %scf
| 21>   MaxIter 150
| 22> end
| 23>
| 24>
| 25>                          ****END OF INPUT****

CARTESIAN COORDINATES (ANGSTROEM)
---------------------------------
  C     -7.330440   -2.678990   -3.206810
  S     -6.019660   -2.926970   -4.419130
  O     -5.645830   -1.588380   -4.919310
  O     -4.881960   -3.503700   -3.667240
  F     -6.549270   -3.805150   -5.425070
  C     -7.469000   -1.246150   -2.713830
  H     -7.118250   -3.379820   -2.398050
  H     -8.241840   -3.004740   -3.706510
  H     -7.675800   -0.602140   -3.542920
  H     -6.557490   -0.940960   -2.243820
  H     -8.271140   -1.187770   -2.008100

 Total Charge           Charge          ....    0
 Multiplicity           Mult            ....    1
 Number of Electrons    NEL             ....   58
 Basis Dimension        Dim             ....  176

ORBITAL ENERGIES
----------------

  NO   OCC          E(Eh)            E(eV)
   0   2.0000     -89.240660     -2428.3618
   1   2.0000     -24.921012      -678.1352
   2   2.0000     -19.261127      -524.1219
   3   2.0000     -19.259162      -524.0684
   4   2.0000     -10.342085      -281.4225
   5   2.0000     -10.293295      -280.0948
   6   2.0000      -8.315206      -226.2683
   7   2.0000      -6.278881      -170.8570
   8   2.0000      -6.272876      -170.6936
   9   2.0000      -6.270639      -170.6328
  10   2.0000      -1.496104       -40.7111
  11   2.0000      -1.222461       -33.2649
  12   2.0000      -1.119398       -30.4604
  13   2.0000      -0.928083       -25.2544
  14   2.0000      -0.845349       -23.0031
  15   2.0000      -0.777311       -21.1517
  16   2.0000      -0.697108       -18.9693
  17   2.0000      -0.690951       -18.8017
  18   2.0000      -0.665274       -18.1030
  19   2.0000      -0.587919       -15.9981
  20   2.0000      -0.584482       -15.9046
  21   2.0000      -0.553344       -15.0573
  22   2.0000      -0.520644       -14.1674
  23   2.0000      -0.493156       -13.4194
  24   2.0000      -0.488961       -13.3053
  25   2.0000      -0.470979       -12.8160
  26   2.0000      -0.434099       -11.8124
  27   2.0000      -0.424490       -11.5510
  28   2.0000      -0.410181       -11.1616
  29   0.0000       0.070107         1.9077
  30   0.0000       0.093551         2.5457
  31   0.0000       0.098766         2.6876
  32   0.0000       0.100565         2.7365
  33   0.0000       0.118375         3.2212

MULLIKEN ATOMIC CHARGES
-----------------------
   0 C :   -0.486278
   1 S :    1.527926
   2 O :   -0.749728
   3 O :   -0.744144
   4 F :   -0.388912
   5 C :    0.630868
   6 H :    0.090234
   7 H :    0.122457
   8 H :    0.030034
   9 H :    0.012993
  10 H :   -0.045450
Sum of atomic charges:    0.0000000

LOEWDIN ATOMIC CHARGES
----------------------
   0 C :   -0.067504
   1 S :    1.152349
   2 O :   -0.518880
   3 O :   -0.529266
   4 F :   -0.241144
   5 C :    0.135903
   6 H :    0.034754
   7 H :    0.030599
   8 H :   -0.005524
   9 H :    0.002790
  10 H :    0.005924

  Mayer bond orders larger than 0.100000
B(  0-C ,  1-S ) :   0.9523 B(  0-C ,  5-C ) :   1.3169 B(  0-C ,  6-H ) :   0.9859
B(  0-C ,  7-H ) :   0.9530 B(  0-C ,  8-H ) :   0.1786 B(  0-C ,  9-H ) :   0.1631
B(  0-C , 10-H ) :   0.1803 B(  1-S ,  2-O ) :   1.4643 B(  1-S ,  3-O ) :   1.4593
B(  1-S ,  4-F ) :   0.7094 B(  5-C ,  8-H ) :   0.8214 B(  5-C ,  9-H ) :   0.8288
B(  5-C , 10-H ) :   0.8312

Dispersion correction           -0.002809093
FINAL SINGLE POINT ENERGY      -727.187026155659

DIPOLE MOMENT
-------------
                                X             Y             Z
Electronic contribution:      3.53895      -5.62926      -7.13681
Nuclear contribution   :     -5.87110       5.18927       7.67759
                        -----------------------------------------
Total Dipole Moment    :     -2.33215      -0.43998       0.54078
                        -----------------------------------------
Magnitude (a.u.)       :      2.43412
Magnitude (Debye)      :      6.18705

Rotational constants in cm-1:     0.155988     0.080452     0.078187
Rotational constants in MHz :  4676.405251  2411.902056  2343.983816

                             ****ORCA TERMINATED NORMALLY****
TOTAL RUN TIME: 0 days 0 hours 0 minutes 10 seconds 913 msec
