                         Program Version 5.0.0 -  RELEASE  -
|  1> !wB97X-D3 RIJCOSX def2-SVPD def2/J TightSCF CPCM(Water) xyzfile
|  2>
|  3> *xyzfile 0 1 D2.xyz
|  4>
|  5> %MaxCore 64000
|  6>
|  7> %pal nprocs 18
|  8> end
|  9>
| 10> %scf
| 11>   MaxIter 150
| 12> end
| 13>
| 14>
| 15>                          ****END OF INPUT****

CARTESIAN COORDINATES (ANGSTROEM)
---------------------------------
  C     -2.160376   -1.369486   -3.467104
  C     -3.030108   -1.910857   -4.541074
  C     -2.047717    0.146583   -3.511774
  C     -7.330440   -2.678991   -3.206811
  S     -6.019659   -2.926965   -4.419128
  H     -3.477443   -2.791513   -4.257096
  H     -2.538013   -2.017860   -5.438075
  H     -3.891589   -1.376039   -4.714365
  O     -5.645830   -1.588384   -4.919307
  F     -4.881961   -3.503697   -3.667235
  H     -1.184438   -1.843997   -3.566393
  H     -2.598195   -1.708376   -2.528477
  O     -6.549267   -3.805150   -5.425071
  C     -3.328755    0.875037   -3.103669
  H     -1.740034    0.452343   -4.517126
  H     -1.232611    0.434938   -2.842208
  C     -3.628487    0.771601   -1.609363
  H     -4.175106    0.490791   -3.682203
  H     -3.237812    1.928663   -3.381480
  C     -4.975718    1.361432   -1.190644
  H     -2.830700    1.276234   -1.054766
  H     -3.594312   -0.275838   -1.294603
  C     -6.184720    0.784347   -1.926464
  H     -4.956292    2.445725   -1.342200
  H     -5.097256    1.205252   -0.114136
  C     -6.286921   -0.735882   -1.893531
  H     -6.163994    1.100199   -2.974250
  H     -7.094530    1.223459   -1.504509
  C     -7.468999   -1.246153   -2.713833
  H     -6.360641   -1.090347   -0.859176
  H     -5.369848   -1.171853   -2.295982
  H     -7.601914   -0.601349   -3.585329
  H     -8.389791   -1.173436   -2.126922
  H     -7.118254   -3.379818   -2.398055
  H     -8.241838   -3.004745   -3.706513

 Total Charge           Charge          ....    0
 Multiplicity           Mult            ....    1
 Number of Electrons    NEL             ....  122
 Basis Dimension        Dim             ....  464

ORBITAL ENERGIES
----------------

  NO   OCC          E(Eh)            E(eV)
   0   2.0000     -89.240966     -2428.3701
   1   2.0000     -24.903673      -677.6634
   2   2.0000     -19.273372      -524.4551
   3   2.0000     -19.259184      -524.0690
   4   2.0000     -10.339751      -281.3589
   5   2.0000     -10.299890      -280.2743
   6   2.0000     -10.283658      -279.8326
   7   2.0000     -10.277889      -279.6756
   8   2.0000     -10.275875      -279.6208
   9   2.0000     -10.272922      -279.5404
  10   2.0000     -10.271636      -279.5054
  11   2.0000     -10.270624      -279.4779
  12   2.0000     -10.264158      -279.3019
  13   2.0000     -10.220172      -278.1050
  14   2.0000      -8.314084      -226.2377
  15   2.0000      -6.277704      -170.8250
  16   2.0000      -6.272007      -170.6700
  17   2.0000      -6.269735      -170.6082
  18   2.0000      -1.466921       -39.9169
  19   2.0000      -1.238617       -33.7045
  20   2.0000      -1.138579       -30.9823
  21   2.0000      -0.942417       -25.6445
  22   2.0000      -0.921567       -25.0771
  23   2.0000      -0.893846       -24.3228
  24   2.0000      -0.866810       -23.5871
  25   2.0000      -0.826934       -22.5020
  26   2.0000      -0.809991       -22.0410
  27   2.0000      -0.771480       -20.9930
  28   2.0000      -0.735509       -20.0142
  29   2.0000      -0.720163       -19.5966
  30   2.0000      -0.685273       -18.6472
  31   2.0000      -0.676911       -18.4197
  32   2.0000      -0.674125       -18.3439
  33   2.0000      -0.661570       -18.0022
  34   2.0000      -0.644058       -17.5257
  35   2.0000      -0.600340       -16.3361
  36   2.0000      -0.580606       -15.7991
  37   2.0000      -0.575827       -15.6691
  38   2.0000      -0.569929       -15.5086
  39   2.0000      -0.564291       -15.3551
  40   2.0000      -0.540571       -14.7097
  41   2.0000      -0.528845       -14.3906
  42   2.0000      -0.524670       -14.2770
  43   2.0000      -0.519534       -14.1372
  44   2.0000      -0.504126       -13.7180
  45   2.0000      -0.498737       -13.5713
  46   2.0000      -0.483525       -13.1574
  47   2.0000      -0.475315       -12.9340
  48   2.0000      -0.465670       -12.6715
  49   2.0000      -0.453566       -12.3422
  50   2.0000      -0.445585       -12.1250
  51   2.0000      -0.436861       -11.8876
  52   2.0000      -0.429848       -11.6968
  53   2.0000      -0.426812       -11.6141
  54   2.0000      -0.421142       -11.4599
  55   2.0000      -0.415310       -11.3012
  56   2.0000      -0.406024       -11.0485
  57   2.0000      -0.400759       -10.9052
  58   2.0000      -0.392419       -10.6783
  59   2.0000      -0.388916       -10.5829
  60   2.0000      -0.381473       -10.3804
  61   0.0000       0.074111         2.0167
  62   0.0000       0.091070         2.4781
  63   0.0000       0.098477         2.6797
  64   0.0000       0.101746         2.7687
  65   0.0000       0.108160         2.9432

MULLIKEN ATOMIC CHARGES
-----------------------
   0 C :    0.008291
   1 C :    1.925996
   2 C :    0.526993
   3 C :    0.295639
   4 S :    1.471802
   5 H :   -0.553152
   6 H :   -0.247966
   7 H :   -0.952940
   8 O :   -0.747578
   9 F :   -0.501000
  10 H :   -0.244832
  11 H :    0.006851
  12 O :   -0.766839
  13 C :    0.369032
  14 H :   -0.059803
  15 H :   -0.091052
  16 C :   -0.164482
  17 H :   -0.575987
  18 H :   -0.038419
  19 C :    0.648022
  20 H :   -0.309541
  21 H :    0.102514
  22 C :   -0.147348
  23 H :   -0.010051
  24 H :    0.024442
  25 C :    0.319563
  26 H :    0.200367
  27 H :   -0.370555
  28 C :    0.220621
  29 H :   -0.024822
  30 H :   -0.417079
  31 H :    0.111955
  32 H :   -0.140992
  33 H :    0.063672
  34 H :    0.068677
Sum of atomic charges:   -0.0000000

LOEWDIN ATOMIC CHARGES
----------------------
   0 C :   -0.044024
   1 C :    0.125054
   2 C :   -0.030814
   3 C :   -0.012141
   4 S :    1.173804
   5 H :   -0.090714
   6 H :   -0.012109
   7 H :   -0.120333
   8 O :   -0.478763
   9 F :   -0.266663
  10 H :    0.021854
  11 H :    0.012358
  12 O :   -0.478715
  13 C :   -0.021487
  14 H :    0.025838
  15 H :    0.018103
  16 C :   -0.037064
  17 H :   -0.003741
  18 H :    0.027624
  19 C :   -0.032177
  20 H :    0.024742
  21 H :    0.005285
  22 C :   -0.035688
  23 H :    0.023862
  24 H :    0.023781
  25 C :   -0.022986
  26 H :    0.019059
  27 H :    0.028936
  28 C :   -0.031132
  29 H :    0.042182
  30 H :   -0.002799
  31 H :    0.025696
  32 H :    0.046040
  33 H :    0.040612
  34 H :    0.036520

  Mayer bond orders larger than 0.100000
B(  0-C ,  1-C ) :   0.9935 B(  0-C ,  2-C ) :   1.1856 B(  0-C ,  5-H ) :   0.3723
B(  0-C ,  6-H ) :   0.1054 B(  0-C ,  7-H ) :   0.3889 B(  0-C , 10-H ) :   0.9172
B(  0-C , 11-H ) :   0.7610 B(  0-C , 14-H ) :   0.1416 B(  0-C , 15-H ) :   0.1724
B(  1-C ,  5-H ) :  -0.2616 B(  1-C ,  6-H ) :   0.6085 B(  1-C ,  7-H ) :  -0.5362
B(  1-C , 11-H ) :   0.2015 B(  2-C ,  7-H ) :  -0.1145 B(  2-C , 11-H ) :   0.1029
B(  2-C , 13-C ) :   1.1885 B(  2-C , 14-H ) :   0.7090 B(  2-C , 15-H ) :   0.7563
B(  2-C , 17-H ) :   0.1199 B(  3-C ,  4-S ) :   0.8989 B(  3-C , 12-O ) :   0.1135
B(  3-C , 28-C ) :   1.2623 B(  3-C , 31-H ) :   0.1015 B(  3-C , 33-H ) :   0.9161
B(  3-C , 34-H ) :   0.7749 B(  4-S ,  8-O ) :   1.4206 B(  4-S ,  9-F ) :   0.5780
B(  4-S , 12-O ) :   1.4767 B(  5-H ,  6-H ) :  -0.1399 B(  5-H ,  7-H ) :   0.8754
B(  5-H ,  9-F ) :   0.1892 B(  6-H ,  7-H ) :   0.1852 B(  7-H ,  9-F ) :   0.1225
B(  7-H , 17-H ) :   0.1636 B( 11-H , 21-H ) :   0.1032 B( 13-C , 14-H ) :   0.1960
B( 13-C , 15-H ) :   0.1478 B( 13-C , 16-C ) :   1.1589 B( 13-C , 17-H ) :   0.7673
B( 13-C , 18-H ) :   0.7528 B( 13-C , 20-H ) :   0.1827 B( 14-H , 15-H ) :  -0.1396
B( 16-C , 17-H ) :   0.2018 B( 16-C , 18-H ) :   0.1844 B( 16-C , 19-C ) :   1.1771
B( 16-C , 20-H ) :   1.0026 B( 16-C , 21-H ) :   0.8619 B( 16-C , 22-C ) :   0.1010
B( 16-C , 23-H ) :   0.1472 B( 16-C , 24-H ) :   0.2538 B( 17-H , 26-H ) :   0.1017
B( 19-C , 22-C ) :   1.1313 B( 19-C , 23-H ) :   0.6964 B( 19-C , 24-H ) :   0.6969
B( 22-C , 23-H ) :   0.2200 B( 22-C , 24-H ) :   0.1161 B( 22-C , 25-C ) :   1.2450
B( 22-C , 26-H ) :   0.7949 B( 22-C , 27-H ) :   1.0694 B( 22-C , 28-C ) :   0.1113
B( 22-C , 30-H ) :   0.1353 B( 23-H , 24-H ) :  -0.1007 B( 25-C , 26-H ) :   0.1010
B( 25-C , 27-H ) :   0.1763 B( 25-C , 28-C ) :   1.1300 B( 25-C , 29-H ) :   0.7250
B( 25-C , 30-H ) :   0.8156 B( 25-C , 32-H ) :   0.1911 B( 28-C , 29-H ) :   0.1235
B( 28-C , 31-H ) :   0.8476 B( 28-C , 32-H ) :   0.8601 B( 28-C , 34-H ) :   0.1914
B( 29-H , 30-H ) :   0.2769

Dispersion correction           -0.018521771
FINAL SINGLE POINT ENERGY     -1041.385694264677

DIPOLE MOMENT
-------------
                                X             Y             Z
Electronic contribution:     -9.82430     -19.66332     -10.45035
Nuclear contribution   :      8.71934      19.48829      12.54264
                        -----------------------------------------
Total Dipole Moment    :     -1.10496      -0.17503       2.09229
                        -----------------------------------------
Magnitude (a.u.)       :      2.37260
Magnitude (Debye)      :      6.03067

Rotational constants in cm-1:     0.025810     0.015137     0.010647
Rotational constants in MHz :   773.773140   453.802427   319.195213

                             ****ORCA TERMINATED NORMALLY****
TOTAL RUN TIME: 0 days 0 hours 1 minutes 23 seconds 530 msec
