                         Program Version 5.0.0 -  RELEASE  -
|  1> !wB97X-D3 RIJCOSX def2-SVPD def2/J TightSCF CPCM(Water) xyzfile
|  2>
|  3> *xyzfile 0 1 D3.xyz
|  4>
|  5> %MaxCore 64000
|  6>
|  7> %pal nprocs 18
|  8> end
|  9>
| 10> %scf
| 11>   MaxIter 150
| 12> end
| 13>
| 14>
| 15>                          ****END OF INPUT****

CARTESIAN COORDINATES (ANGSTROEM)
---------------------------------
  C     -2.160376   -1.369486   -3.467104
  C     -3.030108   -1.910857   -4.541074
  C     -2.047717    0.146583   -3.511774
  C     -7.330440   -2.678991   -3.206811
  S     -6.019659   -2.926965   -4.419128
  H     -3.477443   -2.791513   -4.257096
  H     -2.538013   -2.017860   -5.438075
  H     -3.891589   -1.376039   -4.714365
  O     -5.645830   -1.588384   -4.919307
  O     -4.881961   -3.503697   -3.667235
  H     -1.184438   -1.843997   -3.566393
  H     -2.598195   -1.708376   -2.528477
  F     -6.549267   -3.805150   -5.425071
  C     -3.328755    0.875037   -3.103669
  H     -1.740034    0.452343   -4.517126
  H     -1.232611    0.434938   -2.842208
  C     -3.628487    0.771601   -1.609363
  H     -4.175106    0.490791   -3.682203
  H     -3.237812    1.928663   -3.381480
  C     -4.975718    1.361432   -1.190644
  H     -2.830700    1.276234   -1.054766
  H     -3.594312   -0.275838   -1.294603
  C     -6.184720    0.784347   -1.926464
  H     -4.956292    2.445725   -1.342200
  H     -5.097256    1.205252   -0.114136
  C     -6.286921   -0.735882   -1.893531
  H     -6.163994    1.100199   -2.974250
  H     -7.094530    1.223459   -1.504509
  C     -7.468999   -1.246153   -2.713833
  H     -6.360641   -1.090347   -0.859176
  H     -5.369848   -1.171853   -2.295982
  H     -7.601914   -0.601349   -3.585329
  H     -8.389791   -1.173436   -2.126922
  H     -7.118254   -3.379818   -2.398055
  H     -8.241838   -3.004745   -3.706513

 Total Charge           Charge          ....    0
 Multiplicity           Mult            ....    1
 Number of Electrons    NEL             ....  122
 Basis Dimension        Dim             ....  464

ORBITAL ENERGIES
----------------

  NO   OCC          E(Eh)            E(eV)
   0   2.0000     -89.242933     -2428.4237
   1   2.0000     -24.921643      -678.1524
   2   2.0000     -19.259830      -524.0866
   3   2.0000     -19.257295      -524.0176
   4   2.0000     -10.339222      -281.3445
   5   2.0000     -10.300918      -280.3022
   6   2.0000     -10.281667      -279.7784
   7   2.0000     -10.277239      -279.6579
   8   2.0000     -10.275412      -279.6082
   9   2.0000     -10.272230      -279.5216
  10   2.0000     -10.270604      -279.4774
  11   2.0000     -10.268503      -279.4202
  12   2.0000     -10.259871      -279.1853
  13   2.0000     -10.205928      -277.7174
  14   2.0000      -8.315882      -226.2866
  15   2.0000      -6.279693      -170.8791
  16   2.0000      -6.273626      -170.7140
  17   2.0000      -6.271470      -170.6554
  18   2.0000      -1.495430       -40.6927
  19   2.0000      -1.225892       -33.3582
  20   2.0000      -1.122518       -30.5453
  21   2.0000      -0.941631       -25.6231
  22   2.0000      -0.920101       -25.0372
  23   2.0000      -0.891745       -24.2656
  24   2.0000      -0.867551       -23.6073
  25   2.0000      -0.831239       -22.6192
  26   2.0000      -0.807691       -21.9784
  27   2.0000      -0.770350       -20.9623
  28   2.0000      -0.734988       -20.0000
  29   2.0000      -0.717198       -19.5159
  30   2.0000      -0.698516       -19.0076
  31   2.0000      -0.685867       -18.6634
  32   2.0000      -0.670752       -18.2521
  33   2.0000      -0.662731       -18.0338
  34   2.0000      -0.642337       -17.4789
  35   2.0000      -0.596850       -16.2411
  36   2.0000      -0.584611       -15.9081
  37   2.0000      -0.578222       -15.7342
  38   2.0000      -0.566827       -15.4241
  39   2.0000      -0.563531       -15.3345
  40   2.0000      -0.547608       -14.9012
  41   2.0000      -0.527689       -14.3591
  42   2.0000      -0.518187       -14.1006
  43   2.0000      -0.515300       -14.0220
  44   2.0000      -0.505198       -13.7471
  45   2.0000      -0.489771       -13.3273
  46   2.0000      -0.480035       -13.0624
  47   2.0000      -0.473598       -12.8872
  48   2.0000      -0.458819       -12.4851
  49   2.0000      -0.450761       -12.2658
  50   2.0000      -0.438205       -11.9242
  51   2.0000      -0.432109       -11.7583
  52   2.0000      -0.431118       -11.7313
  53   2.0000      -0.425249       -11.5716
  54   2.0000      -0.417484       -11.3603
  55   2.0000      -0.412422       -11.2226
  56   2.0000      -0.399712       -10.8767
  57   2.0000      -0.396512       -10.7896
  58   2.0000      -0.387601       -10.5472
  59   2.0000      -0.380973       -10.3668
  60   2.0000      -0.367215        -9.9924
  61   0.0000       0.073567         2.0019
  62   0.0000       0.090762         2.4698
  63   0.0000       0.098283         2.6744
  64   0.0000       0.100502         2.7348
  65   0.0000       0.110777         3.0144

MULLIKEN ATOMIC CHARGES
-----------------------
   0 C :    0.005193
   1 C :    1.932755
   2 C :    0.539294
   3 C :    0.286692
   4 S :    1.643793
   5 H :   -0.568069
   6 H :   -0.229898
   7 H :   -1.011161
   8 O :   -0.745592
   9 O :   -0.763507
  10 H :   -0.264135
  11 H :   -0.002945
  12 F :   -0.562819
  13 C :    0.376535
  14 H :   -0.069599
  15 H :   -0.095831
  16 C :   -0.173256
  17 H :   -0.573424
  18 H :   -0.041701
  19 C :    0.649288
  20 H :   -0.317245
  21 H :    0.118379
  22 C :   -0.133925
  23 H :   -0.008310
  24 H :    0.021952
  25 C :    0.285262
  26 H :    0.200259
  27 H :   -0.375278
  28 C :    0.191559
  29 H :   -0.017203
  30 H :   -0.417589
  31 H :    0.116021
  32 H :   -0.140933
  33 H :    0.063146
  34 H :    0.082290
Sum of atomic charges:    0.0000000

LOEWDIN ATOMIC CHARGES
----------------------
   0 C :   -0.046294
   1 C :    0.115305
   2 C :   -0.033174
   3 C :   -0.015657
   4 S :    1.215559
   5 H :   -0.127483
   6 H :   -0.017709
   7 H :   -0.118808
   8 O :   -0.478424
   9 O :   -0.486154
  10 H :    0.019833
  11 H :    0.010463
  12 F :   -0.231484
  13 C :   -0.022073
  14 H :    0.024573
  15 H :    0.016565
  16 C :   -0.037331
  17 H :   -0.003799
  18 H :    0.026959
  19 C :   -0.032504
  20 H :    0.024359
  21 H :    0.005247
  22 C :   -0.036320
  23 H :    0.023594
  24 H :    0.023550
  25 C :   -0.021792
  26 H :    0.018839
  27 H :    0.028273
  28 C :   -0.026483
  29 H :    0.041957
  30 H :   -0.003400
  31 H :    0.025268
  32 H :    0.046469
  33 H :    0.039428
  34 H :    0.032645

  Mayer bond orders larger than 0.100000
B(  0-C ,  1-C ) :   0.9801 B(  0-C ,  2-C ) :   1.1812 B(  0-C ,  5-H ) :   0.3864
B(  0-C ,  6-H ) :   0.1233 B(  0-C ,  7-H ) :   0.3956 B(  0-C , 10-H ) :   0.9194
B(  0-C , 11-H ) :   0.7619 B(  0-C , 14-H ) :   0.1412 B(  0-C , 15-H ) :   0.1751
B(  1-C ,  5-H ) :  -0.2137 B(  1-C ,  6-H ) :   0.6192 B(  1-C ,  7-H ) :  -0.5954
B(  1-C , 11-H ) :   0.2183 B(  2-C ,  7-H ) :  -0.1087 B(  2-C , 13-C ) :   1.1865
B(  2-C , 14-H ) :   0.7106 B(  2-C , 15-H ) :   0.7475 B(  2-C , 17-H ) :   0.1252
B(  3-C ,  4-S ) :   0.9231 B(  3-C , 12-F ) :   0.1223 B(  3-C , 28-C ) :   1.2761
B(  3-C , 33-H ) :   0.9247 B(  3-C , 34-H ) :   0.7506 B(  4-S ,  8-O ) :   1.3298
B(  4-S ,  9-O ) :   1.3310 B(  4-S , 12-F ) :   0.5031 B(  5-H ,  6-H ) :  -0.1735
B(  5-H ,  7-H ) :   0.9402 B(  5-H ,  9-O ) :   0.1863 B(  6-H ,  7-H ) :   0.1613
B(  7-H ,  9-O ) :   0.1388 B(  7-H , 17-H ) :   0.1655 B( 11-H , 21-H ) :   0.1041
B( 13-C , 14-H ) :   0.1950 B( 13-C , 15-H ) :   0.1467 B( 13-C , 16-C ) :   1.1579
B( 13-C , 17-H ) :   0.7637 B( 13-C , 18-H ) :   0.7505 B( 13-C , 20-H ) :   0.1842
B( 14-H , 15-H ) :  -0.1417 B( 16-C , 17-H ) :   0.2021 B( 16-C , 18-H ) :   0.1865
B( 16-C , 19-C ) :   1.1760 B( 16-C , 20-H ) :   1.0095 B( 16-C , 21-H ) :   0.8588
B( 16-C , 22-C ) :   0.1025 B( 16-C , 23-H ) :   0.1496 B( 16-C , 24-H ) :   0.2528
B( 17-H , 26-H ) :   0.1009 B( 19-C , 22-C ) :   1.1315 B( 19-C , 23-H ) :   0.6950
B( 19-C , 24-H ) :   0.6979 B( 22-C , 23-H ) :   0.2222 B( 22-C , 24-H ) :   0.1159
B( 22-C , 25-C ) :   1.2431 B( 22-C , 26-H ) :   0.7948 B( 22-C , 27-H ) :   1.0644
B( 22-C , 28-C ) :   0.1130 B( 22-C , 29-H ) :   0.1025 B( 22-C , 30-H ) :   0.1230
B( 23-H , 24-H ) :  -0.1004 B( 25-C , 26-H ) :   0.1027 B( 25-C , 27-H ) :   0.1783
B( 25-C , 28-C ) :   1.1348 B( 25-C , 29-H ) :   0.7426 B( 25-C , 30-H ) :   0.8307
B( 25-C , 32-H ) :   0.1891 B( 28-C , 29-H ) :   0.1238 B( 28-C , 31-H ) :   0.8533
B( 28-C , 32-H ) :   0.8634 B( 28-C , 34-H ) :   0.2112 B( 29-H , 30-H ) :   0.2454

Dispersion correction           -0.018589015
FINAL SINGLE POINT ENERGY     -1041.367629788493

DIPOLE MOMENT
-------------
                                X             Y             Z
Electronic contribution:    -13.34244     -20.39442     -14.09619
Nuclear contribution   :     10.70731      19.84772      14.63855
                        -----------------------------------------
Total Dipole Moment    :     -2.63513      -0.54671       0.54236
                        -----------------------------------------
Magnitude (a.u.)       :      2.74535
Magnitude (Debye)      :      6.97813

Rotational constants in cm-1:     0.026014     0.014812     0.010477
Rotational constants in MHz :   779.874765   444.063394   314.081855

                             ****ORCA TERMINATED NORMALLY****
TOTAL RUN TIME: 0 days 0 hours 1 minutes 22 seconds 281 msec
