                         Program Version 5.0.0 -  RELEASE  -
|  1> !CAM-B3LYP RIJCOSX def2-SVPD def2/J TightSCF
|  2> *xyz -1 1
|  3> C         -0.98480        1.28474       -2.92869
|  4> C         -0.10608        1.76991       -4.08984
|  5> H         -0.34774        2.82220       -4.26294
|  6> H          0.94968        1.74588       -3.80878
|  7> C         -0.25875        1.00432       -5.40983
|  8> C          0.39596       -0.37070       -5.33994
|  9> H          0.23915        1.56939       -6.20125
| 10> H         -1.30936        0.88869       -5.68245
| 11> O         -0.32633       -1.39040       -5.49128
| 12> O          1.61941       -0.40073       -5.03683
| 13> H         -2.01317        1.31546       -3.22263
| 14> H         -0.83724        1.91975       -2.08023
| 15> H         -0.71656        0.28077       -2.67373
| 16> *
| 17> %MaxCore 64000
| 18>
| 19> %pal nprocs 4
| 20> end
| 21>
| 22> %scf
| 23>   MaxIter 150
| 24> end
| 25>
| 26>
| 27>                          ****END OF INPUT****

CARTESIAN COORDINATES (ANGSTROEM)
---------------------------------
  C     -0.984800    1.284740   -2.928690
  C     -0.106080    1.769910   -4.089840
  H     -0.347740    2.822200   -4.262940
  H      0.949680    1.745880   -3.808780
  C     -0.258750    1.004320   -5.409830
  C      0.395960   -0.370700   -5.339940
  H      0.239150    1.569390   -6.201250
  H     -1.309360    0.888690   -5.682450
  O     -0.326330   -1.390400   -5.491280
  O      1.619410   -0.400730   -5.036830
  H     -2.013170    1.315460   -3.222630
  H     -0.837240    1.919750   -2.080230
  H     -0.716560    0.280770   -2.673730

 Total Charge           Charge          ....   -1
 Multiplicity           Mult            ....    1
 Number of Electrons    NEL             ....   48
 Basis Dimension        Dim             ....  182

ORBITAL ENERGIES
----------------

  NO   OCC          E(Eh)            E(eV)
   0   2.0000     -18.955138      -515.7955
   1   2.0000     -18.953853      -515.7606
   2   2.0000     -10.150807      -276.2175
   3   2.0000     -10.111084      -275.1366
   4   2.0000     -10.110872      -275.1308
   5   2.0000     -10.088237      -274.5149
   6   2.0000      -0.896254       -24.3883
   7   2.0000      -0.799626       -21.7589
   8   2.0000      -0.716890       -19.5076
   9   2.0000      -0.622616       -16.9422
  10   2.0000      -0.520604       -14.1664
  11   2.0000      -0.404398       -11.0042
  12   2.0000      -0.377532       -10.2732
  13   2.0000      -0.359063        -9.7706
  14   2.0000      -0.330615        -8.9965
  15   2.0000      -0.307362        -8.3637
  16   2.0000      -0.289226        -7.8702
  17   2.0000      -0.277932        -7.5629
  18   2.0000      -0.260629        -7.0921
  19   2.0000      -0.244091        -6.6421
  20   2.0000      -0.232140        -6.3168
  21   2.0000      -0.116558        -3.1717
  22   2.0000      -0.113421        -3.0864
  23   2.0000      -0.098618        -2.6835
  24   0.0000       0.173344         4.7169
  25   0.0000       0.198414         5.3991
  26   0.0000       0.212842         5.7917
  27   0.0000       0.226745         6.1701
  28   0.0000       0.253085         6.8868

MULLIKEN ATOMIC CHARGES
-----------------------
   0 C :    0.867305
   1 C :   -0.312618
   2 H :   -0.200581
   3 H :   -0.085907
   4 C :    0.247837
   5 C :    0.369050
   6 H :   -0.080546
   7 H :   -0.087147
   8 O :   -0.656361
   9 O :   -0.706158
  10 H :   -0.082427
  11 H :   -0.148134
  12 H :   -0.124314
Sum of atomic charges:   -1.0000000

LOEWDIN ATOMIC CHARGES
----------------------
   0 C :    0.115908
   1 C :   -0.084703
   2 H :   -0.004083
   3 H :    0.009629
   4 C :    0.000759
   5 C :   -0.309862
   6 H :    0.010510
   7 H :    0.004043
   8 O :   -0.331186
   9 O :   -0.329092
  10 H :   -0.028338
  11 H :   -0.036972
  12 H :   -0.016615

  Mayer bond orders larger than 0.100000
B(  0-C ,  1-C ) :   1.2728 B(  0-C ,  2-H ) :   0.1011 B(  0-C , 10-H ) :   0.7508
B(  0-C , 11-H ) :   0.7222 B(  0-C , 12-H ) :   0.7950 B(  1-C ,  2-H ) :   0.9262
B(  1-C ,  3-H ) :   0.9146 B(  1-C ,  4-C ) :   1.2405 B(  1-C ,  6-H ) :   0.1506
B(  1-C ,  7-H ) :   0.1386 B(  1-C , 10-H ) :   0.2255 B(  1-C , 11-H ) :   0.2383
B(  1-C , 12-H ) :   0.2313 B(  2-H ,  4-C ) :   0.1062 B(  3-H ,  4-C ) :   0.1499
B(  4-C ,  5-C ) :   0.9870 B(  4-C ,  6-H ) :   0.8059 B(  4-C ,  7-H ) :   0.8690
B(  5-C ,  6-H ) :   0.1087 B(  5-C ,  7-H ) :   0.2166 B(  5-C ,  8-O ) :   1.5095
B(  5-C ,  9-O ) :   1.5123

FINAL SINGLE POINT ENERGY      -306.807496691986

DIPOLE MOMENT
-------------
                                X             Y             Z
Electronic contribution:      3.10431      -5.60451      -3.87128
Nuclear contribution   :     -4.15791       7.87420       4.69333
                        -----------------------------------------
Total Dipole Moment    :     -1.05360       2.26969       0.82205
                        -----------------------------------------
Magnitude (a.u.)       :      2.63389
Magnitude (Debye)      :      6.69480

Rotational constants in cm-1:     0.200385     0.078723     0.072676
Rotational constants in MHz :  6007.394681  2360.059351  2178.761275

                             ****ORCA TERMINATED NORMALLY****
TOTAL RUN TIME: 0 days 0 hours 0 minutes 27 seconds 725 msec
