                         Program Version 5.0.0 -  RELEASE  -
|  1> !CAM-B3LYP RIJCOSX def2-SVPD def2/J TightSCF
|  2> *xyz 1 1
|  3> C          0.81607       -2.10149       -2.18655
|  4> H          1.69623       -2.36869       -1.60046
|  5> N          1.10055       -2.46749       -3.59927
|  6> C          0.51624       -0.61363       -2.03937
|  7> H         -0.02007       -2.71285       -1.84084
|  8> C         -0.86862       -0.19392       -2.54630
|  9> H          1.70061       -1.75723       -4.07838
| 10> H          0.29386       -2.35977       -4.25632
| 11> H          1.50132       -3.42848       -3.69491
| 12> H          1.29904       -0.05680       -2.55898
| 13> H          0.61239       -0.36558       -0.97917
| 14> H         -0.95781       -0.43872       -3.58410
| 15> H         -0.99113        0.86113       -2.41690
| 16> H         -1.62334       -0.71130       -1.99167
| 17> *
| 18> %MaxCore 64000
| 19>
| 20> %pal nprocs 4
| 21> end
| 22>
| 23> %scf
| 24>   MaxIter 150
| 25> end
| 26>
| 27>
| 28>                          ****END OF INPUT****

CARTESIAN COORDINATES (ANGSTROEM)
---------------------------------
  C      0.816070   -2.101490   -2.186550
  H      1.696230   -2.368690   -1.600460
  N      1.100550   -2.467490   -3.599270
  C      0.516240   -0.613630   -2.039370
  H     -0.020070   -2.712850   -1.840840
  C     -0.868620   -0.193920   -2.546300
  H      1.700610   -1.757230   -4.078380
  H      0.293860   -2.359770   -4.256320
  H      1.501320   -3.428480   -3.694910
  H      1.299040   -0.056800   -2.558980
  H      0.612390   -0.365580   -0.979170
  H     -0.957810   -0.438720   -3.584100
  H     -0.991130    0.861130   -2.416900
  H     -1.623340   -0.711300   -1.991670

 Total Charge           Charge          ....    1
 Multiplicity           Mult            ....    1
 Number of Electrons    NEL             ....   34
 Basis Dimension        Dim             ....  160

ORBITAL ENERGIES
----------------

  NO   OCC          E(Eh)            E(eV)
   0   2.0000     -14.738794      -401.0630
   1   2.0000     -10.506338      -285.8920
   2   2.0000     -10.437937      -284.0307
   3   2.0000     -10.403029      -283.0808
   4   2.0000      -1.280519       -34.8447
   5   2.0000      -1.049785       -28.5661
   6   2.0000      -0.959595       -26.1119
   7   2.0000      -0.879365       -23.9287
   8   2.0000      -0.849886       -23.1266
   9   2.0000      -0.831528       -22.6270
  10   2.0000      -0.765091       -20.8192
  11   2.0000      -0.696192       -18.9443
  12   2.0000      -0.678141       -18.4532
  13   2.0000      -0.653498       -17.7826
  14   2.0000      -0.591014       -16.0823
  15   2.0000      -0.584638       -15.9088
  16   2.0000      -0.580429       -15.7943
  17   0.0000      -0.156922        -4.2701
  18   0.0000      -0.099653        -2.7117
  19   0.0000      -0.098542        -2.6815
  20   0.0000      -0.083249        -2.2653
  21   0.0000      -0.055916        -1.5215

MULLIKEN ATOMIC CHARGES
-----------------------
   0 C :    0.802720
   1 H :   -0.133928
   2 N :   -0.876809
   3 C :   -0.158850
   4 H :   -0.127765
   5 C :    0.960865
   6 H :    0.455877
   7 H :    0.331249
   8 H :    0.376268
   9 H :   -0.130921
  10 H :   -0.141173
  11 H :   -0.216340
  12 H :   -0.098795
  13 H :   -0.042396
Sum of atomic charges:    1.0000000

LOEWDIN ATOMIC CHARGES
----------------------
   0 C :    0.082273
   1 H :    0.052328
   2 N :    0.310799
   3 C :   -0.045035
   4 H :    0.055120
   5 C :    0.152611
   6 H :    0.111993
   7 H :    0.106889
   8 H :    0.122500
   9 H :    0.028433
  10 H :    0.045064
  11 H :   -0.025656
  12 H :    0.004334
  13 H :   -0.001653

  Mayer bond orders larger than 0.100000
B(  0-C ,  1-H ) :   0.8587 B(  0-C ,  2-N ) :   0.6661 B(  0-C ,  3-C ) :   1.1466
B(  0-C ,  4-H ) :   0.8572 B(  0-C , 10-H ) :   0.1259 B(  1-H ,  2-N ) :   0.1233
B(  2-N ,  4-H ) :   0.1490 B(  2-N ,  6-H ) :   0.6339 B(  2-N ,  7-H ) :   0.8136
B(  2-N ,  8-H ) :   0.7020 B(  3-C ,  5-C ) :   1.2445 B(  3-C ,  9-H ) :   0.9198
B(  3-C , 10-H ) :   0.9424 B(  3-C , 11-H ) :   0.1991 B(  3-C , 12-H ) :   0.2271
B(  3-C , 13-H ) :   0.1987 B(  5-C , 11-H ) :   0.7685 B(  5-C , 12-H ) :   0.7499
B(  5-C , 13-H ) :   0.7570

FINAL SINGLE POINT ENERGY      -174.622416599957

DIPOLE MOMENT
-------------
                                X             Y             Z
Electronic contribution:      1.49204      -1.84810      -0.70735
Nuclear contribution   :     -0.52914       0.42437      -0.52967
                        -----------------------------------------
Total Dipole Moment    :      0.96291      -1.42373      -1.23703
                        -----------------------------------------
Magnitude (a.u.)       :      2.11765
Magnitude (Debye)      :      5.38264

Rotational constants in cm-1:     0.462856     0.150885     0.132529
Rotational constants in MHz : 13876.083919  4523.416930  3973.119974

                             ****ORCA TERMINATED NORMALLY****
TOTAL RUN TIME: 0 days 0 hours 0 minutes 19 seconds 131 msec
