                         Program Version 5.0.0 -  RELEASE  -
|  1> !CAM-B3LYP RIJCOSX def2-SVPD def2/J TightSCF
|  2> *xyz 0 1
|  3> C         -0.98480        1.28474       -2.92869
|  4> C         -0.10608        1.76991       -4.08984
|  5> H         -0.34774        2.82220       -4.26294
|  6> H          0.94968        1.74588       -3.80878
|  7> C         -0.25875        1.00432       -5.40983
|  8> C          0.39596       -0.37070       -5.33994
|  9> H          0.23915        1.56939       -6.20125
| 10> H         -1.30936        0.88869       -5.68245
| 11> F         -0.32633       -1.39040       -5.49128
| 12> O          1.61941       -0.40073       -5.03683
| 13> H         -2.01317        1.31546       -3.22263
| 14> H         -0.83724        1.91975       -2.08023
| 15> H         -0.71656        0.28077       -2.67373
| 16> *
| 17> %MaxCore 64000
| 18>
| 19> %pal nprocs 4
| 20> end
| 21>
| 22> %scf
| 23>   MaxIter 150
| 24> end
| 25>
| 26>
| 27>                          ****END OF INPUT****

CARTESIAN COORDINATES (ANGSTROEM)
---------------------------------
  C     -0.984800    1.284740   -2.928690
  C     -0.106080    1.769910   -4.089840
  H     -0.347740    2.822200   -4.262940
  H      0.949680    1.745880   -3.808780
  C     -0.258750    1.004320   -5.409830
  C      0.395960   -0.370700   -5.339940
  H      0.239150    1.569390   -6.201250
  H     -1.309360    0.888690   -5.682450
  F     -0.326330   -1.390400   -5.491280
  O      1.619410   -0.400730   -5.036830
  H     -2.013170    1.315460   -3.222630
  H     -0.837240    1.919750   -2.080230
  H     -0.716560    0.280770   -2.673730

 Total Charge           Charge          ....    0
 Multiplicity           Mult            ....    1
 Number of Electrons    NEL             ....   48
 Basis Dimension        Dim             ....  182

ORBITAL ENERGIES
----------------

  NO   OCC          E(Eh)            E(eV)
   0   2.0000     -24.847438      -676.1332
   1   2.0000     -19.225782      -523.1601
   2   2.0000     -10.447460      -284.2899
   3   2.0000     -10.292621      -280.0765
   4   2.0000     -10.274552      -279.5848
   5   2.0000     -10.255612      -279.0694
   6   2.0000      -1.389684       -37.8152
   7   2.0000      -1.107549       -30.1379
   8   2.0000      -0.893193       -24.3050
   9   2.0000      -0.809017       -22.0145
  10   2.0000      -0.740698       -20.1554
  11   2.0000      -0.687249       -18.7010
  12   2.0000      -0.629071       -17.1179
  13   2.0000      -0.611657       -16.6440
  14   2.0000      -0.585208       -15.9243
  15   2.0000      -0.536320       -14.5940
  16   2.0000      -0.528045       -14.3688
  17   2.0000      -0.493170       -13.4198
  18   2.0000      -0.475909       -12.9501
  19   2.0000      -0.448640       -12.2081
  20   2.0000      -0.421663       -11.4740
  21   2.0000      -0.416104       -11.3228
  22   2.0000      -0.411236       -11.1903
  23   2.0000      -0.366583        -9.9752
  24   0.0000       0.010763         0.2929
  25   0.0000       0.043234         1.1765
  26   0.0000       0.069299         1.8857
  27   0.0000       0.077637         2.1126
  28   0.0000       0.085868         2.3366

MULLIKEN ATOMIC CHARGES
-----------------------
   0 C :    0.888958
   1 C :   -0.255452
   2 H :   -0.172871
   3 H :   -0.084382
   4 C :    0.185692
   5 C :    0.688724
   6 H :   -0.031873
   7 H :   -0.053701
   8 F :   -0.353196
   9 O :   -0.474349
  10 H :   -0.065942
  11 H :   -0.127396
  12 H :   -0.144210
Sum of atomic charges:    0.0000000

LOEWDIN ATOMIC CHARGES
----------------------
   0 C :    0.134104
   1 C :   -0.060445
   2 H :    0.022380
   3 H :    0.023983
   4 C :    0.043871
   5 C :   -0.011252
   6 H :    0.040978
   7 H :    0.025807
   8 F :   -0.033473
   9 O :   -0.136639
  10 H :   -0.017061
  11 H :   -0.015043
  12 H :   -0.017212

  Mayer bond orders larger than 0.100000
B(  0-C ,  1-C ) :   1.3003 B(  0-C , 10-H ) :   0.7436 B(  0-C , 11-H ) :   0.7290
B(  0-C , 12-H ) :   0.7906 B(  1-C ,  2-H ) :   0.9222 B(  1-C ,  3-H ) :   0.9096
B(  1-C ,  4-C ) :   1.2462 B(  1-C ,  6-H ) :   0.1439 B(  1-C ,  7-H ) :   0.1384
B(  1-C , 10-H ) :   0.2201 B(  1-C , 11-H ) :   0.2303 B(  1-C , 12-H ) :   0.2186
B(  2-H ,  4-C ) :   0.1049 B(  3-H ,  4-C ) :   0.1271 B(  4-C ,  5-C ) :   1.0543
B(  4-C ,  6-H ) :   0.8185 B(  4-C ,  7-H ) :   0.8790 B(  5-C ,  7-H ) :   0.1145
B(  5-C ,  8-F ) :   0.7616 B(  5-C ,  9-O ) :   1.8499 B(  8-F ,  9-O ) :   0.1076

FINAL SINGLE POINT ENERGY      -331.339872765451

DIPOLE MOMENT
-------------
                                X             Y             Z
Electronic contribution:      2.74438      -9.06231      -5.68007
Nuclear contribution   :     -3.72230       9.78546       5.57872
                        -----------------------------------------
Total Dipole Moment    :     -0.97793       0.72315      -0.10135
                        -----------------------------------------
Magnitude (a.u.)       :      1.22047
Magnitude (Debye)      :      3.10219

Rotational constants in cm-1:     0.192703     0.076176     0.069525
Rotational constants in MHz :  5777.081080  2283.698999  2084.312921

                             ****ORCA TERMINATED NORMALLY****
TOTAL RUN TIME: 0 days 0 hours 0 minutes 29 seconds 332 msec
