                         Program Version 5.0.0 -  RELEASE  -
|  1> !CAM-B3LYP RIJCOSX def2-SVPD def2/J TightSCF
|  2> *xyz 0 1
|  3> C          0.81607       -2.10149       -2.18655
|  4> H          1.69623       -2.36869       -1.60046
|  5> C          1.10055       -2.46749       -3.59927
|  6> C          0.51624       -0.61363       -2.03937
|  7> H         -0.02007       -2.71285       -1.84084
|  8> C         -0.86862       -0.19392       -2.54630
|  9> H          1.70061       -1.75723       -4.07838
| 10> H          0.29386       -2.35977       -4.25632
| 11> H          1.50132       -3.42848       -3.69491
| 12> H          1.29904       -0.05680       -2.55898
| 13> H          0.61239       -0.36558       -0.97917
| 14> H         -0.95781       -0.43872       -3.58410
| 15> H         -0.99113        0.86113       -2.41690
| 16> H         -1.62334       -0.71130       -1.99167
| 17> *
| 18> %MaxCore 64000
| 19>
| 20> %pal nprocs 4
| 21> end
| 22>
| 23> %scf
| 24>   MaxIter 150
| 25> end
| 26>
| 27>
| 28>                          ****END OF INPUT****

CARTESIAN COORDINATES (ANGSTROEM)
---------------------------------
  C      0.816070   -2.101490   -2.186550
  H      1.696230   -2.368690   -1.600460
  C      1.100550   -2.467490   -3.599270
  C      0.516240   -0.613630   -2.039370
  H     -0.020070   -2.712850   -1.840840
  C     -0.868620   -0.193920   -2.546300
  H      1.700610   -1.757230   -4.078380
  H      0.293860   -2.359770   -4.256320
  H      1.501320   -3.428480   -3.694910
  H      1.299040   -0.056800   -2.558980
  H      0.612390   -0.365580   -0.979170
  H     -0.957810   -0.438720   -3.584100
  H     -0.991130    0.861130   -2.416900
  H     -1.623340   -0.711300   -1.991670

 Total Charge           Charge          ....    0
 Multiplicity           Mult            ....    1
 Number of Electrons    NEL             ....   34
 Basis Dimension        Dim             ....  160

ORBITAL ENERGIES
----------------

  NO   OCC          E(Eh)            E(eV)
   0   2.0000     -10.247920      -278.8601
   1   2.0000     -10.245106      -278.7835
   2   2.0000     -10.239313      -278.6259
   3   2.0000     -10.225727      -278.2562
   4   2.0000      -0.878696       -23.9105
   5   2.0000      -0.802968       -21.8499
   6   2.0000      -0.717403       -19.5215
   7   2.0000      -0.643546       -17.5118
   8   2.0000      -0.534687       -14.5496
   9   2.0000      -0.528614       -14.3843
  10   2.0000      -0.492146       -13.3920
  11   2.0000      -0.462814       -12.5938
  12   2.0000      -0.452657       -12.3174
  13   2.0000      -0.421402       -11.4669
  14   2.0000      -0.392344       -10.6762
  15   2.0000      -0.386862       -10.5271
  16   2.0000      -0.379229       -10.3194
  17   0.0000       0.055409         1.5077
  18   0.0000       0.080239         2.1834
  19   0.0000       0.081674         2.2225
  20   0.0000       0.089296         2.4299
  21   0.0000       0.132648         3.6095

MULLIKEN ATOMIC CHARGES
-----------------------
   0 C :   -0.019534
   1 H :   -0.169778
   2 C :    1.084406
   3 C :   -0.180544
   4 H :   -0.138535
   5 C :    0.951028
   6 H :   -0.195282
   7 H :   -0.346913
   8 H :   -0.258725
   9 H :   -0.093076
  10 H :   -0.210606
  11 H :   -0.225130
  12 H :   -0.124201
  13 H :   -0.073111
Sum of atomic charges:    0.0000000

LOEWDIN ATOMIC CHARGES
----------------------
   0 C :   -0.079428
   1 H :    0.020961
   2 C :    0.108241
   3 C :   -0.080241
   4 H :    0.023722
   5 C :    0.128896
   6 H :   -0.029305
   7 H :   -0.035698
   8 H :   -0.022830
   9 H :    0.017437
  10 H :    0.014038
  11 H :   -0.027184
  12 H :   -0.020806
  13 H :   -0.017802

  Mayer bond orders larger than 0.100000
B(  0-C ,  1-H ) :   0.8926 B(  0-C ,  2-C ) :   1.2276 B(  0-C ,  3-C ) :   1.1811
B(  0-C ,  4-H ) :   0.8822 B(  0-C ,  6-H ) :   0.2046 B(  0-C ,  7-H ) :   0.2111
B(  0-C ,  8-H ) :   0.2382 B(  0-C ,  9-H ) :   0.1091 B(  0-C , 10-H ) :   0.1456
B(  2-C ,  4-H ) :   0.1304 B(  2-C ,  6-H ) :   0.6195 B(  2-C ,  7-H ) :   0.6083
B(  2-C ,  8-H ) :   0.6899 B(  3-C ,  4-H ) :   0.1086 B(  3-C ,  5-C ) :   1.2352
B(  3-C ,  9-H ) :   0.8901 B(  3-C , 10-H ) :   0.9435 B(  3-C , 11-H ) :   0.2188
B(  3-C , 12-H ) :   0.2264 B(  3-C , 13-H ) :   0.2142 B(  5-C , 11-H ) :   0.7787
B(  5-C , 12-H ) :   0.7205 B(  5-C , 13-H ) :   0.7527 B(  6-H ,  7-H ) :   0.3503

FINAL SINGLE POINT ENERGY      -158.227774549380

DIPOLE MOMENT
-------------
                                X             Y             Z
Electronic contribution:      0.32180      -0.06742       0.83001
Nuclear contribution   :     -0.30980       0.07990      -0.83209
                        -----------------------------------------
Total Dipole Moment    :      0.01200       0.01248      -0.00208
                        -----------------------------------------
Magnitude (a.u.)       :      0.01744
Magnitude (Debye)      :      0.04432

Rotational constants in cm-1:     0.470198     0.157622     0.138278
Rotational constants in MHz : 14096.185772  4725.380109  4145.481686

                             ****ORCA TERMINATED NORMALLY****
TOTAL RUN TIME: 0 days 0 hours 0 minutes 19 seconds 397 msec
