                         Program Version 5.0.0 -  RELEASE  -
|  1> !CAM-B3LYP RIJCOSX def2-SVPD def2/J TightSCF
|  2> *xyz 0 1
|  3> C         -0.98480        1.28474       -2.92869
|  4> C         -0.10608        1.76991       -4.08984
|  5> H         -0.34774        2.82220       -4.26294
|  6> H          0.94968        1.74588       -3.80878
|  7> C         -0.25875        1.00432       -5.40983
|  8> C          0.39596       -0.37070       -5.33994
|  9> H          0.23915        1.56939       -6.20125
| 10> H         -1.30936        0.88869       -5.68245
| 11> O         -0.32633       -1.39040       -5.49128
| 12> F          1.61941       -0.40073       -5.03683
| 13> H         -2.01317        1.31546       -3.22263
| 14> H         -0.83724        1.91975       -2.08023
| 15> H         -0.71656        0.28077       -2.67373
| 16> *
| 17> %MaxCore 64000
| 18>
| 19> %pal nprocs 4
| 20> end
| 21>
| 22> %scf
| 23>   MaxIter 150
| 24> end
| 25>
| 26>
| 27>                          ****END OF INPUT****

CARTESIAN COORDINATES (ANGSTROEM)
---------------------------------
  C     -0.984800    1.284740   -2.928690
  C     -0.106080    1.769910   -4.089840
  H     -0.347740    2.822200   -4.262940
  H      0.949680    1.745880   -3.808780
  C     -0.258750    1.004320   -5.409830
  C      0.395960   -0.370700   -5.339940
  H      0.239150    1.569390   -6.201250
  H     -1.309360    0.888690   -5.682450
  O     -0.326330   -1.390400   -5.491280
  F      1.619410   -0.400730   -5.036830
  H     -2.013170    1.315460   -3.222630
  H     -0.837240    1.919750   -2.080230
  H     -0.716560    0.280770   -2.673730

 Total Charge           Charge          ....    0
 Multiplicity           Mult            ....    1
 Number of Electrons    NEL             ....   48
 Basis Dimension        Dim             ....  182

ORBITAL ENERGIES
----------------

  NO   OCC          E(Eh)            E(eV)
   0   2.0000     -24.846436      -676.1059
   1   2.0000     -19.226351      -523.1756
   2   2.0000     -10.446472      -284.2630
   3   2.0000     -10.292311      -280.0680
   4   2.0000     -10.279813      -279.7279
   5   2.0000     -10.256390      -279.0906
   6   2.0000      -1.388477       -37.7824
   7   2.0000      -1.107292       -30.1309
   8   2.0000      -0.897464       -24.4212
   9   2.0000      -0.809362       -22.0239
  10   2.0000      -0.737389       -20.0654
  11   2.0000      -0.691213       -18.8089
  12   2.0000      -0.631319       -17.1791
  13   2.0000      -0.618792       -16.8382
  14   2.0000      -0.570988       -15.5374
  15   2.0000      -0.538442       -14.6518
  16   2.0000      -0.532327       -14.4853
  17   2.0000      -0.493946       -13.4410
  18   2.0000      -0.473017       -12.8715
  19   2.0000      -0.448047       -12.1920
  20   2.0000      -0.430560       -11.7161
  21   2.0000      -0.424524       -11.5519
  22   2.0000      -0.414341       -11.2748
  23   2.0000      -0.360970        -9.8225
  24   0.0000       0.014694         0.3999
  25   0.0000       0.041512         1.1296
  26   0.0000       0.069651         1.8953
  27   0.0000       0.080137         2.1806
  28   0.0000       0.080343         2.1863

MULLIKEN ATOMIC CHARGES
-----------------------
   0 C :    0.888280
   1 C :   -0.269294
   2 H :   -0.179063
   3 H :   -0.100189
   4 C :    0.209662
   5 C :    0.703384
   6 H :   -0.035018
   7 H :   -0.073251
   8 O :   -0.435193
   9 F :   -0.385237
  10 H :   -0.064576
  11 H :   -0.120342
  12 H :   -0.139163
Sum of atomic charges:   -0.0000000

LOEWDIN ATOMIC CHARGES
----------------------
   0 C :    0.136830
   1 C :   -0.067150
   2 H :    0.021674
   3 H :    0.019650
   4 C :    0.047172
   5 C :   -0.017095
   6 H :    0.036112
   7 H :    0.037286
   8 O :   -0.134440
   9 F :   -0.035161
  10 H :   -0.013146
  11 H :   -0.015690
  12 H :   -0.016042

  Mayer bond orders larger than 0.100000
B(  0-C ,  1-C ) :   1.3046 B(  0-C , 10-H ) :   0.7483 B(  0-C , 11-H ) :   0.7309
B(  0-C , 12-H ) :   0.7904 B(  1-C ,  2-H ) :   0.9410 B(  1-C ,  3-H ) :   0.8911
B(  1-C ,  4-C ) :   1.2236 B(  1-C ,  6-H ) :   0.1408 B(  1-C ,  7-H ) :   0.1220
B(  1-C , 10-H ) :   0.2227 B(  1-C , 11-H ) :   0.2297 B(  1-C , 12-H ) :   0.2207
B(  2-H ,  4-C ) :   0.1005 B(  3-H ,  4-C ) :   0.1182 B(  4-C ,  5-C ) :   1.0146
B(  4-C ,  6-H ) :   0.8178 B(  4-C ,  7-H ) :   0.9083 B(  5-C ,  7-H ) :   0.1503
B(  5-C ,  8-O ) :   1.8589 B(  5-C ,  9-F ) :   0.7342 B(  8-O ,  9-F ) :   0.1125

FINAL SINGLE POINT ENERGY      -331.341104814459

DIPOLE MOMENT
-------------
                                X             Y             Z
Electronic contribution:      6.03852      -7.35689      -4.89633
Nuclear contribution   :     -5.92016       8.66755       5.06539
                        -----------------------------------------
Total Dipole Moment    :      0.11837       1.31066       0.16906
                        -----------------------------------------
Magnitude (a.u.)       :      1.32681
Magnitude (Debye)      :      3.37249

Rotational constants in cm-1:     0.191324     0.076691     0.070269
Rotational constants in MHz :  5735.753800  2299.148675  2106.608556

                             ****ORCA TERMINATED NORMALLY****
TOTAL RUN TIME: 0 days 0 hours 0 minutes 28 seconds 988 msec
