                         Program Version 5.0.0 -  RELEASE  -
|  1> !CAM-B3LYP RIJCOSX def2-SVPD def2/J TightSCF xyzfile
|  2>
|  3> *xyzfile 0 1 D2.xyz
|  4>
|  5> %MaxCore 64000
|  6>
|  7> %pal nprocs 4
|  8> end
|  9>
| 10> %scf
| 11>   MaxIter 150
| 12> end
| 13>
| 14>
| 15>                          ****END OF INPUT****

CARTESIAN COORDINATES (ANGSTROEM)
---------------------------------
  C      0.816067   -2.101491   -2.186546
  H      1.696232   -2.368691   -1.600457
  C      1.100552   -2.467492   -3.599269
  C      0.516243   -0.613634   -2.039373
  H     -0.020066   -2.712849   -1.840844
  C     -0.868621   -0.193925   -2.546303
  C     -0.984801    1.284739   -2.928686
  H     -0.764939    1.904116   -2.051568
  H     -2.032613    1.478953   -3.178952
  C     -0.106085    1.769914   -4.089836
  H     -0.347744    2.822196   -4.262942
  H      0.949683    1.745875   -3.808781
  C     -0.258747    1.004323   -5.409829
  C      0.395958   -0.370696   -5.339939
  H      0.239150    1.569393   -6.201253
  H     -1.309360    0.888694   -5.682455
  H      1.700606   -1.757225   -4.078378
  H      0.293855   -2.359766   -4.256324
  H      1.501324   -3.428479   -3.694915
  O     -0.326329   -1.390398   -5.491279
  F      1.619412   -0.400726   -5.036827
  H     -1.607271   -0.412651   -1.768955
  H     -1.157234   -0.796164   -3.409254
  H      1.299044   -0.056805   -2.558982
  H      0.612393   -0.365579   -0.979171

 Total Charge           Charge          ....    0
 Multiplicity           Mult            ....    1
 Number of Electrons    NEL             ....   80
 Basis Dimension        Dim             ....  326

ORBITAL ENERGIES
----------------

  NO   OCC          E(Eh)            E(eV)
   0   2.0000     -24.855962      -676.3651
   1   2.0000     -19.231761      -523.3228
   2   2.0000     -10.454715      -284.4872
   3   2.0000     -10.294912      -280.1388
   4   2.0000     -10.277981      -279.6781
   5   2.0000     -10.261792      -279.2376
   6   2.0000     -10.248668      -278.8804
   7   2.0000     -10.244053      -278.7549
   8   2.0000     -10.231912      -278.4245
   9   2.0000     -10.184030      -277.1215
  10   2.0000      -1.403001       -38.1776
  11   2.0000      -1.121712       -30.5233
  12   2.0000      -0.908211       -24.7137
  13   2.0000      -0.873887       -23.7797
  14   2.0000      -0.823264       -22.4022
  15   2.0000      -0.783349       -21.3160
  16   2.0000      -0.743063       -20.2198
  17   2.0000      -0.714407       -19.4400
  18   2.0000      -0.677247       -18.4288
  19   2.0000      -0.642444       -17.4818
  20   2.0000      -0.636169       -17.3110
  21   2.0000      -0.621342       -16.9076
  22   2.0000      -0.586149       -15.9499
  23   2.0000      -0.553300       -15.0560
  24   2.0000      -0.529875       -14.4186
  25   2.0000      -0.516093       -14.0436
  26   2.0000      -0.511860       -13.9284
  27   2.0000      -0.501610       -13.6495
  28   2.0000      -0.488024       -13.2798
  29   2.0000      -0.462350       -12.5812
  30   2.0000      -0.454564       -12.3693
  31   2.0000      -0.446412       -12.1475
  32   2.0000      -0.436222       -11.8702
  33   2.0000      -0.417060       -11.3488
  34   2.0000      -0.398287       -10.8379
  35   2.0000      -0.396684       -10.7943
  36   2.0000      -0.382683       -10.4133
  37   2.0000      -0.367733       -10.0065
  38   2.0000      -0.366790        -9.9809
  39   2.0000      -0.332029        -9.0350
  40   0.0000       0.002932         0.0798
  41   0.0000       0.042758         1.1635
  42   0.0000       0.065701         1.7878
  43   0.0000       0.067341         1.8324
  44   0.0000       0.070598         1.9211

MULLIKEN ATOMIC CHARGES
-----------------------
   0 C :    0.325073
   1 H :   -0.175533
   2 C :    1.627471
   3 C :    0.331524
   4 H :   -0.244125
   5 C :    0.392854
   6 C :    0.484624
   7 H :   -0.150978
   8 H :   -0.006187
   9 C :    0.215939
  10 H :   -0.301088
  11 H :   -0.008939
  12 C :    0.431274
  13 C :    0.422826
  14 H :   -0.055685
  15 H :   -0.096134
  16 H :   -0.440270
  17 H :   -0.395694
  18 H :   -0.343882
  19 O :   -0.504612
  20 F :   -0.460410
  21 H :   -0.187647
  22 H :   -0.405209
  23 H :   -0.115846
  24 H :   -0.339346
Sum of atomic charges:   -0.0000000

LOEWDIN ATOMIC CHARGES
----------------------
   0 C :   -0.047855
   1 H :    0.019021
   2 C :    0.130512
   3 C :   -0.022663
   4 H :    0.024887
   5 C :   -0.012280
   6 C :   -0.022374
   7 H :    0.025371
   8 H :    0.023281
   9 C :   -0.020391
  10 H :    0.023999
  11 H :    0.013609
  12 C :    0.072200
  13 C :    0.023129
  14 H :    0.039286
  15 H :    0.042262
  16 H :   -0.074796
  17 H :   -0.101012
  18 H :   -0.012077
  19 O :   -0.130084
  20 F :   -0.040114
  21 H :    0.027194
  22 H :   -0.002090
  23 H :    0.002161
  24 H :    0.018824

  Mayer bond orders larger than 0.100000
B(  0-C ,  1-H ) :   0.7342 B(  0-C ,  2-C ) :   1.0128 B(  0-C ,  3-C ) :   1.1566
B(  0-C ,  4-H ) :   0.7692 B(  0-C , 16-H ) :   0.3136 B(  0-C , 17-H ) :   0.2445
B(  0-C , 18-H ) :   0.1938 B(  0-C , 23-H ) :   0.1729 B(  1-H ,  3-C ) :   0.2023
B(  1-H ,  4-H ) :  -0.1512 B(  2-C ,  3-C ) :   0.1580 B(  2-C ,  4-H ) :   0.1496
B(  2-C , 16-H ) :   0.2441 B(  2-C , 17-H ) :   0.2158 B(  2-C , 18-H ) :   0.5184
B(  2-C , 23-H ) :  -0.1803 B(  2-C , 24-H ) :   0.1232 B(  3-C ,  5-C ) :   1.1016
B(  3-C , 21-H ) :   0.2540 B(  3-C , 22-H ) :   0.1277 B(  3-C , 23-H ) :   0.7743
B(  3-C , 24-H ) :   0.8616 B(  5-C ,  6-C ) :   1.2020 B(  5-C ,  7-H ) :   0.1832
B(  5-C ,  8-H ) :   0.2369 B(  5-C ,  9-C ) :   0.1126 B(  5-C , 21-H ) :   0.7065
B(  5-C , 22-H ) :   0.7733 B(  5-C , 23-H ) :   0.1170 B(  5-C , 24-H ) :   0.2079
B(  6-C ,  7-H ) :   0.7826 B(  6-C ,  8-H ) :   0.6211 B(  6-C ,  9-C ) :   1.2138
B(  6-C , 10-H ) :   0.1636 B(  6-C , 11-H ) :   0.1031 B(  6-C , 21-H ) :   0.1218
B(  6-C , 22-H ) :   0.1039 B(  7-H ,  9-C ) :   0.1609 B(  8-H ,  9-C ) :   0.1602
B(  9-C , 10-H ) :   0.8703 B(  9-C , 11-H ) :   0.7917 B(  9-C , 12-C ) :   1.1714
B(  9-C , 14-H ) :   0.1833 B( 10-H , 11-H ) :  -0.1395 B( 10-H , 12-C ) :   0.1196
B( 12-C , 13-C ) :   1.1980 B( 12-C , 14-H ) :   0.6752 B( 12-C , 15-H ) :   0.8411
B( 13-C , 14-H ) :   0.1920 B( 13-C , 15-H ) :   0.2398 B( 13-C , 16-H ) :   0.1324
B( 13-C , 17-H ) :   0.1154 B( 13-C , 19-O ) :   1.8180 B( 13-C , 20-F ) :   0.6696
B( 16-H , 17-H ) :   0.4454 B( 16-H , 20-F ) :   0.1901 B( 16-H , 23-H ) :   0.2490
B( 16-H , 24-H ) :  -0.1897 B( 17-H , 19-O ) :   0.2018 B( 18-H , 23-H ) :  -0.1482
B( 19-O , 20-F ) :   0.1005 B( 23-H , 24-H ) :  -0.1211

FINAL SINGLE POINT ENERGY      -488.334125825409

DIPOLE MOMENT
-------------
                                X             Y             Z
Electronic contribution:      3.58990      -0.29065      -9.80302
Nuclear contribution   :     -3.57245       1.60200       9.69133
                        -----------------------------------------
Total Dipole Moment    :      0.01745       1.31135      -0.11169
                        -----------------------------------------
Magnitude (a.u.)       :      1.31621
Magnitude (Debye)      :      3.34554

Rotational constants in cm-1:     0.051520     0.042563     0.028962
Rotational constants in MHz :  1544.537298  1275.996546   868.258224

                             ****ORCA TERMINATED NORMALLY****
TOTAL RUN TIME: 0 days 0 hours 2 minutes 29 seconds 657 msec
