                         Program Version 5.0.0 -  RELEASE  -
|  1> !wB97X-D3 RIJCOSX def2-SVP def2/J TightSCF
|  2> *xyz -1 1
|  3> C         -5.57236       -5.80780       -0.81644
|  4> S         -6.90318       -4.61903       -0.52846
|  5> O         -8.11485       -5.25093       -0.95701
|  6> O         -6.53271       -3.42684       -1.31485
|  7> O         -6.86563       -4.29496        0.91412
|  8> C         -4.45780       -5.94187        0.22919
|  9> H         -5.17735       -5.54257       -1.79771
| 10> H         -6.07420       -6.76889       -0.92127
| 11> H         -3.75515       -6.68239       -0.09144
| 12> H         -4.88182       -6.23486        1.16689
| 13> H         -3.95908       -5.00189        0.34143
| 14> *
| 15> %MaxCore 64000
| 16>
| 17> %pal nprocs 4
| 18> end
| 19>
| 20> %scf
| 21>   MaxIter 150
| 22> end
| 23>
| 24>                          ****END OF INPUT****

CARTESIAN COORDINATES (ANGSTROEM)
---------------------------------
  C     -5.572360   -5.807800   -0.816440
  S     -6.903180   -4.619030   -0.528460
  O     -8.114850   -5.250930   -0.957010
  O     -6.532710   -3.426840   -1.314850
  O     -6.865630   -4.294960    0.914120
  C     -4.457800   -5.941870    0.229190
  H     -5.177350   -5.542570   -1.797710
  H     -6.074200   -6.768890   -0.921270
  H     -3.755150   -6.682390   -0.091440
  H     -4.881820   -6.234860    1.166890
  H     -3.959080   -5.001890    0.341430

 Total Charge           Charge          ....   -1
 Multiplicity           Mult            ....    1
 Number of Electrons    NEL             ....   58
 Basis Dimension        Dim             ....  113

ORBITAL ENERGIES
----------------

  NO   OCC          E(Eh)            E(eV)
   0   2.0000     -88.937475     -2420.1117
   1   2.0000     -18.994023      -516.8536
   2   2.0000     -18.978955      -516.4436
   3   2.0000     -18.976427      -516.3748
   4   2.0000     -10.145351      -276.0690
   5   2.0000     -10.138118      -275.8722
   6   2.0000      -8.018115      -218.1840
   7   2.0000      -5.977137      -162.6462
   8   2.0000      -5.976968      -162.6416
   9   2.0000      -5.976794      -162.6368
  10   2.0000      -1.017173       -27.6787
  11   2.0000      -0.872861       -23.7517
  12   2.0000      -0.847639       -23.0654
  13   2.0000      -0.735538       -20.0150
  14   2.0000      -0.609064       -16.5735
  15   2.0000      -0.468657       -12.7528
  16   2.0000      -0.413187       -11.2434
  17   2.0000      -0.399288       -10.8652
  18   2.0000      -0.363938        -9.9033
  19   2.0000      -0.341754        -9.2996
  20   2.0000      -0.336934        -9.1684
  21   2.0000      -0.311319        -8.4714
  22   2.0000      -0.305282        -8.3071
  23   2.0000      -0.216762        -5.8984
  24   2.0000      -0.216389        -5.8883
  25   2.0000      -0.183182        -4.9846
  26   2.0000      -0.171526        -4.6675
  27   2.0000      -0.165263        -4.4970
  28   2.0000      -0.126984        -3.4554
  29   0.0000       0.283558         7.7160
  30   0.0000       0.340978         9.2785
  31   0.0000       0.344485         9.3739
  32   0.0000       0.350249         9.5308
  33   0.0000       0.370881        10.0922

MULLIKEN ATOMIC CHARGES
-----------------------
   0 C :   -0.145494
   1 S :    0.892526
   2 O :   -0.572870
   3 O :   -0.624049
   4 O :   -0.617831
   5 C :    0.000346
   6 H :    0.022984
   7 H :    0.014943
   8 H :   -0.018139
   9 H :    0.023694
  10 H :    0.023891
Sum of atomic charges:   -1.0000000

LOEWDIN ATOMIC CHARGES
----------------------
   0 C :   -0.193452
   1 S :    1.107413
   2 O :   -0.602326
   3 O :   -0.653677
   4 O :   -0.651124
   5 C :   -0.070383
   6 H :    0.011948
   7 H :    0.008169
   8 H :    0.004046
   9 H :    0.019340
  10 H :    0.020047

  Mayer bond orders larger than 0.100000
B(  0-C ,  1-S ) :   0.8817 B(  0-C ,  5-C ) :   1.0657 B(  0-C ,  6-H ) :   0.9495
B(  0-C ,  7-H ) :   0.9508 B(  1-S ,  2-O ) :   1.6542 B(  1-S ,  3-O ) :   1.6005
B(  1-S ,  4-O ) :   1.6101 B(  5-C ,  8-H ) :   0.9658 B(  5-C ,  9-H ) :   0.9709
B(  5-C , 10-H ) :   0.9730

Dispersion correction           -0.002821806
FINAL SINGLE POINT ENERGY      -702.631886457919

DIPOLE MOMENT
-------------
                                X             Y             Z
Electronic contribution:     -6.73566       4.35338      -0.91382
Nuclear contribution   :      8.13140      -5.68016       0.80206
                        -----------------------------------------
Total Dipole Moment    :      1.39575      -1.32678      -0.11176
                        -----------------------------------------
Magnitude (a.u.)       :      1.92897
Magnitude (Debye)      :      4.90306

Rotational constants in cm-1:     0.162101     0.080498     0.079099
Rotational constants in MHz :  4859.669771  2413.267251  2371.338602

                             ****ORCA TERMINATED NORMALLY****
TOTAL RUN TIME: 0 days 0 hours 0 minutes 17 seconds 638 msec
