                         Program Version 5.0.0 -  RELEASE  -
|  1> !wB97X-D3 RIJCOSX def2-SVP def2/J TightSCF
|  2> *xyz 1 1
|  3> C         -4.38262       -1.67089        1.21620
|  4> N         -5.76354       -1.91517        0.70501
|  5> C         -3.28173       -2.19127        0.29436
|  6> H         -5.84081       -2.11520       -0.30065
|  7> H         -6.40882       -1.14866        0.93612
|  8> H         -6.17478       -2.79061        1.05143
|  9> H         -4.32862       -2.13922        2.19810
| 10> H         -4.26158       -0.59740        1.35725
| 11> H         -3.36057       -1.71407       -0.66008
| 12> H         -3.38775       -3.24919        0.17403
| 13> H         -2.32559       -1.97514        0.72329
| 14> *
| 15> %MaxCore 64000
| 16>
| 17> %pal nprocs 4
| 18> end
| 19>
| 20> %scf
| 21>   MaxIter 150
| 22> end
| 23>
| 24>                          ****END OF INPUT****

CARTESIAN COORDINATES (ANGSTROEM)
---------------------------------
  C     -4.382620   -1.670890    1.216200
  N     -5.763540   -1.915170    0.705010
  C     -3.281730   -2.191270    0.294360
  H     -5.840810   -2.115200   -0.300650
  H     -6.408820   -1.148660    0.936120
  H     -6.174780   -2.790610    1.051430
  H     -4.328620   -2.139220    2.198100
  H     -4.261580   -0.597400    1.357250
  H     -3.360570   -1.714070   -0.660080
  H     -3.387750   -3.249190    0.174030
  H     -2.325590   -1.975140    0.723290

 Total Charge           Charge          ....    1
 Multiplicity           Mult            ....    1
 Number of Electrons    NEL             ....   26
 Basis Dimension        Dim             ....   82

ORBITAL ENERGIES
----------------

  NO   OCC          E(Eh)            E(eV)
   0   2.0000     -14.776984      -402.1022
   1   2.0000     -10.543578      -286.9053
   2   2.0000     -10.463525      -284.7270
   3   2.0000      -1.327164       -36.1140
   4   2.0000      -1.077243       -29.3133
   5   2.0000      -0.956845       -26.0371
   6   2.0000      -0.902794       -24.5663
   7   2.0000      -0.881557       -23.9884
   8   2.0000      -0.804560       -21.8932
   9   2.0000      -0.740742       -20.1566
  10   2.0000      -0.680021       -18.5043
  11   2.0000      -0.662152       -18.0181
  12   2.0000      -0.643055       -17.4984
  13   0.0000      -0.093699        -2.5497
  14   0.0000      -0.040168        -1.0930
  15   0.0000      -0.034688        -0.9439
  16   0.0000      -0.001771        -0.0482
  17   0.0000       0.041557         1.1308

MULLIKEN ATOMIC CHARGES
-----------------------
   0 C :   -0.054939
   1 N :   -0.025293
   2 C :   -0.072733
   3 H :    0.211537
   4 H :    0.230074
   5 H :    0.217307
   6 H :    0.116493
   7 H :    0.116906
   8 H :    0.076440
   9 H :    0.073410
  10 H :    0.110799
Sum of atomic charges:    1.0000000

LOEWDIN ATOMIC CHARGES
----------------------
   0 C :    0.050430
   1 N :    0.284306
   2 C :   -0.042387
   3 H :    0.145877
   4 H :    0.151861
   5 H :    0.149237
   6 H :    0.056479
   7 H :    0.056972
   8 H :    0.041449
   9 H :    0.040300
  10 H :    0.065476

  Mayer bond orders larger than 0.100000
B(  0-C ,  1-N ) :   0.8871 B(  0-C ,  2-C ) :   1.0878 B(  0-C ,  6-H ) :   0.9569
B(  0-C ,  7-H ) :   0.9587 B(  1-N ,  3-H ) :   0.9329 B(  1-N ,  4-H ) :   0.9313
B(  1-N ,  5-H ) :   0.9341 B(  2-C ,  8-H ) :   0.9691 B(  2-C ,  9-H ) :   0.9731
B(  2-C , 10-H ) :   0.9600

Dispersion correction           -0.001548224
FINAL SINGLE POINT ENERGY      -135.397086521646

DIPOLE MOMENT
-------------
                                X             Y             Z
Electronic contribution:     -1.86865       0.23846       0.30078
Nuclear contribution   :      0.19437      -0.25358      -0.32106
                        -----------------------------------------
Total Dipole Moment    :     -1.67428      -0.01512      -0.02029
                        -----------------------------------------
Magnitude (a.u.)       :      1.67447
Magnitude (Debye)      :      4.25617

Rotational constants in cm-1:     1.030014     0.272489     0.242697
Rotational constants in MHz : 30879.030706  8169.007780  7275.865152

                             ****ORCA TERMINATED NORMALLY****
TOTAL RUN TIME: 0 days 0 hours 0 minutes 11 seconds 701 msec
