                         Program Version 5.0.0 -  RELEASE  -
|  1> !wB97X-D3 RIJCOSX def2-SVP def2/J TightSCF xyzfile
|  2>
|  3> *xyzfile 0 1 B.xyz
|  4>
|  5> %MaxCore 64000
|  6>
|  7> %pal nprocs 18
|  8> end
|  9>
| 10> %scf
| 11>   MaxIter 150
| 12> end
| 13>
| 14>
| 15>                          ****END OF INPUT****

CARTESIAN COORDINATES (ANGSTROEM)
---------------------------------
  C     -4.382623   -1.670889    1.216201
  N     -5.763539   -1.915170    0.705012
  C     -3.281728   -2.191272    0.294361
  C     -5.572364   -5.807798   -0.816445
  S     -6.903179   -4.619033   -0.528458
  H     -5.840812   -2.115205   -0.300646
  H     -6.408823   -1.148656    0.936124
  H     -6.174781   -2.790606    1.051433
  O     -8.114853   -5.250932   -0.957007
  O     -6.532715   -3.426838   -1.314848
  H     -4.328618   -2.139223    2.198103
  H     -4.261583   -0.597399    1.357248
  O     -6.865632   -4.294957    0.914118
  C     -3.474641   -3.605898   -0.259608
  H     -2.354548   -2.127602    0.871433
  H     -3.166611   -1.499693   -0.545037
  C     -3.827078   -4.661097    0.786174
  H     -2.560559   -3.889391   -0.788050
  H     -4.255932   -3.570040   -1.019300
  C     -4.457800   -5.941875    0.229195
  H     -5.177347   -5.542575   -1.797714
  H     -6.074202   -6.768894   -0.921272
  H     -4.530506   -4.253640    1.511979
  H     -2.933400   -4.932302    1.356825
  H     -3.681064   -6.562236   -0.229885
  H     -4.843942   -6.512728    1.075805

 Total Charge           Charge          ....    0
 Multiplicity           Mult            ....    1
 Number of Electrons    NEL             ....   98
 Basis Dimension        Dim             ....  233

ORBITAL ENERGIES
----------------

  NO   OCC          E(Eh)            E(eV)
   0   2.0000     -89.122731     -2425.1528
   1   2.0000     -19.183477      -522.0089
   2   2.0000     -19.179658      -521.9050
   3   2.0000     -19.163970      -521.4781
   4   2.0000     -14.544150      -395.7664
   5   2.0000     -10.378133      -282.4034
   6   2.0000     -10.324083      -280.9326
   7   2.0000     -10.297684      -280.2142
   8   2.0000     -10.292215      -280.0654
   9   2.0000     -10.291401      -280.0433
  10   2.0000     -10.288882      -279.9747
  11   2.0000      -8.203926      -223.2402
  12   2.0000      -6.163671      -167.7220
  13   2.0000      -6.162728      -167.6964
  14   2.0000      -6.161659      -167.6673
  15   2.0000      -1.209040       -32.8997
  16   2.0000      -1.116852       -30.3911
  17   2.0000      -1.058142       -28.7935
  18   2.0000      -1.054206       -28.6864
  19   2.0000      -0.943128       -25.6638
  20   2.0000      -0.901678       -24.5359
  21   2.0000      -0.850850       -23.1528
  22   2.0000      -0.798387       -21.7252
  23   2.0000      -0.743346       -20.2275
  24   2.0000      -0.706395       -19.2220
  25   2.0000      -0.690615       -18.7926
  26   2.0000      -0.679653       -18.4943
  27   2.0000      -0.637184       -17.3386
  28   2.0000      -0.611691       -16.6450
  29   2.0000      -0.591754       -16.1024
  30   2.0000      -0.585263       -15.9258
  31   2.0000      -0.569705       -15.5025
  32   2.0000      -0.547200       -14.8901
  33   2.0000      -0.536027       -14.5860
  34   2.0000      -0.527777       -14.3615
  35   2.0000      -0.518273       -14.1029
  36   2.0000      -0.510578       -13.8935
  37   2.0000      -0.483006       -13.1433
  38   2.0000      -0.470893       -12.8136
  39   2.0000      -0.466446       -12.6926
  40   2.0000      -0.438493       -11.9320
  41   2.0000      -0.430535       -11.7154
  42   2.0000      -0.422144       -11.4871
  43   2.0000      -0.409288       -11.1373
  44   2.0000      -0.401530       -10.9262
  45   2.0000      -0.364912        -9.9298
  46   2.0000      -0.358298        -9.7498
  47   2.0000      -0.348503        -9.4833
  48   2.0000      -0.325597        -8.8599
  49   0.0000       0.090408         2.4601
  50   0.0000       0.134366         3.6563
  51   0.0000       0.144558         3.9336
  52   0.0000       0.147059         4.0017
  53   0.0000       0.169964         4.6250

MULLIKEN ATOMIC CHARGES
-----------------------
   0 C :    0.012344
   1 N :   -0.019272
   2 C :   -0.050853
   3 C :   -0.126333
   4 S :    0.907222
   5 H :    0.182770
   6 H :    0.180241
   7 H :    0.169628
   8 O :   -0.489852
   9 O :   -0.592721
  10 H :    0.075757
  11 H :    0.059412
  12 O :   -0.584680
  13 C :   -0.081637
  14 H :    0.046645
  15 H :    0.046518
  16 C :   -0.055838
  17 H :    0.034272
  18 H :    0.043142
  19 C :   -0.004924
  20 H :    0.067028
  21 H :    0.071664
  22 H :    0.018024
  23 H :    0.020952
  24 H :    0.028528
  25 H :    0.041964
Sum of atomic charges:   -0.0000000

LOEWDIN ATOMIC CHARGES
----------------------
   0 C :    0.043065
   1 N :    0.256616
   2 C :   -0.042972
   3 C :   -0.173759
   4 S :    1.138312
   5 H :    0.086843
   6 H :    0.122555
   7 H :    0.061071
   8 O :   -0.533125
   9 O :   -0.591310
  10 H :    0.036756
  11 H :    0.034059
  12 O :   -0.573596
  13 C :   -0.053428
  14 H :    0.037261
  15 H :    0.032273
  16 C :   -0.051783
  17 H :    0.031309
  18 H :    0.019113
  19 C :   -0.043180
  20 H :    0.028804
  21 H :    0.037232
  22 H :    0.012415
  23 H :    0.024464
  24 H :    0.028077
  25 H :    0.032927

  Mayer bond orders larger than 0.100000
B(  0-C ,  1-N ) :   0.9589 B(  0-C ,  2-C ) :   1.0752 B(  0-C , 10-H ) :   0.9538
B(  0-C , 11-H ) :   0.9623 B(  1-N ,  5-H ) :   0.8665 B(  1-N ,  6-H ) :   0.9428
B(  1-N ,  7-H ) :   0.8339 B(  2-C , 13-C ) :   1.0823 B(  2-C , 14-H ) :   0.9453
B(  2-C , 15-H ) :   0.9490 B(  3-C ,  4-S ) :   0.8922 B(  3-C , 19-C ) :   1.0527
B(  3-C , 20-H ) :   0.9388 B(  3-C , 21-H ) :   0.9420 B(  4-S ,  8-O ) :   1.7556
B(  4-S ,  9-O ) :   1.4644 B(  4-S , 12-O ) :   1.4381 B(  5-H ,  9-O ) :   0.1467
B(  7-H , 12-O ) :   0.2112 B( 13-C , 16-C ) :   1.0484 B( 13-C , 17-H ) :   0.9432
B( 13-C , 18-H ) :   0.9294 B( 16-C , 19-C ) :   1.0805 B( 16-C , 22-H ) :   0.9391
B( 16-C , 23-H ) :   0.9435 B( 19-C , 24-H ) :   0.9464 B( 19-C , 25-H ) :   0.9488

Dispersion correction           -0.013284279
FINAL SINGLE POINT ENERGY      -915.592281130410

DIPOLE MOMENT
-------------
                                X             Y             Z
Electronic contribution:    -13.63960      -2.85501      -3.66634
Nuclear contribution   :     16.18863       5.15617       4.97370
                        -----------------------------------------
Total Dipole Moment    :      2.54903       2.30116       1.30736
                        -----------------------------------------
Magnitude (a.u.)       :      3.67452
Magnitude (Debye)      :      9.33988

Rotational constants in cm-1:     0.048546     0.025588     0.020102
Rotational constants in MHz :  1455.374030   767.095631   602.645620

                             ****ORCA TERMINATED NORMALLY****
TOTAL RUN TIME: 0 days 0 hours 0 minutes 28 seconds 57 msec
