                         Program Version 5.0.0 -  RELEASE  -
|  1> !wB97X-D3 RIJCOSX def2-SVP def2/J TightSCF
|  2> *xyz 0 1
|  3> C         -5.57236       -5.80780       -0.81644
|  4> S         -6.90318       -4.61903       -0.52846
|  5> F         -8.11485       -5.25093       -0.95701
|  6> O         -6.53271       -3.42684       -1.31485
|  7> O         -6.86563       -4.29496        0.91412
|  8> C         -4.45780       -5.94187        0.22919
|  9> H         -5.17735       -5.54257       -1.79771
| 10> H         -6.07420       -6.76889       -0.92127
| 11> H         -3.75515       -6.68239       -0.09144
| 12> H         -4.88182       -6.23486        1.16689
| 13> H         -3.95908       -5.00189        0.34143
| 14> *
| 15> %MaxCore 64000
| 16>
| 17> %pal nprocs 4
| 18> end
| 19>
| 20> %scf
| 21>   MaxIter 150
| 22> end
| 23>
| 24>                          ****END OF INPUT****

CARTESIAN COORDINATES (ANGSTROEM)
---------------------------------
  C     -5.572360   -5.807800   -0.816440
  S     -6.903180   -4.619030   -0.528460
  F     -8.114850   -5.250930   -0.957010
  O     -6.532710   -3.426840   -1.314850
  O     -6.865630   -4.294960    0.914120
  C     -4.457800   -5.941870    0.229190
  H     -5.177350   -5.542570   -1.797710
  H     -6.074200   -6.768890   -0.921270
  H     -3.755150   -6.682390   -0.091440
  H     -4.881820   -6.234860    1.166890
  H     -3.959080   -5.001890    0.341430

 Total Charge           Charge          ....    0
 Multiplicity           Mult            ....    1
 Number of Electrons    NEL             ....   58
 Basis Dimension        Dim             ....  113

ORBITAL ENERGIES
----------------

  NO   OCC          E(Eh)            E(eV)
   0   2.0000     -89.213028     -2427.6099
   1   2.0000     -24.913389      -677.9278
   2   2.0000     -19.231536      -523.3167
   3   2.0000     -19.230547      -523.2898
   4   2.0000     -10.350732      -281.6577
   5   2.0000     -10.311555      -280.5917
   6   2.0000      -8.296117      -225.7488
   7   2.0000      -6.259296      -170.3241
   8   2.0000      -6.252423      -170.1371
   9   2.0000      -6.251499      -170.1119
  10   2.0000      -1.497523       -40.7497
  11   2.0000      -1.202960       -32.7342
  12   2.0000      -1.097176       -29.8557
  13   2.0000      -0.933910       -25.4130
  14   2.0000      -0.846153       -23.0250
  15   2.0000      -0.786833       -21.4108
  16   2.0000      -0.697051       -18.9677
  17   2.0000      -0.694396       -18.8955
  18   2.0000      -0.653448       -17.7812
  19   2.0000      -0.595084       -16.1930
  20   2.0000      -0.575855       -15.6698
  21   2.0000      -0.537276       -14.6200
  22   2.0000      -0.521837       -14.1999
  23   2.0000      -0.502402       -13.6711
  24   2.0000      -0.485921       -13.2226
  25   2.0000      -0.468789       -12.7564
  26   2.0000      -0.409250       -11.1363
  27   2.0000      -0.407044       -11.0762
  28   2.0000      -0.383728       -10.4418
  29   0.0000       0.116069         3.1584
  30   0.0000       0.125829         3.4240
  31   0.0000       0.158414         4.3107
  32   0.0000       0.170799         4.6477
  33   0.0000       0.184328         5.0158

MULLIKEN ATOMIC CHARGES
-----------------------
   0 C :   -0.189573
   1 S :    0.968525
   2 F :   -0.164617
   3 O :   -0.480047
   4 O :   -0.478108
   5 C :   -0.006476
   6 H :    0.098470
   7 H :    0.071740
   8 H :    0.052860
   9 H :    0.060311
  10 H :    0.066917
Sum of atomic charges:   -0.0000000

LOEWDIN ATOMIC CHARGES
----------------------
   0 C :   -0.157423
   1 S :    1.164941
   2 F :   -0.107922
   3 O :   -0.520734
   4 O :   -0.521424
   5 C :   -0.044865
   6 H :    0.044489
   7 H :    0.030700
   8 H :    0.037933
   9 H :    0.035821
  10 H :    0.038484

  Mayer bond orders larger than 0.100000
B(  0-C ,  1-S ) :   0.9055 B(  0-C ,  5-C ) :   1.0670 B(  0-C ,  6-H ) :   0.9371
B(  0-C ,  7-H ) :   0.9390 B(  1-S ,  2-F ) :   1.0383 B(  1-S ,  3-O ) :   1.7499
B(  1-S ,  4-O ) :   1.7562 B(  5-C ,  8-H ) :   0.9649 B(  5-C ,  9-H ) :   0.9708
B(  5-C , 10-H ) :   0.9743

Dispersion correction           -0.002828600
FINAL SINGLE POINT ENERGY      -727.125936524584

DIPOLE MOMENT
-------------
                                X             Y             Z
Electronic contribution:     -9.43508       3.55808      -1.87257
Nuclear contribution   :      9.80704      -5.24335       1.35017
                        -----------------------------------------
Total Dipole Moment    :      0.37195      -1.68527      -0.52240
                        -----------------------------------------
Magnitude (a.u.)       :      1.80316
Magnitude (Debye)      :      4.58326

Rotational constants in cm-1:     0.156316     0.078308     0.076228
Rotational constants in MHz :  4686.224999  2347.601204  2285.245115

                             ****ORCA TERMINATED NORMALLY****
TOTAL RUN TIME: 0 days 0 hours 0 minutes 18 seconds 13 msec
