                         Program Version 5.0.0 -  RELEASE  -
|  1> !wB97X-D3 RIJCOSX def2-SVP def2/J TightSCF
|  2> *xyz 0 1
|  3> C         -4.38262       -1.67089        1.21620
|  4> C         -5.76354       -1.91517        0.70501
|  5> C         -3.28173       -2.19127        0.29436
|  6> H         -5.84081       -2.11520       -0.30065
|  7> H         -6.40882       -1.14866        0.93612
|  8> H         -6.17478       -2.79061        1.05143
|  9> H         -4.32862       -2.13922        2.19810
| 10> H         -4.26158       -0.59740        1.35725
| 11> H         -3.36057       -1.71407       -0.66008
| 12> H         -3.38775       -3.24919        0.17403
| 13> H         -2.32559       -1.97514        0.72329
| 14> *
| 15> %MaxCore 64000
| 16>
| 17> %pal nprocs 4
| 18> end
| 19>
| 20> %scf
| 21>   MaxIter 150
| 22> end
| 23>
| 24>                          ****END OF INPUT****

CARTESIAN COORDINATES (ANGSTROEM)
---------------------------------
  C     -4.382620   -1.670890    1.216200
  C     -5.763540   -1.915170    0.705010
  C     -3.281730   -2.191270    0.294360
  H     -5.840810   -2.115200   -0.300650
  H     -6.408820   -1.148660    0.936120
  H     -6.174780   -2.790610    1.051430
  H     -4.328620   -2.139220    2.198100
  H     -4.261580   -0.597400    1.357250
  H     -3.360570   -1.714070   -0.660080
  H     -3.387750   -3.249190    0.174030
  H     -2.325590   -1.975140    0.723290

 Total Charge           Charge          ....    0
 Multiplicity           Mult            ....    1
 Number of Electrons    NEL             ....   26
 Basis Dimension        Dim             ....   82

ORBITAL ENERGIES
----------------

  NO   OCC          E(Eh)            E(eV)
   0   2.0000     -10.275008      -279.5972
   1   2.0000     -10.267587      -279.3952
   2   2.0000     -10.249075      -278.8915
   3   2.0000      -0.897310       -24.4170
   4   2.0000      -0.798043       -21.7158
   5   2.0000      -0.693029       -18.8583
   6   2.0000      -0.562827       -15.3153
   7   2.0000      -0.540993       -14.7212
   8   2.0000      -0.507051       -13.7975
   9   2.0000      -0.480977       -13.0880
  10   2.0000      -0.433714       -11.8020
  11   2.0000      -0.426603       -11.6084
  12   2.0000      -0.413197       -11.2437
  13   0.0000       0.150964         4.1079
  14   0.0000       0.198988         5.4147
  15   0.0000       0.200732         5.4622
  16   0.0000       0.202787         5.5181
  17   0.0000       0.236482         6.4350

MULLIKEN ATOMIC CHARGES
-----------------------
   0 C :   -0.124170
   1 C :    0.031049
   2 C :   -0.031463
   3 H :   -0.008355
   4 H :    0.009428
   5 H :   -0.002377
   6 H :    0.026142
   7 H :    0.024355
   8 H :    0.025975
   9 H :    0.023816
  10 H :    0.025601
Sum of atomic charges:   -0.0000000

LOEWDIN ATOMIC CHARGES
----------------------
   0 C :   -0.046027
   1 C :   -0.055805
   2 C :   -0.054983
   3 H :    0.015237
   4 H :    0.018067
   5 H :    0.017651
   6 H :    0.022281
   7 H :    0.020851
   8 H :    0.020889
   9 H :    0.020042
  10 H :    0.021797

  Mayer bond orders larger than 0.100000
B(  0-C ,  1-C ) :   1.0756 B(  0-C ,  2-C ) :   1.0902 B(  0-C ,  6-H ) :   0.9644
B(  0-C ,  7-H ) :   0.9682 B(  1-C ,  3-H ) :   0.9723 B(  1-C ,  4-H ) :   0.9732
B(  1-C ,  5-H ) :   0.9676 B(  2-C ,  8-H ) :   0.9762 B(  2-C ,  9-H ) :   0.9792
B(  2-C , 10-H ) :   0.9754

Dispersion correction           -0.001494968
FINAL SINGLE POINT ENERGY      -119.003131618700

DIPOLE MOMENT
-------------
                                X             Y             Z
Electronic contribution:      0.18219       0.23243       0.32909
Nuclear contribution   :     -0.21528      -0.24783      -0.32864
                        -----------------------------------------
Total Dipole Moment    :     -0.03308      -0.01539       0.00045
                        -----------------------------------------
Magnitude (a.u.)       :      0.03649
Magnitude (Debye)      :      0.09275

Rotational constants in cm-1:     1.037566     0.286459     0.254172
Rotational constants in MHz : 31105.431429  8587.814531  7619.871198

                             ****ORCA TERMINATED NORMALLY****
TOTAL RUN TIME: 0 days 0 hours 0 minutes 9 seconds 535 msec
