                         Program Version 5.0.0 -  RELEASE  -
|  1> !wB97X-D3 RIJCOSX def2-SVP def2/J TightSCF
|  2> *xyz 0 1
|  3> C         -5.57236       -5.80780       -0.81644
|  4> S         -6.90318       -4.61903       -0.52846
|  5> O         -8.11485       -5.25093       -0.95701
|  6> F         -6.53271       -3.42684       -1.31485
|  7> O         -6.86563       -4.29496        0.91412
|  8> C         -4.45780       -5.94187        0.22919
|  9> H         -5.17735       -5.54257       -1.79771
| 10> H         -6.07420       -6.76889       -0.92127
| 11> H         -3.75515       -6.68239       -0.09144
| 12> H         -4.88182       -6.23486        1.16689
| 13> H         -3.95908       -5.00189        0.34143
| 14> *
| 15> %MaxCore 64000
| 16>
| 17> %pal nprocs 4
| 18> end
| 19>
| 20> %scf
| 21>   MaxIter 150
| 22> end
| 23>
| 24>                          ****END OF INPUT****

CARTESIAN COORDINATES (ANGSTROEM)
---------------------------------
  C     -5.572360   -5.807800   -0.816440
  S     -6.903180   -4.619030   -0.528460
  O     -8.114850   -5.250930   -0.957010
  F     -6.532710   -3.426840   -1.314850
  O     -6.865630   -4.294960    0.914120
  C     -4.457800   -5.941870    0.229190
  H     -5.177350   -5.542570   -1.797710
  H     -6.074200   -6.768890   -0.921270
  H     -3.755150   -6.682390   -0.091440
  H     -4.881820   -6.234860    1.166890
  H     -3.959080   -5.001890    0.341430

 Total Charge           Charge          ....    0
 Multiplicity           Mult            ....    1
 Number of Electrons    NEL             ....   58
 Basis Dimension        Dim             ....  113

ORBITAL ENERGIES
----------------

  NO   OCC          E(Eh)            E(eV)
   0   2.0000     -89.211831     -2427.5773
   1   2.0000     -24.890531      -677.3058
   2   2.0000     -19.247276      -523.7450
   3   2.0000     -19.231976      -523.3287
   4   2.0000     -10.350079      -281.6400
   5   2.0000     -10.311330      -280.5855
   6   2.0000      -8.294719      -225.7108
   7   2.0000      -6.257699      -170.2807
   8   2.0000      -6.251275      -170.1058
   9   2.0000      -6.250336      -170.0803
  10   2.0000      -1.459288       -39.7093
  11   2.0000      -1.220916       -33.2228
  12   2.0000      -1.114429       -30.3252
  13   2.0000      -0.933859       -25.4116
  14   2.0000      -0.832690       -22.6586
  15   2.0000      -0.777926       -21.1684
  16   2.0000      -0.682263       -18.5653
  17   2.0000      -0.667330       -18.1590
  18   2.0000      -0.648414       -17.6442
  19   2.0000      -0.592631       -16.1263
  20   2.0000      -0.578501       -15.7418
  21   2.0000      -0.548854       -14.9351
  22   2.0000      -0.526142       -14.3170
  23   2.0000      -0.499570       -13.5940
  24   2.0000      -0.494539       -13.4571
  25   2.0000      -0.474515       -12.9122
  26   2.0000      -0.424293       -11.5456
  27   2.0000      -0.411514       -11.1979
  28   2.0000      -0.397793       -10.8245
  29   0.0000       0.118800         3.2327
  30   0.0000       0.125292         3.4094
  31   0.0000       0.159727         4.3464
  32   0.0000       0.170570         4.6415
  33   0.0000       0.188070         5.1177

MULLIKEN ATOMIC CHARGES
-----------------------
   0 C :   -0.196594
   1 S :    0.977559
   2 O :   -0.435632
   3 F :   -0.209390
   4 O :   -0.482747
   5 C :   -0.010124
   6 H :    0.080327
   7 H :    0.105500
   8 H :    0.051624
   9 H :    0.068540
  10 H :    0.050939
Sum of atomic charges:   -0.0000000

LOEWDIN ATOMIC CHARGES
----------------------
   0 C :   -0.158873
   1 S :    1.171274
   2 O :   -0.475074
   3 F :   -0.153562
   4 O :   -0.524623
   5 C :   -0.051261
   6 H :    0.034397
   7 H :    0.050364
   8 H :    0.037149
   9 H :    0.038202
  10 H :    0.032008

  Mayer bond orders larger than 0.100000
B(  0-C ,  1-S ) :   0.9044 B(  0-C ,  5-C ) :   1.0570 B(  0-C ,  6-H ) :   0.9383
B(  0-C ,  7-H ) :   0.9420 B(  1-S ,  2-O ) :   1.8060 B(  1-S ,  3-F ) :   0.9867
B(  1-S ,  4-O ) :   1.7618 B(  5-C ,  8-H ) :   0.9643 B(  5-C ,  9-H ) :   0.9715
B(  5-C , 10-H ) :   0.9752

Dispersion correction           -0.002806319
FINAL SINGLE POINT ENERGY      -727.146574389431

DIPOLE MOMENT
-------------
                                X             Y             Z
Electronic contribution:     -6.72975       6.69078      -2.50580
Nuclear contribution   :      8.15840      -7.14411       1.72305
                        -----------------------------------------
Total Dipole Moment    :      1.42865      -0.45333      -0.78275
                        -----------------------------------------
Magnitude (a.u.)       :      1.69093
Magnitude (Debye)      :      4.29801

Rotational constants in cm-1:     0.153926     0.078297     0.077402
Rotational constants in MHz :  4614.585804  2347.272644  2320.438903

                             ****ORCA TERMINATED NORMALLY****
TOTAL RUN TIME: 0 days 0 hours 0 minutes 19 seconds 820 msec
