                         Program Version 5.0.0 -  RELEASE  -
|  1> !wB97X-D3 RIJCOSX def2-SVP def2/J TightSCF
|  2> *xyz 0 1
|  3> C         -5.57236       -5.80780       -0.81644
|  4> S         -6.90318       -4.61903       -0.52846
|  5> O         -8.11485       -5.25093       -0.95701
|  6> O         -6.53271       -3.42684       -1.31485
|  7> F         -6.86563       -4.29496        0.91412
|  8> C         -4.45780       -5.94187        0.22919
|  9> H         -5.17735       -5.54257       -1.79771
| 10> H         -6.07420       -6.76889       -0.92127
| 11> H         -3.75515       -6.68239       -0.09144
| 12> H         -4.88182       -6.23486        1.16689
| 13> H         -3.95908       -5.00189        0.34143
| 14> *
| 15> %MaxCore 64000
| 16>
| 17> %pal nprocs 4
| 18> end
| 19>
| 20> %scf
| 21>   MaxIter 150
| 22> end
| 23>
| 24>                          ****END OF INPUT****

CARTESIAN COORDINATES (ANGSTROEM)
---------------------------------
  C     -5.572360   -5.807800   -0.816440
  S     -6.903180   -4.619030   -0.528460
  O     -8.114850   -5.250930   -0.957010
  O     -6.532710   -3.426840   -1.314850
  F     -6.865630   -4.294960    0.914120
  C     -4.457800   -5.941870    0.229190
  H     -5.177350   -5.542570   -1.797710
  H     -6.074200   -6.768890   -0.921270
  H     -3.755150   -6.682390   -0.091440
  H     -4.881820   -6.234860    1.166890
  H     -3.959080   -5.001890    0.341430

 Total Charge           Charge          ....    0
 Multiplicity           Mult            ....    1
 Number of Electrons    NEL             ....   58
 Basis Dimension        Dim             ....  113

ORBITAL ENERGIES
----------------

  NO   OCC          E(Eh)            E(eV)
   0   2.0000     -89.210868     -2427.5511
   1   2.0000     -24.890021      -677.2919
   2   2.0000     -19.246737      -523.7303
   3   2.0000     -19.229800      -523.2695
   4   2.0000     -10.349246      -281.6173
   5   2.0000     -10.318784      -280.7884
   6   2.0000      -8.293810      -225.6860
   7   2.0000      -6.256879      -170.2583
   8   2.0000      -6.250374      -170.0813
   9   2.0000      -6.249336      -170.0531
  10   2.0000      -1.456770       -39.6407
  11   2.0000      -1.221078       -33.2272
  12   2.0000      -1.114375       -30.3237
  13   2.0000      -0.936993       -25.4969
  14   2.0000      -0.829680       -22.5767
  15   2.0000      -0.782999       -21.3065
  16   2.0000      -0.688035       -18.7224
  17   2.0000      -0.666816       -18.1450
  18   2.0000      -0.639072       -17.3900
  19   2.0000      -0.598593       -16.2885
  20   2.0000      -0.571933       -15.5631
  21   2.0000      -0.549515       -14.9531
  22   2.0000      -0.535427       -14.5697
  23   2.0000      -0.509404       -13.8616
  24   2.0000      -0.493215       -13.4211
  25   2.0000      -0.476767       -12.9735
  26   2.0000      -0.424255       -11.5446
  27   2.0000      -0.409458       -11.1419
  28   2.0000      -0.396556       -10.7908
  29   0.0000       0.104556         2.8451
  30   0.0000       0.145083         3.9479
  31   0.0000       0.165522         4.5041
  32   0.0000       0.170577         4.6416
  33   0.0000       0.184639         5.0243

MULLIKEN ATOMIC CHARGES
-----------------------
   0 C :   -0.183940
   1 S :    0.976867
   2 O :   -0.435137
   3 O :   -0.486117
   4 F :   -0.210178
   5 C :   -0.039065
   6 H :    0.111599
   7 H :    0.093179
   8 H :    0.060416
   9 H :    0.051902
  10 H :    0.060474
Sum of atomic charges:    0.0000000

LOEWDIN ATOMIC CHARGES
----------------------
   0 C :   -0.153825
   1 S :    1.171643
   2 O :   -0.475023
   3 O :   -0.526330
   4 F :   -0.155048
   5 C :   -0.059494
   6 H :    0.053051
   7 H :    0.041720
   8 H :    0.040535
   9 H :    0.029725
  10 H :    0.033046

  Mayer bond orders larger than 0.100000
B(  0-C ,  1-S ) :   0.9158 B(  0-C ,  5-C ) :   1.0517 B(  0-C ,  6-H ) :   0.9382
B(  0-C ,  7-H ) :   0.9424 B(  1-S ,  2-O ) :   1.8046 B(  1-S ,  3-O ) :   1.7545
B(  1-S ,  4-F ) :   0.9872 B(  5-C ,  8-H ) :   0.9660 B(  5-C ,  9-H ) :   0.9758
B(  5-C , 10-H ) :   0.9747

Dispersion correction           -0.002793676
FINAL SINGLE POINT ENERGY      -727.146288845519

DIPOLE MOMENT
-------------
                                X             Y             Z
Electronic contribution:     -7.27114       5.17592       1.32044
Nuclear contribution   :      8.50531      -6.23950      -0.59960
                        -----------------------------------------
Total Dipole Moment    :      1.23417      -1.06358       0.72084
                        -----------------------------------------
Magnitude (a.u.)       :      1.78157
Magnitude (Debye)      :      4.52839

Rotational constants in cm-1:     0.152799     0.080212     0.076962
Rotational constants in MHz :  4580.804531  2404.707790  2307.252710

                             ****ORCA TERMINATED NORMALLY****
TOTAL RUN TIME: 0 days 0 hours 0 minutes 17 seconds 361 msec
