                         Program Version 5.0.0 -  RELEASE  -
|  1> !TPSS D3BJ RIJCOSX def2-SVP def2/J TightSCF
|  2> *xyz -1 1
|  3> C         -0.72184       -0.99951       -3.43931
|  4> C          0.28725       -1.71177       -2.52740
|  5> H          1.13178       -2.06738       -3.15940
|  6> H         -0.20414       -2.63733       -2.17048
|  7> O          0.71050       -0.92751       -1.48177
|  8> H         -1.01315       -1.65739       -4.23129
|  9> H         -0.27123       -0.12142       -3.85259
| 10> H         -1.58442       -0.72333       -2.86958
| 11> *
| 12> %MaxCore 64000
| 13>
| 14> %pal nprocs 4
| 15> end
| 16>
| 17> %scf
| 18>   MaxIter 150
| 19> end
| 20>
| 21>
| 22>                          ****END OF INPUT****

CARTESIAN COORDINATES (ANGSTROEM)
---------------------------------
  C     -0.721840   -0.999510   -3.439310
  C      0.287250   -1.711770   -2.527400
  H      1.131780   -2.067380   -3.159400
  H     -0.204140   -2.637330   -2.170480
  O      0.710500   -0.927510   -1.481770
  H     -1.013150   -1.657390   -4.231290
  H     -0.271230   -0.121420   -3.852590
  H     -1.584420   -0.723330   -2.869580

 Total Charge           Charge          ....   -1
 Multiplicity           Mult            ....    1
 Number of Electrons    NEL             ....   26
 Basis Dimension        Dim             ....   67

ORBITAL ENERGIES
----------------

  NO   OCC          E(Eh)            E(eV)
   0   2.0000     -18.511829      -503.7325
   1   2.0000      -9.788217      -266.3509
   2   2.0000      -9.777556      -266.0608
   3   2.0000      -0.560919       -15.2634
   4   2.0000      -0.443425       -12.0662
   5   2.0000      -0.296623        -8.0715
   6   2.0000      -0.190499        -5.1838
   7   2.0000      -0.169375        -4.6089
   8   2.0000      -0.112772        -3.0687
   9   2.0000      -0.098554        -2.6818
  10   2.0000      -0.025590        -0.6964
  11   2.0000       0.116620         3.1734
  12   2.0000       0.120769         3.2863
  13   0.0000       0.243623         6.6293
  14   0.0000       0.284766         7.7489
  15   0.0000       0.295992         8.0544
  16   0.0000       0.305621         8.3164
  17   0.0000       0.346153         9.4193

MULLIKEN ATOMIC CHARGES
-----------------------
   0 C :    0.086664
   1 C :    0.234763
   2 H :   -0.174439
   3 H :   -0.174107
   4 O :   -0.687645
   5 H :   -0.138223
   6 H :   -0.074571
   7 H :   -0.072441
Sum of atomic charges:   -1.0000000

LOEWDIN ATOMIC CHARGES
----------------------
   0 C :   -0.099700
   1 C :    0.012789
   2 H :   -0.089342
   3 H :   -0.088016
   4 O :   -0.644093
   5 H :   -0.047705
   6 H :   -0.022578
   7 H :   -0.021355

  Mayer bond orders larger than 0.100000
B(  0-C ,  1-C ) :   0.9956 B(  0-C ,  4-O ) :  -0.1030 B(  0-C ,  5-H ) :   0.8959
B(  0-C ,  6-H ) :   0.9503 B(  0-C ,  7-H ) :   0.9520 B(  1-C ,  2-H ) :   0.8534
B(  1-C ,  3-H ) :   0.8553 B(  1-C ,  4-O ) :   1.5104 B(  4-O ,  5-H ) :   0.1022

Dispersion correction           -0.004554556
FINAL SINGLE POINT ENERGY      -154.303472511476

DIPOLE MOMENT
-------------
                                X             Y             Z
Electronic contribution:      1.63377       0.96397       2.75145
Nuclear contribution   :     -2.24828      -1.06600      -3.62481
                        -----------------------------------------
Total Dipole Moment    :     -0.61451      -0.10202      -0.87335
                        -----------------------------------------
Magnitude (a.u.)       :      1.07274
Magnitude (Debye)      :      2.72669

Rotational constants in cm-1:     1.278116     0.325414     0.286672
Rotational constants in MHz : 38316.964654  9755.653004  8594.216906

                             ****ORCA TERMINATED NORMALLY****
TOTAL RUN TIME: 0 days 0 hours 0 minutes 7 seconds 18 msec
