                         Program Version 5.0.0 -  RELEASE  -
|  1> !TPSS D3BJ RIJCOSX def2-SVP def2/J TightSCF
|  2> *xyz 1 1
|  3> C          3.48828        1.60092       -1.52204
|  4> C          4.34297        1.31342       -2.75683
|  5> N          2.81029        0.42878       -1.01420
|  6> H          2.71455        2.33145       -1.76030
|  7> H          4.09099        2.06315       -0.73338
|  8> C          3.29098       -0.41802       -0.12908
|  9> N          2.51754       -1.43202        0.23936
| 10> N          4.53549       -0.28441        0.39580
| 11> H          5.04363        0.57189        0.22290
| 12> H          4.72335       -0.73327        1.28180
| 13> H          1.93479        0.10230       -1.40379
| 14> H          1.67464       -1.50562       -0.31610
| 15> H          2.92850       -2.21850        0.72549
| 16> H          3.73575        0.86277       -3.51385
| 17> H          5.13754        0.64699       -2.49333
| 18> H          4.75374        2.22930       -3.12740
| 19> *
| 20> %MaxCore 64000
| 21>
| 22> %pal nprocs 4
| 23> end
| 24>
| 25> %scf
| 26>   MaxIter 150
| 27> end
| 28>
| 29>
| 30>                          ****END OF INPUT****

CARTESIAN COORDINATES (ANGSTROEM)
---------------------------------
  C      3.488280    1.600920   -1.522040
  C      4.342970    1.313420   -2.756830
  N      2.810290    0.428780   -1.014200
  H      2.714550    2.331450   -1.760300
  H      4.090990    2.063150   -0.733380
  C      3.290980   -0.418020   -0.129080
  N      2.517540   -1.432020    0.239360
  N      4.535490   -0.284410    0.395800
  H      5.043630    0.571890    0.222900
  H      4.723350   -0.733270    1.281800
  H      1.934790    0.102300   -1.403790
  H      1.674640   -1.505620   -0.316100
  H      2.928500   -2.218500    0.725490
  H      3.735750    0.862770   -3.513850
  H      5.137540    0.646990   -2.493330
  H      4.753740    2.229300   -3.127400

 Total Charge           Charge          ....    1
 Multiplicity           Mult            ....    1
 Number of Electrons    NEL             ....   48
 Basis Dimension        Dim             ....  134

ORBITAL ENERGIES
----------------

  NO   OCC          E(Eh)            E(eV)
   0   2.0000     -14.340752      -390.2317
   1   2.0000     -14.338537      -390.1714
   2   2.0000     -14.335744      -390.0954
   3   2.0000     -10.319520      -280.8084
   4   2.0000     -10.210404      -277.8392
   5   2.0000     -10.139210      -275.9019
   6   2.0000      -1.141657       -31.0661
   7   2.0000      -1.035554       -28.1789
   8   2.0000      -1.022560       -27.8253
   9   2.0000      -0.871116       -23.7043
  10   2.0000      -0.782156       -21.2835
  11   2.0000      -0.754633       -20.5346
  12   2.0000      -0.730635       -19.8816
  13   2.0000      -0.698525       -19.0078
  14   2.0000      -0.647277       -17.6133
  15   2.0000      -0.639845       -17.4111
  16   2.0000      -0.610497       -16.6125
  17   2.0000      -0.591715       -16.1014
  18   2.0000      -0.562148       -15.2968
  19   2.0000      -0.519673       -14.1410
  20   2.0000      -0.494608       -13.4590
  21   2.0000      -0.477223       -12.9859
  22   2.0000      -0.435316       -11.8455
  23   2.0000      -0.413688       -11.2570
  24   0.0000      -0.187148        -5.0926
  25   0.0000      -0.156309        -4.2534
  26   0.0000      -0.123900        -3.3715
  27   0.0000      -0.106580        -2.9002
  28   0.0000      -0.084894        -2.3101

MULLIKEN ATOMIC CHARGES
-----------------------
   0 C :    0.014340
   1 C :    0.020623
   2 N :   -0.108361
   3 H :    0.072609
   4 H :    0.055436
   5 C :    0.044293
   6 N :   -0.019038
   7 N :   -0.058918
   8 H :    0.162306
   9 H :    0.171329
  10 H :    0.158887
  11 H :    0.163915
  12 H :    0.178758
  13 H :    0.045462
  14 H :    0.031363
  15 H :    0.066994
Sum of atomic charges:    1.0000000

LOEWDIN ATOMIC CHARGES
----------------------
   0 C :    0.043804
   1 C :   -0.033772
   2 N :    0.048591
   3 H :    0.048203
   4 H :    0.032202
   5 C :    0.125346
   6 N :    0.058970
   7 N :    0.042046
   8 H :    0.101503
   9 H :    0.108932
  10 H :    0.102782
  11 H :    0.105620
  12 H :    0.113218
  13 H :    0.032348
  14 H :    0.024636
  15 H :    0.045572

  Mayer bond orders larger than 0.100000
B(  0-C ,  1-C ) :   1.0923 B(  0-C ,  2-N ) :   0.9371 B(  0-C ,  3-H ) :   0.9411
B(  0-C ,  4-H ) :   0.9463 B(  1-C , 13-H ) :   0.9675 B(  1-C , 14-H ) :   0.9672
B(  1-C , 15-H ) :   0.9622 B(  2-N ,  5-C ) :   1.3869 B(  2-N , 10-H ) :   0.9056
B(  5-C ,  6-N ) :   1.3848 B(  5-C ,  7-N ) :   1.3640 B(  6-N , 11-H ) :   0.9223
B(  6-N , 12-H ) :   0.9249 B(  7-N ,  8-H ) :   0.9259 B(  7-N ,  9-H ) :   0.9280

Dispersion correction           -0.015193734
FINAL SINGLE POINT ENERGY      -284.243476597601

DIPOLE MOMENT
-------------
                                X             Y             Z
Electronic contribution:     -1.94167      -3.05783       3.78688
Nuclear contribution   :      1.59382       2.33278      -3.02574
                        -----------------------------------------
Total Dipole Moment    :     -0.34785      -0.72505       0.76115
                        -----------------------------------------
Magnitude (a.u.)       :      1.10727
Magnitude (Debye)      :      2.81446

Rotational constants in cm-1:     0.232230     0.073139     0.063030
Rotational constants in MHz :  6962.079716  2192.649203  1889.578947

                             ****ORCA TERMINATED NORMALLY****
TOTAL RUN TIME: 0 days 0 hours 0 minutes 10 seconds 238 msec
