                         Program Version 5.0.0 -  RELEASE  -
|  1> !TPSS D3BJ RIJCOSX def2-TZVP def2/J TightSCF xyzfile
|  2>
|  3> *xyzfile 0 1 B.xyz
|  4>
|  5> %MaxCore 64000
|  6>
|  7> %pal nprocs 18
|  8> end
|  9>
| 10> %scf
| 11>   MaxIter 150
| 12> end
| 13>
| 14>
| 15>                          ****END OF INPUT****

CARTESIAN COORDINATES (ANGSTROEM)
---------------------------------
  C      3.488276    1.600919   -1.522040
  C      4.342970    1.313419   -2.756826
  N      2.810285    0.428783   -1.014196
  H      5.132033    0.604994   -2.484466
  C      3.535896    0.749253   -3.924604
  H      4.841247    2.242136   -3.054083
  H      2.991617   -0.132199   -3.574137
  H      4.225505    0.392784   -4.695962
  C      2.564776    1.750890   -4.544523
  H      1.918749    2.171679   -3.769419
  C      1.686235    1.161657   -5.650111
  H      3.132494    2.594775   -4.951604
  C      0.839616   -0.037582   -5.220473
  H      2.323886    0.866395   -6.490796
  H      1.029518    1.951850   -6.029329
  C     -0.151019    0.254955   -4.094256
  H      1.499442   -0.857141   -4.922958
  H      0.290097   -0.410143   -6.091131
  H      0.328265    0.833022   -3.299125
  C     -0.721843   -0.999513   -3.439309
  H     -0.957367    0.884951   -4.485450
  H     -1.083403   -1.697555   -4.205656
  H     -1.581056   -0.723848   -2.820490
  C      0.287250   -1.711771   -2.527405
  H      1.131780   -2.067380   -3.159396
  H     -0.204137   -2.637326   -2.170480
  O      0.710505   -0.927506   -1.481767
  H      2.714548    2.331455   -1.760302
  H      4.090991    2.063151   -0.733382
  C      3.290978   -0.418021   -0.129083
  N      2.517536   -1.432017    0.239360
  N      4.535490   -0.284410    0.395800
  H      5.043627    0.571888    0.222899
  H      4.723346   -0.733273    1.281800
  H      1.934787    0.102305   -1.403788
  H      1.674638   -1.505616   -0.316095
  H      2.928503   -2.218502    0.725494

 Total Charge           Charge          ....    0
 Multiplicity           Mult            ....    1
 Number of Electrons    NEL             ....  112
 Basis Dimension        Dim             ....  572

ORBITAL ENERGIES
----------------

  NO   OCC          E(Eh)            E(eV)
   0   2.0000     -18.753561      -510.3103
   1   2.0000     -14.157392      -385.2422
   2   2.0000     -14.119353      -384.2071
   3   2.0000     -14.113228      -384.0405
   4   2.0000     -10.118815      -275.3470
   5   2.0000     -10.037947      -273.1464
   6   2.0000      -9.993536      -271.9380
   7   2.0000      -9.976707      -271.4800
   8   2.0000      -9.971251      -271.3315
   9   2.0000      -9.964494      -271.1477
  10   2.0000      -9.962230      -271.0861
  11   2.0000      -9.952723      -270.8274
  12   2.0000      -9.942335      -270.5447
  13   2.0000      -9.930355      -270.2187
  14   2.0000      -0.963622       -26.2215
  15   2.0000      -0.866065       -23.5668
  16   2.0000      -0.847058       -23.0496
  17   2.0000      -0.817320       -22.2404
  18   2.0000      -0.752391       -20.4736
  19   2.0000      -0.719540       -19.5797
  20   2.0000      -0.683158       -18.5897
  21   2.0000      -0.647872       -17.6295
  22   2.0000      -0.608866       -16.5681
  23   2.0000      -0.597559       -16.2604
  24   2.0000      -0.561291       -15.2735
  25   2.0000      -0.549657       -14.9569
  26   2.0000      -0.546573       -14.8730
  27   2.0000      -0.517751       -14.0887
  28   2.0000      -0.498561       -13.5665
  29   2.0000      -0.474106       -12.9011
  30   2.0000      -0.465477       -12.6663
  31   2.0000      -0.449789       -12.2394
  32   2.0000      -0.438840       -11.9414
  33   2.0000      -0.427449       -11.6315
  34   2.0000      -0.417490       -11.3605
  35   2.0000      -0.406902       -11.0724
  36   2.0000      -0.393458       -10.7065
  37   2.0000      -0.377006       -10.2588
  38   2.0000      -0.371552       -10.1104
  39   2.0000      -0.354535        -9.6474
  40   2.0000      -0.350693        -9.5428
  41   2.0000      -0.338912        -9.2223
  42   2.0000      -0.320927        -8.7329
  43   2.0000      -0.315385        -8.5821
  44   2.0000      -0.306013        -8.3270
  45   2.0000      -0.296043        -8.0557
  46   2.0000      -0.285793        -7.7768
  47   2.0000      -0.275629        -7.5003
  48   2.0000      -0.270447        -7.3592
  49   2.0000      -0.265998        -7.2382
  50   2.0000      -0.254507        -6.9255
  51   2.0000      -0.248921        -6.7735
  52   2.0000      -0.245179        -6.6716
  53   2.0000      -0.229167        -6.2360
  54   2.0000      -0.139729        -3.8022
  55   2.0000      -0.131739        -3.5848
  56   0.0000      -0.017752        -0.4830
  57   0.0000      -0.012784        -0.3479
  58   0.0000       0.016674         0.4537
  59   0.0000       0.037721         1.0264
  60   0.0000       0.041895         1.1400

MULLIKEN ATOMIC CHARGES
-----------------------
   0 C :   -0.215494
   1 C :   -0.060315
   2 N :   -0.188679
   3 H :    0.085327
   4 C :   -0.232633
   5 H :    0.079173
   6 H :    0.133478
   7 H :    0.082243
   8 C :   -0.229995
   9 H :    0.094120
  10 C :   -0.049110
  11 H :    0.075837
  12 C :   -0.246604
  13 H :    0.070409
  14 H :    0.069829
  15 C :   -0.165537
  16 H :    0.098332
  17 H :    0.075875
  18 H :    0.077596
  19 C :   -0.022190
  20 H :    0.066481
  21 H :    0.034979
  22 H :    0.049753
  23 C :    0.032041
  24 H :    0.002173
  25 H :    0.030212
  26 O :   -0.754249
  27 H :    0.141159
  28 H :    0.095586
  29 C :    0.344528
  30 N :   -0.389249
  31 N :   -0.455990
  32 H :    0.250488
  33 H :    0.247266
  34 H :    0.268000
  35 H :    0.281370
  36 H :    0.223788
Sum of atomic charges:    0.0000000

LOEWDIN ATOMIC CHARGES
----------------------
   0 C :   -0.279383
   1 C :   -0.264156
   2 N :    0.185370
   3 H :    0.131324
   4 C :   -0.260672
   5 H :    0.135837
   6 H :    0.142081
   7 H :    0.134547
   8 C :   -0.266074
   9 H :    0.129430
  10 C :   -0.263448
  11 H :    0.130252
  12 C :   -0.266940
  13 H :    0.130100
  14 H :    0.132092
  15 C :   -0.270629
  16 H :    0.128917
  17 H :    0.130257
  18 H :    0.129064
  19 C :   -0.276319
  20 H :    0.125702
  21 H :    0.122400
  22 H :    0.126704
  23 C :   -0.466609
  24 H :    0.083085
  25 H :    0.096058
  26 O :   -0.281225
  27 H :    0.139865
  28 H :    0.122652
  29 C :   -0.434255
  30 N :    0.049089
  31 N :    0.002852
  32 H :    0.172432
  33 H :    0.174820
  34 H :    0.160713
  35 H :    0.147970
  36 H :    0.166099

  Mayer bond orders larger than 0.100000
B(  0-C ,  1-C ) :   0.9939 B(  0-C ,  2-N ) :   0.9404 B(  0-C , 27-H ) :   0.9607
B(  0-C , 28-H ) :   0.9526 B(  1-C ,  3-H ) :   0.9401 B(  1-C ,  4-C ) :   1.0126
B(  1-C ,  5-H ) :   0.9407 B(  2-N , 29-C ) :   1.4483 B(  2-N , 34-H ) :   0.7304
B(  4-C ,  6-H ) :   0.9586 B(  4-C ,  7-H ) :   0.9424 B(  4-C ,  8-C ) :   1.0244
B(  8-C ,  9-H ) :   0.9640 B(  8-C , 10-C ) :   1.0307 B(  8-C , 11-H ) :   0.9355
B( 10-C , 12-C ) :   1.0071 B( 10-C , 13-H ) :   0.9429 B( 10-C , 14-H ) :   0.9409
B( 12-C , 15-C ) :   1.0259 B( 12-C , 16-H ) :   0.9691 B( 12-C , 17-H ) :   0.9381
B( 15-C , 18-H ) :   0.9533 B( 15-C , 19-C ) :   1.0230 B( 15-C , 20-H ) :   0.9404
B( 19-C , 21-H ) :   0.9276 B( 19-C , 22-H ) :   0.9296 B( 19-C , 23-C ) :   1.0077
B( 23-C , 24-H ) :   0.9442 B( 23-C , 25-H ) :   0.9279 B( 23-C , 26-O ) :   1.1543
B( 26-O , 34-H ) :   0.2459 B( 26-O , 35-H ) :   0.2460 B( 29-C , 30-N ) :   1.4098
B( 29-C , 31-N ) :   1.2177 B( 30-N , 35-H ) :   0.7321 B( 30-N , 36-H ) :   0.9081
B( 31-N , 32-H ) :   0.9010 B( 31-N , 33-H ) :   0.9061

Dispersion correction           -0.050218907
FINAL SINGLE POINT ENERGY      -634.761493275341

DIPOLE MOMENT
-------------
                                X             Y             Z
Electronic contribution:      3.55061      -2.07218      11.40054
Nuclear contribution   :     -0.74583       2.62534      -9.91488
                        -----------------------------------------
Total Dipole Moment    :      2.80479       0.55316       1.48566
                        -----------------------------------------
Magnitude (a.u.)       :      3.22180
Magnitude (Debye)      :      8.18917

Rotational constants in cm-1:     0.027028     0.016098     0.010898
Rotational constants in MHz :   810.278072   482.590922   326.703462

                             ****ORCA TERMINATED NORMALLY****
TOTAL RUN TIME: 0 days 0 hours 0 minutes 33 seconds 440 msec
