                         Program Version 5.0.0 -  RELEASE  -
|  1> !TPSS D3BJ RIJCOSX def2-SVP def2/J TightSCF
|  2> *xyz 0 1
|  3> C         -0.72184       -0.99951       -3.43931
|  4> C          0.28725       -1.71177       -2.52740
|  5> H          1.13178       -2.06738       -3.15940
|  6> H         -0.20414       -2.63733       -2.17048
|  7> F          0.71050       -0.92751       -1.48177
|  8> H         -1.01315       -1.65739       -4.23129
|  9> H         -0.27123       -0.12142       -3.85259
| 10> H         -1.58442       -0.72333       -2.86958
| 11> *
| 12> %MaxCore 64000
| 13>
| 14> %pal nprocs 4
| 15> end
| 16>
| 17> %scf
| 18>   MaxIter 150
| 19> end
| 20>
| 21>
| 22>                          ****END OF INPUT****

CARTESIAN COORDINATES (ANGSTROEM)
---------------------------------
  C     -0.721840   -0.999510   -3.439310
  C      0.287250   -1.711770   -2.527400
  H      1.131780   -2.067380   -3.159400
  H     -0.204140   -2.637330   -2.170480
  F      0.710500   -0.927510   -1.481770
  H     -1.013150   -1.657390   -4.231290
  H     -0.271230   -0.121420   -3.852590
  H     -1.584420   -0.723330   -2.869580

 Total Charge           Charge          ....    0
 Multiplicity           Mult            ....    1
 Number of Electrons    NEL             ....   26
 Basis Dimension        Dim             ....   67

ORBITAL ENERGIES
----------------

  NO   OCC          E(Eh)            E(eV)
   0   2.0000     -24.391108      -663.7158
   1   2.0000     -10.071950      -274.0717
   2   2.0000      -9.996106      -272.0079
   3   2.0000      -1.087596       -29.5950
   4   2.0000      -0.698094       -18.9961
   5   2.0000      -0.569315       -15.4919
   6   2.0000      -0.447922       -12.1886
   7   2.0000      -0.439546       -11.9607
   8   2.0000      -0.397269       -10.8102
   9   2.0000      -0.358313        -9.7502
  10   2.0000      -0.353054        -9.6071
  11   2.0000      -0.280959        -7.6453
  12   2.0000      -0.278591        -7.5809
  13   0.0000       0.054103         1.4722
  14   0.0000       0.096944         2.6380
  15   0.0000       0.101789         2.7698
  16   0.0000       0.110093         2.9958
  17   0.0000       0.130261         3.5446

MULLIKEN ATOMIC CHARGES
-----------------------
   0 C :   -0.041026
   1 C :    0.212980
   2 H :    0.009984
   3 H :    0.007570
   4 F :   -0.258450
   5 H :    0.015514
   6 H :    0.026537
   7 H :    0.026892
Sum of atomic charges:   -0.0000000

LOEWDIN ATOMIC CHARGES
----------------------
   0 C :   -0.061983
   1 C :    0.112674
   2 H :    0.006445
   3 H :    0.005404
   4 F :   -0.131841
   5 H :    0.026271
   6 H :    0.021304
   7 H :    0.021725

  Mayer bond orders larger than 0.100000
B(  0-C ,  1-C ) :   1.0960 B(  0-C ,  5-H ) :   0.9572 B(  0-C ,  6-H ) :   0.9704
B(  0-C ,  7-H ) :   0.9704 B(  1-C ,  2-H ) :   0.9530 B(  1-C ,  3-H ) :   0.9537
B(  1-C ,  4-F ) :   1.0080

Dispersion correction           -0.004200916
FINAL SINGLE POINT ENERGY      -178.945424662145

DIPOLE MOMENT
-------------
                                X             Y             Z
Electronic contribution:      2.73477       1.08521       4.28984
Nuclear contribution   :     -2.97459      -1.40206      -4.79987
                        -----------------------------------------
Total Dipole Moment    :     -0.23982      -0.31684      -0.51003
                        -----------------------------------------
Magnitude (a.u.)       :      0.64656
Magnitude (Debye)      :      1.64342

Rotational constants in cm-1:     1.257024     0.302702     0.267953
Rotational constants in MHz : 37684.643733  9074.792567  8033.038070

                             ****ORCA TERMINATED NORMALLY****
TOTAL RUN TIME: 0 days 0 hours 0 minutes 6 seconds 580 msec
