                         Program Version 5.0.0 -  RELEASE  -
|  1> !TPSS D3BJ RIJCOSX def2-SVP def2/J TightSCF
|  2> *xyz 0 1
|  3> C          3.48828        1.60092       -1.52204
|  4> C          4.34297        1.31342       -2.75683
|  5> C          2.81029        0.42878       -1.01420
|  6> H          2.71455        2.33145       -1.76030
|  7> H          4.09099        2.06315       -0.73338
|  8> C          3.29098       -0.41802       -0.12908
|  9> N          2.51754       -1.43202        0.23936
| 10> N          4.53549       -0.28441        0.39580
| 11> H          5.04363        0.57189        0.22290
| 12> H          4.72335       -0.73327        1.28180
| 13> H          1.93479        0.10230       -1.40379
| 14> H          1.67464       -1.50562       -0.31610
| 15> H          2.92850       -2.21850        0.72549
| 16> H          3.73575        0.86277       -3.51385
| 17> H          5.13754        0.64699       -2.49333
| 18> H          4.75374        2.22930       -3.12740
| 19> *
| 20> %MaxCore 64000
| 21>
| 22> %pal nprocs 4
| 23> end
| 24>
| 25> %scf
| 26>   MaxIter 150
| 27> end
| 28>
| 29>
| 30>                          ****END OF INPUT****

CARTESIAN COORDINATES (ANGSTROEM)
---------------------------------
  C      3.488280    1.600920   -1.522040
  C      4.342970    1.313420   -2.756830
  C      2.810290    0.428780   -1.014200
  H      2.714550    2.331450   -1.760300
  H      4.090990    2.063150   -0.733380
  C      3.290980   -0.418020   -0.129080
  N      2.517540   -1.432020    0.239360
  N      4.535490   -0.284410    0.395800
  H      5.043630    0.571890    0.222900
  H      4.723350   -0.733270    1.281800
  H      1.934790    0.102300   -1.403790
  H      1.674640   -1.505620   -0.316100
  H      2.928500   -2.218500    0.725490
  H      3.735750    0.862770   -3.513850
  H      5.137540    0.646990   -2.493330
  H      4.753740    2.229300   -3.127400

 Total Charge           Charge          ....    0
 Multiplicity           Mult            ....    1
 Number of Electrons    NEL             ....   48
 Basis Dimension        Dim             ....  134

ORBITAL ENERGIES
----------------

  NO   OCC          E(Eh)            E(eV)
   0   2.0000     -14.108940      -383.9238
   1   2.0000     -14.105269      -383.8239
   2   2.0000     -10.024524      -272.7812
   3   2.0000      -9.972332      -271.3609
   4   2.0000      -9.964161      -271.1386
   5   2.0000      -9.913230      -269.7527
   6   2.0000      -0.875749       -23.8304
   7   2.0000      -0.793539       -21.5933
   8   2.0000      -0.702692       -19.1212
   9   2.0000      -0.627326       -17.0704
  10   2.0000      -0.553089       -15.0503
  11   2.0000      -0.522631       -14.2215
  12   2.0000      -0.483454       -13.1554
  13   2.0000      -0.456920       -12.4334
  14   2.0000      -0.416516       -11.3340
  15   2.0000      -0.390870       -10.6361
  16   2.0000      -0.369565       -10.0564
  17   2.0000      -0.345485        -9.4011
  18   2.0000      -0.333291        -9.0693
  19   2.0000      -0.306248        -8.3334
  20   2.0000      -0.288573        -7.8525
  21   2.0000      -0.279814        -7.6141
  22   2.0000      -0.213222        -5.8021
  23   2.0000      -0.121070        -3.2945
  24   0.0000       0.033430         0.9097
  25   0.0000       0.063454         1.7267
  26   0.0000       0.068157         1.8546
  27   0.0000       0.085931         2.3383
  28   0.0000       0.099537         2.7085

MULLIKEN ATOMIC CHARGES
-----------------------
   0 C :    0.048832
   1 C :    0.064874
   2 C :   -0.152392
   3 H :   -0.012044
   4 H :   -0.025353
   5 C :   -0.083052
   6 N :   -0.054269
   7 N :   -0.094459
   8 H :    0.112408
   9 H :    0.099293
  10 H :   -0.105461
  11 H :    0.117814
  12 H :    0.101662
  13 H :   -0.003638
  14 H :   -0.005349
  15 H :   -0.008865
Sum of atomic charges:    0.0000000

LOEWDIN ATOMIC CHARGES
----------------------
   0 C :   -0.034381
   1 C :   -0.043487
   2 C :   -0.207650
   3 H :    0.019487
   4 H :    0.004568
   5 C :    0.012630
   6 N :   -0.017398
   7 N :   -0.028416
   8 H :    0.072711
   9 H :    0.060416
  10 H :   -0.013115
  11 H :    0.081033
  12 H :    0.063093
  13 H :    0.013987
  14 H :    0.010157
  15 H :    0.006364

  Mayer bond orders larger than 0.100000
B(  0-C ,  1-C ) :   1.0838 B(  0-C ,  2-C ) :   1.0825 B(  0-C ,  3-H ) :   0.9098
B(  0-C ,  4-H ) :   0.9309 B(  1-C , 13-H ) :   0.9656 B(  1-C , 14-H ) :   0.9697
B(  1-C , 15-H ) :   0.9595 B(  2-C ,  5-C ) :   1.6679 B(  2-C , 10-H ) :   0.9294
B(  5-C ,  6-N ) :   1.2473 B(  5-C ,  7-N ) :   1.2393 B(  6-N , 11-H ) :   0.9312
B(  6-N , 12-H ) :   0.9428 B(  7-N ,  8-H ) :   0.9387 B(  7-N ,  9-H ) :   0.9453

Dispersion correction           -0.015810076
FINAL SINGLE POINT ENERGY      -267.766698292007

DIPOLE MOMENT
-------------
                                X             Y             Z
Electronic contribution:     -1.24920      -3.05876       3.78213
Nuclear contribution   :      1.44676       2.38443      -3.07370
                        -----------------------------------------
Total Dipole Moment    :      0.19756      -0.67434       0.70843
                        -----------------------------------------
Magnitude (a.u.)       :      0.99781
Magnitude (Debye)      :      2.53624

Rotational constants in cm-1:     0.235977     0.073199     0.063283
Rotational constants in MHz :  7074.404583  2194.453291  1897.179599

                             ****ORCA TERMINATED NORMALLY****
TOTAL RUN TIME: 0 days 0 hours 0 minutes 11 seconds 285 msec
