                         Program Version 5.0.0 -  RELEASE  -
|  1> !TPSS D3BJ RIJCOSX def2-SVP def2/J TightSCF
|  2> *xyz 0 1
|  3> C          3.48828        1.60092       -1.52204
|  4> C          4.34297        1.31342       -2.75683
|  5> N          2.81029        0.42878       -1.01420
|  6> H          2.71455        2.33145       -1.76030
|  7> H          4.09099        2.06315       -0.73338
|  8> C          3.29098       -0.41802       -0.12908
|  9> C          2.51754       -1.43202        0.23936
| 10> N          4.53549       -0.28441        0.39580
| 11> H          5.04363        0.57189        0.22290
| 12> H          4.72335       -0.73327        1.28180
| 13> H          1.93479        0.10230       -1.40379
| 14> H          1.67464       -1.50562       -0.31610
| 15> H          2.92850       -2.21850        0.72549
| 16> H          3.73575        0.86277       -3.51385
| 17> H          5.13754        0.64699       -2.49333
| 18> H          4.75374        2.22930       -3.12740
| 19> *
| 20> %MaxCore 64000
| 21>
| 22> %pal nprocs 4
| 23> end
| 24>
| 25> %scf
| 26>   MaxIter 150
| 27> end
| 28>
| 29>
| 30>                          ****END OF INPUT****

CARTESIAN COORDINATES (ANGSTROEM)
---------------------------------
  C      3.488280    1.600920   -1.522040
  C      4.342970    1.313420   -2.756830
  N      2.810290    0.428780   -1.014200
  H      2.714550    2.331450   -1.760300
  H      4.090990    2.063150   -0.733380
  C      3.290980   -0.418020   -0.129080
  C      2.517540   -1.432020    0.239360
  N      4.535490   -0.284410    0.395800
  H      5.043630    0.571890    0.222900
  H      4.723350   -0.733270    1.281800
  H      1.934790    0.102300   -1.403790
  H      1.674640   -1.505620   -0.316100
  H      2.928500   -2.218500    0.725490
  H      3.735750    0.862770   -3.513850
  H      5.137540    0.646990   -2.493330
  H      4.753740    2.229300   -3.127400

 Total Charge           Charge          ....    0
 Multiplicity           Mult            ....    1
 Number of Electrons    NEL             ....   48
 Basis Dimension        Dim             ....  134

ORBITAL ENERGIES
----------------

  NO   OCC          E(Eh)            E(eV)
   0   2.0000     -14.109302      -383.9336
   1   2.0000     -14.108894      -383.9225
   2   2.0000     -10.040887      -273.2264
   3   2.0000     -10.027688      -272.8673
   4   2.0000      -9.992436      -271.9080
   5   2.0000      -9.904133      -269.5052
   6   2.0000      -0.887713       -24.1559
   7   2.0000      -0.806754       -21.9529
   8   2.0000      -0.708329       -19.2746
   9   2.0000      -0.635071       -17.2812
  10   2.0000      -0.570685       -15.5291
  11   2.0000      -0.541087       -14.7237
  12   2.0000      -0.482535       -13.1304
  13   2.0000      -0.449946       -12.2436
  14   2.0000      -0.430922       -11.7260
  15   2.0000      -0.396614       -10.7924
  16   2.0000      -0.382759       -10.4154
  17   2.0000      -0.358787        -9.7631
  18   2.0000      -0.331996        -9.0341
  19   2.0000      -0.329838        -8.9753
  20   2.0000      -0.321686        -8.7535
  21   2.0000      -0.311486        -8.4760
  22   2.0000      -0.209062        -5.6889
  23   2.0000      -0.120750        -3.2858
  24   0.0000       0.031343         0.8529
  25   0.0000       0.055774         1.5177
  26   0.0000       0.064800         1.7633
  27   0.0000       0.084611         2.3024
  28   0.0000       0.095186         2.5901

MULLIKEN ATOMIC CHARGES
-----------------------
   0 C :    0.053164
   1 C :    0.038193
   2 N :   -0.131573
   3 H :    0.011681
   4 H :    0.009909
   5 C :   -0.057269
   6 C :   -0.076364
   7 N :   -0.104802
   8 H :    0.095306
   9 H :    0.123618
  10 H :    0.121869
  11 H :   -0.066870
  12 H :   -0.049609
  13 H :    0.012743
  14 H :    0.013532
  15 H :    0.006473
Sum of atomic charges:    0.0000000

LOEWDIN ATOMIC CHARGES
----------------------
   0 C :    0.033724
   1 C :   -0.052674
   2 N :   -0.013852
   3 H :    0.020090
   4 H :    0.013334
   5 C :    0.024360
   6 C :   -0.249259
   7 N :   -0.025223
   8 H :    0.056846
   9 H :    0.080942
  10 H :    0.083989
  11 H :   -0.014422
  12 H :   -0.011059
  13 H :    0.018501
  14 H :    0.017545
  15 H :    0.017158

  Mayer bond orders larger than 0.100000
B(  0-C ,  1-C ) :   1.0828 B(  0-C ,  2-N ) :   1.0240 B(  0-C ,  3-H ) :   0.9464
B(  0-C ,  4-H ) :   0.9444 B(  1-C , 13-H ) :   0.9670 B(  1-C , 14-H ) :   0.9660
B(  1-C , 15-H ) :   0.9582 B(  2-N ,  5-C ) :   1.2207 B(  2-N , 10-H ) :   0.9165
B(  5-C ,  6-C ) :   1.7177 B(  5-C ,  7-N ) :   1.2127 B(  6-C , 11-H ) :   0.9234
B(  6-C , 12-H ) :   0.9492 B(  7-N ,  8-H ) :   0.9499 B(  7-N ,  9-H ) :   0.9466

Dispersion correction           -0.015662292
FINAL SINGLE POINT ENERGY      -267.758235342274

DIPOLE MOMENT
-------------
                                X             Y             Z
Electronic contribution:     -0.84912      -1.06117       2.48591
Nuclear contribution   :      1.38466       1.98967      -2.80776
                        -----------------------------------------
Total Dipole Moment    :      0.53553       0.92850      -0.32185
                        -----------------------------------------
Magnitude (a.u.)       :      1.11915
Magnitude (Debye)      :      2.84466

Rotational constants in cm-1:     0.235618     0.075969     0.065309
Rotational constants in MHz :  7063.646698  2277.495424  1957.925383

                             ****ORCA TERMINATED NORMALLY****
TOTAL RUN TIME: 0 days 0 hours 0 minutes 10 seconds 915 msec
