                         Program Version 5.0.0 -  RELEASE  -
|  1> !TPSS D3BJ RIJCOSX def2-SVP def2/J TightSCF
|  2> *xyz 0 1
|  3> C          3.48828        1.60092       -1.52204
|  4> C          4.34297        1.31342       -2.75683
|  5> N          2.81029        0.42878       -1.01420
|  6> H          2.71455        2.33145       -1.76030
|  7> H          4.09099        2.06315       -0.73338
|  8> C          3.29098       -0.41802       -0.12908
|  9> N          2.51754       -1.43202        0.23936
| 10> C          4.53549       -0.28441        0.39580
| 11> H          5.04363        0.57189        0.22290
| 12> H          4.72335       -0.73327        1.28180
| 13> H          1.93479        0.10230       -1.40379
| 14> H          1.67464       -1.50562       -0.31610
| 15> H          2.92850       -2.21850        0.72549
| 16> H          3.73575        0.86277       -3.51385
| 17> H          5.13754        0.64699       -2.49333
| 18> H          4.75374        2.22930       -3.12740
| 19> *
| 20> %MaxCore 64000
| 21>
| 22> %pal nprocs 4
| 23> end
| 24>
| 25> %scf
| 26>   MaxIter 150
| 27> end
| 28>
| 29>
| 30>                          ****END OF INPUT****

CARTESIAN COORDINATES (ANGSTROEM)
---------------------------------
  C      3.488280    1.600920   -1.522040
  C      4.342970    1.313420   -2.756830
  N      2.810290    0.428780   -1.014200
  H      2.714550    2.331450   -1.760300
  H      4.090990    2.063150   -0.733380
  C      3.290980   -0.418020   -0.129080
  N      2.517540   -1.432020    0.239360
  C      4.535490   -0.284410    0.395800
  H      5.043630    0.571890    0.222900
  H      4.723350   -0.733270    1.281800
  H      1.934790    0.102300   -1.403790
  H      1.674640   -1.505620   -0.316100
  H      2.928500   -2.218500    0.725490
  H      3.735750    0.862770   -3.513850
  H      5.137540    0.646990   -2.493330
  H      4.753740    2.229300   -3.127400

 Total Charge           Charge          ....    0
 Multiplicity           Mult            ....    1
 Number of Electrons    NEL             ....   48
 Basis Dimension        Dim             ....  134

ORBITAL ENERGIES
----------------

  NO   OCC          E(Eh)            E(eV)
   0   2.0000     -14.114287      -384.0693
   1   2.0000     -14.111260      -383.9869
   2   2.0000     -10.032260      -272.9917
   3   2.0000     -10.029996      -272.9301
   4   2.0000      -9.983896      -271.6756
   5   2.0000      -9.903431      -269.4861
   6   2.0000      -0.895896       -24.3786
   7   2.0000      -0.811662       -22.0865
   8   2.0000      -0.689738       -18.7687
   9   2.0000      -0.635537       -17.2938
  10   2.0000      -0.584858       -15.9148
  11   2.0000      -0.507480       -13.8092
  12   2.0000      -0.488457       -13.2916
  13   2.0000      -0.476835       -12.9753
  14   2.0000      -0.421139       -11.4598
  15   2.0000      -0.395121       -10.7518
  16   2.0000      -0.376080       -10.2337
  17   2.0000      -0.347484        -9.4555
  18   2.0000      -0.335499        -9.1294
  19   2.0000      -0.321891        -8.7591
  20   2.0000      -0.311954        -8.4887
  21   2.0000      -0.308102        -8.3839
  22   2.0000      -0.204707        -5.5704
  23   2.0000      -0.121887        -3.3167
  24   0.0000       0.023941         0.6515
  25   0.0000       0.062949         1.7129
  26   0.0000       0.067920         1.8482
  27   0.0000       0.083466         2.2712
  28   0.0000       0.104791         2.8515

MULLIKEN ATOMIC CHARGES
-----------------------
   0 C :    0.082118
   1 C :    0.027435
   2 N :   -0.153232
   3 H :    0.004251
   4 H :    0.032866
   5 C :   -0.049870
   6 N :   -0.072798
   7 C :   -0.119332
   8 H :   -0.053646
   9 H :   -0.051864
  10 H :    0.092325
  11 H :    0.093404
  12 H :    0.130018
  13 H :    0.000692
  14 H :    0.029958
  15 H :    0.007677
Sum of atomic charges:    0.0000000

LOEWDIN ATOMIC CHARGES
----------------------
   0 C :    0.047049
   1 C :   -0.049323
   2 N :   -0.012965
   3 H :    0.016333
   4 H :    0.026351
   5 C :    0.019710
   6 N :   -0.010109
   7 C :   -0.270820
   8 H :   -0.015084
   9 H :   -0.012492
  10 H :    0.060380
  11 H :    0.058955
  12 H :    0.085392
  13 H :    0.013205
  14 H :    0.024885
  15 H :    0.018534

  Mayer bond orders larger than 0.100000
B(  0-C ,  1-C ) :   1.1012 B(  0-C ,  2-N ) :   1.0022 B(  0-C ,  3-H ) :   0.9500
B(  0-C ,  4-H ) :   0.9369 B(  1-C , 13-H ) :   0.9662 B(  1-C , 14-H ) :   0.9672
B(  1-C , 15-H ) :   0.9612 B(  2-N ,  5-C ) :   1.2001 B(  2-N , 10-H ) :   0.9290
B(  5-C ,  6-N ) :   1.2402 B(  5-C ,  7-C ) :   1.6992 B(  6-N , 11-H ) :   0.9479
B(  6-N , 12-H ) :   0.9422 B(  7-C ,  8-H ) :   0.9377 B(  7-C ,  9-H ) :   0.9437

Dispersion correction           -0.015762636
FINAL SINGLE POINT ENERGY      -267.757397350510

DIPOLE MOMENT
-------------
                                X             Y             Z
Electronic contribution:     -2.89921      -2.37819       2.20624
Nuclear contribution   :      1.81275       2.23313      -2.77458
                        -----------------------------------------
Total Dipole Moment    :     -1.08646      -0.14507      -0.56834
                        -----------------------------------------
Magnitude (a.u.)       :      1.23469
Magnitude (Debye)      :      3.13833

Rotational constants in cm-1:     0.245202     0.073668     0.064348
Rotational constants in MHz :  7350.977980  2208.513334  1929.108541

                             ****ORCA TERMINATED NORMALLY****
TOTAL RUN TIME: 0 days 0 hours 0 minutes 11 seconds 751 msec
