                         Program Version 5.0.0 -  RELEASE  -
|  1> !TPSS D3BJ RIJCOSX def2-TZVP def2/J TightSCF xyzfile
|  2>
|  3> *xyzfile 0 1 D3.xyz
|  4>
|  5> %MaxCore 64000
|  6>
|  7> %pal nprocs 18
|  8> end
|  9>
| 10> %scf
| 11>   MaxIter 150
| 12> end
| 13>
| 14>
| 15>                          ****END OF INPUT****

CARTESIAN COORDINATES (ANGSTROEM)
---------------------------------
  C      3.488276    1.600919   -1.522040
  C      4.342970    1.313419   -2.756826
  N      2.810285    0.428783   -1.014196
  H      5.132033    0.604994   -2.484466
  C      3.535896    0.749253   -3.924604
  H      4.841247    2.242136   -3.054083
  H      2.991617   -0.132199   -3.574137
  H      4.225505    0.392784   -4.695962
  C      2.564776    1.750890   -4.544523
  H      1.918749    2.171679   -3.769419
  C      1.686235    1.161657   -5.650111
  H      3.132494    2.594775   -4.951604
  C      0.839616   -0.037582   -5.220473
  H      2.323886    0.866395   -6.490796
  H      1.029518    1.951850   -6.029329
  C     -0.151019    0.254955   -4.094256
  H      1.499442   -0.857141   -4.922958
  H      0.290097   -0.410143   -6.091131
  H      0.328265    0.833022   -3.299125
  C     -0.721843   -0.999513   -3.439309
  H     -0.957367    0.884951   -4.485450
  H     -1.083403   -1.697555   -4.205656
  H     -1.581056   -0.723848   -2.820490
  C      0.287250   -1.711771   -2.527405
  H      1.131780   -2.067380   -3.159396
  H     -0.204137   -2.637326   -2.170480
  F      0.710505   -0.927506   -1.481767
  H      2.714548    2.331455   -1.760302
  H      4.090991    2.063151   -0.733382
  C      3.290978   -0.418021   -0.129083
  N      2.517536   -1.432017    0.239360
  C      4.535490   -0.284410    0.395800
  H      5.043627    0.571888    0.222899
  H      4.723346   -0.733273    1.281800
  H      1.934787    0.102305   -1.403788
  H      1.674638   -1.505616   -0.316095
  H      2.928503   -2.218502    0.725494

 Total Charge           Charge          ....    0
 Multiplicity           Mult            ....    1
 Number of Electrons    NEL             ....  112
 Basis Dimension        Dim             ....  572

ORBITAL ENERGIES
----------------

  NO   OCC          E(Eh)            E(eV)
   0   2.0000     -24.453110      -665.4029
   1   2.0000     -14.078198      -383.0873
   2   2.0000     -14.072622      -382.9355
   3   2.0000     -10.089569      -274.5511
   4   2.0000     -10.010239      -272.3924
   5   2.0000     -10.004047      -272.2240
   6   2.0000     -10.002205      -272.1738
   7   2.0000      -9.996009      -272.0052
   8   2.0000      -9.990112      -271.8448
   9   2.0000      -9.984998      -271.7056
  10   2.0000      -9.979440      -271.5544
  11   2.0000      -9.975453      -271.4459
  12   2.0000      -9.969655      -271.2881
  13   2.0000      -9.876063      -268.7413
  14   2.0000      -1.184857       -32.2416
  15   2.0000      -0.889920       -24.2159
  16   2.0000      -0.807033       -21.9605
  17   2.0000      -0.773998       -21.0616
  18   2.0000      -0.745123       -20.2758
  19   2.0000      -0.712824       -19.3969
  20   2.0000      -0.673029       -18.3141
  21   2.0000      -0.641634       -17.4598
  22   2.0000      -0.632220       -17.2036
  23   2.0000      -0.603185       -16.4135
  24   2.0000      -0.571909       -15.5624
  25   2.0000      -0.546324       -14.8662
  26   2.0000      -0.525441       -14.2980
  27   2.0000      -0.513226       -13.9656
  28   2.0000      -0.503635       -13.7046
  29   2.0000      -0.482335       -13.1250
  30   2.0000      -0.471440       -12.8285
  31   2.0000      -0.461066       -12.5462
  32   2.0000      -0.449556       -12.2330
  33   2.0000      -0.433086       -11.7849
  34   2.0000      -0.419684       -11.4202
  35   2.0000      -0.411113       -11.1869
  36   2.0000      -0.399351       -10.8669
  37   2.0000      -0.394984       -10.7481
  38   2.0000      -0.386103       -10.5064
  39   2.0000      -0.370833       -10.0909
  40   2.0000      -0.358921        -9.7667
  41   2.0000      -0.345236        -9.3943
  42   2.0000      -0.341652        -9.2968
  43   2.0000      -0.333540        -9.0761
  44   2.0000      -0.329627        -8.9696
  45   2.0000      -0.321357        -8.7446
  46   2.0000      -0.314688        -8.5631
  47   2.0000      -0.309837        -8.4311
  48   2.0000      -0.301987        -8.2175
  49   2.0000      -0.299742        -8.1564
  50   2.0000      -0.293832        -7.9956
  51   2.0000      -0.282275        -7.6811
  52   2.0000      -0.281016        -7.6468
  53   2.0000      -0.273866        -7.4523
  54   2.0000      -0.191824        -5.2198
  55   2.0000      -0.115843        -3.1522
  56   0.0000       0.007772         0.2115
  57   0.0000       0.021473         0.5843
  58   0.0000       0.030693         0.8352
  59   0.0000       0.033386         0.9085
  60   0.0000       0.042509         1.1567

MULLIKEN ATOMIC CHARGES
-----------------------
   0 C :   -0.165320
   1 C :   -0.032442
   2 N :   -0.304280
   3 H :    0.109591
   4 C :   -0.248779
   5 H :    0.066499
   6 H :    0.091224
   7 H :    0.083463
   8 C :   -0.236082
   9 H :    0.093864
  10 C :   -0.054840
  11 H :    0.086368
  12 C :   -0.258244
  13 H :    0.081770
  14 H :    0.077804
  15 C :   -0.190264
  16 H :    0.101435
  17 H :    0.092059
  18 H :    0.101350
  19 C :   -0.114168
  20 H :    0.097301
  21 H :    0.095034
  22 H :    0.101687
  23 C :   -0.027621
  24 H :    0.108799
  25 H :    0.121171
  26 F :   -0.238725
  27 H :    0.107928
  28 H :    0.116592
  29 C :    0.313194
  30 N :   -0.482334
  31 C :   -0.562938
  32 H :    0.081086
  33 H :    0.085408
  34 H :    0.229557
  35 H :    0.233266
  36 H :    0.239589
Sum of atomic charges:   -0.0000000

LOEWDIN ATOMIC CHARGES
----------------------
   0 C :   -0.277192
   1 C :   -0.260177
   2 N :    0.129129
   3 H :    0.141383
   4 C :   -0.266099
   5 H :    0.132209
   6 H :    0.128019
   7 H :    0.133757
   8 C :   -0.265662
   9 H :    0.127805
  10 C :   -0.260828
  11 H :    0.134649
  12 C :   -0.265929
  13 H :    0.134689
  14 H :    0.133577
  15 C :   -0.263463
  16 H :    0.129473
  17 H :    0.133698
  18 H :    0.135399
  19 C :   -0.265807
  20 H :    0.136557
  21 H :    0.144465
  22 H :    0.138372
  23 C :   -0.340621
  24 H :    0.124462
  25 H :    0.127107
  26 F :    0.148785
  27 H :    0.125557
  28 H :    0.136133
  29 C :   -0.474128
  30 N :   -0.014773
  31 C :   -0.376660
  32 H :    0.089984
  33 H :    0.090367
  34 H :    0.159757
  35 H :    0.144043
  36 H :    0.171965

  Mayer bond orders larger than 0.100000
B(  0-C ,  1-C ) :   0.9989 B(  0-C ,  2-N ) :   0.9669 B(  0-C , 27-H ) :   0.9715
B(  0-C , 28-H ) :   0.9418 B(  1-C ,  3-H ) :   0.9329 B(  1-C ,  4-C ) :   1.0141
B(  1-C ,  5-H ) :   0.9418 B(  2-N , 29-C ) :   1.2173 B(  2-N , 34-H ) :   0.8721
B(  4-C ,  6-H ) :   0.9620 B(  4-C ,  7-H ) :   0.9405 B(  4-C ,  8-C ) :   1.0155
B(  8-C ,  9-H ) :   0.9703 B(  8-C , 10-C ) :   1.0200 B(  8-C , 11-H ) :   0.9382
B( 10-C , 12-C ) :   1.0109 B( 10-C , 13-H ) :   0.9413 B( 10-C , 14-H ) :   0.9443
B( 12-C , 15-C ) :   1.0114 B( 12-C , 16-H ) :   0.9716 B( 12-C , 17-H ) :   0.9365
B( 15-C , 18-H ) :   0.9663 B( 15-C , 19-C ) :   1.0061 B( 15-C , 20-H ) :   0.9426
B( 19-C , 21-H ) :   0.9313 B( 19-C , 22-H ) :   0.9424 B( 19-C , 23-C ) :   1.0478
B( 23-C , 24-H ) :   0.9627 B( 23-C , 25-H ) :   0.9496 B( 23-C , 26-F ) :   0.8906
B( 29-C , 30-N ) :   1.1678 B( 29-C , 31-C ) :   1.6094 B( 30-N , 35-H ) :   0.8861
B( 30-N , 36-H ) :   0.9156 B( 31-C , 32-H ) :   0.9937 B( 31-C , 33-H ) :   0.9819

Dispersion correction           -0.049801955
FINAL SINGLE POINT ENERGY      -642.684970989999

DIPOLE MOMENT
-------------
                                X             Y             Z
Electronic contribution:     -3.25115      -4.32001       9.12099
Nuclear contribution   :      1.49917       3.80845     -10.61369
                        -----------------------------------------
Total Dipole Moment    :     -1.75198      -0.51156      -1.49270
                        -----------------------------------------
Magnitude (a.u.)       :      2.35781
Magnitude (Debye)      :      5.99307

Rotational constants in cm-1:     0.026547     0.016542     0.011018
Rotational constants in MHz :   795.873737   495.912559   330.323979

                             ****ORCA TERMINATED NORMALLY****
TOTAL RUN TIME: 0 days 0 hours 0 minutes 38 seconds 886 msec
