                         Program Version 5.0.0 -  RELEASE  -
|  1> !wB97X-D3 RIJCOSX def2-TZVPD def2/J TightSCF
|  2> *xyz -1 1
|  3> C         -0.15102        0.25496       -4.09426
|  4> C         -0.72184       -0.99951       -3.43931
|  5> H         -1.08340       -1.69755       -4.20566
|  6> H         -1.58106       -0.72385       -2.82049
|  7> C          0.28725       -1.71177       -2.52740
|  8> H          1.13178       -2.06738       -3.15940
|  9> H         -0.20414       -2.63733       -2.17048
| 10> O          0.71050       -0.92751       -1.48177
| 11> H         -0.89787        0.70479       -4.71455
| 12> H          0.69695       -0.00870       -4.69119
| 13> H          0.14812        0.94842       -3.33628
| 14> *
| 15> %MaxCore 64000
| 16>
| 17> %pal nprocs 18
| 18> end
| 19>
| 20> %scf
| 21>   MaxIter 150
| 22> end
| 23>
| 24>
| 25>                          ****END OF INPUT****

CARTESIAN COORDINATES (ANGSTROEM)
---------------------------------
  C     -0.151020    0.254960   -4.094260
  C     -0.721840   -0.999510   -3.439310
  H     -1.083400   -1.697550   -4.205660
  H     -1.581060   -0.723850   -2.820490
  C      0.287250   -1.711770   -2.527400
  H      1.131780   -2.067380   -3.159400
  H     -0.204140   -2.637330   -2.170480
  O      0.710500   -0.927510   -1.481770
  H     -0.897870    0.704790   -4.714550
  H      0.696950   -0.008700   -4.691190
  H      0.148120    0.948420   -3.336280

 Total Charge           Charge          ....   -1
 Multiplicity           Mult            ....    1
 Number of Electrons    NEL             ....   34
 Basis Dimension        Dim             ....  214

ORBITAL ENERGIES
----------------

  NO   OCC          E(Eh)            E(eV)
   0   2.0000     -18.896854      -514.2096
   1   2.0000     -10.089654      -274.5534
   2   2.0000     -10.089039      -274.5367
   3   2.0000     -10.082527      -274.3595
   4   2.0000      -0.797350       -21.6970
   5   2.0000      -0.699876       -19.0446
   6   2.0000      -0.580646       -15.8002
   7   2.0000      -0.474304       -12.9065
   8   2.0000      -0.376045       -10.2327
   9   2.0000      -0.366979        -9.9860
  10   2.0000      -0.316882        -8.6228
  11   2.0000      -0.283606        -7.7173
  12   2.0000      -0.254841        -6.9346
  13   2.0000      -0.246199        -6.6994
  14   2.0000      -0.205803        -5.6002
  15   2.0000      -0.064200        -1.7470
  16   2.0000      -0.061196        -1.6652
  17   0.0000       0.201268         5.4768
  18   0.0000       0.219135         5.9630
  19   0.0000       0.230470         6.2714
  20   0.0000       0.252240         6.8638
  21   0.0000       0.275169         7.4877

MULLIKEN ATOMIC CHARGES
-----------------------
   0 C :   -1.095676
   1 C :   -0.142342
   2 H :    0.264553
   3 H :    0.243682
   4 C :   -0.487548
   5 H :    0.166159
   6 H :    0.153286
   7 O :   -0.927209
   8 H :    0.286009
   9 H :    0.280252
  10 H :    0.258834
Sum of atomic charges:   -1.0000000

LOEWDIN ATOMIC CHARGES
----------------------
   0 C :   -0.151978
   1 C :   -0.303504
   2 H :    0.078848
   3 H :    0.087345
   4 C :   -0.569738
   5 H :    0.067197
   6 H :    0.059866
   7 O :   -0.409496
   8 H :    0.038531
   9 H :    0.051678
  10 H :    0.051252

  Mayer bond orders larger than 0.100000
B(  0-C ,  1-C ) :   0.6346 B(  0-C ,  4-C ) :   0.2011 B(  0-C ,  8-H ) :   0.9384
B(  0-C ,  9-H ) :   0.9543 B(  0-C , 10-H ) :   1.0463 B(  1-C ,  2-H ) :   0.9983
B(  1-C ,  3-H ) :   0.9711 B(  1-C ,  4-C ) :   0.7886 B(  4-C ,  5-H ) :   1.0520
B(  4-C ,  6-H ) :   1.0821 B(  4-C ,  7-O ) :   1.1060

Dispersion correction           -0.001939192
FINAL SINGLE POINT ENERGY      -193.759920549963

DIPOLE MOMENT
-------------
                                X             Y             Z
Electronic contribution:      1.02569      -0.20450       2.74658
Nuclear contribution   :     -1.95025       0.39850      -4.64834
                        -----------------------------------------
Total Dipole Moment    :     -0.92456       0.19400      -1.90176
                        -----------------------------------------
Magnitude (a.u.)       :      2.12347
Magnitude (Debye)      :      5.39743

Rotational constants in cm-1:     0.507767     0.175836     0.148827
Rotational constants in MHz : 15222.471408  5271.439482  4461.706759

                             ****ORCA TERMINATED NORMALLY****
TOTAL RUN TIME: 0 days 0 hours 0 minutes 12 seconds 69 msec
