                         Program Version 5.0.0 -  RELEASE  -
|  1> !wB97X-D3 RIJCOSX def2-TZVPD def2/J TightSCF
|  2> *xyz 1 1
|  3> C          3.48828        1.60092       -1.52204
|  4> C          4.34297        1.31342       -2.75683
|  5> N          2.81029        0.42878       -1.01420
|  6> H          5.13203        0.60499       -2.48447
|  7> C          3.53590        0.74925       -3.92460
|  8> H          4.84125        2.24214       -3.05408
|  9> H          2.71455        2.33145       -1.76030
| 10> H          4.09099        2.06315       -0.73338
| 11> C          3.29098       -0.41802       -0.12908
| 12> N          2.51754       -1.43202        0.23936
| 13> N          4.53549       -0.28441        0.39580
| 14> H          5.04363        0.57189        0.22290
| 15> H          4.72335       -0.73327        1.28180
| 16> H          1.93479        0.10230       -1.40379
| 17> H          1.67464       -1.50562       -0.31610
| 18> H          2.92850       -2.21850        0.72549
| 19> H          4.18704        0.56990       -4.75451
| 20> H          2.78096        1.45217       -4.20898
| 21> H          3.07436       -0.16949       -3.62832
| 22> *
| 23> %MaxCore 64000
| 24>
| 25> %pal nprocs 18
| 26> end
| 27>
| 28> %scf
| 29>   MaxIter 150
| 30> end
| 31>
| 32>
| 33>                          ****END OF INPUT****

CARTESIAN COORDINATES (ANGSTROEM)
---------------------------------
  C      3.488280    1.600920   -1.522040
  C      4.342970    1.313420   -2.756830
  N      2.810290    0.428780   -1.014200
  H      5.132030    0.604990   -2.484470
  C      3.535900    0.749250   -3.924600
  H      4.841250    2.242140   -3.054080
  H      2.714550    2.331450   -1.760300
  H      4.090990    2.063150   -0.733380
  C      3.290980   -0.418020   -0.129080
  N      2.517540   -1.432020    0.239360
  N      4.535490   -0.284410    0.395800
  H      5.043630    0.571890    0.222900
  H      4.723350   -0.733270    1.281800
  H      1.934790    0.102300   -1.403790
  H      1.674640   -1.505620   -0.316100
  H      2.928500   -2.218500    0.725490
  H      4.187040    0.569900   -4.754510
  H      2.780960    1.452170   -4.208980
  H      3.074360   -0.169490   -3.628320

 Total Charge           Charge          ....    1
 Multiplicity           Mult            ....    1
 Number of Electrons    NEL             ....   56
 Basis Dimension        Dim             ....  367

ORBITAL ENERGIES
----------------

  NO   OCC          E(Eh)            E(eV)
   0   2.0000     -14.648504      -398.6061
   1   2.0000     -14.643509      -398.4701
   2   2.0000     -14.641102      -398.4046
   3   2.0000     -10.610688      -288.7315
   4   2.0000     -10.480307      -285.1836
   5   2.0000     -10.417143      -283.4649
   6   2.0000     -10.387146      -282.6486
   7   2.0000      -1.336791       -36.3759
   8   2.0000      -1.222027       -33.2530
   9   2.0000      -1.207965       -32.8704
  10   2.0000      -1.058275       -28.7971
  11   2.0000      -0.976118       -26.5615
  12   2.0000      -0.932609       -25.3776
  13   2.0000      -0.885079       -24.0842
  14   2.0000      -0.872812       -23.7504
  15   2.0000      -0.836430       -22.7604
  16   2.0000      -0.789268       -21.4771
  17   2.0000      -0.779793       -21.2192
  18   2.0000      -0.753752       -20.5106
  19   2.0000      -0.739236       -20.1156
  20   2.0000      -0.697965       -18.9926
  21   2.0000      -0.680861       -18.5272
  22   2.0000      -0.648903       -17.6576
  23   2.0000      -0.599554       -16.3147
  24   2.0000      -0.584245       -15.8981
  25   2.0000      -0.578302       -15.7364
  26   2.0000      -0.568953       -15.4820
  27   2.0000      -0.538141       -14.6436
  28   0.0000      -0.091984        -2.5030
  29   0.0000      -0.086081        -2.3424
  30   0.0000      -0.060364        -1.6426
  31   0.0000      -0.045709        -1.2438
  32   0.0000      -0.022337        -0.6078

MULLIKEN ATOMIC CHARGES
-----------------------
   0 C :   -1.001768
   1 C :   -0.041182
   2 N :   -0.127865
   3 H :    0.267502
   4 C :   -1.320575
   5 H :    0.336465
   6 H :    0.348653
   7 H :    0.379594
   8 C :    0.743450
   9 N :   -0.403055
  10 N :   -0.388021
  11 H :    0.236966
  12 H :    0.229957
  13 H :    0.254343
  14 H :    0.221276
  15 H :    0.239127
  16 H :    0.334650
  17 H :    0.360097
  18 H :    0.330386
Sum of atomic charges:    1.0000000

LOEWDIN ATOMIC CHARGES
----------------------
   0 C :   -0.171896
   1 C :   -0.228786
   2 N :    0.087044
   3 H :    0.109904
   4 C :   -0.091668
   5 H :    0.121924
   6 H :    0.136869
   7 H :    0.124041
   8 C :   -0.420495
   9 N :    0.200165
  10 N :    0.209106
  11 H :    0.118289
  12 H :    0.137012
  13 H :    0.166873
  14 H :    0.138313
  15 H :    0.145578
  16 H :    0.078915
  17 H :    0.077432
  18 H :    0.061379

  Mayer bond orders larger than 0.100000
B(  0-C ,  1-C ) :   0.8322 B(  0-C ,  2-N ) :   1.0079 B(  0-C ,  4-C ) :   0.2102
B(  0-C ,  6-H ) :   0.9106 B(  0-C ,  7-H ) :   0.8436 B(  0-C ,  8-C ) :  -0.1023
B(  1-C ,  3-H ) :   0.9294 B(  1-C ,  4-C ) :   0.6124 B(  1-C ,  5-H ) :   0.9252
B(  2-N ,  8-C ) :   1.2240 B(  2-N ,  9-N ) :   0.1140 B(  2-N , 13-H ) :   0.9637
B(  4-C , 16-H ) :   0.9612 B(  4-C , 17-H ) :   0.9420 B(  4-C , 18-H ) :   0.9371
B(  8-C ,  9-N ) :   1.0920 B(  8-C , 10-N ) :   1.1422 B(  9-N , 14-H ) :   0.9582
B(  9-N , 15-H ) :   0.9744 B( 10-N , 11-H ) :   0.9166 B( 10-N , 12-H ) :   0.9937

Dispersion correction           -0.005309187
FINAL SINGLE POINT ENERGY      -323.747210159327

DIPOLE MOMENT
-------------
                                X             Y             Z
Electronic contribution:     -1.34409      -2.89108       6.37205
Nuclear contribution   :      1.03951       2.07316      -5.00363
                        -----------------------------------------
Total Dipole Moment    :     -0.30459      -0.81792       1.36842
                        -----------------------------------------
Magnitude (a.u.)       :      1.62307
Magnitude (Debye)      :      4.12551

Rotational constants in cm-1:     0.160664     0.048801     0.043832
Rotational constants in MHz :  4816.589604  1463.007061  1314.037102

                             ****ORCA TERMINATED NORMALLY****
TOTAL RUN TIME: 0 days 0 hours 0 minutes 39 seconds 401 msec
