                         Program Version 5.0.0 -  RELEASE  -
|  1> !wB97X-D3 RIJCOSX def2-TZVPD def2/J TightSCF xyzfile
|  2>
|  3> *xyzfile 0 1 B.xyz
|  4>
|  5> %MaxCore 64000
|  6>
|  7> %pal nprocs 18
|  8> end
|  9>
| 10> %scf
| 11>   MaxIter 150
| 12> end
| 13>
| 14>
| 15>                          ****END OF INPUT****

CARTESIAN COORDINATES (ANGSTROEM)
---------------------------------
  C      3.488276    1.600919   -1.522040
  C      4.342970    1.313419   -2.756826
  N      2.810285    0.428783   -1.014196
  H      5.132033    0.604994   -2.484466
  C      3.535896    0.749253   -3.924604
  H      4.841247    2.242136   -3.054083
  H      2.991617   -0.132199   -3.574137
  H      4.225505    0.392784   -4.695962
  C      2.564776    1.750890   -4.544523
  H      1.918749    2.171679   -3.769419
  C      1.686235    1.161657   -5.650111
  H      3.132494    2.594775   -4.951604
  C      0.839616   -0.037582   -5.220473
  H      2.323886    0.866395   -6.490796
  H      1.029518    1.951850   -6.029329
  C     -0.151019    0.254955   -4.094256
  H      1.499442   -0.857141   -4.922958
  H      0.290097   -0.410143   -6.091131
  H      0.328265    0.833022   -3.299125
  C     -0.721843   -0.999513   -3.439309
  H     -0.957367    0.884951   -4.485450
  H     -1.083403   -1.697555   -4.205656
  H     -1.581056   -0.723848   -2.820490
  C      0.287250   -1.711771   -2.527405
  H      1.131780   -2.067380   -3.159396
  H     -0.204137   -2.637326   -2.170480
  O      0.710505   -0.927506   -1.481767
  H      2.714548    2.331455   -1.760302
  H      4.090991    2.063151   -0.733382
  C      3.290978   -0.418021   -0.129083
  N      2.517536   -1.432017    0.239360
  N      4.535490   -0.284410    0.395800
  H      5.043627    0.571888    0.222899
  H      4.723346   -0.733273    1.281800
  H      1.934787    0.102305   -1.403788
  H      1.674638   -1.505616   -0.316095
  H      2.928503   -2.218502    0.725494

 Total Charge           Charge          ....    0
 Multiplicity           Mult            ....    1
 Number of Electrons    NEL             ....  112
 Basis Dimension        Dim             ....  728

ORBITAL ENERGIES
----------------

  NO   OCC          E(Eh)            E(eV)
   0   2.0000     -19.095668      -519.6195
   1   2.0000     -14.481499      -394.0616
   2   2.0000     -14.443804      -393.0359
   3   2.0000     -14.435557      -392.8115
   4   2.0000     -10.426821      -283.7282
   5   2.0000     -10.329456      -281.0788
   6   2.0000     -10.284416      -279.8532
   7   2.0000     -10.267063      -279.3810
   8   2.0000     -10.261472      -279.2288
   9   2.0000     -10.254691      -279.0443
  10   2.0000     -10.251551      -278.9589
  11   2.0000     -10.242578      -278.7147
  12   2.0000     -10.231822      -278.4220
  13   2.0000     -10.219500      -278.0867
  14   2.0000      -1.152551       -31.3625
  15   2.0000      -1.045697       -28.4549
  16   2.0000      -1.026030       -27.9197
  17   2.0000      -0.996252       -27.1094
  18   2.0000      -0.929386       -25.2899
  19   2.0000      -0.894402       -24.3379
  20   2.0000      -0.855191       -23.2709
  21   2.0000      -0.816338       -22.2137
  22   2.0000      -0.774089       -21.0640
  23   2.0000      -0.758688       -20.6449
  24   2.0000      -0.720967       -19.6185
  25   2.0000      -0.708008       -19.2659
  26   2.0000      -0.702011       -19.1027
  27   2.0000      -0.670550       -18.2466
  28   2.0000      -0.652229       -17.7481
  29   2.0000      -0.624631       -16.9971
  30   2.0000      -0.614117       -16.7110
  31   2.0000      -0.596009       -16.2182
  32   2.0000      -0.585209       -15.9243
  33   2.0000      -0.572240       -15.5714
  34   2.0000      -0.562828       -15.3153
  35   2.0000      -0.555499       -15.1159
  36   2.0000      -0.534696       -14.5498
  37   2.0000      -0.519924       -14.1479
  38   2.0000      -0.512529       -13.9466
  39   2.0000      -0.492072       -13.3900
  40   2.0000      -0.486569       -13.2402
  41   2.0000      -0.475183       -12.9304
  42   2.0000      -0.454783       -12.3753
  43   2.0000      -0.447900       -12.1880
  44   2.0000      -0.440233       -11.9794
  45   2.0000      -0.427869       -11.6429
  46   2.0000      -0.414741       -11.2857
  47   2.0000      -0.405139       -11.0244
  48   2.0000      -0.403474       -10.9791
  49   2.0000      -0.399280       -10.8650
  50   2.0000      -0.381013       -10.3679
  51   2.0000      -0.377134       -10.2623
  52   2.0000      -0.371120       -10.0987
  53   2.0000      -0.357011        -9.7148
  54   2.0000      -0.269611        -7.3365
  55   2.0000      -0.263303        -7.1648
  56   0.0000       0.042324         1.1517
  57   0.0000       0.066921         1.8210
  58   0.0000       0.073941         2.0120
  59   0.0000       0.082072         2.2333
  60   0.0000       0.087963         2.3936

MULLIKEN ATOMIC CHARGES
-----------------------
   0 C :   -1.325624
   1 C :   -0.327352
   2 N :    0.038593
   3 H :    0.267051
   4 C :   -0.266514
   5 H :    0.315063
   6 H :    0.049249
   7 H :    0.304137
   8 C :   -0.475135
   9 H :    0.253673
  10 C :   -0.801517
  11 H :    0.291426
  12 C :   -0.495233
  13 H :    0.309894
  14 H :    0.313605
  15 C :   -0.203170
  16 H :    0.199771
  17 H :    0.333254
  18 H :    0.043769
  19 C :   -0.634814
  20 H :    0.299053
  21 H :    0.269288
  22 H :    0.302708
  23 C :   -0.538280
  24 H :    0.209913
  25 H :    0.272162
  26 O :   -1.071394
  27 H :    0.307941
  28 H :    0.443293
  29 C :    0.621298
  30 N :   -0.332232
  31 N :   -0.391886
  32 H :    0.229773
  33 H :    0.215855
  34 H :    0.463044
  35 H :    0.320055
  36 H :    0.189281
Sum of atomic charges:    0.0000000

LOEWDIN ATOMIC CHARGES
----------------------
   0 C :   -0.171888
   1 C :   -0.187062
   2 N :    0.092907
   3 H :    0.107894
   4 C :   -0.205922
   5 H :    0.114651
   6 H :    0.101301
   7 H :    0.119802
   8 C :   -0.218020
   9 H :    0.094955
  10 C :   -0.212755
  11 H :    0.113779
  12 C :   -0.220813
  13 H :    0.108271
  14 H :    0.109968
  15 C :   -0.219452
  16 H :    0.092377
  17 H :    0.112572
  18 H :    0.091558
  19 C :   -0.206929
  20 H :    0.111565
  21 H :    0.107213
  22 H :    0.105927
  23 C :   -0.404885
  24 H :    0.093407
  25 H :    0.097687
  26 O :   -0.329223
  27 H :    0.120605
  28 H :    0.111066
  29 C :   -0.435145
  30 N :    0.181733
  31 N :    0.168139
  32 H :    0.098674
  33 H :    0.116483
  34 H :    0.068923
  35 H :    0.046861
  36 H :    0.123775

  Mayer bond orders larger than 0.100000
B(  0-C ,  1-C ) :   0.7751 B(  0-C ,  2-N ) :   1.2315 B(  0-C ,  4-C ) :   0.1079
B(  0-C ,  8-C ) :   0.1876 B(  0-C , 27-H ) :   0.8945 B(  0-C , 28-H ) :   0.7199
B(  0-C , 29-C ) :  -0.3064 B(  0-C , 31-N ) :   0.1110 B(  0-C , 34-H ) :  -0.3240
B(  1-C ,  3-H ) :   0.9153 B(  1-C ,  4-C ) :   1.0567 B(  1-C ,  5-H ) :   0.9217
B(  1-C ,  8-C ) :   0.2976 B(  2-N , 29-C ) :   1.1921 B(  2-N , 34-H ) :   0.8200
B(  4-C ,  6-H ) :   1.3085 B(  4-C ,  7-H ) :   0.8113 B(  4-C ,  8-C ) :   0.3672
B(  4-C , 10-C ) :   0.3051 B(  4-C , 12-C ) :   0.1301 B(  8-C ,  9-H ) :   1.0117
B(  8-C , 10-C ) :   0.9607 B(  8-C , 11-H ) :   0.9039 B(  8-C , 15-C ) :   0.1307
B( 10-C , 12-C ) :   0.9455 B( 10-C , 13-H ) :   0.9306 B( 10-C , 14-H ) :   0.9285
B( 10-C , 15-C ) :   0.3643 B( 12-C , 15-C ) :   0.3286 B( 12-C , 16-H ) :   1.0540
B( 12-C , 17-H ) :   0.8758 B( 12-C , 19-C ) :   0.4205 B( 15-C , 18-H ) :   1.1829
B( 15-C , 19-C ) :   0.9975 B( 15-C , 20-H ) :   0.8404 B( 15-C , 23-C ) :   0.1027
B( 19-C , 21-H ) :   0.9559 B( 19-C , 22-H ) :   0.8796 B( 19-C , 23-C ) :   0.9695
B( 19-C , 26-O ) :   0.1264 B( 23-C , 24-H ) :   1.0152 B( 23-C , 25-H ) :   0.9154
B( 23-C , 26-O ) :   0.9440 B( 26-O , 29-C ) :  -0.1302 B( 26-O , 35-H ) :   0.2547
B( 29-C , 30-N ) :   1.3045 B( 29-C , 31-N ) :   1.1103 B( 29-C , 34-H ) :  -0.1034
B( 30-N , 35-H ) :   0.6801 B( 30-N , 36-H ) :   0.9997 B( 31-N , 32-H ) :   0.9218
B( 31-N , 33-H ) :   0.9883

Dispersion correction           -0.017848657
FINAL SINGLE POINT ENERGY      -634.470951224152

DIPOLE MOMENT
-------------
                                X             Y             Z
Electronic contribution:      3.64411      -2.04988      11.36437
Nuclear contribution   :     -0.74583       2.62534      -9.91488
                        -----------------------------------------
Total Dipole Moment    :      2.89829       0.57546       1.44949
                        -----------------------------------------
Magnitude (a.u.)       :      3.29124
Magnitude (Debye)      :      8.36566

Rotational constants in cm-1:     0.027028     0.016098     0.010898
Rotational constants in MHz :   810.278072   482.590922   326.703462

                             ****ORCA TERMINATED NORMALLY****
TOTAL RUN TIME: 0 days 0 hours 3 minutes 8 seconds 443 msec
