                         Program Version 5.0.0 -  RELEASE  -
|  1> !wB97X-D3 RIJCOSX def2-TZVPD def2/J TightSCF
|  2> *xyz 0 1
|  3> C         -0.15102        0.25496       -4.09426
|  4> C         -0.72184       -0.99951       -3.43931
|  5> H         -1.08340       -1.69755       -4.20566
|  6> H         -1.58106       -0.72385       -2.82049
|  7> C          0.28725       -1.71177       -2.52740
|  8> H          1.13178       -2.06738       -3.15940
|  9> H         -0.20414       -2.63733       -2.17048
| 10> F          0.71050       -0.92751       -1.48177
| 11> H         -0.89787        0.70479       -4.71455
| 12> H          0.69695       -0.00870       -4.69119
| 13> H          0.14812        0.94842       -3.33628
| 14> *
| 15> %MaxCore 64000
| 16>
| 17> %pal nprocs 18
| 18> end
| 19>
| 20> %scf
| 21>   MaxIter 150
| 22> end
| 23>
| 24>
| 25>                          ****END OF INPUT****

CARTESIAN COORDINATES (ANGSTROEM)
---------------------------------
  C     -0.151020    0.254960   -4.094260
  C     -0.721840   -0.999510   -3.439310
  H     -1.083400   -1.697550   -4.205660
  H     -1.581060   -0.723850   -2.820490
  C      0.287250   -1.711770   -2.527400
  H      1.131780   -2.067380   -3.159400
  H     -0.204140   -2.637330   -2.170480
  F      0.710500   -0.927510   -1.481770
  H     -0.897870    0.704790   -4.714550
  H      0.696950   -0.008700   -4.691190
  H      0.148120    0.948420   -3.336280

 Total Charge           Charge          ....    0
 Multiplicity           Mult            ....    1
 Number of Electrons    NEL             ....   34
 Basis Dimension        Dim             ....  214

ORBITAL ENERGIES
----------------

  NO   OCC          E(Eh)            E(eV)
   0   2.0000     -24.771459      -674.0657
   1   2.0000     -10.351281      -281.6727
   2   2.0000     -10.280111      -279.7361
   3   2.0000     -10.258402      -279.1453
   4   2.0000      -1.312653       -35.7191
   5   2.0000      -0.906979       -24.6802
   6   2.0000      -0.803996       -21.8778
   7   2.0000      -0.706927       -19.2365
   8   2.0000      -0.611234       -16.6325
   9   2.0000      -0.595000       -16.1908
  10   2.0000      -0.569873       -15.5070
  11   2.0000      -0.536000       -14.5853
  12   2.0000      -0.499531       -13.5929
  13   2.0000      -0.472591       -12.8598
  14   2.0000      -0.448003       -12.1908
  15   2.0000      -0.420702       -11.4479
  16   2.0000      -0.419072       -11.4035
  17   0.0000       0.072754         1.9797
  18   0.0000       0.091880         2.5002
  19   0.0000       0.096392         2.6230
  20   0.0000       0.111936         3.0459
  21   0.0000       0.138331         3.7642

MULLIKEN ATOMIC CHARGES
-----------------------
   0 C :   -1.175465
   1 C :   -0.245185
   2 H :    0.287341
   3 H :    0.291662
   4 C :   -0.258176
   5 H :    0.257315
   6 H :    0.222381
   7 F :   -0.317175
   8 H :    0.301555
   9 H :    0.328121
  10 H :    0.307627
Sum of atomic charges:    0.0000000

LOEWDIN ATOMIC CHARGES
----------------------
   0 C :   -0.113895
   1 C :   -0.245347
   2 H :    0.110869
   3 H :    0.106442
   4 C :   -0.247895
   5 H :    0.120327
   6 H :    0.113588
   7 F :   -0.042461
   8 H :    0.063922
   9 H :    0.067224
  10 H :    0.067227

  Mayer bond orders larger than 0.100000
B(  0-C ,  1-C ) :   0.6663 B(  0-C ,  4-C ) :   0.1569 B(  0-C ,  8-H ) :   0.9743
B(  0-C ,  9-H ) :   0.9362 B(  0-C , 10-H ) :   0.9817 B(  1-C ,  2-H ) :   0.9501
B(  1-C ,  3-H ) :   0.9381 B(  1-C ,  4-C ) :   0.8513 B(  4-C ,  5-H ) :   0.9622
B(  4-C ,  6-H ) :   0.9961 B(  4-C ,  7-F ) :   0.7694

Dispersion correction           -0.001918117
FINAL SINGLE POINT ENERGY      -218.404832703393

DIPOLE MOMENT
-------------
                                X             Y             Z
Electronic contribution:      2.47834      -0.81621       5.76985
Nuclear contribution   :     -2.76068       0.49992      -6.33880
                        -----------------------------------------
Total Dipole Moment    :     -0.28234      -0.31629      -0.56896
                        -----------------------------------------
Magnitude (a.u.)       :      0.70955
Magnitude (Debye)      :      1.80354

Rotational constants in cm-1:     0.493380     0.165620     0.140427
Rotational constants in MHz : 14791.174622  4965.163858  4209.902284

                             ****ORCA TERMINATED NORMALLY****
TOTAL RUN TIME: 0 days 0 hours 0 minutes 14 seconds 627 msec
