                         Program Version 5.0.0 -  RELEASE  -
|  1> !wB97X-D3 RIJCOSX def2-TZVPD def2/J TightSCF
|  2> *xyz 0 1
|  3> C          3.48828        1.60092       -1.52204
|  4> C          4.34297        1.31342       -2.75683
|  5> C          2.81029        0.42878       -1.01420
|  6> H          5.13203        0.60499       -2.48447
|  7> C          3.53590        0.74925       -3.92460
|  8> H          4.84125        2.24214       -3.05408
|  9> H          2.71455        2.33145       -1.76030
| 10> H          4.09099        2.06315       -0.73338
| 11> C          3.29098       -0.41802       -0.12908
| 12> N          2.51754       -1.43202        0.23936
| 13> N          4.53549       -0.28441        0.39580
| 14> H          5.04363        0.57189        0.22290
| 15> H          4.72335       -0.73327        1.28180
| 16> H          1.93479        0.10230       -1.40379
| 17> H          1.67464       -1.50562       -0.31610
| 18> H          2.92850       -2.21850        0.72549
| 19> H          4.18704        0.56990       -4.75451
| 20> H          2.78096        1.45217       -4.20898
| 21> H          3.07436       -0.16949       -3.62832
| 22> *
| 23> %MaxCore 64000
| 24>
| 25> %pal nprocs 18
| 26> end
| 27>
| 28> %scf
| 29>   MaxIter 150
| 30> end
| 31>
| 32>
| 33>                          ****END OF INPUT****

CARTESIAN COORDINATES (ANGSTROEM)
---------------------------------
  C      3.488280    1.600920   -1.522040
  C      4.342970    1.313420   -2.756830
  C      2.810290    0.428780   -1.014200
  H      5.132030    0.604990   -2.484470
  C      3.535900    0.749250   -3.924600
  H      4.841250    2.242140   -3.054080
  H      2.714550    2.331450   -1.760300
  H      4.090990    2.063150   -0.733380
  C      3.290980   -0.418020   -0.129080
  N      2.517540   -1.432020    0.239360
  N      4.535490   -0.284410    0.395800
  H      5.043630    0.571890    0.222900
  H      4.723350   -0.733270    1.281800
  H      1.934790    0.102300   -1.403790
  H      1.674640   -1.505620   -0.316100
  H      2.928500   -2.218500    0.725490
  H      4.187040    0.569900   -4.754510
  H      2.780960    1.452170   -4.208980
  H      3.074360   -0.169490   -3.628320

 Total Charge           Charge          ....    0
 Multiplicity           Mult            ....    1
 Number of Electrons    NEL             ....   56
 Basis Dimension        Dim             ....  367

ORBITAL ENERGIES
----------------

  NO   OCC          E(Eh)            E(eV)
   0   2.0000     -14.422383      -392.4530
   1   2.0000     -14.417932      -392.3319
   2   2.0000     -10.317044      -280.7410
   3   2.0000     -10.251732      -278.9638
   4   2.0000     -10.250195      -278.9220
   5   2.0000     -10.239763      -278.6381
   6   2.0000     -10.196791      -277.4688
   7   2.0000      -1.077587       -29.3226
   8   2.0000      -0.986721       -26.8500
   9   2.0000      -0.904957       -24.6251
  10   2.0000      -0.837458       -22.7884
  11   2.0000      -0.771472       -20.9928
  12   2.0000      -0.701722       -19.0948
  13   2.0000      -0.677990       -18.4490
  14   2.0000      -0.640397       -17.4261
  15   2.0000      -0.610494       -16.6124
  16   2.0000      -0.564203       -15.3527
  17   2.0000      -0.542905       -14.7732
  18   2.0000      -0.540254       -14.7011
  19   2.0000      -0.505235       -13.7481
  20   2.0000      -0.493207       -13.4208
  21   2.0000      -0.470977       -12.8159
  22   2.0000      -0.456148       -12.4124
  23   2.0000      -0.423437       -11.5223
  24   2.0000      -0.407877       -11.0989
  25   2.0000      -0.406061       -11.0495
  26   2.0000      -0.361332        -9.8323
  27   2.0000      -0.250021        -6.8034
  28   0.0000       0.064165         1.7460
  29   0.0000       0.087319         2.3761
  30   0.0000       0.088716         2.4141
  31   0.0000       0.099547         2.7088
  32   0.0000       0.112227         3.0538

MULLIKEN ATOMIC CHARGES
-----------------------
   0 C :   -0.601819
   1 C :   -0.076737
   2 C :   -0.774486
   3 H :    0.274453
   4 C :   -1.367651
   5 H :    0.253450
   6 H :    0.259213
   7 H :    0.309293
   8 C :    0.441075
   9 N :   -0.459736
  10 N :   -0.425972
  11 H :    0.212727
  12 H :    0.186362
  13 H :    0.346107
  14 H :    0.207399
  15 H :    0.188155
  16 H :    0.323156
  17 H :    0.343693
  18 H :    0.361319
Sum of atomic charges:   -0.0000000

LOEWDIN ATOMIC CHARGES
----------------------
   0 C :   -0.244427
   1 C :   -0.260558
   2 C :   -0.152708
   3 H :    0.104365
   4 C :   -0.111690
   5 H :    0.100411
   6 H :    0.110237
   7 H :    0.101742
   8 C :   -0.534279
   9 N :    0.098233
  10 N :    0.123714
  11 H :    0.091727
  12 H :    0.097769
  13 H :    0.071552
  14 H :    0.109526
  15 H :    0.104359
  16 H :    0.061307
  17 H :    0.067577
  18 H :    0.061141

  Mayer bond orders larger than 0.100000
B(  0-C ,  1-C ) :   0.7006 B(  0-C ,  2-C ) :   0.7624 B(  0-C ,  4-C ) :   0.1970
B(  0-C ,  6-H ) :   1.0357 B(  0-C ,  7-H ) :   0.9757 B(  0-C ,  8-C ) :   0.2226
B(  1-C ,  2-C ) :   0.1763 B(  1-C ,  3-H ) :   0.9330 B(  1-C ,  4-C ) :   0.5747
B(  1-C ,  5-H ) :   0.9573 B(  2-C ,  4-C ) :   0.1944 B(  2-C ,  7-H ) :  -0.1392
B(  2-C ,  8-C ) :   1.2384 B(  2-C , 13-H ) :   0.9208 B(  4-C , 16-H ) :   0.9387
B(  4-C , 17-H ) :   0.9467 B(  4-C , 18-H ) :   0.9527 B(  8-C ,  9-N ) :   1.0768
B(  8-C , 10-N ) :   0.9799 B(  8-C , 13-H ) :  -0.2351 B(  9-N , 14-H ) :   0.9581
B(  9-N , 15-H ) :   1.0162 B( 10-N , 11-H ) :   0.9221 B( 10-N , 12-H ) :   1.0182

Dispersion correction           -0.005285915
FINAL SINGLE POINT ENERGY      -307.264630591626

DIPOLE MOMENT
-------------
                                X             Y             Z
Electronic contribution:     -0.68395      -2.65728       5.55383
Nuclear contribution   :      0.88816       2.11069      -4.95634
                        -----------------------------------------
Total Dipole Moment    :      0.20421      -0.54658       0.59749
                        -----------------------------------------
Magnitude (a.u.)       :      0.83513
Magnitude (Debye)      :      2.12274

Rotational constants in cm-1:     0.162296     0.048922     0.043870
Rotational constants in MHz :  4865.524396  1466.649652  1315.198467

                             ****ORCA TERMINATED NORMALLY****
TOTAL RUN TIME: 0 days 0 hours 0 minutes 37 seconds 269 msec
