                         Program Version 5.0.0 -  RELEASE  -
|  1> !wB97X-D3 RIJCOSX def2-TZVPD def2/J TightSCF
|  2> *xyz 0 1
|  3> C          3.48828        1.60092       -1.52204
|  4> C          4.34297        1.31342       -2.75683
|  5> N          2.81029        0.42878       -1.01420
|  6> H          5.13203        0.60499       -2.48447
|  7> C          3.53590        0.74925       -3.92460
|  8> H          4.84125        2.24214       -3.05408
|  9> H          2.71455        2.33145       -1.76030
| 10> H          4.09099        2.06315       -0.73338
| 11> C          3.29098       -0.41802       -0.12908
| 12> C          2.51754       -1.43202        0.23936
| 13> N          4.53549       -0.28441        0.39580
| 14> H          5.04363        0.57189        0.22290
| 15> H          4.72335       -0.73327        1.28180
| 16> H          1.93479        0.10230       -1.40379
| 17> H          1.67464       -1.50562       -0.31610
| 18> H          2.92850       -2.21850        0.72549
| 19> H          4.18704        0.56990       -4.75451
| 20> H          2.78096        1.45217       -4.20898
| 21> H          3.07436       -0.16949       -3.62832
| 22> *
| 23> %MaxCore 64000
| 24>
| 25> %pal nprocs 18
| 26> end
| 27>
| 28> %scf
| 29>   MaxIter 150
| 30> end
| 31>
| 32>
| 33>                          ****END OF INPUT****

CARTESIAN COORDINATES (ANGSTROEM)
---------------------------------
  C      3.488280    1.600920   -1.522040
  C      4.342970    1.313420   -2.756830
  N      2.810290    0.428780   -1.014200
  H      5.132030    0.604990   -2.484470
  C      3.535900    0.749250   -3.924600
  H      4.841250    2.242140   -3.054080
  H      2.714550    2.331450   -1.760300
  H      4.090990    2.063150   -0.733380
  C      3.290980   -0.418020   -0.129080
  C      2.517540   -1.432020    0.239360
  N      4.535490   -0.284410    0.395800
  H      5.043630    0.571890    0.222900
  H      4.723350   -0.733270    1.281800
  H      1.934790    0.102300   -1.403790
  H      1.674640   -1.505620   -0.316100
  H      2.928500   -2.218500    0.725490
  H      4.187040    0.569900   -4.754510
  H      2.780960    1.452170   -4.208980
  H      3.074360   -0.169490   -3.628320

 Total Charge           Charge          ....    0
 Multiplicity           Mult            ....    1
 Number of Electrons    NEL             ....   56
 Basis Dimension        Dim             ....  367

ORBITAL ENERGIES
----------------

  NO   OCC          E(Eh)            E(eV)
   0   2.0000     -14.423132      -392.4734
   1   2.0000     -14.421837      -392.4381
   2   2.0000     -10.321520      -280.8628
   3   2.0000     -10.316224      -280.7187
   4   2.0000     -10.276140      -279.6280
   5   2.0000     -10.260840      -279.2117
   6   2.0000     -10.181056      -277.0406
   7   2.0000      -1.088591       -29.6221
   8   2.0000      -1.000576       -27.2271
   9   2.0000      -0.909552       -24.7502
  10   2.0000      -0.842892       -22.9363
  11   2.0000      -0.784050       -21.3351
  12   2.0000      -0.717228       -19.5168
  13   2.0000      -0.697293       -18.9743
  14   2.0000      -0.636971       -17.3329
  15   2.0000      -0.605085       -16.4652
  16   2.0000      -0.579275       -15.7629
  17   2.0000      -0.557124       -15.1601
  18   2.0000      -0.543348       -14.7853
  19   2.0000      -0.511312       -13.9135
  20   2.0000      -0.488430       -13.2909
  21   2.0000      -0.481668       -13.1069
  22   2.0000      -0.474502       -12.9118
  23   2.0000      -0.445661       -12.1271
  24   2.0000      -0.444643       -12.0993
  25   2.0000      -0.435747       -11.8573
  26   2.0000      -0.351879        -9.5751
  27   2.0000      -0.249358        -6.7854
  28   0.0000       0.063531         1.7288
  29   0.0000       0.079383         2.1601
  30   0.0000       0.087143         2.3713
  31   0.0000       0.090564         2.4644
  32   0.0000       0.113123         3.0782

MULLIKEN ATOMIC CHARGES
-----------------------
   0 C :   -0.997805
   1 C :   -0.044238
   2 N :   -0.101510
   3 H :    0.273043
   4 C :   -1.301123
   5 H :    0.311301
   6 H :    0.328797
   7 H :    0.356239
   8 C :    0.907263
   9 C :   -1.603951
  10 N :   -0.424095
  11 H :    0.178606
  12 H :    0.217971
  13 H :    0.207439
  14 H :    0.337080
  15 H :    0.371154
  16 H :    0.323132
  17 H :    0.334457
  18 H :    0.326240
Sum of atomic charges:   -0.0000000

LOEWDIN ATOMIC CHARGES
----------------------
   0 C :   -0.205992
   1 C :   -0.246060
   2 N :    0.015361
   3 H :    0.105774
   4 C :   -0.107578
   5 H :    0.105565
   6 H :    0.118496
   7 H :    0.110134
   8 C :   -0.554897
   9 C :   -0.013681
  10 N :    0.119430
  11 H :    0.083178
  12 H :    0.109275
  13 H :    0.144863
  14 H :    0.008967
  15 H :    0.011559
  16 H :    0.065015
  17 H :    0.067334
  18 H :    0.063257

  Mayer bond orders larger than 0.100000
B(  0-C ,  1-C ) :   0.8010 B(  0-C ,  2-N ) :   1.0043 B(  0-C ,  4-C ) :   0.2101
B(  0-C ,  6-H ) :   0.9381 B(  0-C ,  7-H ) :   0.8815 B(  0-C , 10-N ) :   0.1030
B(  1-C ,  3-H ) :   0.9428 B(  1-C ,  4-C ) :   0.5878 B(  1-C ,  5-H ) :   0.9508
B(  2-N ,  8-C ) :   1.1331 B(  2-N ,  9-C ) :   0.1009 B(  2-N , 13-H ) :   0.9208
B(  4-C , 16-H ) :   0.9484 B(  4-C , 17-H ) :   0.9519 B(  4-C , 18-H ) :   0.9653
B(  8-C ,  9-C ) :   0.8694 B(  8-C , 10-N ) :   1.0324 B(  9-C , 14-H ) :   0.9292
B(  9-C , 15-H ) :   0.9785 B( 10-N , 11-H ) :   0.9715 B( 10-N , 12-H ) :   0.9708

Dispersion correction           -0.005352652
FINAL SINGLE POINT ENERGY      -307.252395857677

DIPOLE MOMENT
-------------
                                X             Y             Z
Electronic contribution:     -0.27247      -0.77807       4.25890
Nuclear contribution   :      0.82404       1.70307      -4.68174
                        -----------------------------------------
Total Dipole Moment    :      0.55156       0.92501      -0.42284
                        -----------------------------------------
Magnitude (a.u.)       :      1.15700
Magnitude (Debye)      :      2.94086

Rotational constants in cm-1:     0.164049     0.050262     0.045260
Rotational constants in MHz :  4918.051182  1506.829450  1356.872102

                             ****ORCA TERMINATED NORMALLY****
TOTAL RUN TIME: 0 days 0 hours 0 minutes 40 seconds 850 msec
