                         Program Version 5.0.0 -  RELEASE  -
|  1> !wB97X-D3 RIJCOSX def2-TZVPD def2/J TightSCF
|  2> *xyz 0 1
|  3> C          3.48828        1.60092       -1.52204
|  4> C          4.34297        1.31342       -2.75683
|  5> N          2.81029        0.42878       -1.01420
|  6> H          5.13203        0.60499       -2.48447
|  7> C          3.53590        0.74925       -3.92460
|  8> H          4.84125        2.24214       -3.05408
|  9> H          2.71455        2.33145       -1.76030
| 10> H          4.09099        2.06315       -0.73338
| 11> C          3.29098       -0.41802       -0.12908
| 12> N          2.51754       -1.43202        0.23936
| 13> C          4.53549       -0.28441        0.39580
| 14> H          5.04363        0.57189        0.22290
| 15> H          4.72335       -0.73327        1.28180
| 16> H          1.93479        0.10230       -1.40379
| 17> H          1.67464       -1.50562       -0.31610
| 18> H          2.92850       -2.21850        0.72549
| 19> H          4.18704        0.56990       -4.75451
| 20> H          2.78096        1.45217       -4.20898
| 21> H          3.07436       -0.16949       -3.62832
| 22> *
| 23> %MaxCore 64000
| 24>
| 25> %pal nprocs 18
| 26> end
| 27>
| 28> %scf
| 29>   MaxIter 150
| 30> end
| 31>
| 32>
| 33>                          ****END OF INPUT****

CARTESIAN COORDINATES (ANGSTROEM)
---------------------------------
  C      3.488280    1.600920   -1.522040
  C      4.342970    1.313420   -2.756830
  N      2.810290    0.428780   -1.014200
  H      5.132030    0.604990   -2.484470
  C      3.535900    0.749250   -3.924600
  H      4.841250    2.242140   -3.054080
  H      2.714550    2.331450   -1.760300
  H      4.090990    2.063150   -0.733380
  C      3.290980   -0.418020   -0.129080
  N      2.517540   -1.432020    0.239360
  C      4.535490   -0.284410    0.395800
  H      5.043630    0.571890    0.222900
  H      4.723350   -0.733270    1.281800
  H      1.934790    0.102300   -1.403790
  H      1.674640   -1.505620   -0.316100
  H      2.928500   -2.218500    0.725490
  H      4.187040    0.569900   -4.754510
  H      2.780960    1.452170   -4.208980
  H      3.074360   -0.169490   -3.628320

 Total Charge           Charge          ....    0
 Multiplicity           Mult            ....    1
 Number of Electrons    NEL             ....   56
 Basis Dimension        Dim             ....  367

ORBITAL ENERGIES
----------------

  NO   OCC          E(Eh)            E(eV)
   0   2.0000     -14.429746      -392.6533
   1   2.0000     -14.424449      -392.5092
   2   2.0000     -10.324655      -280.9481
   3   2.0000     -10.309016      -280.5226
   4   2.0000     -10.268732      -279.4264
   5   2.0000     -10.257474      -279.1201
   6   2.0000     -10.182918      -277.0913
   7   2.0000      -1.098033       -29.8790
   8   2.0000      -1.006700       -27.3937
   9   2.0000      -0.897234       -24.4150
  10   2.0000      -0.823598       -22.4112
  11   2.0000      -0.807944       -21.9853
  12   2.0000      -0.718951       -19.5637
  13   2.0000      -0.662971       -18.0404
  14   2.0000      -0.646994       -17.6056
  15   2.0000      -0.632871       -17.2213
  16   2.0000      -0.574749       -15.6397
  17   2.0000      -0.553037       -15.0489
  18   2.0000      -0.539051       -14.6683
  19   2.0000      -0.501531       -13.6474
  20   2.0000      -0.501073       -13.6349
  21   2.0000      -0.476918       -12.9776
  22   2.0000      -0.465910       -12.6781
  23   2.0000      -0.443909       -12.0794
  24   2.0000      -0.437710       -11.9107
  25   2.0000      -0.429069       -11.6756
  26   2.0000      -0.345731        -9.4078
  27   2.0000      -0.252885        -6.8814
  28   0.0000       0.060438         1.6446
  29   0.0000       0.083011         2.2588
  30   0.0000       0.088682         2.4132
  31   0.0000       0.091866         2.4998
  32   0.0000       0.111032         3.0213

MULLIKEN ATOMIC CHARGES
-----------------------
   0 C :   -0.915042
   1 C :   -0.099574
   2 N :   -0.193363
   3 H :    0.296630
   4 C :   -1.302450
   5 H :    0.313742
   6 H :    0.330363
   7 H :    0.343943
   8 C :    0.944262
   9 N :   -0.446600
  10 C :   -1.580748
  11 H :    0.310933
  12 H :    0.403147
  13 H :    0.223619
  14 H :    0.164606
  15 H :    0.224227
  16 H :    0.329520
  17 H :    0.333560
  18 H :    0.319223
Sum of atomic charges:   -0.0000000

LOEWDIN ATOMIC CHARGES
----------------------
   0 C :   -0.200853
   1 C :   -0.239975
   2 N :    0.014754
   3 H :    0.107511
   4 C :   -0.111006
   5 H :    0.107274
   6 H :    0.117892
   7 H :    0.115239
   8 C :   -0.561722
   9 N :    0.110818
  10 C :   -0.001943
  11 H :   -0.009368
  12 H :    0.004518
  13 H :    0.138776
  14 H :    0.100937
  15 H :    0.117831
  16 H :    0.064464
  17 H :    0.065709
  18 H :    0.059142

  Mayer bond orders larger than 0.100000
B(  0-C ,  1-C ) :   0.8411 B(  0-C ,  2-N ) :   0.9981 B(  0-C ,  4-C ) :   0.2189
B(  0-C ,  6-H ) :   0.8825 B(  0-C ,  7-H ) :   0.8778 B(  0-C , 10-C ) :   0.1343
B(  1-C ,  3-H ) :   0.9469 B(  1-C ,  4-C ) :   0.5711 B(  1-C ,  5-H ) :   0.9235
B(  2-N ,  8-C ) :   1.0499 B(  2-N , 13-H ) :   0.9704 B(  4-C , 16-H ) :   0.9433
B(  4-C , 17-H ) :   0.9516 B(  4-C , 18-H ) :   0.9739 B(  8-C ,  9-N ) :   0.9890
B(  8-C , 10-C ) :   0.9886 B(  8-C , 12-H ) :  -0.1139 B(  9-N , 10-C ) :   0.1062
B(  9-N , 14-H ) :   1.0138 B(  9-N , 15-H ) :   0.9680 B( 10-C , 11-H ) :   0.9896
B( 10-C , 12-H ) :   0.9482

Dispersion correction           -0.005315348
FINAL SINGLE POINT ENERGY      -307.252434312670

DIPOLE MOMENT
-------------
                                X             Y             Z
Electronic contribution:     -2.22940      -2.01888       4.05328
Nuclear contribution   :      1.26608       1.95446      -4.64747
                        -----------------------------------------
Total Dipole Moment    :     -0.96332      -0.06442      -0.59420
                        -----------------------------------------
Magnitude (a.u.)       :      1.13367
Magnitude (Debye)      :      2.88156

Rotational constants in cm-1:     0.166109     0.049557     0.044716
Rotational constants in MHz :  4979.835529  1485.675017  1340.540851

                             ****ORCA TERMINATED NORMALLY****
TOTAL RUN TIME: 0 days 0 hours 0 minutes 40 seconds 593 msec
