                         Program Version 5.0.0 -  RELEASE  -
|  1> !wB97X-D3 RIJCOSX def2-TZVPD def2/J TightSCF xyzfile
|  2>
|  3> *xyzfile 0 1 D2.xyz
|  4>
|  5> %MaxCore 64000
|  6>
|  7> %pal nprocs 18
|  8> end
|  9>
| 10> %scf
| 11>   MaxIter 150
| 12> end
| 13>
| 14>
| 15>                          ****END OF INPUT****

CARTESIAN COORDINATES (ANGSTROEM)
---------------------------------
  C      3.488276    1.600919   -1.522040
  C      4.342970    1.313419   -2.756826
  N      2.810285    0.428783   -1.014196
  H      5.132033    0.604994   -2.484466
  C      3.535896    0.749253   -3.924604
  H      4.841247    2.242136   -3.054083
  H      2.991617   -0.132199   -3.574137
  H      4.225505    0.392784   -4.695962
  C      2.564776    1.750890   -4.544523
  H      1.918749    2.171679   -3.769419
  C      1.686235    1.161657   -5.650111
  H      3.132494    2.594775   -4.951604
  C      0.839616   -0.037582   -5.220473
  H      2.323886    0.866395   -6.490796
  H      1.029518    1.951850   -6.029329
  C     -0.151019    0.254955   -4.094256
  H      1.499442   -0.857141   -4.922958
  H      0.290097   -0.410143   -6.091131
  H      0.328265    0.833022   -3.299125
  C     -0.721843   -0.999513   -3.439309
  H     -0.957367    0.884951   -4.485450
  H     -1.083403   -1.697555   -4.205656
  H     -1.581056   -0.723848   -2.820490
  C      0.287250   -1.711771   -2.527405
  H      1.131780   -2.067380   -3.159396
  H     -0.204137   -2.637326   -2.170480
  F      0.710505   -0.927506   -1.481767
  H      2.714548    2.331455   -1.760302
  H      4.090991    2.063151   -0.733382
  C      3.290978   -0.418021   -0.129083
  C      2.517536   -1.432017    0.239360
  N      4.535490   -0.284410    0.395800
  H      5.043627    0.571888    0.222899
  H      4.723346   -0.733273    1.281800
  H      1.934787    0.102305   -1.403788
  H      1.674638   -1.505616   -0.316095
  H      2.928503   -2.218502    0.725494

 Total Charge           Charge          ....    0
 Multiplicity           Mult            ....    1
 Number of Electrons    NEL             ....  112
 Basis Dimension        Dim             ....  728

ORBITAL ENERGIES
----------------

  NO   OCC          E(Eh)            E(eV)
   0   2.0000     -24.799016      -674.8155
   1   2.0000     -14.406065      -392.0090
   2   2.0000     -14.396190      -391.7403
   3   2.0000     -10.364753      -282.0393
   4   2.0000     -10.302712      -280.3510
   5   2.0000     -10.302025      -280.3324
   6   2.0000     -10.288781      -279.9720
   7   2.0000     -10.278754      -279.6991
   8   2.0000     -10.275233      -279.6033
   9   2.0000     -10.273300      -279.5507
  10   2.0000     -10.270187      -279.4660
  11   2.0000     -10.268101      -279.4092
  12   2.0000     -10.267359      -279.3891
  13   2.0000     -10.153225      -276.2833
  14   2.0000      -1.349903       -36.7327
  15   2.0000      -1.069576       -29.1047
  16   2.0000      -0.984182       -26.7809
  17   2.0000      -0.945310       -25.7232
  18   2.0000      -0.917358       -24.9626
  19   2.0000      -0.889664       -24.2090
  20   2.0000      -0.843164       -22.9437
  21   2.0000      -0.818755       -22.2795
  22   2.0000      -0.783458       -21.3190
  23   2.0000      -0.756234       -20.5782
  24   2.0000      -0.721801       -19.6412
  25   2.0000      -0.705721       -19.2037
  26   2.0000      -0.684702       -18.6317
  27   2.0000      -0.667473       -18.1629
  28   2.0000      -0.640623       -17.4322
  29   2.0000      -0.626257       -17.0413
  30   2.0000      -0.613765       -16.7014
  31   2.0000      -0.599143       -16.3035
  32   2.0000      -0.587348       -15.9826
  33   2.0000      -0.575739       -15.6666
  34   2.0000      -0.568860       -15.4795
  35   2.0000      -0.553892       -15.0722
  36   2.0000      -0.538015       -14.6401
  37   2.0000      -0.530889       -14.4462
  38   2.0000      -0.527342       -14.3497
  39   2.0000      -0.512234       -13.9386
  40   2.0000      -0.494046       -13.4437
  41   2.0000      -0.479107       -13.0372
  42   2.0000      -0.470917       -12.8143
  43   2.0000      -0.467317       -12.7164
  44   2.0000      -0.462599       -12.5880
  45   2.0000      -0.455569       -12.3967
  46   2.0000      -0.440903       -11.9976
  47   2.0000      -0.436746       -11.8845
  48   2.0000      -0.431661       -11.7461
  49   2.0000      -0.421579       -11.4718
  50   2.0000      -0.413906       -11.2630
  51   2.0000      -0.408616       -11.1190
  52   2.0000      -0.405534       -11.0352
  53   2.0000      -0.401898       -10.9362
  54   2.0000      -0.334544        -9.1034
  55   2.0000      -0.229602        -6.2478
  56   0.0000       0.065603         1.7851
  57   0.0000       0.069374         1.8878
  58   0.0000       0.074676         2.0320
  59   0.0000       0.078064         2.1242
  60   0.0000       0.091229         2.4825

MULLIKEN ATOMIC CHARGES
-----------------------
   0 C :   -1.321698
   1 C :   -0.397425
   2 N :    0.014260
   3 H :    0.291961
   4 C :   -0.223986
   5 H :    0.323781
   6 H :   -0.006064
   7 H :    0.298666
   8 C :   -0.421083
   9 H :    0.220193
  10 C :   -0.835257
  11 H :    0.295763
  12 C :   -0.502438
  13 H :    0.318674
  14 H :    0.314652
  15 C :   -0.271756
  16 H :    0.245957
  17 H :    0.329655
  18 H :    0.105656
  19 C :   -0.678060
  20 H :    0.319036
  21 H :    0.301877
  22 H :    0.327597
  23 C :   -0.433978
  24 H :    0.324484
  25 H :    0.316486
  26 F :   -0.524288
  27 H :    0.289433
  28 H :    0.441440
  29 C :    1.034936
  30 C :   -1.731812
  31 N :   -0.421722
  32 H :    0.185439
  33 H :    0.231806
  34 H :    0.321390
  35 H :    0.544579
  36 H :    0.371848
Sum of atomic charges:    0.0000000

LOEWDIN ATOMIC CHARGES
----------------------
   0 C :   -0.189448
   1 C :   -0.189615
   2 N :    0.032264
   3 H :    0.110444
   4 C :   -0.209582
   5 H :    0.111467
   6 H :    0.095450
   7 H :    0.118824
   8 C :   -0.217828
   9 H :    0.093709
  10 C :   -0.209585
  11 H :    0.116471
  12 C :   -0.218321
  13 H :    0.111589
  14 H :    0.111423
  15 C :   -0.210694
  16 H :    0.093854
  17 H :    0.115307
  18 H :    0.099224
  19 C :   -0.178834
  20 H :    0.119386
  21 H :    0.122148
  22 H :    0.114007
  23 C :   -0.189037
  24 H :    0.125352
  25 H :    0.128557
  26 F :   -0.083176
  27 H :    0.110463
  28 H :    0.110813
  29 C :   -0.538643
  30 C :   -0.000237
  31 N :    0.116050
  32 H :    0.080083
  33 H :    0.106403
  34 H :    0.095734
  35 H :   -0.017104
  36 H :    0.013079

  Mayer bond orders larger than 0.100000
B(  0-C ,  1-C ) :   0.7582 B(  0-C ,  2-N ) :   1.2402 B(  0-C ,  8-C ) :   0.1687
B(  0-C , 27-H ) :   0.9122 B(  0-C , 28-H ) :   0.7579 B(  0-C , 29-C ) :  -0.2961
B(  0-C , 31-N ) :   0.1415 B(  0-C , 34-H ) :  -0.2749 B(  1-C ,  3-H ) :   0.9113
B(  1-C ,  4-C ) :   1.0798 B(  1-C ,  5-H ) :   0.9372 B(  1-C ,  6-H ) :   0.1174
B(  1-C ,  8-C ) :   0.3050 B(  2-N , 29-C ) :   0.9218 B(  2-N , 34-H ) :   0.8997
B(  4-C ,  6-H ) :   1.3667 B(  4-C ,  7-H ) :   0.8163 B(  4-C ,  8-C ) :   0.3521
B(  4-C , 10-C ) :   0.3143 B(  4-C , 12-C ) :   0.1220 B(  6-H ,  8-C ) :  -0.1022
B(  8-C ,  9-H ) :   1.0402 B(  8-C , 10-C ) :   0.9464 B(  8-C , 11-H ) :   0.8937
B(  8-C , 15-C ) :   0.1030 B( 10-C , 12-C ) :   1.0079 B( 10-C , 13-H ) :   0.9275
B( 10-C , 14-H ) :   0.9249 B( 10-C , 15-C ) :   0.3809 B( 12-C , 15-C ) :   0.3154
B( 12-C , 16-H ) :   1.0107 B( 12-C , 17-H ) :   0.8881 B( 12-C , 19-C ) :   0.3841
B( 12-C , 23-C ) :   0.1262 B( 15-C , 18-H ) :   1.1767 B( 15-C , 19-C ) :   0.9859
B( 15-C , 20-H ) :   0.8400 B( 19-C , 21-H ) :   0.9291 B( 19-C , 22-H ) :   0.8845
B( 19-C , 23-C ) :   0.9432 B( 19-C , 26-F ) :   0.1361 B( 23-C , 24-H ) :   0.9445
B( 23-C , 25-H ) :   0.8771 B( 23-C , 26-F ) :   0.6610 B( 26-F , 30-C ) :   0.2221
B( 26-F , 35-H ) :  -0.1239 B( 29-C , 30-C ) :   0.9423 B( 29-C , 31-N ) :   1.0188
B( 29-C , 34-H ) :  -0.1391 B( 29-C , 36-H ) :  -0.1561 B( 30-C , 35-H ) :   0.7613
B( 30-C , 36-H ) :   1.0622 B( 31-N , 32-H ) :   0.9782 B( 31-N , 33-H ) :   0.9642

Dispersion correction           -0.017724603
FINAL SINGLE POINT ENERGY      -642.387236927466

DIPOLE MOMENT
-------------
                                X             Y             Z
Electronic contribution:     -1.27187      -3.12544       9.41565
Nuclear contribution   :      1.09892       3.58083     -10.64472
                        -----------------------------------------
Total Dipole Moment    :     -0.17295       0.45540      -1.22906
                        -----------------------------------------
Magnitude (a.u.)       :      1.32208
Magnitude (Debye)      :      3.36046

Rotational constants in cm-1:     0.026768     0.016312     0.010954
Rotational constants in MHz :   802.489946   489.033275   328.388904

                             ****ORCA TERMINATED NORMALLY****
TOTAL RUN TIME: 0 days 0 hours 3 minutes 14 seconds 594 msec
