                         Program Version 5.0.0 -  RELEASE  -
|  1> !CAM-B3LYP RIJCOSX def2-TZVP def2/J TightSCF
|  2> *xyz -1 1
|  3> C          4.93020       -7.37532       -2.64962
|  4> C          3.84189       -6.95161       -3.63283
|  5> H          3.45814       -5.95442       -3.40712
|  6> H          2.98848       -7.64361       -3.56708
|  7> S          4.31812       -6.91593       -5.36869
|  8> O          5.40615       -5.89948       -5.51297
|  9> O          3.11191       -6.44508       -6.04379
| 10> O          4.76340       -8.23942       -5.69863
| 11> H          5.27901       -8.35440       -2.90385
| 12> H          4.53000       -7.38577       -1.65734
| 13> H          5.74437       -6.68276       -2.69856
| 14> *
| 15>
| 16> %MaxCore 64000
| 17>
| 18> %pal nprocs 4
| 19> end
| 20>
| 21> %scf
| 22>   MaxIter 150
| 23> end
| 24>
| 25>
| 26>                          ****END OF INPUT****

CARTESIAN COORDINATES (ANGSTROEM)
---------------------------------
  C      4.930200   -7.375320   -2.649620
  C      3.841890   -6.951610   -3.632830
  H      3.458140   -5.954420   -3.407120
  H      2.988480   -7.643610   -3.567080
  S      4.318120   -6.915930   -5.368690
  O      5.406150   -5.899480   -5.512970
  O      3.111910   -6.445080   -6.043790
  O      4.763400   -8.239420   -5.698630
  H      5.279010   -8.354400   -2.903850
  H      4.530000   -7.385770   -1.657340
  H      5.744370   -6.682760   -2.698560

 Total Charge           Charge          ....   -1
 Multiplicity           Mult            ....    1
 Number of Electrons    NEL             ....   58
 Basis Dimension        Dim             ....  222

ORBITAL ENERGIES
----------------

  NO   OCC          E(Eh)            E(eV)
   0   2.0000     -88.912746     -2419.4388
   1   2.0000     -18.975717      -516.3555
   2   2.0000     -18.965884      -516.0879
   3   2.0000     -18.957805      -515.8681
   4   2.0000     -10.106316      -275.0068
   5   2.0000     -10.098843      -274.8035
   6   2.0000      -7.955653      -216.4843
   7   2.0000      -5.920260      -161.0985
   8   2.0000      -5.919168      -161.0687
   9   2.0000      -5.918842      -161.0599
  10   2.0000      -1.000032       -27.2123
  11   2.0000      -0.869371       -23.6568
  12   2.0000      -0.839517       -22.8444
  13   2.0000      -0.715419       -19.4675
  14   2.0000      -0.585000       -15.9187
  15   2.0000      -0.453888       -12.3509
  16   2.0000      -0.388398       -10.5688
  17   2.0000      -0.381977       -10.3941
  18   2.0000      -0.341752        -9.2996
  19   2.0000      -0.326903        -8.8955
  20   2.0000      -0.319696        -8.6994
  21   2.0000      -0.295431        -8.0391
  22   2.0000      -0.277959        -7.5637
  23   2.0000      -0.213814        -5.8182
  24   2.0000      -0.212431        -5.7806
  25   2.0000      -0.177997        -4.8436
  26   2.0000      -0.167608        -4.5609
  27   2.0000      -0.159629        -4.3437
  28   2.0000      -0.122465        -3.3325
  29   0.0000       0.206812         5.6276
  30   0.0000       0.251198         6.8354
  31   0.0000       0.268511         7.3065
  32   0.0000       0.272815         7.4237
  33   0.0000       0.301093         8.1931

MULLIKEN ATOMIC CHARGES
-----------------------
   0 C :   -0.332646
   1 C :   -0.227277
   2 H :    0.085236
   3 H :    0.075874
   4 S :    0.830122
   5 O :   -0.609545
   6 O :   -0.568662
   7 O :   -0.543304
   8 H :    0.111080
   9 H :    0.068480
  10 H :    0.110641
Sum of atomic charges:   -1.0000000

LOEWDIN ATOMIC CHARGES
----------------------
   0 C :   -0.342536
   1 C :   -0.429125
   2 H :    0.119205
   3 H :    0.119565
   4 S :    0.436777
   5 O :   -0.451347
   6 O :   -0.406429
   7 O :   -0.374077
   8 H :    0.113980
   9 H :    0.099870
  10 H :    0.114118

  Mayer bond orders larger than 0.100000
B(  0-C ,  1-C ) :   0.9334 B(  0-C ,  8-H ) :   0.9767 B(  0-C ,  9-H ) :   0.9713
B(  0-C , 10-H ) :   0.9759 B(  1-C ,  2-H ) :   0.9669 B(  1-C ,  3-H ) :   0.9629
B(  1-C ,  4-S ) :   0.8757 B(  4-S ,  5-O ) :   1.7307 B(  4-S ,  6-O ) :   1.8102
B(  4-S ,  7-O ) :   1.7990

FINAL SINGLE POINT ENERGY      -703.200527020877

DIPOLE MOMENT
-------------
                                X             Y             Z
Electronic contribution:     -0.36951       0.80827      -7.81652
Nuclear contribution   :      0.07504      -1.14369       9.75001
                        -----------------------------------------
Total Dipole Moment    :     -0.29447      -0.33542       1.93348
                        -----------------------------------------
Magnitude (a.u.)       :      1.98433
Magnitude (Debye)      :      5.04377

Rotational constants in cm-1:     0.160553     0.082191     0.080550
Rotational constants in MHz :  4813.250478  2464.013016  2414.833054

                             ****ORCA TERMINATED NORMALLY****
TOTAL RUN TIME: 0 days 0 hours 0 minutes 41 seconds 665 msec
