                         Program Version 5.0.0 -  RELEASE  -
|  1> !CAM-B3LYP RIJCOSX def2-TZVP def2/J TightSCF
|  2> *xyz 1 1
|  3> C          5.55821       -1.99291       -6.21505
|  4> C          4.18188       -2.58967       -6.29891
|  5> N          3.14587       -1.76843       -6.48675
|  6> N          4.01910       -3.86431       -6.22743
|  7> H          4.76849       -4.59115       -5.99077
|  8> H          3.12241       -4.33339       -6.31462
|  9> H          3.28164       -0.77779       -6.56655
| 10> H          2.21255       -2.13419       -6.56225
| 11> C          6.41926       -2.54294       -5.07763
| 12> H          6.03683       -2.19819       -7.17685
| 13> H          5.46761       -0.90737       -6.12797
| 14> H          6.50056       -3.60553       -5.17358
| 15> H          5.96544       -2.30329       -4.13874
| 16> H          7.39438       -2.10494       -5.12457
| 17> *
| 18>
| 19> %MaxCore 64000
| 20>
| 21> %pal nprocs 4
| 22> end
| 23>
| 24> %scf
| 25>   MaxIter 150
| 26> end
| 27>
| 28>
| 29>                          ****END OF INPUT****

CARTESIAN COORDINATES (ANGSTROEM)
---------------------------------
  C      5.558210   -1.992910   -6.215050
  C      4.181880   -2.589670   -6.298910
  N      3.145870   -1.768430   -6.486750
  N      4.019100   -3.864310   -6.227430
  H      4.768490   -4.591150   -5.990770
  H      3.122410   -4.333390   -6.314620
  H      3.281640   -0.777790   -6.566550
  H      2.212550   -2.134190   -6.562250
  C      6.419260   -2.542940   -5.077630
  H      6.036830   -2.198190   -7.176850
  H      5.467610   -0.907370   -6.127970
  H      6.500560   -3.605530   -5.173580
  H      5.965440   -2.303290   -4.138740
  H      7.394380   -2.104940   -5.124570

 Total Charge           Charge          ....    1
 Multiplicity           Mult            ....    1
 Number of Electrons    NEL             ....   40
 Basis Dimension        Dim             ....  209

ORBITAL ENERGIES
----------------

  NO   OCC          E(Eh)            E(eV)
   0   2.0000     -14.640693      -398.3935
   1   2.0000     -14.629127      -398.0788
   2   2.0000     -10.571201      -287.6570
   3   2.0000     -10.441881      -284.1380
   4   2.0000     -10.397193      -282.9220
   5   2.0000      -1.288119       -35.0515
   6   2.0000      -1.188141       -32.3310
   7   2.0000      -1.051670       -28.6174
   8   2.0000      -0.944786       -25.7089
   9   2.0000      -0.891975       -24.2719
  10   2.0000      -0.846340       -23.0301
  11   2.0000      -0.819654       -22.3039
  12   2.0000      -0.766902       -20.8685
  13   2.0000      -0.725957       -19.7543
  14   2.0000      -0.692146       -18.8343
  15   2.0000      -0.672454       -18.2984
  16   2.0000      -0.615423       -16.7465
  17   2.0000      -0.606246       -16.4968
  18   2.0000      -0.590093       -16.0572
  19   2.0000      -0.556340       -15.1388
  20   0.0000      -0.156128        -4.2485
  21   0.0000      -0.121294        -3.3006
  22   0.0000      -0.084352        -2.2953
  23   0.0000      -0.073152        -1.9906
  24   0.0000      -0.048300        -1.3143

MULLIKEN ATOMIC CHARGES
-----------------------
   0 C :   -0.234276
   1 C :    0.352347
   2 N :   -0.352628
   3 N :   -0.351070
   4 H :    0.321721
   5 H :    0.286471
   6 H :    0.294204
   7 H :    0.274562
   8 C :   -0.348962
   9 H :    0.181839
  10 H :    0.142921
  11 H :    0.103721
  12 H :    0.154390
  13 H :    0.174760
Sum of atomic charges:    1.0000000

LOEWDIN ATOMIC CHARGES
----------------------
   0 C :   -0.217687
   1 C :   -0.285342
   2 N :    0.101149
   3 N :    0.112720
   4 H :    0.236349
   5 H :    0.201528
   6 H :    0.200508
   7 H :    0.192844
   8 C :   -0.265128
   9 H :    0.174117
  10 H :    0.159093
  11 H :    0.117896
  12 H :    0.131956
  13 H :    0.139998

  Mayer bond orders larger than 0.100000
B(  0-C ,  1-C ) :   0.9486 B(  0-C ,  8-C ) :   0.9603 B(  0-C ,  9-H ) :   0.9270
B(  0-C , 10-H ) :   0.9754 B(  1-C ,  2-N ) :   1.4312 B(  1-C ,  3-N ) :   1.4702
B(  2-N ,  6-H ) :   0.8926 B(  2-N ,  7-H ) :   0.8993 B(  3-N ,  4-H ) :   0.8717
B(  3-N ,  5-H ) :   0.8917 B(  8-C , 11-H ) :   0.9693 B(  8-C , 12-H ) :   0.9648
B(  8-C , 13-H ) :   0.9687

FINAL SINGLE POINT ENERGY      -228.993132869670

DIPOLE MOMENT
-------------
                                X             Y             Z
Electronic contribution:     -3.78152      -0.47710      -1.57055
Nuclear contribution   :      2.76041       0.12669       1.26265
                        -----------------------------------------
Total Dipole Moment    :     -1.02111      -0.35041      -0.30790
                        -----------------------------------------
Magnitude (a.u.)       :      1.12261
Magnitude (Debye)      :      2.85345

Rotational constants in cm-1:     0.280918     0.124524     0.094121
Rotational constants in MHz :  8421.697738  3733.133254  2821.684112

                             ****ORCA TERMINATED NORMALLY****
TOTAL RUN TIME: 0 days 0 hours 0 minutes 37 seconds 423 msec
