                         Program Version 5.0.0 -  RELEASE  -
|  1> !CAM-B3LYP RIJCOSX def2-TZVP def2/J TightSCF xyzfile
|  2>
|  3> *xyzfile 0 1 B.xyz
|  4>
|  5> %MaxCore 64000
|  6>
|  7> %pal nprocs 18
|  8> end
|  9>
| 10> %scf
| 11>   MaxIter 150
| 12> end
| 13>
| 14>
| 15>                          ****END OF INPUT****

CARTESIAN COORDINATES (ANGSTROEM)
---------------------------------
  C      5.558206   -1.992914   -6.215054
  C      4.930199   -7.375319   -2.649623
  C      3.841892   -6.951611   -3.632829
  H      3.458144   -5.954425   -3.407121
  H      2.988484   -7.643606   -3.567078
  S      4.318115   -6.915930   -5.368692
  C      4.181880   -2.589671   -6.298911
  N      3.145873   -1.768431   -6.486753
  N      4.019102   -3.864307   -6.227427
  H      4.768490   -4.591153   -5.990773
  H      3.122405   -4.333392   -6.314620
  H      3.281635   -0.777786   -6.566549
  H      2.212549   -2.134193   -6.562246
  O      5.406154   -5.899480   -5.512972
  O      3.111910   -6.445079   -6.043792
  C      6.419260   -2.542944   -5.077630
  C      5.872267   -5.002756   -2.427819
  C      6.173994   -6.485522   -2.606315
  H      6.734852   -6.613767   -3.534015
  H      6.821463   -6.831018   -1.793617
  H      4.469612   -7.406168   -1.655876
  H      5.230134   -8.398678   -2.885906
  C      5.896512   -2.169314   -3.694552
  H      7.428880   -2.143665   -5.208078
  H      6.505894   -3.627541   -5.175502
  C      6.807804   -2.623428   -2.551019
  H      4.894708   -2.589732   -3.557501
  H      5.778823   -1.081255   -3.635790
  C      7.111544   -4.122463   -2.520363
  H      7.751615   -2.071393   -2.614406
  H      6.345837   -2.326401   -1.604086
  H      5.362882   -4.828697   -1.471335
  H      5.174429   -4.702577   -3.211298
  H      7.778329   -4.329347   -1.677651
  H      7.673189   -4.402845   -3.417586
  O      4.763396   -8.239424   -5.698629
  H      6.036826   -2.198189   -7.176852
  H      5.467610   -0.907371   -6.127968

 Total Charge           Charge          ....    0
 Multiplicity           Mult            ....    1
 Number of Electrons    NEL             ....  136
 Basis Dimension        Dim             ....  634

ORBITAL ENERGIES
----------------

  NO   OCC          E(Eh)            E(eV)
   0   2.0000     -89.070987     -2423.7448
   1   2.0000     -19.140517      -520.8399
   2   2.0000     -19.128455      -520.5117
   3   2.0000     -19.122158      -520.3404
   4   2.0000     -14.479235      -394.0000
   5   2.0000     -14.440780      -392.9536
   6   2.0000     -10.405918      -283.1594
   7   2.0000     -10.301955      -280.3305
   8   2.0000     -10.267988      -279.4061
   9   2.0000     -10.256109      -279.0829
  10   2.0000     -10.244437      -278.7653
  11   2.0000     -10.237229      -278.5692
  12   2.0000     -10.231831      -278.4223
  13   2.0000     -10.224750      -278.2296
  14   2.0000     -10.223287      -278.1898
  15   2.0000     -10.215879      -277.9882
  16   2.0000      -8.114649      -220.8108
  17   2.0000      -6.079231      -165.4243
  18   2.0000      -6.078338      -165.4000
  19   2.0000      -6.077440      -165.3755
  20   2.0000      -1.163523       -31.6611
  21   2.0000      -1.123580       -30.5742
  22   2.0000      -1.030840       -28.0506
  23   2.0000      -1.021766       -27.8037
  24   2.0000      -1.015304       -27.6278
  25   2.0000      -0.925848       -25.1936
  26   2.0000      -0.889695       -24.2098
  27   2.0000      -0.865445       -23.5500
  28   2.0000      -0.824555       -22.4373
  29   2.0000      -0.788399       -21.4534
  30   2.0000      -0.754630       -20.5345
  31   2.0000      -0.732949       -19.9445
  32   2.0000      -0.705381       -19.1944
  33   2.0000      -0.681888       -18.5551
  34   2.0000      -0.671654       -18.2766
  35   2.0000      -0.652445       -17.7539
  36   2.0000      -0.636827       -17.3289
  37   2.0000      -0.613448       -16.6928
  38   2.0000      -0.586773       -15.9669
  39   2.0000      -0.575552       -15.6616
  40   2.0000      -0.560095       -15.2410
  41   2.0000      -0.544152       -14.8071
  42   2.0000      -0.536756       -14.6059
  43   2.0000      -0.522854       -14.2276
  44   2.0000      -0.516144       -14.0450
  45   2.0000      -0.507637       -13.8135
  46   2.0000      -0.499026       -13.5792
  47   2.0000      -0.492816       -13.4102
  48   2.0000      -0.478750       -13.0274
  49   2.0000      -0.467583       -12.7236
  50   2.0000      -0.462863       -12.5951
  51   2.0000      -0.460687       -12.5359
  52   2.0000      -0.440242       -11.9796
  53   2.0000      -0.433633       -11.7997
  54   2.0000      -0.427407       -11.6303
  55   2.0000      -0.409578       -11.1452
  56   2.0000      -0.399783       -10.8786
  57   2.0000      -0.393808       -10.7161
  58   2.0000      -0.391382       -10.6501
  59   2.0000      -0.382485       -10.4080
  60   2.0000      -0.377003       -10.2588
  61   2.0000      -0.373627       -10.1669
  62   2.0000      -0.366577        -9.9751
  63   2.0000      -0.363256        -9.8847
  64   2.0000      -0.331399        -9.0178
  65   2.0000      -0.328118        -8.9286
  66   2.0000      -0.315904        -8.5962
  67   2.0000      -0.294414        -8.0114
  68   0.0000       0.001360         0.0370
  69   0.0000       0.016239         0.4419
  70   0.0000       0.054479         1.4824
  71   0.0000       0.066383         1.8064
  72   0.0000       0.078871         2.1462

MULLIKEN ATOMIC CHARGES
-----------------------
   0 C :   -0.195117
   1 C :   -0.180609
   2 C :   -0.285919
   3 H :    0.106974
   4 H :    0.135362
   5 S :    0.891710
   6 C :    0.266354
   7 N :   -0.399954
   8 N :   -0.307360
   9 H :    0.328762
  10 H :    0.264101
  11 H :    0.258425
  12 H :    0.257799
  13 O :   -0.605049
  14 O :   -0.586024
  15 C :   -0.297893
  16 C :   -0.199249
  17 C :   -0.205687
  18 H :    0.144398
  19 H :    0.091591
  20 H :    0.093288
  21 H :    0.128151
  22 C :   -0.233449
  23 H :    0.120970
  24 H :    0.193357
  25 C :   -0.170262
  26 H :    0.125476
  27 H :    0.098900
  28 C :   -0.236268
  29 H :    0.107249
  30 H :    0.105824
  31 H :    0.089683
  32 H :    0.072855
  33 H :    0.105684
  34 H :    0.125278
  35 O :   -0.484508
  36 H :    0.162231
  37 H :    0.112926
Sum of atomic charges:   -0.0000000

LOEWDIN ATOMIC CHARGES
----------------------
   0 C :   -0.205390
   1 C :   -0.287021
   2 C :   -0.388800
   3 H :    0.122667
   4 H :    0.138852
   5 S :    0.482304
   6 C :   -0.319867
   7 N :    0.052212
   8 N :    0.119228
   9 H :    0.169923
  10 H :    0.185587
  11 H :    0.181847
  12 H :    0.181858
  13 O :   -0.379017
  14 O :   -0.382604
  15 C :   -0.251832
  16 C :   -0.271297
  17 C :   -0.272066
  18 H :    0.143181
  19 H :    0.132407
  20 H :    0.135348
  21 H :    0.143862
  22 C :   -0.270252
  23 H :    0.145014
  24 H :    0.151980
  25 C :   -0.265070
  26 H :    0.135536
  27 H :    0.133459
  28 C :   -0.266962
  29 H :    0.135749
  30 H :    0.136992
  31 H :    0.131218
  32 H :    0.130279
  33 H :    0.135951
  34 H :    0.139130
  35 O :   -0.316737
  36 H :    0.166172
  37 H :    0.146162

  Mayer bond orders larger than 0.100000
B(  0-C ,  6-C ) :   0.9508 B(  0-C , 15-C ) :   0.9483 B(  0-C , 36-H ) :   0.9488
B(  0-C , 37-H ) :   0.9874 B(  1-C ,  2-C ) :   0.9332 B(  1-C , 17-C ) :   0.9703
B(  1-C , 20-H ) :   0.9674 B(  1-C , 21-H ) :   0.9719 B(  2-C ,  3-H ) :   0.9571
B(  2-C ,  4-H ) :   0.9621 B(  2-C ,  5-S ) :   0.9069 B(  5-S , 13-O ) :   1.4659
B(  5-S , 14-O ) :   1.6842 B(  5-S , 35-O ) :   1.9146 B(  6-C ,  7-N ) :   1.3095
B(  6-C ,  8-N ) :   1.6083 B(  7-N , 11-H ) :   0.9103 B(  7-N , 12-H ) :   0.9072
B(  8-N ,  9-H ) :   0.7113 B(  8-N , 10-H ) :   0.8790 B(  9-H , 13-O ) :   0.2275
B( 15-C , 22-C ) :   0.9100 B( 15-C , 23-H ) :   0.9703 B( 15-C , 24-H ) :   0.9674
B( 16-C , 17-C ) :   0.9378 B( 16-C , 28-C ) :   0.9415 B( 16-C , 31-H ) :   0.9664
B( 16-C , 32-H ) :   0.9731 B( 17-C , 18-H ) :   0.9744 B( 17-C , 19-H ) :   0.9771
B( 22-C , 25-C ) :   0.9618 B( 22-C , 26-H ) :   0.9793 B( 22-C , 27-H ) :   0.9725
B( 25-C , 28-C ) :   0.9400 B( 25-C , 29-H ) :   0.9864 B( 25-C , 30-H ) :   0.9846
B( 28-C , 33-H ) :   0.9788 B( 28-C , 34-H ) :   0.9924

FINAL SINGLE POINT ENERGY     -1127.673224318939

DIPOLE MOMENT
-------------
                                X             Y             Z
Electronic contribution:     -9.22046     -11.39782     -14.20412
Nuclear contribution   :      8.53517      16.50844      14.36520
                        -----------------------------------------
Total Dipole Moment    :     -0.68530       5.11062       0.16108
                        -----------------------------------------
Magnitude (a.u.)       :      5.15887
Magnitude (Debye)      :     13.11281

Rotational constants in cm-1:     0.017951     0.012436     0.008288
Rotational constants in MHz :   538.163255   372.824050   248.467077

                             ****ORCA TERMINATED NORMALLY****
TOTAL RUN TIME: 0 days 0 hours 1 minutes 54 seconds 9 msec
