                         Program Version 5.0.0 -  RELEASE  -
|  1> !CAM-B3LYP RIJCOSX def2-TZVP def2/J TightSCF
|  2> *xyz 0 1
|  3> C          4.93020       -7.37532       -2.64962
|  4> C          3.84189       -6.95161       -3.63283
|  5> H          3.45814       -5.95442       -3.40712
|  6> H          2.98848       -7.64361       -3.56708
|  7> S          4.31812       -6.91593       -5.36869
|  8> F          5.40615       -5.89948       -5.51297
|  9> O          3.11191       -6.44508       -6.04379
| 10> O          4.76340       -8.23942       -5.69863
| 11> H          5.27901       -8.35440       -2.90385
| 12> H          4.53000       -7.38577       -1.65734
| 13> H          5.74437       -6.68276       -2.69856
| 14> *
| 15>
| 16> %MaxCore 64000
| 17>
| 18> %pal nprocs 4
| 19> end
| 20>
| 21> %scf
| 22>   MaxIter 150
| 23> end
| 24>
| 25>
| 26>                          ****END OF INPUT****

CARTESIAN COORDINATES (ANGSTROEM)
---------------------------------
  C      4.930200   -7.375320   -2.649620
  C      3.841890   -6.951610   -3.632830
  H      3.458140   -5.954420   -3.407120
  H      2.988480   -7.643610   -3.567080
  S      4.318120   -6.915930   -5.368690
  F      5.406150   -5.899480   -5.512970
  O      3.111910   -6.445080   -6.043790
  O      4.763400   -8.239420   -5.698630
  H      5.279010   -8.354400   -2.903850
  H      4.530000   -7.385770   -1.657340
  H      5.744370   -6.682760   -2.698560

 Total Charge           Charge          ....    0
 Multiplicity           Mult            ....    1
 Number of Electrons    NEL             ....   58
 Basis Dimension        Dim             ....  222

ORBITAL ENERGIES
----------------

  NO   OCC          E(Eh)            E(eV)
   0   2.0000     -89.177562     -2426.6448
   1   2.0000     -24.856063      -676.3679
   2   2.0000     -19.216241      -522.9005
   3   2.0000     -19.206122      -522.6251
   4   2.0000     -10.310049      -280.5507
   5   2.0000     -10.265735      -279.3449
   6   2.0000      -8.221122      -223.7081
   7   2.0000      -6.189054      -168.4127
   8   2.0000      -6.182675      -168.2391
   9   2.0000      -6.182041      -168.2219
  10   2.0000      -1.427662       -38.8487
  11   2.0000      -1.197343       -32.5814
  12   2.0000      -1.102792       -30.0085
  13   2.0000      -0.908696       -24.7269
  14   2.0000      -0.800107       -21.7720
  15   2.0000      -0.750455       -20.4209
  16   2.0000      -0.653183       -17.7740
  17   2.0000      -0.635030       -17.2801
  18   2.0000      -0.620176       -16.8758
  19   2.0000      -0.566883       -15.4257
  20   2.0000      -0.551399       -15.0043
  21   2.0000      -0.526775       -14.3343
  22   2.0000      -0.505344       -13.7511
  23   2.0000      -0.478163       -13.0115
  24   2.0000      -0.473150       -12.8751
  25   2.0000      -0.448671       -12.2090
  26   2.0000      -0.409072       -11.1314
  27   2.0000      -0.396679       -10.7942
  28   2.0000      -0.386572       -10.5192
  29   0.0000       0.046157         1.2560
  30   0.0000       0.085943         2.3386
  31   0.0000       0.101725         2.7681
  32   0.0000       0.110234         2.9996
  33   0.0000       0.117438         3.1956

MULLIKEN ATOMIC CHARGES
-----------------------
   0 C :   -0.354652
   1 C :   -0.250221
   2 H :    0.149148
   3 H :    0.162561
   4 S :    0.866855
   5 F :   -0.142092
   6 O :   -0.431899
   7 O :   -0.407800
   8 H :    0.149284
   9 H :    0.132659
  10 H :    0.126158
Sum of atomic charges:    0.0000000

LOEWDIN ATOMIC CHARGES
----------------------
   0 C :   -0.315381
   1 C :   -0.390961
   2 H :    0.139517
   3 H :    0.154004
   4 S :    0.565612
   5 F :    0.031943
   6 O :   -0.293930
   7 O :   -0.262553
   8 H :    0.126228
   9 H :    0.125368
  10 H :    0.120153

  Mayer bond orders larger than 0.100000
B(  0-C ,  1-C ) :   0.9387 B(  0-C ,  8-H ) :   0.9678 B(  0-C ,  9-H ) :   0.9663
B(  0-C , 10-H ) :   0.9720 B(  1-C ,  2-H ) :   0.9484 B(  1-C ,  3-H ) :   0.9436
B(  1-C ,  4-S ) :   0.9068 B(  4-S ,  5-F ) :   1.0865 B(  4-S ,  6-O ) :   1.9319
B(  4-S ,  7-O ) :   1.9366

FINAL SINGLE POINT ENERGY      -727.740087904668

DIPOLE MOMENT
-------------
                                X             Y             Z
Electronic contribution:      1.30626       2.64125      -8.74066
Nuclear contribution   :     -0.98922      -2.24849      10.35711
                        -----------------------------------------
Total Dipole Moment    :      0.31704       0.39276       1.61644
                        -----------------------------------------
Magnitude (a.u.)       :      1.69342
Magnitude (Debye)      :      4.30433

Rotational constants in cm-1:     0.151436     0.080885     0.078670
Rotational constants in MHz :  4539.936009  2424.868817  2358.476812

                             ****ORCA TERMINATED NORMALLY****
TOTAL RUN TIME: 0 days 0 hours 0 minutes 38 seconds 908 msec
