                         Program Version 5.0.0 -  RELEASE  -
|  1> !CAM-B3LYP RIJCOSX def2-TZVP def2/J TightSCF
|  2> *xyz 0 1
|  3> C          5.55821       -1.99291       -6.21505
|  4> C          4.18188       -2.58967       -6.29891
|  5> C          3.14587       -1.76843       -6.48675
|  6> N          4.01910       -3.86431       -6.22743
|  7> H          4.76849       -4.59115       -5.99077
|  8> H          3.12241       -4.33339       -6.31462
|  9> H          3.28164       -0.77779       -6.56655
| 10> H          2.21255       -2.13419       -6.56225
| 11> C          6.41926       -2.54294       -5.07763
| 12> H          6.03683       -2.19819       -7.17685
| 13> H          5.46761       -0.90737       -6.12797
| 14> H          6.50056       -3.60553       -5.17358
| 15> H          5.96544       -2.30329       -4.13874
| 16> H          7.39438       -2.10494       -5.12457
| 17> *
| 18>
| 19> %MaxCore 64000
| 20>
| 21> %pal nprocs 4
| 22> end
| 23>
| 24> %scf
| 25>   MaxIter 150
| 26> end
| 27>
| 28>
| 29>                          ****END OF INPUT****

CARTESIAN COORDINATES (ANGSTROEM)
---------------------------------
  C      5.558210   -1.992910   -6.215050
  C      4.181880   -2.589670   -6.298910
  C      3.145870   -1.768430   -6.486750
  N      4.019100   -3.864310   -6.227430
  H      4.768490   -4.591150   -5.990770
  H      3.122410   -4.333390   -6.314620
  H      3.281640   -0.777790   -6.566550
  H      2.212550   -2.134190   -6.562250
  C      6.419260   -2.542940   -5.077630
  H      6.036830   -2.198190   -7.176850
  H      5.467610   -0.907370   -6.127970
  H      6.500560   -3.605530   -5.173580
  H      5.965440   -2.303290   -4.138740
  H      7.394380   -2.104940   -5.124570

 Total Charge           Charge          ....    0
 Multiplicity           Mult            ....    1
 Number of Electrons    NEL             ....   40
 Basis Dimension        Dim             ....  209

ORBITAL ENERGIES
----------------

  NO   OCC          E(Eh)            E(eV)
   0   2.0000     -14.394915      -391.7056
   1   2.0000     -10.266066      -279.3538
   2   2.0000     -10.241494      -278.6852
   3   2.0000     -10.230352      -278.3820
   4   2.0000     -10.168366      -276.6953
   5   2.0000      -1.016714       -27.6662
   6   2.0000      -0.860124       -23.4052
   7   2.0000      -0.797877       -21.7113
   8   2.0000      -0.708933       -19.2911
   9   2.0000      -0.656217       -17.8566
  10   2.0000      -0.588072       -16.0022
  11   2.0000      -0.543667       -14.7939
  12   2.0000      -0.513101       -13.9622
  13   2.0000      -0.491039       -13.3618
  14   2.0000      -0.459651       -12.5077
  15   2.0000      -0.449290       -12.2258
  16   2.0000      -0.423858       -11.5338
  17   2.0000      -0.399422       -10.8688
  18   2.0000      -0.393681       -10.7126
  19   2.0000      -0.242221        -6.5912
  20   0.0000       0.057951         1.5769
  21   0.0000       0.089978         2.4484
  22   0.0000       0.103517         2.8168
  23   0.0000       0.111190         3.0256
  24   0.0000       0.130491         3.5508

MULLIKEN ATOMIC CHARGES
-----------------------
   0 C :   -0.197013
   1 C :    0.241469
   2 C :   -0.447854
   3 N :   -0.455724
   4 H :    0.238782
   5 H :    0.233599
   6 H :    0.095223
   7 H :    0.088120
   8 C :   -0.333253
   9 H :    0.106084
  10 H :    0.107983
  11 H :    0.080345
  12 H :    0.121980
  13 H :    0.120258
Sum of atomic charges:    0.0000000

LOEWDIN ATOMIC CHARGES
----------------------
   0 C :   -0.235188
   1 C :   -0.372568
   2 C :   -0.284759
   3 N :    0.003960
   4 H :    0.188089
   5 H :    0.173395
   6 H :    0.098651
   7 H :    0.092981
   8 C :   -0.298346
   9 H :    0.142417
  10 H :    0.146934
  11 H :    0.107412
  12 H :    0.119829
  13 H :    0.117194

  Mayer bond orders larger than 0.100000
B(  0-C ,  1-C ) :   0.9566 B(  0-C ,  8-C ) :   0.9546 B(  0-C ,  9-H ) :   0.9677
B(  0-C , 10-H ) :   0.9844 B(  1-C ,  2-C ) :   1.7135 B(  1-C ,  3-N ) :   1.1713
B(  2-C ,  6-H ) :   0.9997 B(  2-C ,  7-H ) :   1.0017 B(  3-N ,  4-H ) :   0.9190
B(  3-N ,  5-H ) :   0.9227 B(  8-C , 11-H ) :   0.9787 B(  8-C , 12-H ) :   0.9744
B(  8-C , 13-H ) :   0.9841

FINAL SINGLE POINT ENERGY      -212.515581100178

DIPOLE MOMENT
-------------
                                X             Y             Z
Electronic contribution:     -2.02197      -1.09445      -1.02551
Nuclear contribution   :      2.41345       0.31141       1.16343
                        -----------------------------------------
Total Dipole Moment    :      0.39149      -0.78304       0.13793
                        -----------------------------------------
Magnitude (a.u.)       :      0.88625
Magnitude (Debye)      :      2.25267

Rotational constants in cm-1:     0.287957     0.129204     0.097498
Rotational constants in MHz :  8632.737925  3873.424745  2922.919500

                             ****ORCA TERMINATED NORMALLY****
TOTAL RUN TIME: 0 days 0 hours 0 minutes 39 seconds 172 msec
