                         Program Version 5.0.0 -  RELEASE  -
|  1> !CAM-B3LYP RIJCOSX def2-TZVP def2/J TightSCF
|  2> *xyz 0 1
|  3> C          4.93020       -7.37532       -2.64962
|  4> C          3.84189       -6.95161       -3.63283
|  5> H          3.45814       -5.95442       -3.40712
|  6> H          2.98848       -7.64361       -3.56708
|  7> S          4.31812       -6.91593       -5.36869
|  8> O          5.40615       -5.89948       -5.51297
|  9> F          3.11191       -6.44508       -6.04379
| 10> O          4.76340       -8.23942       -5.69863
| 11> H          5.27901       -8.35440       -2.90385
| 12> H          4.53000       -7.38577       -1.65734
| 13> H          5.74437       -6.68276       -2.69856
| 14> *
| 15>
| 16> %MaxCore 64000
| 17>
| 18> %pal nprocs 4
| 19> end
| 20>
| 21> %scf
| 22>   MaxIter 150
| 23> end
| 24>
| 25>
| 26>                          ****END OF INPUT****

CARTESIAN COORDINATES (ANGSTROEM)
---------------------------------
  C      4.930200   -7.375320   -2.649620
  C      3.841890   -6.951610   -3.632830
  H      3.458140   -5.954420   -3.407120
  H      2.988480   -7.643610   -3.567080
  S      4.318120   -6.915930   -5.368690
  O      5.406150   -5.899480   -5.512970
  F      3.111910   -6.445080   -6.043790
  O      4.763400   -8.239420   -5.698630
  H      5.279010   -8.354400   -2.903850
  H      4.530000   -7.385770   -1.657340
  H      5.744370   -6.682760   -2.698560

 Total Charge           Charge          ....    0
 Multiplicity           Mult            ....    1
 Number of Electrons    NEL             ....   58
 Basis Dimension        Dim             ....  222

ORBITAL ENERGIES
----------------

  NO   OCC          E(Eh)            E(eV)
   0   2.0000     -89.179338     -2426.6932
   1   2.0000     -24.871134      -676.7780
   2   2.0000     -19.215508      -522.8805
   3   2.0000     -19.197951      -522.4028
   4   2.0000     -10.311040      -280.5777
   5   2.0000     -10.264018      -279.2981
   6   2.0000      -8.222872      -223.7557
   7   2.0000      -6.190719      -168.4580
   8   2.0000      -6.184272      -168.2826
   9   2.0000      -6.183943      -168.2736
  10   2.0000      -1.454723       -39.5850
  11   2.0000      -1.190614       -32.3983
  12   2.0000      -1.084121       -29.5004
  13   2.0000      -0.908364       -24.7178
  14   2.0000      -0.814057       -22.1516
  15   2.0000      -0.750948       -20.4343
  16   2.0000      -0.657229       -17.8841
  17   2.0000      -0.654676       -17.8146
  18   2.0000      -0.629887       -17.1401
  19   2.0000      -0.568189       -15.4612
  20   2.0000      -0.554493       -15.0885
  21   2.0000      -0.513199       -13.9649
  22   2.0000      -0.500860       -13.6291
  23   2.0000      -0.480237       -13.0679
  24   2.0000      -0.458051       -12.4642
  25   2.0000      -0.455345       -12.3906
  26   2.0000      -0.404650       -11.0111
  27   2.0000      -0.389488       -10.5985
  28   2.0000      -0.373150       -10.1539
  29   0.0000       0.059617         1.6223
  30   0.0000       0.075587         2.0568
  31   0.0000       0.102876         2.7994
  32   0.0000       0.106701         2.9035
  33   0.0000       0.120994         3.2924

MULLIKEN ATOMIC CHARGES
-----------------------
   0 C :   -0.356569
   1 C :   -0.237092
   2 H :    0.144144
   3 H :    0.140321
   4 S :    0.864601
   5 O :   -0.464751
   6 F :   -0.114595
   7 O :   -0.401243
   8 H :    0.145874
   9 H :    0.131772
  10 H :    0.147538
Sum of atomic charges:    0.0000000

LOEWDIN ATOMIC CHARGES
----------------------
   0 C :   -0.301929
   1 C :   -0.396314
   2 H :    0.137885
   3 H :    0.140233
   4 S :    0.559855
   5 O :   -0.334318
   6 F :    0.074304
   7 O :   -0.260889
   8 H :    0.127391
   9 H :    0.125809
  10 H :    0.127974

  Mayer bond orders larger than 0.100000
B(  0-C ,  1-C ) :   0.9545 B(  0-C ,  8-H ) :   0.9693 B(  0-C ,  9-H ) :   0.9634
B(  0-C , 10-H ) :   0.9693 B(  1-C ,  2-H ) :   0.9411 B(  1-C ,  3-H ) :   0.9386
B(  1-C ,  4-S ) :   0.9116 B(  4-S ,  5-O ) :   1.8712 B(  4-S ,  6-F ) :   1.1276
B(  4-S ,  7-O ) :   1.9404

FINAL SINGLE POINT ENERGY      -727.728697271163

DIPOLE MOMENT
-------------
                                X             Y             Z
Electronic contribution:     -2.61491       1.70372      -9.66119
Nuclear contribution   :      1.40145      -1.67996      10.91024
                        -----------------------------------------
Total Dipole Moment    :     -1.21347       0.02376       1.24904
                        -----------------------------------------
Magnitude (a.u.)       :      1.74160
Magnitude (Debye)      :      4.42680

Rotational constants in cm-1:     0.155875     0.079864     0.077188
Rotational constants in MHz :  4673.017506  2394.277415  2314.027118

                             ****ORCA TERMINATED NORMALLY****
TOTAL RUN TIME: 0 days 0 hours 0 minutes 39 seconds 139 msec
