                         Program Version 5.0.0 -  RELEASE  -
|  1> !CAM-B3LYP RIJCOSX def2-TZVP def2/J TightSCF
|  2> *xyz 0 1
|  3> C          5.55821       -1.99291       -6.21505
|  4> C          4.18188       -2.58967       -6.29891
|  5> N          3.14587       -1.76843       -6.48675
|  6> C          4.01910       -3.86431       -6.22743
|  7> H          4.76849       -4.59115       -5.99077
|  8> H          3.12241       -4.33339       -6.31462
|  9> H          3.28164       -0.77779       -6.56655
| 10> H          2.21255       -2.13419       -6.56225
| 11> C          6.41926       -2.54294       -5.07763
| 12> H          6.03683       -2.19819       -7.17685
| 13> H          5.46761       -0.90737       -6.12797
| 14> H          6.50056       -3.60553       -5.17358
| 15> H          5.96544       -2.30329       -4.13874
| 16> H          7.39438       -2.10494       -5.12457
| 17> *
| 18>
| 19> %MaxCore 64000
| 20>
| 21> %pal nprocs 4
| 22> end
| 23>
| 24> %scf
| 25>   MaxIter 150
| 26> end
| 27>
| 28>
| 29>                          ****END OF INPUT****

CARTESIAN COORDINATES (ANGSTROEM)
---------------------------------
  C      5.558210   -1.992910   -6.215050
  C      4.181880   -2.589670   -6.298910
  N      3.145870   -1.768430   -6.486750
  C      4.019100   -3.864310   -6.227430
  H      4.768490   -4.591150   -5.990770
  H      3.122410   -4.333390   -6.314620
  H      3.281640   -0.777790   -6.566550
  H      2.212550   -2.134190   -6.562250
  C      6.419260   -2.542940   -5.077630
  H      6.036830   -2.198190   -7.176850
  H      5.467610   -0.907370   -6.127970
  H      6.500560   -3.605530   -5.173580
  H      5.965440   -2.303290   -4.138740
  H      7.394380   -2.104940   -5.124570

 Total Charge           Charge          ....    0
 Multiplicity           Mult            ....    1
 Number of Electrons    NEL             ....   40
 Basis Dimension        Dim             ....  209

ORBITAL ENERGIES
----------------

  NO   OCC          E(Eh)            E(eV)
   0   2.0000     -14.383601      -391.3977
   1   2.0000     -10.263365      -279.2804
   2   2.0000     -10.242494      -278.7124
   3   2.0000     -10.224120      -278.2124
   4   2.0000     -10.175609      -276.8924
   5   2.0000      -1.006063       -27.3764
   6   2.0000      -0.863612       -23.5001
   7   2.0000      -0.793872       -21.6024
   8   2.0000      -0.719248       -19.5717
   9   2.0000      -0.630800       -17.1650
  10   2.0000      -0.593148       -16.1404
  11   2.0000      -0.557265       -15.1639
  12   2.0000      -0.517742       -14.0885
  13   2.0000      -0.487472       -13.2648
  14   2.0000      -0.451432       -12.2841
  15   2.0000      -0.438686       -11.9373
  16   2.0000      -0.416193       -11.3252
  17   2.0000      -0.400784       -10.9059
  18   2.0000      -0.391150       -10.6437
  19   2.0000      -0.250957        -6.8289
  20   0.0000       0.068343         1.8597
  21   0.0000       0.087266         2.3746
  22   0.0000       0.108352         2.9484
  23   0.0000       0.113227         3.0811
  24   0.0000       0.137185         3.7330

MULLIKEN ATOMIC CHARGES
-----------------------
   0 C :   -0.192796
   1 C :    0.250407
   2 N :   -0.457593
   3 C :   -0.432510
   4 H :    0.094390
   5 H :    0.090243
   6 H :    0.220539
   7 H :    0.223100
   8 C :   -0.334387
   9 H :    0.116519
  10 H :    0.082091
  11 H :    0.112427
  12 H :    0.114765
  13 H :    0.112805
Sum of atomic charges:   -0.0000000

LOEWDIN ATOMIC CHARGES
----------------------
   0 C :   -0.235185
   1 C :   -0.358539
   2 N :   -0.010580
   3 C :   -0.281744
   4 H :    0.118811
   5 H :    0.099415
   6 H :    0.160255
   7 H :    0.167084
   8 C :   -0.289866
   9 H :    0.148072
  10 H :    0.131763
  11 H :    0.117682
  12 H :    0.118805
  13 H :    0.114026

  Mayer bond orders larger than 0.100000
B(  0-C ,  1-C ) :   0.9200 B(  0-C ,  8-C ) :   0.9716 B(  0-C ,  9-H ) :   0.9676
B(  0-C , 10-H ) :   0.9896 B(  1-C ,  2-N ) :   1.1404 B(  1-C ,  3-C ) :   1.7565
B(  2-N ,  6-H ) :   0.9318 B(  2-N ,  7-H ) :   0.9276 B(  3-C ,  4-H ) :   0.9977
B(  3-C ,  5-H ) :   0.9959 B(  8-C , 11-H ) :   0.9786 B(  8-C , 12-H ) :   0.9772
B(  8-C , 13-H ) :   0.9814

FINAL SINGLE POINT ENERGY      -212.525553190618

DIPOLE MOMENT
-------------
                                X             Y             Z
Electronic contribution:     -2.81356       0.83097      -1.29002
Nuclear contribution   :      2.61570      -0.17401       1.22349
                        -----------------------------------------
Total Dipole Moment    :     -0.19786       0.65696      -0.06652
                        -----------------------------------------
Magnitude (a.u.)       :      0.68932
Magnitude (Debye)      :      1.75212

Rotational constants in cm-1:     0.298189     0.125314     0.096441
Rotational constants in MHz :  8939.495008  3756.825352  2891.223400

                             ****ORCA TERMINATED NORMALLY****
TOTAL RUN TIME: 0 days 0 hours 0 minutes 39 seconds 423 msec
