                         Program Version 5.0.0 -  RELEASE  -
|  1> !CAM-B3LYP RIJCOSX def2-TZVP def2/J TightSCF
|  2> *xyz 0 1
|  3> C          4.93020       -7.37532       -2.64962
|  4> C          3.84189       -6.95161       -3.63283
|  5> H          3.45814       -5.95442       -3.40712
|  6> H          2.98848       -7.64361       -3.56708
|  7> S          4.31812       -6.91593       -5.36869
|  8> O          5.40615       -5.89948       -5.51297
|  9> O          3.11191       -6.44508       -6.04379
| 10> F          4.76340       -8.23942       -5.69863
| 11> H          5.27901       -8.35440       -2.90385
| 12> H          4.53000       -7.38577       -1.65734
| 13> H          5.74437       -6.68276       -2.69856
| 14> *
| 15>
| 16> %MaxCore 64000
| 17>
| 18> %pal nprocs 4
| 19> end
| 20>
| 21> %scf
| 22>   MaxIter 150
| 23> end
| 24>
| 25>
| 26>                          ****END OF INPUT****

CARTESIAN COORDINATES (ANGSTROEM)
---------------------------------
  C      4.930200   -7.375320   -2.649620
  C      3.841890   -6.951610   -3.632830
  H      3.458140   -5.954420   -3.407120
  H      2.988480   -7.643610   -3.567080
  S      4.318120   -6.915930   -5.368690
  O      5.406150   -5.899480   -5.512970
  O      3.111910   -6.445080   -6.043790
  F      4.763400   -8.239420   -5.698630
  H      5.279010   -8.354400   -2.903850
  H      4.530000   -7.385770   -1.657340
  H      5.744370   -6.682760   -2.698560

 Total Charge           Charge          ....    0
 Multiplicity           Mult            ....    1
 Number of Electrons    NEL             ....   58
 Basis Dimension        Dim             ....  222

ORBITAL ENERGIES
----------------

  NO   OCC          E(Eh)            E(eV)
   0   2.0000     -89.180716     -2426.7306
   1   2.0000     -24.884901      -677.1526
   2   2.0000     -19.206387      -522.6324
   3   2.0000     -19.198919      -522.4291
   4   2.0000     -10.311134      -280.5802
   5   2.0000     -10.266777      -279.3732
   6   2.0000      -8.224230      -223.7927
   7   2.0000      -6.192215      -168.4987
   8   2.0000      -6.185426      -168.3140
   9   2.0000      -6.185286      -168.3102
  10   2.0000      -1.476939       -40.1896
  11   2.0000      -1.179013       -32.0826
  12   2.0000      -1.076671       -29.2977
  13   2.0000      -0.911066       -24.7914
  14   2.0000      -0.817910       -22.2565
  15   2.0000      -0.761459       -20.7204
  16   2.0000      -0.678912       -18.4741
  17   2.0000      -0.669394       -18.2151
  18   2.0000      -0.623701       -16.9718
  19   2.0000      -0.567021       -15.4294
  20   2.0000      -0.550056       -14.9678
  21   2.0000      -0.521145       -14.1811
  22   2.0000      -0.500763       -13.6265
  23   2.0000      -0.478235       -13.0134
  24   2.0000      -0.466804       -12.7024
  25   2.0000      -0.443443       -12.0667
  26   2.0000      -0.395392       -10.7592
  27   2.0000      -0.388922       -10.5831
  28   2.0000      -0.367352        -9.9962
  29   0.0000       0.048011         1.3064
  30   0.0000       0.085112         2.3160
  31   0.0000       0.100522         2.7353
  32   0.0000       0.107458         2.9241
  33   0.0000       0.115431         3.1410

MULLIKEN ATOMIC CHARGES
-----------------------
   0 C :   -0.353850
   1 C :   -0.248532
   2 H :    0.167059
   3 H :    0.145093
   4 S :    0.862217
   5 O :   -0.460101
   6 O :   -0.420839
   7 F :   -0.097843
   8 H :    0.122340
   9 H :    0.133105
  10 H :    0.151351
Sum of atomic charges:   -0.0000000

LOEWDIN ATOMIC CHARGES
----------------------
   0 C :   -0.315587
   1 C :   -0.391660
   2 H :    0.151735
   3 H :    0.141632
   4 S :    0.556635
   5 O :   -0.330944
   6 O :   -0.288850
   7 F :    0.105377
   8 H :    0.119090
   9 H :    0.125584
  10 H :    0.126987

  Mayer bond orders larger than 0.100000
B(  0-C ,  1-C ) :   0.9375 B(  0-C ,  8-H ) :   0.9719 B(  0-C ,  9-H ) :   0.9661
B(  0-C , 10-H ) :   0.9674 B(  1-C ,  2-H ) :   0.9453 B(  1-C ,  3-H ) :   0.9457
B(  1-C ,  4-S ) :   0.9054 B(  4-S ,  5-O ) :   1.8691 B(  4-S ,  6-O ) :   1.9348
B(  4-S ,  7-F ) :   1.1397

FINAL SINGLE POINT ENERGY      -727.717161123593

DIPOLE MOMENT
-------------
                                X             Y             Z
Electronic contribution:      0.19924      -1.33997      -9.06279
Nuclear contribution   :     -0.31946       0.18980      10.55057
                        -----------------------------------------
Total Dipole Moment    :     -0.12022      -1.15017       1.48778
                        -----------------------------------------
Magnitude (a.u.)       :      1.88437
Magnitude (Debye)      :      4.78968

Rotational constants in cm-1:     0.151421     0.081183     0.078684
Rotational constants in MHz :  4539.489207  2433.790160  2358.892966

                             ****ORCA TERMINATED NORMALLY****
TOTAL RUN TIME: 0 days 0 hours 0 minutes 38 seconds 917 msec
