                         Program Version 5.0.0 -  RELEASE  -
|  1> !CAM-B3LYP RIJCOSX def2-TZVP def2/J TightSCF xyzfile
|  2>
|  3> *xyzfile 0 1 D1.xyz
|  4>
|  5> %MaxCore 64000
|  6>
|  7> %pal nprocs 18
|  8> end
|  9>
| 10> %scf
| 11>   MaxIter 150
| 12> end
| 13>
| 14>
| 15>                          ****END OF INPUT****

CARTESIAN COORDINATES (ANGSTROEM)
---------------------------------
  C      5.558206   -1.992914   -6.215054
  C      4.930199   -7.375319   -2.649623
  C      3.841892   -6.951611   -3.632829
  H      3.458144   -5.954425   -3.407121
  H      2.988484   -7.643606   -3.567078
  S      4.318115   -6.915930   -5.368692
  C      4.181880   -2.589671   -6.298911
  C      3.145873   -1.768431   -6.486753
  N      4.019102   -3.864307   -6.227427
  H      4.768490   -4.591153   -5.990773
  H      3.122405   -4.333392   -6.314620
  H      3.281635   -0.777786   -6.566549
  H      2.212549   -2.134193   -6.562246
  F      5.406154   -5.899480   -5.512972
  O      3.111910   -6.445079   -6.043792
  C      6.419260   -2.542944   -5.077630
  C      5.872267   -5.002756   -2.427819
  C      6.173994   -6.485522   -2.606315
  H      6.734852   -6.613767   -3.534015
  H      6.821463   -6.831018   -1.793617
  H      4.469612   -7.406168   -1.655876
  H      5.230134   -8.398678   -2.885906
  C      5.896512   -2.169314   -3.694552
  H      7.428880   -2.143665   -5.208078
  H      6.505894   -3.627541   -5.175502
  C      6.807804   -2.623428   -2.551019
  H      4.894708   -2.589732   -3.557501
  H      5.778823   -1.081255   -3.635790
  C      7.111544   -4.122463   -2.520363
  H      7.751615   -2.071393   -2.614406
  H      6.345837   -2.326401   -1.604086
  H      5.362882   -4.828697   -1.471335
  H      5.174429   -4.702577   -3.211298
  H      7.778329   -4.329347   -1.677651
  H      7.673189   -4.402845   -3.417586
  O      4.763396   -8.239424   -5.698629
  H      6.036826   -2.198189   -7.176852
  H      5.467610   -0.907371   -6.127968

 Total Charge           Charge          ....    0
 Multiplicity           Mult            ....    1
 Number of Electrons    NEL             ....  136
 Basis Dimension        Dim             ....  634

ORBITAL ENERGIES
----------------

  NO   OCC          E(Eh)            E(eV)
   0   2.0000     -89.196159     -2427.1509
   1   2.0000     -24.886928      -677.2077
   2   2.0000     -19.233878      -523.3804
   3   2.0000     -19.226354      -523.1757
   4   2.0000     -14.370212      -391.0334
   5   2.0000     -10.317954      -280.7658
   6   2.0000     -10.280006      -279.7332
   7   2.0000     -10.263274      -279.2779
   8   2.0000     -10.254514      -279.0395
   9   2.0000     -10.254160      -279.0299
  10   2.0000     -10.246919      -278.8328
  11   2.0000     -10.241574      -278.6874
  12   2.0000     -10.240384      -278.6550
  13   2.0000     -10.236199      -278.5411
  14   2.0000     -10.235119      -278.5118
  15   2.0000     -10.158689      -276.4320
  16   2.0000      -8.240350      -224.2313
  17   2.0000      -6.208651      -168.9460
  18   2.0000      -6.201429      -168.7495
  19   2.0000      -6.201100      -168.7405
  20   2.0000      -1.464598       -39.8537
  21   2.0000      -1.217642       -33.1337
  22   2.0000      -1.123417       -30.5697
  23   2.0000      -1.002752       -27.2863
  24   2.0000      -0.937980       -25.5237
  25   2.0000      -0.904495       -24.6126
  26   2.0000      -0.875689       -23.8287
  27   2.0000      -0.842934       -22.9374
  28   2.0000      -0.823276       -22.4025
  29   2.0000      -0.793061       -21.5803
  30   2.0000      -0.779145       -21.2016
  31   2.0000      -0.739630       -20.1264
  32   2.0000      -0.703289       -19.1375
  33   2.0000      -0.695409       -18.9230
  34   2.0000      -0.687647       -18.7118
  35   2.0000      -0.664700       -18.0874
  36   2.0000      -0.647758       -17.6264
  37   2.0000      -0.636558       -17.3216
  38   2.0000      -0.631520       -17.1845
  39   2.0000      -0.583478       -15.8772
  40   2.0000      -0.576719       -15.6933
  41   2.0000      -0.563198       -15.3254
  42   2.0000      -0.557442       -15.1688
  43   2.0000      -0.547628       -14.9017
  44   2.0000      -0.536668       -14.6035
  45   2.0000      -0.533675       -14.5220
  46   2.0000      -0.523093       -14.2341
  47   2.0000      -0.504646       -13.7321
  48   2.0000      -0.501727       -13.6527
  49   2.0000      -0.491653       -13.3785
  50   2.0000      -0.479784       -13.0556
  51   2.0000      -0.477214       -12.9856
  52   2.0000      -0.462411       -12.5828
  53   2.0000      -0.446665       -12.1544
  54   2.0000      -0.442113       -12.0305
  55   2.0000      -0.436778       -11.8853
  56   2.0000      -0.434869       -11.8334
  57   2.0000      -0.423852       -11.5336
  58   2.0000      -0.421824       -11.4784
  59   2.0000      -0.411076       -11.1859
  60   2.0000      -0.407561       -11.0903
  61   2.0000      -0.402647       -10.9566
  62   2.0000      -0.401889       -10.9360
  63   2.0000      -0.394304       -10.7296
  64   2.0000      -0.383248       -10.4287
  65   2.0000      -0.376546       -10.2463
  66   2.0000      -0.372472       -10.1355
  67   2.0000      -0.231372        -6.2960
  68   0.0000       0.034366         0.9352
  69   0.0000       0.061983         1.6866
  70   0.0000       0.068746         1.8707
  71   0.0000       0.071726         1.9518
  72   0.0000       0.080751         2.1973

MULLIKEN ATOMIC CHARGES
-----------------------
   0 C :   -0.183409
   1 C :   -0.185409
   2 C :   -0.318960
   3 H :    0.180718
   4 H :    0.184765
   5 S :    0.892519
   6 C :    0.184813
   7 C :   -0.454801
   8 N :   -0.445752
   9 H :    0.248179
  10 H :    0.248680
  11 H :    0.088665
  12 H :    0.091499
  13 F :   -0.148207
  14 O :   -0.446718
  15 C :   -0.258459
  16 C :   -0.245214
  17 C :   -0.250750
  18 H :    0.129800
  19 H :    0.121288
  20 H :    0.124955
  21 H :    0.148518
  22 C :   -0.221303
  23 H :    0.108106
  24 H :    0.089712
  25 C :   -0.169417
  26 H :    0.131398
  27 H :    0.108015
  28 C :   -0.216191
  29 H :    0.108236
  30 H :    0.105272
  31 H :    0.109895
  32 H :    0.086137
  33 H :    0.111043
  34 H :    0.116918
  35 O :   -0.396577
  36 H :    0.114191
  37 H :    0.107838
Sum of atomic charges:   -0.0000000

LOEWDIN ATOMIC CHARGES
----------------------
   0 C :   -0.210472
   1 C :   -0.283457
   2 C :   -0.362794
   3 H :    0.144300
   4 H :    0.158827
   5 S :    0.583102
   6 C :   -0.376790
   7 C :   -0.291348
   8 N :   -0.014432
   9 H :    0.152766
  10 H :    0.171943
  11 H :    0.096527
  12 H :    0.092817
  13 F :    0.057892
  14 O :   -0.277651
  15 C :   -0.266989
  16 C :   -0.271631
  17 C :   -0.273409
  18 H :    0.134382
  19 H :    0.142475
  20 H :    0.147838
  21 H :    0.146767
  22 C :   -0.264950
  23 H :    0.137985
  24 H :    0.124707
  25 C :   -0.266667
  26 H :    0.138186
  27 H :    0.139716
  28 C :   -0.268180
  29 H :    0.136853
  30 H :    0.135868
  31 H :    0.138151
  32 H :    0.128487
  33 H :    0.136543
  34 H :    0.135883
  35 O :   -0.247365
  36 H :    0.144960
  37 H :    0.149160

  Mayer bond orders larger than 0.100000
B(  0-C ,  6-C ) :   0.9514 B(  0-C , 15-C ) :   0.9464 B(  0-C , 36-H ) :   0.9749
B(  0-C , 37-H ) :   0.9889 B(  1-C ,  2-C ) :   0.9179 B(  1-C , 17-C ) :   0.9533
B(  1-C , 20-H ) :   0.9599 B(  1-C , 21-H ) :   0.9766 B(  2-C ,  3-H ) :   0.9426
B(  2-C ,  4-H ) :   0.9446 B(  2-C ,  5-S ) :   0.9126 B(  5-S , 13-F ) :   1.0175
B(  5-S , 14-O ) :   1.8576 B(  5-S , 35-O ) :   1.9799 B(  6-C ,  7-C ) :   1.7109
B(  6-C ,  8-N ) :   1.2100 B(  7-C , 11-H ) :   1.0003 B(  7-C , 12-H ) :   0.9978
B(  8-N ,  9-H ) :   0.8886 B(  8-N , 10-H ) :   0.9037 B( 15-C , 22-C ) :   0.9087
B( 15-C , 23-H ) :   0.9732 B( 15-C , 24-H ) :   0.9945 B( 16-C , 17-C ) :   0.8918
B( 16-C , 28-C ) :   0.9377 B( 16-C , 31-H ) :   0.9644 B( 16-C , 32-H ) :   0.9921
B( 17-C , 18-H ) :   0.9942 B( 17-C , 19-H ) :   0.9791 B( 22-C , 25-C ) :   0.9398
B( 22-C , 26-H ) :   0.9909 B( 22-C , 27-H ) :   0.9763 B( 25-C , 28-C ) :   0.9469
B( 25-C , 29-H ) :   0.9838 B( 25-C , 30-H ) :   0.9883 B( 28-C , 33-H ) :   0.9791
B( 28-C , 34-H ) :   0.9882

FINAL SINGLE POINT ENERGY     -1135.550332865998

DIPOLE MOMENT
-------------
                                X             Y             Z
Electronic contribution:     -6.99621     -18.78899     -13.19182
Nuclear contribution   :      7.78491      18.17172      15.09294
                        -----------------------------------------
Total Dipole Moment    :      0.78871      -0.61727       1.90112
                        -----------------------------------------
Magnitude (a.u.)       :      2.14880
Magnitude (Debye)      :      5.46180

Rotational constants in cm-1:     0.018190     0.012573     0.008405
Rotational constants in MHz :   545.327178   376.916509   251.974803

                             ****ORCA TERMINATED NORMALLY****
TOTAL RUN TIME: 0 days 0 hours 2 minutes 6 seconds 948 msec
