                         Program Version 5.0.0 -  RELEASE  -
|  1> !CAM-B3LYP RIJCOSX def2-TZVP def2/J TightSCF xyzfile
|  2>
|  3> *xyzfile 0 1 D2.xyz
|  4>
|  5> %MaxCore 64000
|  6>
|  7> %pal nprocs 18
|  8> end
|  9>
| 10> %scf
| 11>   MaxIter 150
| 12> end
| 13>
| 14>
| 15>                          ****END OF INPUT****

CARTESIAN COORDINATES (ANGSTROEM)
---------------------------------
  C      5.558206   -1.992914   -6.215054
  C      4.930199   -7.375319   -2.649623
  C      3.841892   -6.951611   -3.632829
  H      3.458144   -5.954425   -3.407121
  H      2.988484   -7.643606   -3.567078
  S      4.318115   -6.915930   -5.368692
  C      4.181880   -2.589671   -6.298911
  N      3.145873   -1.768431   -6.486753
  C      4.019102   -3.864307   -6.227427
  H      4.768490   -4.591153   -5.990773
  H      3.122405   -4.333392   -6.314620
  H      3.281635   -0.777786   -6.566549
  H      2.212549   -2.134193   -6.562246
  F      5.406154   -5.899480   -5.512972
  O      3.111910   -6.445079   -6.043792
  C      6.419260   -2.542944   -5.077630
  C      5.872267   -5.002756   -2.427819
  C      6.173994   -6.485522   -2.606315
  H      6.734852   -6.613767   -3.534015
  H      6.821463   -6.831018   -1.793617
  H      4.469612   -7.406168   -1.655876
  H      5.230134   -8.398678   -2.885906
  C      5.896512   -2.169314   -3.694552
  H      7.428880   -2.143665   -5.208078
  H      6.505894   -3.627541   -5.175502
  C      6.807804   -2.623428   -2.551019
  H      4.894708   -2.589732   -3.557501
  H      5.778823   -1.081255   -3.635790
  C      7.111544   -4.122463   -2.520363
  H      7.751615   -2.071393   -2.614406
  H      6.345837   -2.326401   -1.604086
  H      5.362882   -4.828697   -1.471335
  H      5.174429   -4.702577   -3.211298
  H      7.778329   -4.329347   -1.677651
  H      7.673189   -4.402845   -3.417586
  O      4.763396   -8.239424   -5.698629
  H      6.036826   -2.198189   -7.176852
  H      5.467610   -0.907371   -6.127968

 Total Charge           Charge          ....    0
 Multiplicity           Mult            ....    1
 Number of Electrons    NEL             ....  136
 Basis Dimension        Dim             ....  634

ORBITAL ENERGIES
----------------

  NO   OCC          E(Eh)            E(eV)
   0   2.0000     -89.174328     -2426.5568
   1   2.0000     -24.855328      -676.3479
   2   2.0000     -19.213578      -522.8280
   3   2.0000     -19.201000      -522.4858
   4   2.0000     -14.376282      -391.1985
   5   2.0000     -10.302010      -280.3319
   6   2.0000     -10.268210      -279.4122
   7   2.0000     -10.253177      -279.0031
   8   2.0000     -10.253030      -278.9991
   9   2.0000     -10.244983      -278.7802
  10   2.0000     -10.240638      -278.6619
  11   2.0000     -10.237986      -278.5898
  12   2.0000     -10.237801      -278.5847
  13   2.0000     -10.236634      -278.5530
  14   2.0000     -10.233179      -278.4590
  15   2.0000     -10.153047      -276.2785
  16   2.0000      -8.218196      -223.6285
  17   2.0000      -6.186305      -168.3379
  18   2.0000      -6.179588      -168.1551
  19   2.0000      -6.178974      -168.1384
  20   2.0000      -1.434716       -39.0406
  21   2.0000      -1.195309       -32.5260
  22   2.0000      -1.100330       -29.9415
  23   2.0000      -0.998549       -27.1719
  24   2.0000      -0.925309       -25.1789
  25   2.0000      -0.899172       -24.4677
  26   2.0000      -0.869281       -23.6543
  27   2.0000      -0.840136       -22.8613
  28   2.0000      -0.802388       -21.8341
  29   2.0000      -0.791301       -21.5324
  30   2.0000      -0.763657       -20.7802
  31   2.0000      -0.738396       -20.0928
  32   2.0000      -0.700354       -19.0576
  33   2.0000      -0.682241       -18.5647
  34   2.0000      -0.667449       -18.1622
  35   2.0000      -0.642002       -17.4698
  36   2.0000      -0.638575       -17.3765
  37   2.0000      -0.619311       -16.8523
  38   2.0000      -0.612019       -16.6539
  39   2.0000      -0.584723       -15.9111
  40   2.0000      -0.566936       -15.4271
  41   2.0000      -0.562359       -15.3026
  42   2.0000      -0.556318       -15.1382
  43   2.0000      -0.540924       -14.7193
  44   2.0000      -0.527115       -14.3435
  45   2.0000      -0.525509       -14.2998
  46   2.0000      -0.518582       -14.1113
  47   2.0000      -0.503620       -13.7042
  48   2.0000      -0.486810       -13.2468
  49   2.0000      -0.481432       -13.1004
  50   2.0000      -0.476222       -12.9587
  51   2.0000      -0.468257       -12.7419
  52   2.0000      -0.445953       -12.1350
  53   2.0000      -0.440251       -11.9798
  54   2.0000      -0.433095       -11.7851
  55   2.0000      -0.427431       -11.6310
  56   2.0000      -0.417097       -11.3498
  57   2.0000      -0.414209       -11.2712
  58   2.0000      -0.408735       -11.1222
  59   2.0000      -0.402701       -10.9580
  60   2.0000      -0.395011       -10.7488
  61   2.0000      -0.394139       -10.7251
  62   2.0000      -0.386865       -10.5271
  63   2.0000      -0.380579       -10.3561
  64   2.0000      -0.376488       -10.2448
  65   2.0000      -0.371367       -10.1054
  66   2.0000      -0.368281       -10.0214
  67   2.0000      -0.241433        -6.5697
  68   0.0000       0.051203         1.3933
  69   0.0000       0.070547         1.9197
  70   0.0000       0.072909         1.9840
  71   0.0000       0.074992         2.0406
  72   0.0000       0.085270         2.3203

MULLIKEN ATOMIC CHARGES
-----------------------
   0 C :   -0.185986
   1 C :   -0.182142
   2 C :   -0.316390
   3 H :    0.177028
   4 H :    0.177461
   5 S :    0.892964
   6 C :    0.206524
   7 N :   -0.451705
   8 C :   -0.476215
   9 H :    0.118144
  10 H :    0.129631
  11 H :    0.215180
  12 H :    0.220817
  13 F :   -0.136298
  14 O :   -0.434587
  15 C :   -0.235724
  16 C :   -0.244086
  17 C :   -0.250138
  18 H :    0.130309
  19 H :    0.115642
  20 H :    0.118997
  21 H :    0.144297
  22 C :   -0.230022
  23 H :    0.100712
  24 H :    0.103187
  25 C :   -0.166707
  26 H :    0.134532
  27 H :    0.098907
  28 C :   -0.219254
  29 H :    0.105978
  30 H :    0.102363
  31 H :    0.104296
  32 H :    0.104666
  33 H :    0.107666
  34 H :    0.117645
  35 O :   -0.408777
  36 H :    0.122842
  37 H :    0.088241
Sum of atomic charges:    0.0000000

LOEWDIN ATOMIC CHARGES
----------------------
   0 C :   -0.211816
   1 C :   -0.284889
   2 C :   -0.363908
   3 H :    0.143548
   4 H :    0.156119
   5 S :    0.586252
   6 C :   -0.366604
   7 N :   -0.012129
   8 C :   -0.311048
   9 H :    0.097074
  10 H :    0.103101
  11 H :    0.158038
  12 H :    0.166865
  13 F :    0.061064
  14 O :   -0.267247
  15 C :   -0.256412
  16 C :   -0.271252
  17 C :   -0.273551
  18 H :    0.135157
  19 H :    0.140599
  20 H :    0.145530
  21 H :    0.145802
  22 C :   -0.266810
  23 H :    0.136095
  24 H :    0.133428
  25 C :   -0.267131
  26 H :    0.138296
  27 H :    0.135418
  28 C :   -0.268077
  29 H :    0.135905
  30 H :    0.135074
  31 H :    0.136484
  32 H :    0.133160
  33 H :    0.135672
  34 H :    0.136386
  35 O :   -0.259022
  36 H :    0.150223
  37 H :    0.134604

  Mayer bond orders larger than 0.100000
B(  0-C ,  6-C ) :   0.9282 B(  0-C , 15-C ) :   0.9691 B(  0-C , 36-H ) :   0.9675
B(  0-C , 37-H ) :   0.9932 B(  1-C ,  2-C ) :   0.9195 B(  1-C , 17-C ) :   0.9555
B(  1-C , 20-H ) :   0.9615 B(  1-C , 21-H ) :   0.9765 B(  2-C ,  3-H ) :   0.9450
B(  2-C ,  4-H ) :   0.9485 B(  2-C ,  5-S ) :   0.9120 B(  5-S , 13-F ) :   1.0421
B(  5-S , 14-O ) :   1.8786 B(  5-S , 35-O ) :   1.9694 B(  6-C ,  7-N ) :   1.1426
B(  6-C ,  8-C ) :   1.7595 B(  7-N , 11-H ) :   0.9312 B(  7-N , 12-H ) :   0.9259
B(  8-C ,  9-H ) :   1.0186 B(  8-C , 10-H ) :   0.9788 B( 15-C , 22-C ) :   0.9225
B( 15-C , 23-H ) :   0.9736 B( 15-C , 24-H ) :   0.9828 B( 16-C , 17-C ) :   0.8981
B( 16-C , 28-C ) :   0.9397 B( 16-C , 31-H ) :   0.9656 B( 16-C , 32-H ) :   0.9876
B( 17-C , 18-H ) :   0.9922 B( 17-C , 19-H ) :   0.9791 B( 22-C , 25-C ) :   0.9468
B( 22-C , 26-H ) :   0.9872 B( 22-C , 27-H ) :   0.9761 B( 25-C , 28-C ) :   0.9485
B( 25-C , 29-H ) :   0.9844 B( 25-C , 30-H ) :   0.9882 B( 28-C , 33-H ) :   0.9795
B( 28-C , 34-H ) :   0.9880

FINAL SINGLE POINT ENERGY     -1135.543909672377

DIPOLE MOMENT
-------------
                                X             Y             Z
Electronic contribution:     -7.74695     -16.92701     -13.61220
Nuclear contribution   :      7.91684      17.85507      15.13212
                        -----------------------------------------
Total Dipole Moment    :      0.16989       0.92806       1.51992
                        -----------------------------------------
Magnitude (a.u.)       :      1.78894
Magnitude (Debye)      :      4.54713

Rotational constants in cm-1:     0.018015     0.012410     0.008313
Rotational constants in MHz :   540.084467   372.038374   249.228144

                             ****ORCA TERMINATED NORMALLY****
TOTAL RUN TIME: 0 days 0 hours 2 minutes 15 seconds 913 msec
