                         Program Version 5.0.0 -  RELEASE  -
|  1> !CAM-B3LYP RIJCOSX def2-TZVP def2/J TightSCF xyzfile
|  2>
|  3> *xyzfile 0 1 D6.xyz
|  4>
|  5> %MaxCore 64000
|  6>
|  7> %pal nprocs 18
|  8> end
|  9>
| 10> %scf
| 11>   MaxIter 150
| 12> end
| 13>
| 14>
| 15>                          ****END OF INPUT****

CARTESIAN COORDINATES (ANGSTROEM)
---------------------------------
  C      5.558206   -1.992914   -6.215054
  C      4.930199   -7.375319   -2.649623
  C      3.841892   -6.951611   -3.632829
  H      3.458144   -5.954425   -3.407121
  H      2.988484   -7.643606   -3.567078
  S      4.318115   -6.915930   -5.368692
  C      4.181880   -2.589671   -6.298911
  N      3.145873   -1.768431   -6.486753
  C      4.019102   -3.864307   -6.227427
  H      4.768490   -4.591153   -5.990773
  H      3.122405   -4.333392   -6.314620
  H      3.281635   -0.777786   -6.566549
  H      2.212549   -2.134193   -6.562246
  O      5.406154   -5.899480   -5.512972
  O      3.111910   -6.445079   -6.043792
  C      6.419260   -2.542944   -5.077630
  C      5.872267   -5.002756   -2.427819
  C      6.173994   -6.485522   -2.606315
  H      6.734852   -6.613767   -3.534015
  H      6.821463   -6.831018   -1.793617
  H      4.469612   -7.406168   -1.655876
  H      5.230134   -8.398678   -2.885906
  C      5.896512   -2.169314   -3.694552
  H      7.428880   -2.143665   -5.208078
  H      6.505894   -3.627541   -5.175502
  C      6.807804   -2.623428   -2.551019
  H      4.894708   -2.589732   -3.557501
  H      5.778823   -1.081255   -3.635790
  C      7.111544   -4.122463   -2.520363
  H      7.751615   -2.071393   -2.614406
  H      6.345837   -2.326401   -1.604086
  H      5.362882   -4.828697   -1.471335
  H      5.174429   -4.702577   -3.211298
  H      7.778329   -4.329347   -1.677651
  H      7.673189   -4.402845   -3.417586
  F      4.763396   -8.239424   -5.698629
  H      6.036826   -2.198189   -7.176852
  H      5.467610   -0.907371   -6.127968

 Total Charge           Charge          ....    0
 Multiplicity           Mult            ....    1
 Number of Electrons    NEL             ....  136
 Basis Dimension        Dim             ....  634

ORBITAL ENERGIES
----------------

  NO   OCC          E(Eh)            E(eV)
   0   2.0000     -89.184652     -2426.8378
   1   2.0000     -24.886699      -677.2015
   2   2.0000     -19.208922      -522.7013
   3   2.0000     -19.204371      -522.5775
   4   2.0000     -14.359308      -390.7366
   5   2.0000     -10.307263      -280.4749
   6   2.0000     -10.272041      -279.5164
   7   2.0000     -10.244264      -278.7606
   8   2.0000     -10.233228      -278.4603
   9   2.0000     -10.231949      -278.4255
  10   2.0000     -10.229201      -278.3507
  11   2.0000     -10.226580      -278.2794
  12   2.0000     -10.221289      -278.1354
  13   2.0000     -10.219549      -278.0881
  14   2.0000     -10.218461      -278.0585
  15   2.0000     -10.126769      -275.5634
  16   2.0000      -8.228382      -223.9056
  17   2.0000      -6.196318      -168.6104
  18   2.0000      -6.189677      -168.4297
  19   2.0000      -6.189367      -168.4212
  20   2.0000      -1.478841       -40.2413
  21   2.0000      -1.187524       -32.3142
  22   2.0000      -1.087900       -29.6033
  23   2.0000      -0.981164       -26.6988
  24   2.0000      -0.924923       -25.1684
  25   2.0000      -0.889179       -24.1958
  26   2.0000      -0.859866       -23.3981
  27   2.0000      -0.835329       -22.7305
  28   2.0000      -0.805514       -21.9192
  29   2.0000      -0.783187       -21.3116
  30   2.0000      -0.757398       -20.6099
  31   2.0000      -0.726701       -19.7745
  32   2.0000      -0.694182       -18.8897
  33   2.0000      -0.681174       -18.5357
  34   2.0000      -0.674704       -18.3596
  35   2.0000      -0.659472       -17.9451
  36   2.0000      -0.631913       -17.1952
  37   2.0000      -0.621760       -16.9190
  38   2.0000      -0.602005       -16.3814
  39   2.0000      -0.574070       -15.6213
  40   2.0000      -0.568664       -15.4741
  41   2.0000      -0.560842       -15.2613
  42   2.0000      -0.543609       -14.7923
  43   2.0000      -0.535821       -14.5804
  44   2.0000      -0.529224       -14.4009
  45   2.0000      -0.518004       -14.0956
  46   2.0000      -0.512873       -13.9560
  47   2.0000      -0.489195       -13.3117
  48   2.0000      -0.484344       -13.1797
  49   2.0000      -0.478830       -13.0296
  50   2.0000      -0.478107       -13.0100
  51   2.0000      -0.457931       -12.4609
  52   2.0000      -0.440330       -11.9820
  53   2.0000      -0.433256       -11.7895
  54   2.0000      -0.421252       -11.4628
  55   2.0000      -0.413846       -11.2613
  56   2.0000      -0.411902       -11.2084
  57   2.0000      -0.404765       -11.0142
  58   2.0000      -0.396436       -10.7876
  59   2.0000      -0.391796       -10.6613
  60   2.0000      -0.385173       -10.4811
  61   2.0000      -0.382311       -10.4032
  62   2.0000      -0.379248       -10.3199
  63   2.0000      -0.367709       -10.0059
  64   2.0000      -0.362550        -9.8655
  65   2.0000      -0.356093        -9.6898
  66   2.0000      -0.330503        -8.9935
  67   2.0000      -0.221021        -6.0143
  68   0.0000       0.049419         1.3448
  69   0.0000       0.075666         2.0590
  70   0.0000       0.080729         2.1968
  71   0.0000       0.084766         2.3066
  72   0.0000       0.087980         2.3940

MULLIKEN ATOMIC CHARGES
-----------------------
   0 C :   -0.177800
   1 C :   -0.214878
   2 C :   -0.310634
   3 H :    0.189141
   4 H :    0.165732
   5 S :    0.896056
   6 C :    0.193574
   7 N :   -0.457206
   8 C :   -0.480208
   9 H :    0.165009
  10 H :    0.107441
  11 H :    0.209305
  12 H :    0.214213
  13 O :   -0.457879
  14 O :   -0.421541
  15 C :   -0.235662
  16 C :   -0.222362
  17 C :   -0.214068
  18 H :    0.133432
  19 H :    0.107891
  20 H :    0.124615
  21 H :    0.130268
  22 C :   -0.233746
  23 H :    0.090602
  24 H :    0.136166
  25 C :   -0.162243
  26 H :    0.130280
  27 H :    0.092565
  28 C :   -0.231056
  29 H :    0.101511
  30 H :    0.096546
  31 H :    0.095502
  32 H :    0.117895
  33 H :    0.099839
  34 H :    0.122755
  35 F :   -0.095942
  36 H :    0.114667
  37 H :    0.080218
Sum of atomic charges:   -0.0000000

LOEWDIN ATOMIC CHARGES
----------------------
   0 C :   -0.213691
   1 C :   -0.287364
   2 C :   -0.364143
   3 H :    0.154698
   4 H :    0.145451
   5 S :    0.584838
   6 C :   -0.375380
   7 N :   -0.021663
   8 C :   -0.301869
   9 H :    0.101414
  10 H :    0.097900
  11 H :    0.154635
  12 H :    0.163406
  13 O :   -0.281808
  14 O :   -0.261865
  15 C :   -0.255774
  16 C :   -0.269184
  17 C :   -0.274277
  18 H :    0.138366
  19 H :    0.137269
  20 H :    0.146869
  21 H :    0.138285
  22 C :   -0.266997
  23 H :    0.133128
  24 H :    0.141877
  25 C :   -0.268147
  26 H :    0.137803
  27 H :    0.133355
  28 C :   -0.267136
  29 H :    0.134650
  30 H :    0.133152
  31 H :    0.132994
  32 H :    0.138470
  33 H :    0.133137
  34 H :    0.138882
  35 F :    0.108617
  36 H :    0.148457
  37 H :    0.131643

  Mayer bond orders larger than 0.100000
B(  0-C ,  6-C ) :   0.9332 B(  0-C , 15-C ) :   0.9707 B(  0-C , 36-H ) :   0.9673
B(  0-C , 37-H ) :   0.9939 B(  1-C ,  2-C ) :   0.9219 B(  1-C , 17-C ) :   0.9381
B(  1-C , 20-H ) :   0.9640 B(  1-C , 21-H ) :   0.9860 B(  2-C ,  3-H ) :   0.9413
B(  2-C ,  4-H ) :   0.9548 B(  2-C ,  5-S ) :   0.9144 B(  5-S , 13-O ) :   1.7644
B(  5-S , 14-O ) :   1.9042 B(  5-S , 35-F ) :   1.1484 B(  6-C ,  7-N ) :   1.1205
B(  6-C ,  8-C ) :   1.7834 B(  7-N , 11-H ) :   0.9335 B(  7-N , 12-H ) :   0.9284
B(  8-C ,  9-H ) :   0.9959 B(  8-C , 10-H ) :   0.9807 B( 15-C , 22-C ) :   0.9275
B( 15-C , 23-H ) :   0.9732 B( 15-C , 24-H ) :   0.9759 B( 16-C , 17-C ) :   0.9126
B( 16-C , 28-C ) :   0.9503 B( 16-C , 31-H ) :   0.9676 B( 16-C , 32-H ) :   0.9741
B( 17-C , 18-H ) :   0.9827 B( 17-C , 19-H ) :   0.9783 B( 22-C , 25-C ) :   0.9486
B( 22-C , 26-H ) :   0.9877 B( 22-C , 27-H ) :   0.9770 B( 25-C , 28-C ) :   0.9501
B( 25-C , 29-H ) :   0.9839 B( 25-C , 30-H ) :   0.9883 B( 28-C , 33-H ) :   0.9795
B( 28-C , 34-H ) :   0.9875

FINAL SINGLE POINT ENERGY     -1135.522093982976

DIPOLE MOMENT
-------------
                                X             Y             Z
Electronic contribution:     -8.86381     -21.50592     -14.04890
Nuclear contribution   :      8.67311      20.60825      15.35056
                        -----------------------------------------
Total Dipole Moment    :     -0.19071      -0.89768       1.30165
                        -----------------------------------------
Magnitude (a.u.)       :      1.59264
Magnitude (Debye)      :      4.04817

Rotational constants in cm-1:     0.017976     0.012151     0.008188
Rotational constants in MHz :   538.898457   364.286417   245.482451

                             ****ORCA TERMINATED NORMALLY****
TOTAL RUN TIME: 0 days 0 hours 2 minutes 4 seconds 461 msec
