                         Program Version 5.0.0 -  RELEASE  -
|  1> !wB97X-D3 RIJCOSX def2-SVPD def2/J TightSCF
|  2> *xyz -1 1
|  3> C          1.22302        2.46987       -3.75691
|  4> O          2.35381        1.71203       -3.93448
|  5> H          1.26998        3.33359       -4.38673
|  6> H          1.15671        2.77738       -2.73420
|  7> H          0.36099        1.88932       -4.01140
|  8> *
|  9>
| 10> %MaxCore 64000
| 11>
| 12> %pal nprocs 18
| 13> end
| 14>
| 15> %scf
| 16>   MaxIter 150
| 17> end
| 18>
| 19>
| 20>                          ****END OF INPUT****

CARTESIAN COORDINATES (ANGSTROEM)
---------------------------------
  C      1.223020    2.469870   -3.756910
  O      2.353810    1.712030   -3.934480
  H      1.269980    3.333590   -4.386730
  H      1.156710    2.777380   -2.734200
  H      0.360990    1.889320   -4.011400

 Total Charge           Charge          ....   -1
 Multiplicity           Mult            ....    1
 Number of Electrons    NEL             ....   18
 Basis Dimension        Dim             ....   67

ORBITAL ENERGIES
----------------

  NO   OCC          E(Eh)            E(eV)
   0   2.0000     -18.887800      -513.9632
   1   2.0000     -10.074465      -274.1401
   2   2.0000      -0.760414       -20.6919
   3   2.0000      -0.500672       -13.6240
   4   2.0000      -0.295201        -8.0328
   5   2.0000      -0.295171        -8.0320
   6   2.0000      -0.193316        -5.2604
   7   2.0000      -0.040708        -1.1077
   8   2.0000      -0.040697        -1.1074
   9   0.0000       0.264196         7.1891
  10   0.0000       0.340218         9.2578
  11   0.0000       0.340219         9.2578
  12   0.0000       0.347887         9.4665
  13   0.0000       0.385378        10.4867

MULLIKEN ATOMIC CHARGES
-----------------------
   0 C :    0.776532
   1 O :   -1.046846
   2 H :   -0.243441
   3 H :   -0.243264
   4 H :   -0.242981
Sum of atomic charges:   -1.0000000

LOEWDIN ATOMIC CHARGES
----------------------
   0 C :   -0.113460
   1 O :   -0.662058
   2 H :   -0.074831
   3 H :   -0.074864
   4 H :   -0.074786

  Mayer bond orders larger than 0.100000
B(  0-C ,  1-O ) :   1.1989 B(  0-C ,  2-H ) :   0.9183 B(  0-C ,  3-H ) :   0.9179
B(  0-C ,  4-H ) :   0.9182

Dispersion correction           -0.000091274
FINAL SINGLE POINT ENERGY      -114.980466588834

DIPOLE MOMENT
-------------
                                X             Y             Z
Electronic contribution:      1.47986      -0.99181      -0.23223
Nuclear contribution   :     -2.37854       1.59406       0.37350
                        -----------------------------------------
Total Dipole Moment    :     -0.89868       0.60225       0.14128
                        -----------------------------------------
Magnitude (a.u.)       :      1.09101
Magnitude (Debye)      :      2.77312

Rotational constants in cm-1:     5.477743     0.935515     0.935515
Rotational constants in MHz : 164218.600605 28046.042741 28046.034116

                             ****ORCA TERMINATED NORMALLY****
TOTAL RUN TIME: 0 days 0 hours 0 minutes 2 seconds 950 msec
