                         Program Version 5.0.0 -  RELEASE  -
|  1> !wB97X-D3 RIJCOSX def2-SVPD def2/J TightSCF
|  2> *xyz 1 1
|  3> C          1.63556       -1.67040       -5.29211
|  4> N          2.48451       -0.50741       -5.14039
|  5> C          3.45115       -0.14953       -5.95259
|  6> N          3.92267        1.08956       -5.85071
|  7> N          3.96616       -1.00618       -6.86788
|  8> H          3.52139       -1.90647       -6.99527
|  9> H          4.44482       -0.62347       -7.67035
| 10> H          2.25200        0.24080       -4.49879
| 11> H          3.46428        1.64078       -5.13639
| 12> H          4.83447        1.31375       -6.22465
| 13> H          2.06372       -2.33262       -6.01532
| 14> H          0.66479       -1.36293       -5.62068
| 15> H          1.55078       -2.17513       -4.35245
| 16> *
| 17>
| 18> %MaxCore 64000
| 19>
| 20> %pal nprocs 18
| 21> end
| 22>
| 23> %scf
| 24>   MaxIter 150
| 25> end
| 26>
| 27>
| 28>                          ****END OF INPUT****

CARTESIAN COORDINATES (ANGSTROEM)
---------------------------------
  C      1.635560   -1.670400   -5.292110
  N      2.484510   -0.507410   -5.140390
  C      3.451150   -0.149530   -5.952590
  N      3.922670    1.089560   -5.850710
  N      3.966160   -1.006180   -6.867880
  H      3.521390   -1.906470   -6.995270
  H      4.444820   -0.623470   -7.670350
  H      2.252000    0.240800   -4.498790
  H      3.464280    1.640780   -5.136390
  H      4.834470    1.313750   -6.224650
  H      2.063720   -2.332620   -6.015320
  H      0.664790   -1.362930   -5.620680
  H      1.550780   -2.175130   -4.352450

 Total Charge           Charge          ....    1
 Multiplicity           Mult            ....    1
 Number of Electrons    NEL             ....   40
 Basis Dimension        Dim             ....  164

ORBITAL ENERGIES
----------------

  NO   OCC          E(Eh)            E(eV)
   0   2.0000     -14.674385      -399.3103
   1   2.0000     -14.666216      -399.0880
   2   2.0000     -14.663068      -399.0024
   3   2.0000     -10.633659      -289.3566
   4   2.0000     -10.500700      -285.7386
   5   2.0000      -1.337458       -36.3941
   6   2.0000      -1.220851       -33.2210
   7   2.0000      -1.206624       -32.8339
   8   2.0000      -1.024489       -27.8778
   9   2.0000      -0.936818       -25.4921
  10   2.0000      -0.893437       -24.3117
  11   2.0000      -0.866501       -23.5787
  12   2.0000      -0.796766       -21.6811
  13   2.0000      -0.793479       -21.5917
  14   2.0000      -0.766424       -20.8555
  15   2.0000      -0.750336       -20.4177
  16   2.0000      -0.696491       -18.9525
  17   2.0000      -0.685984       -18.6666
  18   2.0000      -0.578543       -15.7430
  19   2.0000      -0.555468       -15.1150
  20   0.0000      -0.093915        -2.5556
  21   0.0000      -0.081989        -2.2310
  22   0.0000      -0.048450        -1.3184
  23   0.0000      -0.034572        -0.9407
  24   0.0000      -0.004689        -0.1276

MULLIKEN ATOMIC CHARGES
-----------------------
   0 C :    1.150423
   1 N :   -0.648875
   2 C :    1.241819
   3 N :   -0.078244
   4 N :   -0.032996
   5 H :   -0.031795
   6 H :   -0.045319
   7 H :   -0.208809
   8 H :    0.054026
   9 H :   -0.046654
  10 H :   -0.251389
  11 H :   -0.050090
  12 H :   -0.052098
Sum of atomic charges:    1.0000000

LOEWDIN ATOMIC CHARGES
----------------------
   0 C :    0.275768
   1 N :    0.007729
   2 C :   -0.021984
   3 N :    0.257456
   4 N :    0.270670
   5 H :    0.006843
   6 H :    0.039859
   7 H :    0.059132
   8 H :    0.036102
   9 H :    0.048177
  10 H :   -0.014655
  11 H :    0.017172
  12 H :    0.017731

  Mayer bond orders larger than 0.100000
B(  0-C ,  1-N ) :   0.9096 B(  0-C ,  7-H ) :  -0.1611 B(  0-C , 10-H ) :   0.8481
B(  0-C , 11-H ) :   0.7962 B(  0-C , 12-H ) :   0.7682 B(  1-N ,  2-C ) :   1.0381
B(  1-N ,  3-N ) :   0.2579 B(  1-N ,  4-N ) :   0.1472 B(  1-N ,  7-H ) :   1.3449
B(  1-N , 10-H ) :   0.2166 B(  1-N , 11-H ) :   0.1590 B(  1-N , 12-H ) :   0.1941
B(  2-C ,  3-N ) :   0.9586 B(  2-C ,  4-N ) :   1.0161 B(  2-C ,  6-H ) :  -0.1093
B(  2-C ,  7-H ) :  -0.2258 B(  3-N ,  4-N ) :   0.1449 B(  3-N ,  8-H ) :   1.0494
B(  3-N ,  9-H ) :   1.1948 B(  4-N ,  5-H ) :   1.0328 B(  4-N ,  6-H ) :   1.1831
B(  5-H ,  6-H ) :  -0.1455 B(  8-H ,  9-H ) :  -0.1340

Dispersion correction           -0.002352595
FINAL SINGLE POINT ENERGY      -244.850258349184

DIPOLE MOMENT
-------------
                                X             Y             Z
Electronic contribution:      1.96372       1.91852      -0.26224
Nuclear contribution   :     -1.83770      -1.53167       0.12165
                        -----------------------------------------
Total Dipole Moment    :      0.12602       0.38685      -0.14059
                        -----------------------------------------
Magnitude (a.u.)       :      0.43047
Magnitude (Debye)      :      1.09416

Rotational constants in cm-1:     0.307545     0.135665     0.096412
Rotational constants in MHz :  9219.967860  4067.145400  2890.348280

                             ****ORCA TERMINATED NORMALLY****
TOTAL RUN TIME: 0 days 0 hours 0 minutes 8 seconds 348 msec
