                         Program Version 5.0.0 -  RELEASE  -
|  1> !wB97X-D3 RIJCOSX def2-SVPD def2/J TightSCF xyzfile
|  2>
|  3> *xyzfile 0 1 B.xyz
|  4>
|  5> %MaxCore 64000
|  6>
|  7> %pal nprocs 18
|  8> end
|  9>
| 10> %scf
| 11>   MaxIter 150
| 12> end
| 13>
| 14>
| 15>                          ****END OF INPUT****

CARTESIAN COORDINATES (ANGSTROEM)
---------------------------------
  C      1.635557   -1.670396   -5.292109
  C      0.338484   -1.500907   -4.505398
  N      2.484511   -0.507410   -5.140392
  C     -0.684873   -0.528026   -5.099889
  C     -0.290406    0.951335   -5.153423
  H      0.607991    1.070692   -5.764412
  C     -0.055168    1.619420   -3.788577
  H     -1.080912    1.483775   -5.689436
  H      0.045006    0.862302   -3.003015
  H     -0.922936    2.230329   -3.517028
  C      1.223022    2.469865   -3.756911
  H      1.114701    3.258074   -4.532999
  H      1.237732    3.011242   -2.792157
  O      2.353815    1.712032   -3.934477
  H      1.398337   -1.829239   -6.352591
  H      2.155864   -2.565398   -4.932091
  C      3.451149   -0.149530   -5.952589
  N      3.922667    1.089559   -5.850711
  N      3.966162   -1.006183   -6.867880
  H      3.521391   -1.906467   -6.995270
  H      4.444824   -0.623472   -7.670348
  H      2.251995    0.240804   -4.498792
  H      3.464277    1.640782   -5.136392
  H      4.834470    1.313745   -6.224653
  H     -0.937999   -0.869056   -6.110838
  H     -1.604638   -0.622496   -4.513132
  H      0.594887   -1.211578   -3.482312
  H     -0.126530   -2.487656   -4.434176

 Total Charge           Charge          ....    0
 Multiplicity           Mult            ....    1
 Number of Electrons    NEL             ....   88
 Basis Dimension        Dim             ....  359

ORBITAL ENERGIES
----------------

  NO   OCC          E(Eh)            E(eV)
   0   2.0000     -19.109075      -519.9844
   1   2.0000     -14.497768      -394.5043
   2   2.0000     -14.453563      -393.3014
   3   2.0000     -14.451986      -393.2585
   4   2.0000     -10.439842      -284.0826
   5   2.0000     -10.342954      -281.4461
   6   2.0000     -10.293905      -280.1114
   7   2.0000     -10.280727      -279.7528
   8   2.0000     -10.267122      -279.3826
   9   2.0000     -10.261901      -279.2405
  10   2.0000     -10.243042      -278.7273
  11   2.0000      -1.144118       -31.1330
  12   2.0000      -1.036809       -28.2130
  13   2.0000      -1.016433       -27.6586
  14   2.0000      -0.985548       -26.8181
  15   2.0000      -0.911651       -24.8073
  16   2.0000      -0.856417       -23.3043
  17   2.0000      -0.799014       -21.7423
  18   2.0000      -0.759777       -20.6746
  19   2.0000      -0.733531       -19.9604
  20   2.0000      -0.704902       -19.1814
  21   2.0000      -0.683701       -18.6044
  22   2.0000      -0.666853       -18.1460
  23   2.0000      -0.630644       -17.1607
  24   2.0000      -0.611329       -16.6351
  25   2.0000      -0.600521       -16.3410
  26   2.0000      -0.591845       -16.1049
  27   2.0000      -0.579769       -15.7763
  28   2.0000      -0.542646       -14.7662
  29   2.0000      -0.527247       -14.3471
  30   2.0000      -0.516645       -14.0586
  31   2.0000      -0.510636       -13.8951
  32   2.0000      -0.482759       -13.1365
  33   2.0000      -0.462951       -12.5975
  34   2.0000      -0.454951       -12.3799
  35   2.0000      -0.433016       -11.7830
  36   2.0000      -0.414654       -11.2833
  37   2.0000      -0.407046       -11.0763
  38   2.0000      -0.398376       -10.8403
  39   2.0000      -0.389657       -10.6031
  40   2.0000      -0.383532       -10.4364
  41   2.0000      -0.354914        -9.6577
  42   2.0000      -0.269247        -7.3266
  43   2.0000      -0.262558        -7.1446
  44   0.0000       0.065078         1.7709
  45   0.0000       0.086772         2.3612
  46   0.0000       0.093342         2.5400
  47   0.0000       0.109180         2.9709
  48   0.0000       0.118106         3.2138

MULLIKEN ATOMIC CHARGES
-----------------------
   0 C :    0.685109
   1 C :    0.087480
   2 N :    0.039883
   3 C :    0.183209
   4 C :    0.126137
   5 H :    0.008500
   6 C :    0.003065
   7 H :   -0.234876
   8 H :   -0.039373
   9 H :   -0.196023
  10 C :    0.819871
  11 H :   -0.123231
  12 H :   -0.146362
  13 O :   -1.075793
  14 H :   -0.002038
  15 H :   -0.195460
  16 C :    1.125237
  17 N :    0.246237
  18 N :   -0.055375
  19 H :   -0.035445
  20 H :   -0.087169
  21 H :   -0.650135
  22 H :   -0.139113
  23 H :   -0.208638
  24 H :    0.082475
  25 H :   -0.103699
  26 H :    0.038329
  27 H :   -0.152803
Sum of atomic charges:   -0.0000000

LOEWDIN ATOMIC CHARGES
----------------------
   0 C :    0.057928
   1 C :   -0.018212
   2 N :    0.062864
   3 C :   -0.032265
   4 C :   -0.028492
   5 H :    0.004432
   6 C :   -0.024700
   7 H :    0.016211
   8 H :    0.007927
   9 H :    0.014352
  10 C :   -0.066475
  11 H :    0.013524
  12 H :    0.008149
  13 O :   -0.444685
  14 H :    0.023458
  15 H :    0.025385
  16 C :   -0.032538
  17 N :    0.264324
  18 N :    0.237130
  19 H :   -0.005931
  20 H :    0.012955
  21 H :   -0.102805
  22 H :   -0.099516
  23 H :    0.019463
  24 H :    0.018255
  25 H :    0.023641
  26 H :    0.022655
  27 H :    0.022965

  Mayer bond orders larger than 0.100000
B(  0-C ,  1-C ) :   1.2082 B(  0-C ,  2-N ) :   0.8470 B(  0-C , 14-H ) :   0.7561
B(  0-C , 15-H ) :   0.8823 B(  0-C , 21-H ) :  -0.1965 B(  0-C , 26-H ) :   0.1225
B(  0-C , 27-H ) :   0.1876 B(  1-C ,  2-N ) :   0.1007 B(  1-C ,  3-C ) :   1.2154
B(  1-C , 24-H ) :   0.1483 B(  1-C , 25-H ) :   0.1794 B(  1-C , 26-H ) :   0.7920
B(  1-C , 27-H ) :   0.8093 B(  2-N , 14-H ) :   0.2898 B(  2-N , 15-H ) :   0.1525
B(  2-N , 16-C ) :   1.2843 B(  2-N , 17-N ) :   0.1384 B(  2-N , 18-N ) :   0.1149
B(  2-N , 21-H ) :   1.0204 B(  3-C ,  4-C ) :   1.2592 B(  3-C ,  5-H ) :   0.1384
B(  3-C ,  7-H ) :   0.1176 B(  3-C , 24-H ) :   0.6875 B(  3-C , 25-H ) :   0.8538
B(  3-C , 26-H ) :   0.1465 B(  3-C , 27-H ) :   0.1424 B(  4-C ,  5-H ) :   0.8210
B(  4-C ,  6-C ) :   1.1865 B(  4-C ,  7-H ) :   0.8215 B(  4-C ,  8-H ) :   0.1207
B(  4-C ,  9-H ) :   0.1642 B(  4-C , 24-H ) :   0.2111 B(  4-C , 25-H ) :   0.1197
B(  5-H ,  6-C ) :   0.1164 B(  6-C ,  7-H ) :   0.1001 B(  6-C ,  8-H ) :   0.8602
B(  6-C ,  9-H ) :   0.9538 B(  6-C , 10-C ) :   1.0697 B(  6-C , 12-H ) :   0.1772
B(  6-C , 13-O ) :   0.1083 B( 10-C , 11-H ) :   0.8553 B( 10-C , 12-H ) :   0.8338
B( 10-C , 13-O ) :   0.9863 B( 11-H , 13-O ) :   0.2125 B( 13-O , 21-H ) :   0.3174
B( 13-O , 22-H ) :   0.3111 B( 16-C , 17-N ) :   0.9271 B( 16-C , 18-N ) :   0.8904
B( 16-C , 21-H ) :  -0.4197 B( 16-C , 22-H ) :  -0.1058 B( 16-C , 23-H ) :  -0.1294
B( 17-N , 18-N ) :   0.1157 B( 17-N , 22-H ) :   1.0149 B( 17-N , 23-H ) :   1.2909
B( 18-N , 19-H ) :   1.0470 B( 18-N , 20-H ) :   1.2199 B( 19-H , 20-H ) :  -0.1465
B( 22-H , 23-H ) :  -0.1874

Dispersion correction           -0.011927497
FINAL SINGLE POINT ENERGY      -515.983797368404

DIPOLE MOMENT
-------------
                                X             Y             Z
Electronic contribution:      8.34702      -0.93917      -2.27695
Nuclear contribution   :     -7.46499      -1.05836       0.01518
                        -----------------------------------------
Total Dipole Moment    :      0.88203      -1.99754      -2.26178
                        -----------------------------------------
Magnitude (a.u.)       :      3.14385
Magnitude (Debye)      :      7.99102

Rotational constants in cm-1:     0.044680     0.028958     0.019773
Rotational constants in MHz :  1339.486245   868.136755   592.791310

                             ****ORCA TERMINATED NORMALLY****
TOTAL RUN TIME: 0 days 0 hours 0 minutes 55 seconds 104 msec
