                         Program Version 5.0.0 -  RELEASE  -
|  1> !wB97X-D3 RIJCOSX def2-SVPD def2/J TightSCF
|  2> *xyz 0 1
|  3> C          1.22302        2.46987       -3.75691
|  4> F          2.35381        1.71203       -3.93448
|  5> H          1.26998        3.33359       -4.38673
|  6> H          1.15671        2.77738       -2.73420
|  7> H          0.36099        1.88932       -4.01140
|  8> *
|  9>
| 10> %MaxCore 64000
| 11>
| 12> %pal nprocs 18
| 13> end
| 14>
| 15> %scf
| 16>   MaxIter 150
| 17> end
| 18>
| 19>
| 20>                          ****END OF INPUT****

CARTESIAN COORDINATES (ANGSTROEM)
---------------------------------
  C      1.223020    2.469870   -3.756910
  F      2.353810    1.712030   -3.934480
  H      1.269980    3.333590   -4.386730
  H      1.156710    2.777380   -2.734200
  H      0.360990    1.889320   -4.011400

 Total Charge           Charge          ....    0
 Multiplicity           Mult            ....    1
 Number of Electrons    NEL             ....   18
 Basis Dimension        Dim             ....   67

ORBITAL ENERGIES
----------------

  NO   OCC          E(Eh)            E(eV)
   0   2.0000     -24.785929      -674.4594
   1   2.0000     -10.360829      -281.9325
   2   2.0000      -1.296578       -35.2817
   3   2.0000      -0.815419       -22.1887
   4   2.0000      -0.599446       -16.3118
   5   2.0000      -0.594614       -16.1803
   6   2.0000      -0.594590       -16.1796
   7   2.0000      -0.450996       -12.2722
   8   2.0000      -0.450973       -12.2716
   9   0.0000       0.095830         2.6077
  10   0.0000       0.145559         3.9608
  11   0.0000       0.178681         4.8622
  12   0.0000       0.178686         4.8623
  13   0.0000       0.217142         5.9087

MULLIKEN ATOMIC CHARGES
-----------------------
   0 C :    0.770541
   1 F :   -0.498496
   2 H :   -0.091074
   3 H :   -0.090510
   4 H :   -0.090462
Sum of atomic charges:   -0.0000000

LOEWDIN ATOMIC CHARGES
----------------------
   0 C :    0.270355
   1 F :   -0.258760
   2 H :   -0.003884
   3 H :   -0.003883
   4 H :   -0.003827

  Mayer bond orders larger than 0.100000
B(  0-C ,  1-F ) :   0.8264 B(  0-C ,  2-H ) :   0.9566 B(  0-C ,  3-H ) :   0.9559
B(  0-C ,  4-H ) :   0.9563

Dispersion correction           -0.000131037
FINAL SINGLE POINT ENERGY      -139.606910189774

DIPOLE MOMENT
-------------
                                X             Y             Z
Electronic contribution:      2.40369      -1.61083      -0.37744
Nuclear contribution   :     -3.01708       2.02200       0.47377
                        -----------------------------------------
Total Dipole Moment    :     -0.61339       0.41117       0.09633
                        -----------------------------------------
Magnitude (a.u.)       :      0.74471
Magnitude (Debye)      :      1.89290

Rotational constants in cm-1:     5.477743     0.870792     0.870792
Rotational constants in MHz : 164218.600605 26105.683059 26105.675587

                             ****ORCA TERMINATED NORMALLY****
TOTAL RUN TIME: 0 days 0 hours 0 minutes 2 seconds 915 msec
