                         Program Version 5.0.0 -  RELEASE  -
|  1> !wB97X-D3 RIJCOSX def2-SVPD def2/J TightSCF
|  2> *xyz 0 1
|  3> C          1.63556       -1.67040       -5.29211
|  4> C          2.48451       -0.50741       -5.14039
|  5> C          3.45115       -0.14953       -5.95259
|  6> N          3.92267        1.08956       -5.85071
|  7> N          3.96616       -1.00618       -6.86788
|  8> H          3.52139       -1.90647       -6.99527
|  9> H          4.44482       -0.62347       -7.67035
| 10> H          2.25200        0.24080       -4.49879
| 11> H          3.46428        1.64078       -5.13639
| 12> H          4.83447        1.31375       -6.22465
| 13> H          2.06372       -2.33262       -6.01532
| 14> H          0.66479       -1.36293       -5.62068
| 15> H          1.55078       -2.17513       -4.35245
| 16> *
| 17>
| 18> %MaxCore 64000
| 19>
| 20> %pal nprocs 18
| 21> end
| 22>
| 23> %scf
| 24>   MaxIter 150
| 25> end
| 26>
| 27>
| 28>                          ****END OF INPUT****

CARTESIAN COORDINATES (ANGSTROEM)
---------------------------------
  C      1.635560   -1.670400   -5.292110
  C      2.484510   -0.507410   -5.140390
  C      3.451150   -0.149530   -5.952590
  N      3.922670    1.089560   -5.850710
  N      3.966160   -1.006180   -6.867880
  H      3.521390   -1.906470   -6.995270
  H      4.444820   -0.623470   -7.670350
  H      2.252000    0.240800   -4.498790
  H      3.464280    1.640780   -5.136390
  H      4.834470    1.313750   -6.224650
  H      2.063720   -2.332620   -6.015320
  H      0.664790   -1.362930   -5.620680
  H      1.550780   -2.175130   -4.352450

 Total Charge           Charge          ....    0
 Multiplicity           Mult            ....    1
 Number of Electrons    NEL             ....   40
 Basis Dimension        Dim             ....  164

ORBITAL ENERGIES
----------------

  NO   OCC          E(Eh)            E(eV)
   0   2.0000     -14.434971      -392.7955
   1   2.0000     -14.432383      -392.7251
   2   2.0000     -10.328963      -281.0654
   3   2.0000     -10.257641      -279.1246
   4   2.0000     -10.213021      -277.9104
   5   2.0000      -1.066611       -29.0240
   6   2.0000      -0.975985       -26.5579
   7   2.0000      -0.866233       -23.5714
   8   2.0000      -0.765587       -20.8327
   9   2.0000      -0.688092       -18.7239
  10   2.0000      -0.641998       -17.4697
  11   2.0000      -0.612278       -16.6609
  12   2.0000      -0.566295       -15.4097
  13   2.0000      -0.525858       -14.3093
  14   2.0000      -0.510776       -13.8989
  15   2.0000      -0.480638       -13.0788
  16   2.0000      -0.458078       -12.4649
  17   2.0000      -0.442174       -12.0322
  18   2.0000      -0.359111        -9.7719
  19   2.0000      -0.248369        -6.7585
  20   0.0000       0.092228         2.5097
  21   0.0000       0.117257         3.1907
  22   0.0000       0.126737         3.4487
  23   0.0000       0.152326         4.1450
  24   0.0000       0.162143         4.4121

MULLIKEN ATOMIC CHARGES
-----------------------
   0 C :    0.893150
   1 C :   -0.632133
   2 C :    0.673473
   3 N :   -0.015165
   4 N :   -0.017083
   5 H :   -0.037898
   6 H :   -0.145335
   7 H :   -0.323800
   8 H :    0.057904
   9 H :   -0.160224
  10 H :   -0.330995
  11 H :   -0.012565
  12 H :    0.050673
Sum of atomic charges:    0.0000000

LOEWDIN ATOMIC CHARGES
----------------------
   0 C :    0.106364
   1 C :   -0.072485
   2 C :   -0.226654
   3 N :    0.166278
   4 N :    0.188466
   5 H :   -0.025439
   6 H :   -0.010310
   7 H :   -0.050371
   8 H :    0.001854
   9 H :   -0.004448
  10 H :   -0.043353
  11 H :   -0.014067
  12 H :   -0.015836

  Mayer bond orders larger than 0.100000
B(  0-C ,  1-C ) :   1.1084 B(  0-C ,  7-H ) :   0.1365 B(  0-C , 10-H ) :   0.8158
B(  0-C , 11-H ) :   0.7921 B(  0-C , 12-H ) :   0.6027 B(  1-C ,  2-C ) :   1.7670
B(  1-C ,  3-N ) :   0.3056 B(  1-C ,  4-N ) :   0.1597 B(  1-C ,  7-H ) :   0.9465
B(  1-C , 10-H ) :   0.3488 B(  1-C , 11-H ) :   0.1097 B(  1-C , 12-H ) :   0.2799
B(  2-C ,  3-N ) :   0.9868 B(  2-C ,  4-N ) :   1.0485 B(  2-C ,  7-H ) :   0.2499
B(  3-N ,  4-N ) :   0.1066 B(  3-N ,  8-H ) :   1.0379 B(  3-N ,  9-H ) :   1.1940
B(  4-N ,  5-H ) :   1.0215 B(  4-N ,  6-H ) :   1.1666 B(  5-H ,  6-H ) :  -0.1240
B(  8-H ,  9-H ) :  -0.1319 B( 10-H , 11-H ) :   0.1018 B( 10-H , 12-H ) :   0.2124

Dispersion correction           -0.002355291
FINAL SINGLE POINT ENERGY      -228.387398033197

DIPOLE MOMENT
-------------
                                X             Y             Z
Electronic contribution:      2.39674       1.86069      -0.77557
Nuclear contribution   :     -1.96139      -1.54412       0.26148
                        -----------------------------------------
Total Dipole Moment    :      0.43535       0.31657      -0.51409
                        -----------------------------------------
Magnitude (a.u.)       :      0.74434
Magnitude (Debye)      :      1.89196

Rotational constants in cm-1:     0.312277     0.136708     0.097371
Rotational constants in MHz :  9361.815989  4098.393303  2919.105491

                             ****ORCA TERMINATED NORMALLY****
TOTAL RUN TIME: 0 days 0 hours 0 minutes 8 seconds 319 msec
