                         Program Version 5.0.0 -  RELEASE  -
|  1> !wB97X-D3 RIJCOSX def2-SVPD def2/J TightSCF
|  2> *xyz 0 1
|  3> C          1.63556       -1.67040       -5.29211
|  4> N          2.48451       -0.50741       -5.14039
|  5> C          3.45115       -0.14953       -5.95259
|  6> C          3.92267        1.08956       -5.85071
|  7> N          3.96616       -1.00618       -6.86788
|  8> H          3.52139       -1.90647       -6.99527
|  9> H          4.44482       -0.62347       -7.67035
| 10> H          2.25200        0.24080       -4.49879
| 11> H          3.46428        1.64078       -5.13639
| 12> H          4.83447        1.31375       -6.22465
| 13> H          2.06372       -2.33262       -6.01532
| 14> H          0.66479       -1.36293       -5.62068
| 15> H          1.55078       -2.17513       -4.35245
| 16> *
| 17>
| 18> %MaxCore 64000
| 19>
| 20> %pal nprocs 18
| 21> end
| 22>
| 23> %scf
| 24>   MaxIter 150
| 25> end
| 26>
| 27>
| 28>                          ****END OF INPUT****

CARTESIAN COORDINATES (ANGSTROEM)
---------------------------------
  C      1.635560   -1.670400   -5.292110
  N      2.484510   -0.507410   -5.140390
  C      3.451150   -0.149530   -5.952590
  C      3.922670    1.089560   -5.850710
  N      3.966160   -1.006180   -6.867880
  H      3.521390   -1.906470   -6.995270
  H      4.444820   -0.623470   -7.670350
  H      2.252000    0.240800   -4.498790
  H      3.464280    1.640780   -5.136390
  H      4.834470    1.313750   -6.224650
  H      2.063720   -2.332620   -6.015320
  H      0.664790   -1.362930   -5.620680
  H      1.550780   -2.175130   -4.352450

 Total Charge           Charge          ....    0
 Multiplicity           Mult            ....    1
 Number of Electrons    NEL             ....   40
 Basis Dimension        Dim             ....  164

ORBITAL ENERGIES
----------------

  NO   OCC          E(Eh)            E(eV)
   0   2.0000     -14.440150      -392.9364
   1   2.0000     -14.437714      -392.8702
   2   2.0000     -10.336520      -281.2710
   3   2.0000     -10.325476      -280.9705
   4   2.0000     -10.197746      -277.4948
   5   2.0000      -1.081702       -29.4346
   6   2.0000      -0.990344       -26.9486
   7   2.0000      -0.861243       -23.4356
   8   2.0000      -0.773716       -21.0539
   9   2.0000      -0.705324       -19.1929
  10   2.0000      -0.642019       -17.4702
  11   2.0000      -0.595804       -16.2127
  12   2.0000      -0.577406       -15.7120
  13   2.0000      -0.558263       -15.1911
  14   2.0000      -0.507854       -13.8194
  15   2.0000      -0.490464       -13.3462
  16   2.0000      -0.479153       -13.0384
  17   2.0000      -0.462111       -12.5747
  18   2.0000      -0.351663        -9.5692
  19   2.0000      -0.250215        -6.8087
  20   0.0000       0.083932         2.2839
  21   0.0000       0.118523         3.2252
  22   0.0000       0.122440         3.3318
  23   0.0000       0.150955         4.1077
  24   0.0000       0.159839         4.3494

MULLIKEN ATOMIC CHARGES
-----------------------
   0 C :    1.198720
   1 N :   -0.576829
   2 C :    0.541271
   3 C :    0.462128
   4 N :    0.041476
   5 H :   -0.169713
   6 H :   -0.058106
   7 H :   -0.243850
   8 H :   -0.229740
   9 H :   -0.428164
  10 H :   -0.302668
  11 H :   -0.113894
  12 H :   -0.120631
Sum of atomic charges:    0.0000000

LOEWDIN ATOMIC CHARGES
----------------------
   0 C :    0.223341
   1 N :   -0.056344
   2 C :   -0.231202
   3 C :    0.129313
   4 N :    0.191919
   5 H :   -0.037821
   6 H :    0.007165
   7 H :    0.032399
   8 H :   -0.103916
   9 H :   -0.096976
  10 H :   -0.033514
  11 H :   -0.012703
  12 H :   -0.011661

  Mayer bond orders larger than 0.100000
B(  0-C ,  1-N ) :   0.8930 B(  0-C ,  7-H ) :  -0.1642 B(  0-C , 10-H ) :   0.8326
B(  0-C , 11-H ) :   0.7979 B(  0-C , 12-H ) :   0.7635 B(  1-N ,  2-C ) :   1.0632
B(  1-N ,  3-C ) :   0.2531 B(  1-N ,  7-H ) :   1.2920 B(  1-N , 10-H ) :   0.2398
B(  1-N , 11-H ) :   0.1504 B(  1-N , 12-H ) :   0.2090 B(  2-C ,  3-C ) :   1.7170
B(  2-C ,  4-N ) :   0.9918 B(  2-C ,  7-H ) :  -0.1696 B(  2-C ,  8-H ) :   0.2050
B(  2-C ,  9-H ) :   0.2238 B(  3-C ,  4-N ) :   0.2136 B(  3-C ,  8-H ) :   0.8096
B(  3-C ,  9-H ) :   0.7340 B(  4-N ,  5-H ) :   1.0487 B(  4-N ,  6-H ) :   1.1525
B(  5-H ,  6-H ) :  -0.1417

Dispersion correction           -0.002365914
FINAL SINGLE POINT ENERGY      -228.372896789630

DIPOLE MOMENT
-------------
                                X             Y             Z
Electronic contribution:      0.99598       0.28197      -0.21915
Nuclear contribution   :     -1.67010      -1.22066       0.11760
                        -----------------------------------------
Total Dipole Moment    :     -0.67412      -0.93869      -0.10154
                        -----------------------------------------
Magnitude (a.u.)       :      1.16013
Magnitude (Debye)      :      2.94881

Rotational constants in cm-1:     0.314526     0.141398     0.099973
Rotational constants in MHz :  9429.255015  4239.015262  2997.111162

                             ****ORCA TERMINATED NORMALLY****
TOTAL RUN TIME: 0 days 0 hours 0 minutes 8 seconds 320 msec
