                         Program Version 5.0.0 -  RELEASE  -
|  1> !wB97X-D3 RIJCOSX def2-SVPD def2/J TightSCF
|  2> *xyz 0 1
|  3> C          1.63556       -1.67040       -5.29211
|  4> N          2.48451       -0.50741       -5.14039
|  5> C          3.45115       -0.14953       -5.95259
|  6> N          3.92267        1.08956       -5.85071
|  7> C          3.96616       -1.00618       -6.86788
|  8> H          3.52139       -1.90647       -6.99527
|  9> H          4.44482       -0.62347       -7.67035
| 10> H          2.25200        0.24080       -4.49879
| 11> H          3.46428        1.64078       -5.13639
| 12> H          4.83447        1.31375       -6.22465
| 13> H          2.06372       -2.33262       -6.01532
| 14> H          0.66479       -1.36293       -5.62068
| 15> H          1.55078       -2.17513       -4.35245
| 16> *
| 17>
| 18> %MaxCore 64000
| 19>
| 20> %pal nprocs 18
| 21> end
| 22>
| 23> %scf
| 24>   MaxIter 150
| 25> end
| 26>
| 27>
| 28>                          ****END OF INPUT****

CARTESIAN COORDINATES (ANGSTROEM)
---------------------------------
  C      1.635560   -1.670400   -5.292110
  N      2.484510   -0.507410   -5.140390
  C      3.451150   -0.149530   -5.952590
  N      3.922670    1.089560   -5.850710
  C      3.966160   -1.006180   -6.867880
  H      3.521390   -1.906470   -6.995270
  H      4.444820   -0.623470   -7.670350
  H      2.252000    0.240800   -4.498790
  H      3.464280    1.640780   -5.136390
  H      4.834470    1.313750   -6.224650
  H      2.063720   -2.332620   -6.015320
  H      0.664790   -1.362930   -5.620680
  H      1.550780   -2.175130   -4.352450

 Total Charge           Charge          ....    0
 Multiplicity           Mult            ....    1
 Number of Electrons    NEL             ....   40
 Basis Dimension        Dim             ....  164

ORBITAL ENERGIES
----------------

  NO   OCC          E(Eh)            E(eV)
   0   2.0000     -14.445220      -393.0744
   1   2.0000     -14.440705      -392.9516
   2   2.0000     -10.338927      -281.3365
   3   2.0000     -10.316493      -280.7260
   4   2.0000     -10.198242      -277.5083
   5   2.0000      -1.089937       -29.6587
   6   2.0000      -0.995325       -27.0842
   7   2.0000      -0.828544       -22.5458
   8   2.0000      -0.809725       -22.0337
   9   2.0000      -0.670912       -18.2564
  10   2.0000      -0.649300       -17.6683
  11   2.0000      -0.633502       -17.2385
  12   2.0000      -0.560812       -15.2605
  13   2.0000      -0.552453       -15.0330
  14   2.0000      -0.515912       -14.0387
  15   2.0000      -0.483170       -13.1477
  16   2.0000      -0.471166       -12.8211
  17   2.0000      -0.457917       -12.4605
  18   2.0000      -0.349014        -9.4972
  19   2.0000      -0.251314        -6.8386
  20   0.0000       0.086166         2.3447
  21   0.0000       0.110105         2.9961
  22   0.0000       0.125720         3.4210
  23   0.0000       0.148728         4.0471
  24   0.0000       0.160616         4.3706

MULLIKEN ATOMIC CHARGES
-----------------------
   0 C :    1.217948
   1 N :   -0.522817
   2 C :    0.498113
   3 N :    0.031040
   4 C :    0.421228
   5 H :   -0.327443
   6 H :   -0.301969
   7 H :   -0.350740
   8 H :   -0.110659
   9 H :   -0.058664
  10 H :   -0.281730
  11 H :   -0.114298
  12 H :   -0.100009
Sum of atomic charges:    0.0000000

LOEWDIN ATOMIC CHARGES
----------------------
   0 C :    0.232299
   1 N :   -0.058983
   2 C :   -0.238004
   3 N :    0.180205
   4 C :    0.147158
   5 H :   -0.131845
   6 H :   -0.104726
   7 H :    0.019396
   8 H :   -0.010856
   9 H :    0.015248
  10 H :   -0.029527
  11 H :   -0.010019
  12 H :   -0.010347

  Mayer bond orders larger than 0.100000
B(  0-C ,  1-N ) :   0.8978 B(  0-C ,  7-H ) :  -0.1478 B(  0-C , 10-H ) :   0.8267
B(  0-C , 11-H ) :   0.7663 B(  0-C , 12-H ) :   0.7365 B(  1-N ,  2-C ) :   1.0488
B(  1-N ,  3-N ) :   0.1637 B(  1-N ,  4-C ) :   0.2633 B(  1-N ,  7-H ) :   1.3267
B(  1-N , 10-H ) :   0.2111 B(  1-N , 11-H ) :   0.1773 B(  1-N , 12-H ) :   0.2085
B(  2-C ,  3-N ) :   0.9389 B(  2-C ,  4-C ) :   1.8635 B(  2-C ,  5-H ) :   0.2270
B(  2-C ,  6-H ) :   0.2199 B(  2-C ,  7-H ) :  -0.1999 B(  3-N ,  4-C ) :   0.2491
B(  3-N ,  8-H ) :   1.0881 B(  3-N ,  9-H ) :   1.1733 B(  4-C ,  5-H ) :   0.6951
B(  4-C ,  6-H ) :   0.7675 B(  5-H ,  6-H ) :   0.2355 B(  5-H , 10-H ) :   0.1391
B(  8-H ,  9-H ) :  -0.1265

Dispersion correction           -0.002354049
FINAL SINGLE POINT ENERGY      -228.372059281208

DIPOLE MOMENT
-------------
                                X             Y             Z
Electronic contribution:      1.03784       2.34268       0.86336
Nuclear contribution   :     -1.66129      -1.64514      -0.08842
                        -----------------------------------------
Total Dipole Moment    :     -0.62345       0.69754       0.77494
                        -----------------------------------------
Magnitude (a.u.)       :      1.21482
Magnitude (Debye)      :      3.08782

Rotational constants in cm-1:     0.330436     0.136339     0.098902
Rotational constants in MHz :  9906.231858  4087.333233  2964.994979

                             ****ORCA TERMINATED NORMALLY****
TOTAL RUN TIME: 0 days 0 hours 0 minutes 8 seconds 550 msec
