                         Program Version 5.0.0 -  RELEASE  -
|  1> !wB97X-D3 RIJCOSX def2-SVPD def2/J TightSCF xyzfile
|  2>
|  3> *xyzfile 0 1 D3.xyz
|  4>
|  5> %MaxCore 64000
|  6>
|  7> %pal nprocs 18
|  8> end
|  9>
| 10> %scf
| 11>   MaxIter 150
| 12> end
| 13>
| 14>
| 15>                          ****END OF INPUT****

CARTESIAN COORDINATES (ANGSTROEM)
---------------------------------
  C      1.635557   -1.670396   -5.292109
  C      0.338484   -1.500907   -4.505398
  N      2.484511   -0.507410   -5.140392
  C     -0.684873   -0.528026   -5.099889
  C     -0.290406    0.951335   -5.153423
  H      0.607991    1.070692   -5.764412
  C     -0.055168    1.619420   -3.788577
  H     -1.080912    1.483775   -5.689436
  H      0.045006    0.862302   -3.003015
  H     -0.922936    2.230329   -3.517028
  C      1.223022    2.469865   -3.756911
  H      1.114701    3.258074   -4.532999
  H      1.237732    3.011242   -2.792157
  F      2.353815    1.712032   -3.934477
  H      1.398337   -1.829239   -6.352591
  H      2.155864   -2.565398   -4.932091
  C      3.451149   -0.149530   -5.952589
  N      3.922667    1.089559   -5.850711
  C      3.966162   -1.006183   -6.867880
  H      3.521391   -1.906467   -6.995270
  H      4.444824   -0.623472   -7.670348
  H      2.251995    0.240804   -4.498792
  H      3.464277    1.640782   -5.136392
  H      4.834470    1.313745   -6.224653
  H     -0.937999   -0.869056   -6.110838
  H     -1.604638   -0.622496   -4.513132
  H      0.594887   -1.211578   -3.482312
  H     -0.126530   -2.487656   -4.434176

 Total Charge           Charge          ....    0
 Multiplicity           Mult            ....    1
 Number of Electrons    NEL             ....   88
 Basis Dimension        Dim             ....  359

ORBITAL ENERGIES
----------------

  NO   OCC          E(Eh)            E(eV)
   0   2.0000     -24.847181      -676.1262
   1   2.0000     -14.413071      -392.1996
   2   2.0000     -14.410505      -392.1298
   3   2.0000     -10.400226      -283.0045
   4   2.0000     -10.317607      -280.7563
   5   2.0000     -10.315571      -280.7010
   6   2.0000     -10.311963      -280.6028
   7   2.0000     -10.298101      -280.2256
   8   2.0000     -10.295006      -280.1413
   9   2.0000     -10.291898      -280.0568
  10   2.0000     -10.181574      -277.0547
  11   2.0000      -1.363965       -37.1154
  12   2.0000      -1.068206       -29.0674
  13   2.0000      -0.978189       -26.6179
  14   2.0000      -0.935902       -25.4672
  15   2.0000      -0.891649       -24.2630
  16   2.0000      -0.839542       -22.8451
  17   2.0000      -0.803130       -21.8543
  18   2.0000      -0.768548       -20.9133
  19   2.0000      -0.742475       -20.2038
  20   2.0000      -0.685610       -18.6564
  21   2.0000      -0.677165       -18.4266
  22   2.0000      -0.664196       -18.0737
  23   2.0000      -0.639205       -17.3937
  24   2.0000      -0.634079       -17.2542
  25   2.0000      -0.601609       -16.3706
  26   2.0000      -0.592823       -16.1315
  27   2.0000      -0.577664       -15.7190
  28   2.0000      -0.565580       -15.3902
  29   2.0000      -0.536498       -14.5989
  30   2.0000      -0.529416       -14.4061
  31   2.0000      -0.519750       -14.1431
  32   2.0000      -0.501365       -13.6428
  33   2.0000      -0.476052       -12.9540
  34   2.0000      -0.474283       -12.9059
  35   2.0000      -0.460961       -12.5434
  36   2.0000      -0.457933       -12.4610
  37   2.0000      -0.450886       -12.2692
  38   2.0000      -0.438793       -11.9402
  39   2.0000      -0.427336       -11.6284
  40   2.0000      -0.417932       -11.3725
  41   2.0000      -0.415760       -11.3134
  42   2.0000      -0.323300        -8.7974
  43   2.0000      -0.235242        -6.4013
  44   0.0000       0.079868         2.1733
  45   0.0000       0.095758         2.6057
  46   0.0000       0.102841         2.7985
  47   0.0000       0.109191         2.9712
  48   0.0000       0.121062         3.2943

MULLIKEN ATOMIC CHARGES
-----------------------
   0 C :    0.644160
   1 C :    0.151577
   2 N :    0.174796
   3 C :    0.183200
   4 C :    0.143521
   5 H :   -0.019334
   6 C :   -0.068996
   7 H :   -0.240849
   8 H :   -0.037663
   9 H :   -0.125505
  10 C :    0.938562
  11 H :   -0.037426
  12 H :   -0.044156
  13 F :   -0.807753
  14 H :    0.009963
  15 H :   -0.210858
  16 C :    0.335672
  17 N :    0.363482
  18 C :    0.464287
  19 H :   -0.073652
  20 H :   -0.406255
  21 H :   -0.718180
  22 H :   -0.243556
  23 H :   -0.193628
  24 H :    0.114331
  25 H :   -0.106337
  26 H :   -0.031417
  27 H :   -0.157986
Sum of atomic charges:   -0.0000000

LOEWDIN ATOMIC CHARGES
----------------------
   0 C :    0.056676
   1 C :   -0.025986
   2 N :   -0.002195
   3 C :   -0.026395
   4 C :   -0.022384
   5 H :    0.010793
   6 C :   -0.001585
   7 H :    0.021029
   8 H :    0.017179
   9 H :    0.032874
  10 C :    0.163295
  11 H :    0.051282
  12 H :    0.041239
  13 F :   -0.212715
  14 H :    0.027301
  15 H :    0.026795
  16 C :   -0.222678
  17 N :    0.201417
  18 C :    0.147253
  19 H :   -0.126961
  20 H :   -0.110981
  21 H :   -0.065816
  22 H :   -0.077326
  23 H :    0.012634
  24 H :    0.027218
  25 H :    0.022368
  26 H :    0.012099
  27 H :    0.023569

  Mayer bond orders larger than 0.100000
B(  0-C ,  1-C ) :   1.1862 B(  0-C ,  2-N ) :   0.9852 B(  0-C , 14-H ) :   0.7746
B(  0-C , 15-H ) :   0.8943 B(  0-C , 21-H ) :  -0.1924 B(  0-C , 26-H ) :   0.1299
B(  0-C , 27-H ) :   0.1760 B(  1-C ,  3-C ) :   1.2075 B(  1-C , 24-H ) :   0.1526
B(  1-C , 25-H ) :   0.1903 B(  1-C , 26-H ) :   0.7782 B(  1-C , 27-H ) :   0.8236
B(  2-N , 13-F ) :  -0.1150 B(  2-N , 14-H ) :   0.2641 B(  2-N , 15-H ) :   0.1365
B(  2-N , 16-C ) :   1.3013 B(  2-N , 18-C ) :   0.1938 B(  2-N , 21-H ) :   0.8084
B(  3-C ,  4-C ) :   1.2801 B(  3-C ,  5-H ) :   0.1420 B(  3-C ,  7-H ) :   0.1288
B(  3-C , 24-H ) :   0.6913 B(  3-C , 25-H ) :   0.8580 B(  3-C , 26-H ) :   0.1428
B(  3-C , 27-H ) :   0.1290 B(  4-C ,  5-H ) :   0.8437 B(  4-C ,  6-C ) :   1.1730
B(  4-C ,  7-H ) :   0.8255 B(  4-C ,  8-H ) :   0.1237 B(  4-C ,  9-H ) :   0.1572
B(  4-C , 24-H ) :   0.2039 B(  4-C , 25-H ) :   0.1148 B(  6-C ,  8-H ) :   0.8955
B(  6-C ,  9-H ) :   0.9362 B(  6-C , 10-C ) :   1.1492 B(  6-C , 11-H ) :   0.1035
B(  6-C , 12-H ) :   0.1586 B(  6-C , 13-F ) :   0.1324 B( 10-C , 11-H ) :   0.8519
B( 10-C , 12-H ) :   0.8269 B( 10-C , 13-F ) :   0.6363 B( 11-H , 13-F ) :   0.2091
B( 13-F , 21-H ) :   0.1457 B( 13-F , 22-H ) :   0.2034 B( 16-C , 17-N ) :   0.8543
B( 16-C , 18-C ) :   1.8954 B( 16-C , 19-H ) :   0.3304 B( 16-C , 20-H ) :   0.2369
B( 16-C , 21-H ) :  -0.3812 B( 16-C , 23-H ) :  -0.1487 B( 17-N , 18-C ) :   0.1946
B( 17-N , 22-H ) :   0.9858 B( 17-N , 23-H ) :   1.2827 B( 18-C , 19-H ) :   0.5995
B( 18-C , 20-H ) :   0.7433 B( 19-H , 20-H ) :   0.1950 B( 22-H , 23-H ) :  -0.1613

Dispersion correction           -0.011867319
FINAL SINGLE POINT ENERGY      -523.895627524873

DIPOLE MOMENT
-------------
                                X             Y             Z
Electronic contribution:      6.23508       4.46567       2.81974
Nuclear contribution   :     -7.84660      -3.08098      -1.66782
                        -----------------------------------------
Total Dipole Moment    :     -1.61152       1.38469       1.15192
                        -----------------------------------------
Magnitude (a.u.)       :      2.41687
Magnitude (Debye)      :      6.14320

Rotational constants in cm-1:     0.043547     0.029898     0.020008
Rotational constants in MHz :  1305.520367   896.323854   599.829375

                             ****ORCA TERMINATED NORMALLY****
TOTAL RUN TIME: 0 days 0 hours 1 minutes 2 seconds 707 msec
