                         Program Version 5.0.0 -  RELEASE  -
|  1> !wB97X-D3 RIJCOSX def2-SVP def2/J TightSCF
|  2> *xyz -1 1
|  3> C         -0.50835        1.72268       -4.12430
|  4> S         -1.32861        0.14674       -4.43578
|  5> O         -2.57135        0.47573       -5.06834
|  6> O         -1.51496       -0.40051       -3.06342
|  7> O         -0.37793       -0.62756       -5.20114
|  8> H         -0.31967        2.21655       -5.05456
|  9> H          0.41835        1.54859       -3.61852
| 10> H         -1.13714        2.33776       -3.51504
| 11> *
| 12> %MaxCore 64000
| 13>
| 14> %pal nprocs 18
| 15> end
| 16>
| 17> %scf
| 18>   MaxIter 150
| 19> end
| 20>
| 21>
| 22>                          ****END OF INPUT****

CARTESIAN COORDINATES (ANGSTROEM)
---------------------------------
  C     -0.508350    1.722680   -4.124300
  S     -1.328610    0.146740   -4.435780
  O     -2.571350    0.475730   -5.068340
  O     -1.514960   -0.400510   -3.063420
  O     -0.377930   -0.627560   -5.201140
  H     -0.319670    2.216550   -5.054560
  H      0.418350    1.548590   -3.618520
  H     -1.137140    2.337760   -3.515040

 Total Charge           Charge          ....   -1
 Multiplicity           Mult            ....    1
 Number of Electrons    NEL             ....   50
 Basis Dimension        Dim             ....   89

ORBITAL ENERGIES
----------------

  NO   OCC          E(Eh)            E(eV)
   0   2.0000     -88.936789     -2420.0931
   1   2.0000     -18.990301      -516.7524
   2   2.0000     -18.986760      -516.6560
   3   2.0000     -18.968595      -516.1617
   4   2.0000     -10.121552      -275.4214
   5   2.0000      -8.017117      -218.1569
   6   2.0000      -5.976198      -162.6206
   7   2.0000      -5.976022      -162.6158
   8   2.0000      -5.975813      -162.6101
   9   2.0000      -1.018998       -27.7284
  10   2.0000      -0.879174       -23.9235
  11   2.0000      -0.846309       -23.0292
  12   2.0000      -0.675305       -18.3760
  13   2.0000      -0.467773       -12.7288
  14   2.0000      -0.381423       -10.3791
  15   2.0000      -0.372148       -10.1267
  16   2.0000      -0.371502       -10.1091
  17   2.0000      -0.322992        -8.7891
  18   2.0000      -0.321044        -8.7360
  19   2.0000      -0.219077        -5.9614
  20   2.0000      -0.217474        -5.9178
  21   2.0000      -0.184071        -5.0088
  22   2.0000      -0.175578        -4.7777
  23   2.0000      -0.160742        -4.3740
  24   2.0000      -0.126778        -3.4498
  25   0.0000       0.314080         8.5466
  26   0.0000       0.364811         9.9270
  27   0.0000       0.366583         9.9752
  28   0.0000       0.400323        10.8933
  29   0.0000       0.467675        12.7261

MULLIKEN ATOMIC CHARGES
-----------------------
   0 C :   -0.076696
   1 S :    0.865964
   2 O :   -0.579780
   3 O :   -0.643435
   4 O :   -0.593609
   5 H :    0.002953
   6 H :    0.013141
   7 H :    0.011461
Sum of atomic charges:   -1.0000000

LOEWDIN ATOMIC CHARGES
----------------------
   0 C :   -0.215500
   1 S :    1.099944
   2 O :   -0.608711
   3 O :   -0.672116
   4 O :   -0.621768
   5 H :    0.002376
   6 H :    0.008353
   7 H :    0.007421

  Mayer bond orders larger than 0.100000
B(  0-C ,  1-S ) :   0.9113 B(  0-C ,  5-H ) :   0.9634 B(  0-C ,  6-H ) :   0.9677
B(  0-C ,  7-H ) :   0.9669 B(  1-S ,  2-O ) :   1.6490 B(  1-S ,  3-O ) :   1.5827
B(  1-S ,  4-O ) :   1.6343

Dispersion correction           -0.001526736
FINAL SINGLE POINT ENERGY      -663.357007677668

DIPOLE MOMENT
-------------
                                X             Y             Z
Electronic contribution:     -2.04641      -3.85155      -0.92608
Nuclear contribution   :      2.60425       5.03732       0.91691
                        -----------------------------------------
Total Dipole Moment    :      0.55783       1.18577      -0.00918
                        -----------------------------------------
Magnitude (a.u.)       :      1.31046
Magnitude (Debye)      :      3.33093

Rotational constants in cm-1:     0.171343     0.157827     0.155747
Rotational constants in MHz :  5136.740483  4731.521814  4669.189064

                             ****ORCA TERMINATED NORMALLY****
TOTAL RUN TIME: 0 days 0 hours 0 minutes 5 seconds 63 msec
