                         Program Version 5.0.0 -  RELEASE  -
|  1> !wB97X-D3 RIJCOSX def2-SVP def2/J TightSCF
|  2> *xyz 1 1
|  3> C          1.36401        0.46874       -2.81376
|  4> N          0.42884        0.32140       -1.65531
|  5> H          0.74858       -0.40054       -1.00134
|  6> H         -0.46105        0.02333       -2.07773
|  7> H          0.31026        1.20137       -1.13495
|  8> H          0.99872        1.22859       -3.47261
|  9> H          1.42772       -0.46011       -3.34109
| 10> H          2.33442        0.74312       -2.45611
| 11> *
| 12> %MaxCore 64000
| 13>
| 14> %pal nprocs 18
| 15> end
| 16>
| 17> %scf
| 18>   MaxIter 150
| 19> end
| 20>
| 21>
| 22>                          ****END OF INPUT****

CARTESIAN COORDINATES (ANGSTROEM)
---------------------------------
  C      1.364010    0.468740   -2.813760
  N      0.428840    0.321400   -1.655310
  H      0.748580   -0.400540   -1.001340
  H     -0.461050    0.023330   -2.077730
  H      0.310260    1.201370   -1.134950
  H      0.998720    1.228590   -3.472610
  H      1.427720   -0.460110   -3.341090
  H      2.334420    0.743120   -2.456110

 Total Charge           Charge          ....    1
 Multiplicity           Mult            ....    1
 Number of Electrons    NEL             ....   18
 Basis Dimension        Dim             ....   58

ORBITAL ENERGIES
----------------

  NO   OCC          E(Eh)            E(eV)
   0   2.0000     -14.789156      -402.4334
   1   2.0000     -10.547851      -287.0216
   2   2.0000      -1.335293       -36.3352
   3   2.0000      -1.045204       -28.4415
   4   2.0000      -0.917952       -24.9788
   5   2.0000      -0.913173       -24.8487
   6   2.0000      -0.811561       -22.0837
   7   2.0000      -0.725867       -19.7519
   8   2.0000      -0.723845       -19.6968
   9   0.0000      -0.102994        -2.8026
  10   0.0000      -0.032729        -0.8906
  11   0.0000      -0.031877        -0.8674
  12   0.0000      -0.002390        -0.0650
  13   0.0000       0.038430         1.0457

MULLIKEN ATOMIC CHARGES
-----------------------
   0 C :   -0.014127
   1 N :   -0.059211
   2 H :    0.232089
   3 H :    0.234144
   4 H :    0.236300
   5 H :    0.123915
   6 H :    0.123250
   7 H :    0.123639
Sum of atomic charges:    1.0000000

LOEWDIN ATOMIC CHARGES
----------------------
   0 C :    0.070046
   1 N :    0.291215
   2 H :    0.150518
   3 H :    0.153571
   4 H :    0.153100
   5 H :    0.060864
   6 H :    0.060790
   7 H :    0.059895

  Mayer bond orders larger than 0.100000
B(  0-C ,  1-N ) :   0.9326 B(  0-C ,  5-H ) :   0.9725 B(  0-C ,  6-H ) :   0.9725
B(  0-C ,  7-H ) :   0.9743 B(  1-N ,  2-H ) :   0.9319 B(  1-N ,  3-H ) :   0.9345
B(  1-N ,  4-H ) :   0.9294

Dispersion correction           -0.000499591
FINAL SINGLE POINT ENERGY       -96.117556957868

DIPOLE MOMENT
-------------
                                X             Y             Z
Electronic contribution:     -0.70385      -0.09904       0.90779
Nuclear contribution   :      0.14628      -0.00095      -0.25828
                        -----------------------------------------
Total Dipole Moment    :     -0.55758      -0.09998       0.64952
                        -----------------------------------------
Magnitude (a.u.)       :      0.86183
Magnitude (Debye)      :      2.19061

Rotational constants in cm-1:     2.853706     0.682028     0.680630
Rotational constants in MHz : 85551.942317 20446.672693 20404.761959

                             ****ORCA TERMINATED NORMALLY****
TOTAL RUN TIME: 0 days 0 hours 0 minutes 3 seconds 496 msec
