                         Program Version 5.0.0 -  RELEASE  -
|  1> !wB97X-D3 RIJCOSX def2-SVP def2/J TightSCF xyzfile
|  2>
|  3> *xyzfile 0 1 B.xyz
|  4>
|  5> %MaxCore 64000
|  6>
|  7> %pal nprocs 18
|  8> end
|  9>
| 10> %scf
| 11>   MaxIter 150
| 12> end
| 13>
| 14>
| 15>                          ****END OF INPUT****

CARTESIAN COORDINATES (ANGSTROEM)
---------------------------------
  C      1.364014    0.468742   -2.813764
  N      0.428844    0.321402   -1.655312
  C      0.968045    1.630639   -3.715749
  C     -0.508347    1.722679   -4.124300
  S     -1.328608    0.146737   -4.435781
  H     -0.591511    2.294958   -5.047219
  H     -1.114114    2.235610   -3.374362
  H      0.748578   -0.400542   -1.001345
  H     -0.461053    0.023332   -2.077731
  H      0.310258    1.201375   -1.134948
  O     -2.571347    0.475733   -5.068341
  O     -1.514963   -0.400512   -3.063420
  H      1.294847   -0.468742   -3.364684
  H      2.376216    0.597400   -2.431495
  H      1.578688    1.520652   -4.612733
  H      1.266653    2.575988   -3.250448
  O     -0.377928   -0.627558   -5.201141

 Total Charge           Charge          ....    0
 Multiplicity           Mult            ....    1
 Number of Electrons    NEL             ....   74
 Basis Dimension        Dim             ....  161

ORBITAL ENERGIES
----------------

  NO   OCC          E(Eh)            E(eV)
   0   2.0000     -89.117405     -2425.0079
   1   2.0000     -19.178265      -521.8671
   2   2.0000     -19.162836      -521.4473
   3   2.0000     -19.159142      -521.3468
   4   2.0000     -14.572588      -396.5403
   5   2.0000     -10.381651      -282.4991
   6   2.0000     -10.331510      -281.1347
   7   2.0000     -10.303966      -280.3852
   8   2.0000      -8.198109      -223.0819
   9   2.0000      -6.157789      -167.5620
  10   2.0000      -6.156812      -167.5354
  11   2.0000      -6.156230      -167.5195
  12   2.0000      -1.203303       -32.7435
  13   2.0000      -1.140966       -31.0473
  14   2.0000      -1.052036       -28.6274
  15   2.0000      -1.050290       -28.5799
  16   2.0000      -0.936321       -25.4786
  17   2.0000      -0.847070       -23.0499
  18   2.0000      -0.759855       -20.6767
  19   2.0000      -0.729410       -19.8482
  20   2.0000      -0.717174       -19.5153
  21   2.0000      -0.644939       -17.5497
  22   2.0000      -0.623487       -16.9660
  23   2.0000      -0.588608       -16.0168
  24   2.0000      -0.570130       -15.5140
  25   2.0000      -0.556901       -15.1540
  26   2.0000      -0.522319       -14.2130
  27   2.0000      -0.512469       -13.9450
  28   2.0000      -0.496998       -13.5240
  29   2.0000      -0.485147       -13.2015
  30   2.0000      -0.468793       -12.7565
  31   2.0000      -0.404646       -11.0110
  32   2.0000      -0.395943       -10.7741
  33   2.0000      -0.366780        -9.9806
  34   2.0000      -0.354323        -9.6416
  35   2.0000      -0.345237        -9.3944
  36   2.0000      -0.313712        -8.5365
  37   0.0000       0.065840         1.7916
  38   0.0000       0.117657         3.2016
  39   0.0000       0.134302         3.6546
  40   0.0000       0.167047         4.5456
  41   0.0000       0.177046         4.8177

MULLIKEN ATOMIC CHARGES
-----------------------
   0 C :    0.001869
   1 N :   -0.022683
   2 C :   -0.076840
   3 C :   -0.131567
   4 S :    0.898591
   5 H :    0.080208
   6 H :    0.050659
   7 H :    0.187163
   8 H :    0.170595
   9 H :    0.179852
  10 O :   -0.489915
  11 O :   -0.604927
  12 H :    0.102971
  13 H :    0.064257
  14 H :    0.078183
  15 H :    0.040727
  16 O :   -0.529143
Sum of atomic charges:   -0.0000000

LOEWDIN ATOMIC CHARGES
----------------------
   0 C :    0.040801
   1 N :    0.267960
   2 C :   -0.057500
   3 C :   -0.190063
   4 S :    1.121926
   5 H :    0.041342
   6 H :    0.020186
   7 H :    0.122514
   8 H :    0.026928
   9 H :    0.117203
  10 O :   -0.537148
  11 O :   -0.564490
  12 H :    0.046880
  13 H :    0.032379
  14 H :    0.052711
  15 H :    0.027809
  16 O :   -0.569438

  Mayer bond orders larger than 0.100000
B(  0-C ,  1-N ) :   0.9362 B(  0-C ,  2-C ) :   1.0845 B(  0-C , 12-H ) :   0.9263
B(  0-C , 13-H ) :   0.9597 B(  1-N ,  7-H ) :   0.9421 B(  1-N ,  8-H ) :   0.7880
B(  1-N ,  9-H ) :   0.9432 B(  2-C ,  3-C ) :   1.0346 B(  2-C , 14-H ) :   0.9383
B(  2-C , 15-H ) :   0.9511 B(  3-C ,  4-S ) :   0.9155 B(  3-C ,  5-H ) :   0.9416
B(  3-C ,  6-H ) :   0.9417 B(  4-S , 10-O ) :   1.7410 B(  4-S , 11-O ) :   1.3573
B(  4-S , 16-O ) :   1.6559 B(  8-H , 11-O ) :   0.2859

Dispersion correction           -0.006686850
FINAL SINGLE POINT ENERGY      -797.743937120727

DIPOLE MOMENT
-------------
                                X             Y             Z
Electronic contribution:     -6.91019      -4.16087      -4.24734
Nuclear contribution   :      9.95459       5.57517       7.68169
                        -----------------------------------------
Total Dipole Moment    :      3.04440       1.41430       3.43435
                        -----------------------------------------
Magnitude (a.u.)       :      4.80244
Magnitude (Debye)      :     12.20682

Rotational constants in cm-1:     0.102119     0.045768     0.041299
Rotational constants in MHz :  3061.441288  1372.093000  1238.124534

                             ****ORCA TERMINATED NORMALLY****
TOTAL RUN TIME: 0 days 0 hours 0 minutes 10 seconds 726 msec
