                         Program Version 5.0.0 -  RELEASE  -
|  1> !wB97X-D3 RIJCOSX def2-SVP def2/J TightSCF
|  2> *xyz 0 1
|  3> C         -0.50835        1.72268       -4.12430
|  4> S         -1.32861        0.14674       -4.43578
|  5> F         -2.57135        0.47573       -5.06834
|  6> O         -1.51496       -0.40051       -3.06342
|  7> O         -0.37793       -0.62756       -5.20114
|  8> H         -0.31967        2.21655       -5.05456
|  9> H          0.41835        1.54859       -3.61852
| 10> H         -1.13714        2.33776       -3.51504
| 11> *
| 12> %MaxCore 64000
| 13>
| 14> %pal nprocs 18
| 15> end
| 16>
| 17> %scf
| 18>   MaxIter 150
| 19> end
| 20>
| 21>
| 22>                          ****END OF INPUT****

CARTESIAN COORDINATES (ANGSTROEM)
---------------------------------
  C     -0.508350    1.722680   -4.124300
  S     -1.328610    0.146740   -4.435780
  F     -2.571350    0.475730   -5.068340
  O     -1.514960   -0.400510   -3.063420
  O     -0.377930   -0.627560   -5.201140
  H     -0.319670    2.216550   -5.054560
  H      0.418350    1.548590   -3.618520
  H     -1.137140    2.337760   -3.515040

 Total Charge           Charge          ....    0
 Multiplicity           Mult            ....    1
 Number of Electrons    NEL             ....   50
 Basis Dimension        Dim             ....   89

ORBITAL ENERGIES
----------------

  NO   OCC          E(Eh)            E(eV)
   0   2.0000     -89.219584     -2427.7883
   1   2.0000     -24.916236      -678.0053
   2   2.0000     -19.245994      -523.7101
   3   2.0000     -19.228496      -523.2340
   4   2.0000     -10.342066      -281.4219
   5   2.0000      -8.302160      -225.9133
   6   2.0000      -6.265391      -170.4900
   7   2.0000      -6.258466      -170.3015
   8   2.0000      -6.257714      -170.2811
   9   2.0000      -1.500408       -40.8282
  10   2.0000      -1.216206       -33.0947
  11   2.0000      -1.106591       -30.1119
  12   2.0000      -0.909244       -24.7418
  13   2.0000      -0.827279       -22.5114
  14   2.0000      -0.713751       -19.4221
  15   2.0000      -0.698288       -19.0014
  16   2.0000      -0.654086       -17.7986
  17   2.0000      -0.574889       -15.6435
  18   2.0000      -0.571998       -15.5649
  19   2.0000      -0.562783       -15.3141
  20   2.0000      -0.526419       -14.3246
  21   2.0000      -0.477614       -12.9965
  22   2.0000      -0.424737       -11.5577
  23   2.0000      -0.408375       -11.1125
  24   2.0000      -0.391538       -10.6543
  25   0.0000       0.117172         3.1884
  26   0.0000       0.148512         4.0412
  27   0.0000       0.154943         4.2162
  28   0.0000       0.175986         4.7888
  29   0.0000       0.190542         5.1849

MULLIKEN ATOMIC CHARGES
-----------------------
   0 C :   -0.097719
   1 S :    0.930604
   2 F :   -0.164715
   3 O :   -0.495264
   4 O :   -0.445845
   5 H :    0.077817
   6 H :    0.112295
   7 H :    0.082826
Sum of atomic charges:    0.0000000

LOEWDIN ATOMIC CHARGES
----------------------
   0 C :   -0.157038
   1 S :    1.157848
   2 F :   -0.108405
   3 O :   -0.535994
   4 O :   -0.486064
   5 H :    0.034725
   6 H :    0.056545
   7 H :    0.038384

  Mayer bond orders larger than 0.100000
B(  0-C ,  1-S ) :   0.9409 B(  0-C ,  5-H ) :   0.9549 B(  0-C ,  6-H ) :   0.9598
B(  0-C ,  7-H ) :   0.9559 B(  1-S ,  2-F ) :   1.0358 B(  1-S ,  3-O ) :   1.7337
B(  1-S ,  4-O ) :   1.7847

Dispersion correction           -0.001536738
FINAL SINGLE POINT ENERGY      -687.851380245304

DIPOLE MOMENT
-------------
                                X             Y             Z
Electronic contribution:     -4.09324      -3.20682      -2.01664
Nuclear contribution   :      3.90013       4.80063       1.59574
                        -----------------------------------------
Total Dipole Moment    :     -0.19311       1.59381      -0.42091
                        -----------------------------------------
Magnitude (a.u.)       :      1.65973
Magnitude (Debye)      :      4.21869

Rotational constants in cm-1:     0.163395     0.155047     0.147447
Rotational constants in MHz :  4898.460101  4648.206837  4420.340547

                             ****ORCA TERMINATED NORMALLY****
TOTAL RUN TIME: 0 days 0 hours 0 minutes 5 seconds 705 msec
