                         Program Version 5.0.0 -  RELEASE  -
|  1> !wB97X-D3 RIJCOSX def2-SVP def2/J TightSCF
|  2> *xyz 0 1
|  3> C          1.36401        0.46874       -2.81376
|  4> C          0.42884        0.32140       -1.65531
|  5> H          0.74858       -0.40054       -1.00134
|  6> H         -0.46105        0.02333       -2.07773
|  7> H          0.31026        1.20137       -1.13495
|  8> H          0.99872        1.22859       -3.47261
|  9> H          1.42772       -0.46011       -3.34109
| 10> H          2.33442        0.74312       -2.45611
| 11> *
| 12> %MaxCore 64000
| 13>
| 14> %pal nprocs 18
| 15> end
| 16>
| 17> %scf
| 18>   MaxIter 150
| 19> end
| 20>
| 21>
| 22>                          ****END OF INPUT****

CARTESIAN COORDINATES (ANGSTROEM)
---------------------------------
  C      1.364010    0.468740   -2.813760
  C      0.428840    0.321400   -1.655310
  H      0.748580   -0.400540   -1.001340
  H     -0.461050    0.023330   -2.077730
  H      0.310260    1.201370   -1.134950
  H      0.998720    1.228590   -3.472610
  H      1.427720   -0.460110   -3.341090
  H      2.334420    0.743120   -2.456110

 Total Charge           Charge          ....    0
 Multiplicity           Mult            ....    1
 Number of Electrons    NEL             ....   18
 Basis Dimension        Dim             ....   58

ORBITAL ENERGIES
----------------

  NO   OCC          E(Eh)            E(eV)
   0   2.0000     -10.265025      -279.3255
   1   2.0000     -10.252197      -278.9765
   2   2.0000      -0.876316       -23.8458
   3   2.0000      -0.723661       -19.6918
   4   2.0000      -0.550053       -14.9677
   5   2.0000      -0.546216       -14.8633
   6   2.0000      -0.460599       -12.5335
   7   2.0000      -0.440745       -11.9933
   8   2.0000      -0.436556       -11.8793
   9   0.0000       0.157950         4.2981
  10   0.0000       0.213728         5.8158
  11   0.0000       0.224544         6.1102
  12   0.0000       0.226487         6.1630
  13   0.0000       0.253838         6.9073

MULLIKEN ATOMIC CHARGES
-----------------------
   0 C :   -0.089975
   1 C :   -0.021344
   2 H :    0.010594
   3 H :    0.010658
   4 H :    0.014032
   5 H :    0.026062
   6 H :    0.025687
   7 H :    0.024287
Sum of atomic charges:   -0.0000000

LOEWDIN ATOMIC CHARGES
----------------------
   0 C :   -0.057571
   1 C :   -0.049550
   2 H :    0.014178
   3 H :    0.017049
   4 H :    0.015002
   5 H :    0.020939
   6 H :    0.021103
   7 H :    0.018849

  Mayer bond orders larger than 0.100000
B(  0-C ,  1-C ) :   1.1052 B(  0-C ,  5-H ) :   0.9819 B(  0-C ,  6-H ) :   0.9818
B(  0-C ,  7-H ) :   0.9822 B(  1-C ,  2-H ) :   0.9783 B(  1-C ,  3-H ) :   0.9792
B(  1-C ,  4-H ) :   0.9790

Dispersion correction           -0.000488400
FINAL SINGLE POINT ENERGY       -79.731913532163

DIPOLE MOMENT
-------------
                                X             Y             Z
Electronic contribution:     -0.00215       0.01832       0.06912
Nuclear contribution   :     -0.01491      -0.02598      -0.05743
                        -----------------------------------------
Total Dipole Moment    :     -0.01707      -0.00766       0.01169
                        -----------------------------------------
Magnitude (a.u.)       :      0.02206
Magnitude (Debye)      :      0.05607

Rotational constants in cm-1:     2.853707     0.712330     0.710805
Rotational constants in MHz : 85551.986377 21355.123158 21309.410122

                             ****ORCA TERMINATED NORMALLY****
TOTAL RUN TIME: 0 days 0 hours 0 minutes 3 seconds 437 msec
