                         Program Version 5.0.0 -  RELEASE  -
|  1> !wB97X-D3 RIJCOSX def2-SVP def2/J TightSCF
|  2> *xyz 0 1
|  3> C         -0.50835        1.72268       -4.12430
|  4> S         -1.32861        0.14674       -4.43578
|  5> O         -2.57135        0.47573       -5.06834
|  6> F         -1.51496       -0.40051       -3.06342
|  7> O         -0.37793       -0.62756       -5.20114
|  8> H         -0.31967        2.21655       -5.05456
|  9> H          0.41835        1.54859       -3.61852
| 10> H         -1.13714        2.33776       -3.51504
| 11> *
| 12> %MaxCore 64000
| 13>
| 14> %pal nprocs 18
| 15> end
| 16>
| 17> %scf
| 18>   MaxIter 150
| 19> end
| 20>
| 21>
| 22>                          ****END OF INPUT****

CARTESIAN COORDINATES (ANGSTROEM)
---------------------------------
  C     -0.508350    1.722680   -4.124300
  S     -1.328610    0.146740   -4.435780
  O     -2.571350    0.475730   -5.068340
  F     -1.514960   -0.400510   -3.063420
  O     -0.377930   -0.627560   -5.201140
  H     -0.319670    2.216550   -5.054560
  H      0.418350    1.548590   -3.618520
  H     -1.137140    2.337760   -3.515040

 Total Charge           Charge          ....    0
 Multiplicity           Mult            ....    1
 Number of Electrons    NEL             ....   50
 Basis Dimension        Dim             ....   89

ORBITAL ENERGIES
----------------

  NO   OCC          E(Eh)            E(eV)
   0   2.0000     -89.217690     -2427.7368
   1   2.0000     -24.887323      -677.2185
   2   2.0000     -19.249303      -523.8002
   3   2.0000     -19.245828      -523.7056
   4   2.0000     -10.341225      -281.3990
   5   2.0000      -8.300039      -225.8556
   6   2.0000      -6.262940      -170.4233
   7   2.0000      -6.256713      -170.2538
   8   2.0000      -6.255899      -170.2317
   9   2.0000      -1.451911       -39.5085
  10   2.0000      -1.231877       -33.5211
  11   2.0000      -1.134466       -30.8704
  12   2.0000      -0.907644       -24.6982
  13   2.0000      -0.802848       -21.8466
  14   2.0000      -0.690881       -18.7998
  15   2.0000      -0.664793       -18.0899
  16   2.0000      -0.649576       -17.6759
  17   2.0000      -0.577018       -15.7015
  18   2.0000      -0.574670       -15.6376
  19   2.0000      -0.559690       -15.2299
  20   2.0000      -0.536332       -14.5943
  21   2.0000      -0.487809       -13.2740
  22   2.0000      -0.434342       -11.8190
  23   2.0000      -0.426434       -11.6039
  24   2.0000      -0.411713       -11.2033
  25   0.0000       0.120448         3.2776
  26   0.0000       0.150884         4.1058
  27   0.0000       0.154877         4.2144
  28   0.0000       0.181784         4.9466
  29   0.0000       0.186565         5.0767

MULLIKEN ATOMIC CHARGES
-----------------------
   0 C :   -0.103041
   1 S :    0.944031
   2 O :   -0.439673
   3 F :   -0.222133
   4 O :   -0.452376
   5 H :    0.107254
   6 H :    0.083566
   7 H :    0.082371
Sum of atomic charges:    0.0000000

LOEWDIN ATOMIC CHARGES
----------------------
   0 C :   -0.160052
   1 S :    1.165705
   2 O :   -0.478842
   3 F :   -0.165912
   4 O :   -0.491029
   5 H :    0.053111
   6 H :    0.038893
   7 H :    0.038127

  Mayer bond orders larger than 0.100000
B(  0-C ,  1-S ) :   0.9418 B(  0-C ,  5-H ) :   0.9600 B(  0-C ,  6-H ) :   0.9563
B(  0-C ,  7-H ) :   0.9559 B(  1-S ,  2-O ) :   1.8033 B(  1-S ,  3-F ) :   0.9707
B(  1-S ,  4-O ) :   1.7892

Dispersion correction           -0.001538143
FINAL SINGLE POINT ENERGY      -687.877148002761

DIPOLE MOMENT
-------------
                                X             Y             Z
Electronic contribution:     -2.32097      -4.68179       1.36821
Nuclear contribution   :      2.84473       5.67605      -0.40731
                        -----------------------------------------
Total Dipole Moment    :      0.52377       0.99426       0.96090
                        -----------------------------------------
Magnitude (a.u.)       :      1.47859
Magnitude (Debye)      :      3.75827

Rotational constants in cm-1:     0.162669     0.154016     0.148818
Rotational constants in MHz :  4876.699308  4617.284822  4461.441982

                             ****ORCA TERMINATED NORMALLY****
TOTAL RUN TIME: 0 days 0 hours 0 minutes 4 seconds 764 msec
