                         Program Version 5.0.0 -  RELEASE  -
|  1> !wB97X-D3 RIJCOSX def2-SVP def2/J TightSCF
|  2> *xyz 0 1
|  3> C         -0.50835        1.72268       -4.12430
|  4> S         -1.32861        0.14674       -4.43578
|  5> O         -2.57135        0.47573       -5.06834
|  6> O         -1.51496       -0.40051       -3.06342
|  7> F         -0.37793       -0.62756       -5.20114
|  8> H         -0.31967        2.21655       -5.05456
|  9> H          0.41835        1.54859       -3.61852
| 10> H         -1.13714        2.33776       -3.51504
| 11> *
| 12> %MaxCore 64000
| 13>
| 14> %pal nprocs 18
| 15> end
| 16>
| 17> %scf
| 18>   MaxIter 150
| 19> end
| 20>
| 21>
| 22>                          ****END OF INPUT****

CARTESIAN COORDINATES (ANGSTROEM)
---------------------------------
  C     -0.508350    1.722680   -4.124300
  S     -1.328610    0.146740   -4.435780
  O     -2.571350    0.475730   -5.068340
  O     -1.514960   -0.400510   -3.063420
  F     -0.377930   -0.627560   -5.201140
  H     -0.319670    2.216550   -5.054560
  H      0.418350    1.548590   -3.618520
  H     -1.137140    2.337760   -3.515040

 Total Charge           Charge          ....    0
 Multiplicity           Mult            ....    1
 Number of Electrons    NEL             ....   50
 Basis Dimension        Dim             ....   89

ORBITAL ENERGIES
----------------

  NO   OCC          E(Eh)            E(eV)
   0   2.0000     -89.218943     -2427.7709
   1   2.0000     -24.910747      -677.8559
   2   2.0000     -19.249375      -523.8021
   3   2.0000     -19.228404      -523.2315
   4   2.0000     -10.342007      -281.4203
   5   2.0000      -8.301526      -225.8960
   6   2.0000      -6.264662      -170.4701
   7   2.0000      -6.257931      -170.2870
   8   2.0000      -6.257132      -170.2652
   9   2.0000      -1.489799       -40.5395
  10   2.0000      -1.222298       -33.2604
  11   2.0000      -1.109515       -30.1914
  12   2.0000      -0.908848       -24.7310
  13   2.0000      -0.822392       -22.3784
  14   2.0000      -0.708271       -19.2730
  15   2.0000      -0.691116       -18.8062
  16   2.0000      -0.653288       -17.7769
  17   2.0000      -0.575240       -15.6531
  18   2.0000      -0.573619       -15.6090
  19   2.0000      -0.562584       -15.3087
  20   2.0000      -0.528664       -14.3857
  21   2.0000      -0.480965       -13.0877
  22   2.0000      -0.428778       -11.6676
  23   2.0000      -0.408762       -11.1230
  24   2.0000      -0.393668       -10.7123
  25   0.0000       0.116207         3.1621
  26   0.0000       0.149211         4.0602
  27   0.0000       0.154416         4.2019
  28   0.0000       0.177036         4.8174
  29   0.0000       0.190240         5.1767

MULLIKEN ATOMIC CHARGES
-----------------------
   0 C :   -0.098460
   1 S :    0.932709
   2 O :   -0.433722
   3 O :   -0.495859
   4 F :   -0.177754
   5 H :    0.077947
   6 H :    0.083748
   7 H :    0.111392
Sum of atomic charges:    0.0000000

LOEWDIN ATOMIC CHARGES
----------------------
   0 C :   -0.157368
   1 S :    1.159258
   2 O :   -0.474327
   3 O :   -0.536391
   4 F :   -0.120965
   5 H :    0.034780
   6 H :    0.039001
   7 H :    0.056012

  Mayer bond orders larger than 0.100000
B(  0-C ,  1-S ) :   0.9412 B(  0-C ,  5-H ) :   0.9549 B(  0-C ,  6-H ) :   0.9562
B(  0-C ,  7-H ) :   0.9597 B(  1-S ,  2-O ) :   1.7999 B(  1-S ,  3-O ) :   1.7347
B(  1-S ,  4-F ) :   1.0209

Dispersion correction           -0.001537386
FINAL SINGLE POINT ENERGY      -687.856041173129

DIPOLE MOMENT
-------------
                                X             Y             Z
Electronic contribution:     -0.41137      -5.05797      -2.23912
Nuclear contribution   :      1.70876       5.90289       1.72841
                        -----------------------------------------
Total Dipole Moment    :      1.29740       0.84492      -0.51071
                        -----------------------------------------
Magnitude (a.u.)       :      1.63032
Magnitude (Debye)      :      4.14395

Rotational constants in cm-1:     0.163253     0.155214     0.147311
Rotational constants in MHz :  4894.200006  4653.189727  4416.272537

                             ****ORCA TERMINATED NORMALLY****
TOTAL RUN TIME: 0 days 0 hours 0 minutes 4 seconds 802 msec
