                         Program Version 5.0.0 -  RELEASE  -
|  1> !wB97X-D3 RIJCOSX def2-SVP def2/J TightSCF xyzfile
|  2>
|  3> *xyzfile 0 1 D1.xyz
|  4>
|  5> %MaxCore 64000
|  6>
|  7> %pal nprocs 18
|  8> end
|  9>
| 10> %scf
| 11>   MaxIter 150
| 12> end
| 13>
| 14>
| 15>                          ****END OF INPUT****

CARTESIAN COORDINATES (ANGSTROEM)
---------------------------------
  C      1.364014    0.468742   -2.813764
  C      0.428844    0.321402   -1.655312
  C      0.968045    1.630639   -3.715749
  C     -0.508347    1.722679   -4.124300
  S     -1.328608    0.146737   -4.435781
  H     -0.591511    2.294958   -5.047219
  H     -1.114114    2.235610   -3.374362
  H      0.748578   -0.400542   -1.001345
  H     -0.461053    0.023332   -2.077731
  H      0.310258    1.201375   -1.134948
  F     -2.571347    0.475733   -5.068341
  O     -1.514963   -0.400512   -3.063420
  H      1.294847   -0.468742   -3.364684
  H      2.376216    0.597400   -2.431495
  H      1.578688    1.520652   -4.612733
  H      1.266653    2.575988   -3.250448
  O     -0.377928   -0.627558   -5.201141

 Total Charge           Charge          ....    0
 Multiplicity           Mult            ....    1
 Number of Electrons    NEL             ....   74
 Basis Dimension        Dim             ....  161

ORBITAL ENERGIES
----------------

  NO   OCC          E(Eh)            E(eV)
   0   2.0000     -89.224008     -2427.9087
   1   2.0000     -24.920777      -678.1288
   2   2.0000     -19.252203      -523.8791
   3   2.0000     -19.237419      -523.4768
   4   2.0000     -10.348299      -281.5915
   5   2.0000     -10.309889      -280.5463
   6   2.0000     -10.272287      -279.5231
   7   2.0000     -10.214584      -277.9530
   8   2.0000      -8.306824      -226.0402
   9   2.0000      -6.269951      -170.6140
  10   2.0000      -6.263483      -170.4380
  11   2.0000      -6.262046      -170.3989
  12   2.0000      -1.504729       -40.9457
  13   2.0000      -1.226179       -33.3660
  14   2.0000      -1.121479       -30.5170
  15   2.0000      -0.943379       -25.6706
  16   2.0000      -0.884305       -24.0632
  17   2.0000      -0.830139       -22.5892
  18   2.0000      -0.785359       -21.3707
  19   2.0000      -0.716130       -19.4869
  20   2.0000      -0.704401       -19.1677
  21   2.0000      -0.680144       -18.5077
  22   2.0000      -0.648445       -17.6451
  23   2.0000      -0.608225       -16.5506
  24   2.0000      -0.597136       -16.2489
  25   2.0000      -0.560769       -15.2593
  26   2.0000      -0.551671       -15.0117
  27   2.0000      -0.520389       -14.1605
  28   2.0000      -0.501190       -13.6381
  29   2.0000      -0.495850       -13.4928
  30   2.0000      -0.478779       -13.0282
  31   2.0000      -0.448367       -12.2007
  32   2.0000      -0.437304       -11.8996
  33   2.0000      -0.414112       -11.2686
  34   2.0000      -0.409040       -11.1305
  35   2.0000      -0.402947       -10.9648
  36   2.0000      -0.364899        -9.9294
  37   0.0000       0.114728         3.1219
  38   0.0000       0.124271         3.3816
  39   0.0000       0.151841         4.1318
  40   0.0000       0.161510         4.3949
  41   0.0000       0.180413         4.9093

MULLIKEN ATOMIC CHARGES
-----------------------
   0 C :   -0.106089
   1 C :    0.022882
   2 C :   -0.043334
   3 C :   -0.123747
   4 S :    0.957240
   5 H :    0.077699
   6 H :    0.088543
   7 H :   -0.004887
   8 H :    0.039675
   9 H :   -0.023973
  10 F :   -0.156436
  11 O :   -0.461677
  12 H :    0.044429
  13 H :    0.026130
  14 H :    0.048069
  15 H :    0.050585
  16 O :   -0.435110
Sum of atomic charges:   -0.0000000

LOEWDIN ATOMIC CHARGES
----------------------
   0 C :   -0.047545
   1 C :   -0.069201
   2 C :   -0.039986
   3 C :   -0.150623
   4 S :    1.168778
   5 H :    0.035518
   6 H :    0.039791
   7 H :    0.011654
   8 H :   -0.028045
   9 H :   -0.000574
  10 F :   -0.103906
  11 O :   -0.459681
  12 H :    0.024569
  13 H :    0.023226
  14 H :    0.033523
  15 H :    0.038725
  16 O :   -0.476220

  Mayer bond orders larger than 0.100000
B(  0-C ,  1-C ) :   1.0870 B(  0-C ,  2-C ) :   1.0839 B(  0-C , 12-H ) :   0.9400
B(  0-C , 13-H ) :   0.9540 B(  1-C ,  7-H ) :   0.9518 B(  1-C ,  8-H ) :   0.9221
B(  1-C ,  9-H ) :   0.9618 B(  2-C ,  3-C ) :   1.0432 B(  2-C , 14-H ) :   0.9507
B(  2-C , 15-H ) :   0.9485 B(  3-C ,  4-S ) :   0.9362 B(  3-C ,  5-H ) :   0.9357
B(  3-C ,  6-H ) :   0.9272 B(  4-S , 10-F ) :   1.0459 B(  4-S , 11-O ) :   1.6535
B(  4-S , 16-O ) :   1.7774 B(  8-H , 11-O ) :   0.1490

Dispersion correction           -0.006515488
FINAL SINGLE POINT ENERGY      -805.639641109074

DIPOLE MOMENT
-------------
                                X             Y             Z
Electronic contribution:    -12.55707      -4.08407      -9.80526
Nuclear contribution   :     12.25227       5.48563       9.26621
                        -----------------------------------------
Total Dipole Moment    :     -0.30480       1.40156      -0.53905
                        -----------------------------------------
Magnitude (a.u.)       :      1.53227
Magnitude (Debye)      :      3.89473

Rotational constants in cm-1:     0.103176     0.044975     0.040960
Rotational constants in MHz :  3093.138469  1348.317425  1227.945122

                             ****ORCA TERMINATED NORMALLY****
TOTAL RUN TIME: 0 days 0 hours 0 minutes 10 seconds 440 msec
