                         Program Version 5.0.0 -  RELEASE  -
|  1> !wB97X-D3 RIJCOSX def2-SVP def2/J TightSCF xyzfile
|  2>
|  3> *xyzfile 0 1 D2.xyz
|  4>
|  5> %MaxCore 64000
|  6>
|  7> %pal nprocs 18
|  8> end
|  9>
| 10> %scf
| 11>   MaxIter 150
| 12> end
| 13>
| 14>
| 15>                          ****END OF INPUT****

CARTESIAN COORDINATES (ANGSTROEM)
---------------------------------
  C      1.364014    0.468742   -2.813764
  C      0.428844    0.321402   -1.655312
  C      0.968045    1.630639   -3.715749
  C     -0.508347    1.722679   -4.124300
  S     -1.328608    0.146737   -4.435781
  H     -0.591511    2.294958   -5.047219
  H     -1.114114    2.235610   -3.374362
  H      0.748578   -0.400542   -1.001345
  H     -0.461053    0.023332   -2.077731
  H      0.310258    1.201375   -1.134948
  O     -2.571347    0.475733   -5.068341
  F     -1.514963   -0.400512   -3.063420
  H      1.294847   -0.468742   -3.364684
  H      2.376216    0.597400   -2.431495
  H      1.578688    1.520652   -4.612733
  H      1.266653    2.575988   -3.250448
  O     -0.377928   -0.627558   -5.201141

 Total Charge           Charge          ....    0
 Multiplicity           Mult            ....    1
 Number of Electrons    NEL             ....   74
 Basis Dimension        Dim             ....  161

ORBITAL ENERGIES
----------------

  NO   OCC          E(Eh)            E(eV)
   0   2.0000     -89.218266     -2427.7524
   1   2.0000     -24.895032      -677.4283
   2   2.0000     -19.252728      -523.8934
   3   2.0000     -19.250267      -523.8264
   4   2.0000     -10.345763      -281.5225
   5   2.0000     -10.311490      -280.5899
   6   2.0000     -10.287839      -279.9463
   7   2.0000     -10.247661      -278.8530
   8   2.0000      -8.301013      -225.8820
   9   2.0000      -6.264181      -170.4570
  10   2.0000      -6.257617      -170.2784
  11   2.0000      -6.256425      -170.2460
  12   2.0000      -1.466198       -39.8973
  13   2.0000      -1.236700       -33.6523
  14   2.0000      -1.138327       -30.9755
  15   2.0000      -0.950920       -25.8759
  16   2.0000      -0.889506       -24.2047
  17   2.0000      -0.821429       -22.3522
  18   2.0000      -0.803190       -21.8559
  19   2.0000      -0.707029       -19.2392
  20   2.0000      -0.692094       -18.8328
  21   2.0000      -0.674304       -18.3487
  22   2.0000      -0.649216       -17.6661
  23   2.0000      -0.600771       -16.3478
  24   2.0000      -0.583783       -15.8855
  25   2.0000      -0.576992       -15.7008
  26   2.0000      -0.555278       -15.1099
  27   2.0000      -0.528520       -14.3818
  28   2.0000      -0.510815       -13.9000
  29   2.0000      -0.499798       -13.6002
  30   2.0000      -0.489529       -13.3208
  31   2.0000      -0.449116       -12.2211
  32   2.0000      -0.442128       -12.0309
  33   2.0000      -0.433449       -11.7948
  34   2.0000      -0.424791       -11.5591
  35   2.0000      -0.416438       -11.3319
  36   2.0000      -0.406778       -11.0690
  37   0.0000       0.115421         3.1408
  38   0.0000       0.128691         3.5019
  39   0.0000       0.152361         4.1459
  40   0.0000       0.162547         4.4231
  41   0.0000       0.180357         4.9078

MULLIKEN ATOMIC CHARGES
-----------------------
   0 C :   -0.125068
   1 C :   -0.001838
   2 C :   -0.036431
   3 C :   -0.137202
   4 S :    0.958690
   5 H :    0.106870
   6 H :    0.083624
   7 H :    0.010944
   8 H :    0.028897
   9 H :   -0.002199
  10 O :   -0.422531
  11 F :   -0.203278
  12 H :    0.044225
  13 H :    0.035609
  14 H :    0.052483
  15 H :    0.046506
  16 O :   -0.439301
Sum of atomic charges:   -0.0000000

LOEWDIN ATOMIC CHARGES
----------------------
   0 C :   -0.050866
   1 C :   -0.069569
   2 C :   -0.049352
   3 C :   -0.150294
   4 S :    1.172910
   5 H :    0.054343
   6 H :    0.036822
   7 H :    0.017061
   8 H :   -0.027679
   9 H :    0.008244
  10 O :   -0.472165
  11 F :   -0.109656
  12 H :    0.022093
  13 H :    0.027303
  14 H :    0.035341
  15 H :    0.035661
  16 O :   -0.480198

  Mayer bond orders larger than 0.100000
B(  0-C ,  1-C ) :   1.0900 B(  0-C ,  2-C ) :   1.0826 B(  0-C , 12-H ) :   0.9413
B(  0-C , 13-H ) :   0.9541 B(  1-C ,  7-H ) :   0.9569 B(  1-C ,  8-H ) :   0.9516
B(  1-C ,  9-H ) :   0.9651 B(  2-C ,  3-C ) :   1.0270 B(  2-C , 14-H ) :   0.9495
B(  2-C , 15-H ) :   0.9475 B(  3-C ,  4-S ) :   0.9331 B(  3-C ,  5-H ) :   0.9389
B(  3-C ,  6-H ) :   0.9316 B(  4-S , 10-O ) :   1.8120 B(  4-S , 11-F ) :   0.9207
B(  4-S , 16-O ) :   1.7737

Dispersion correction           -0.006502806
FINAL SINGLE POINT ENERGY      -805.663892663581

DIPOLE MOMENT
-------------
                                X             Y             Z
Electronic contribution:    -10.57934      -5.58174      -6.19126
Nuclear contribution   :     11.08796       6.45140       7.05645
                        -----------------------------------------
Total Dipole Moment    :      0.50862       0.86965       0.86519
                        -----------------------------------------
Magnitude (a.u.)       :      1.32799
Magnitude (Debye)      :      3.37548

Rotational constants in cm-1:     0.100113     0.046890     0.041843
Rotational constants in MHz :  3001.313402  1405.711946  1254.411771

                             ****ORCA TERMINATED NORMALLY****
TOTAL RUN TIME: 0 days 0 hours 0 minutes 11 seconds 159 msec
