                         Program Version 5.0.0 -  RELEASE  -
|  1> !wB97X-D3 RIJCOSX def2-SVP def2/J TightSCF xyzfile
|  2>
|  3> *xyzfile 0 1 D3.xyz
|  4>
|  5> %MaxCore 64000
|  6>
|  7> %pal nprocs 18
|  8> end
|  9>
| 10> %scf
| 11>   MaxIter 150
| 12> end
| 13>
| 14>
| 15>                          ****END OF INPUT****

CARTESIAN COORDINATES (ANGSTROEM)
---------------------------------
  C      1.364014    0.468742   -2.813764
  C      0.428844    0.321402   -1.655312
  C      0.968045    1.630639   -3.715749
  C     -0.508347    1.722679   -4.124300
  S     -1.328608    0.146737   -4.435781
  H     -0.591511    2.294958   -5.047219
  H     -1.114114    2.235610   -3.374362
  H      0.748578   -0.400542   -1.001345
  H     -0.461053    0.023332   -2.077731
  H      0.310258    1.201375   -1.134948
  O     -2.571347    0.475733   -5.068341
  O     -1.514963   -0.400512   -3.063420
  H      1.294847   -0.468742   -3.364684
  H      2.376216    0.597400   -2.431495
  H      1.578688    1.520652   -4.612733
  H      1.266653    2.575988   -3.250448
  F     -0.377928   -0.627558   -5.201141

 Total Charge           Charge          ....    0
 Multiplicity           Mult            ....    1
 Number of Electrons    NEL             ....   74
 Basis Dimension        Dim             ....  161

ORBITAL ENERGIES
----------------

  NO   OCC          E(Eh)            E(eV)
   0   2.0000     -89.223830     -2427.9038
   1   2.0000     -24.915968      -677.9980
   2   2.0000     -19.255327      -523.9641
   3   2.0000     -19.236850      -523.4613
   4   2.0000     -10.347911      -281.5810
   5   2.0000     -10.314489      -280.6715
   6   2.0000     -10.285458      -279.8815
   7   2.0000     -10.219561      -278.0884
   8   2.0000      -8.306602      -226.0341
   9   2.0000      -6.269812      -170.6103
  10   2.0000      -6.263310      -170.4333
  11   2.0000      -6.261735      -170.3905
  12   2.0000      -1.494831       -40.6764
  13   2.0000      -1.230968       -33.4963
  14   2.0000      -1.125656       -30.6307
  15   2.0000      -0.950004       -25.8509
  16   2.0000      -0.883698       -24.0467
  17   2.0000      -0.829921       -22.5833
  18   2.0000      -0.787851       -21.4385
  19   2.0000      -0.721172       -19.6241
  20   2.0000      -0.698062       -18.9952
  21   2.0000      -0.687706       -18.7134
  22   2.0000      -0.644908       -17.5488
  23   2.0000      -0.603795       -16.4301
  24   2.0000      -0.598427       -16.2840
  25   2.0000      -0.570906       -15.5352
  26   2.0000      -0.554013       -15.0755
  27   2.0000      -0.526347       -14.3226
  28   2.0000      -0.508108       -13.8263
  29   2.0000      -0.493619       -13.4321
  30   2.0000      -0.485740       -13.2177
  31   2.0000      -0.459945       -12.5157
  32   2.0000      -0.437882       -11.9154
  33   2.0000      -0.425346       -11.5743
  34   2.0000      -0.421221       -11.4620
  35   2.0000      -0.410809       -11.1787
  36   2.0000      -0.359963        -9.7951
  37   0.0000       0.108100         2.9416
  38   0.0000       0.134185         3.6513
  39   0.0000       0.147090         4.0025
  40   0.0000       0.162094         4.4108
  41   0.0000       0.174383         4.7452

MULLIKEN ATOMIC CHARGES
-----------------------
   0 C :   -0.114745
   1 C :    0.025529
   2 C :   -0.065795
   3 C :   -0.126080
   4 S :    0.961213
   5 H :    0.087025
   6 H :    0.113441
   7 H :   -0.004136
   8 H :    0.045205
   9 H :   -0.018027
  10 O :   -0.415187
  11 O :   -0.460098
  12 H :    0.017775
  13 H :    0.034158
  14 H :    0.039330
  15 H :    0.053009
  16 F :   -0.172617
Sum of atomic charges:    0.0000000

LOEWDIN ATOMIC CHARGES
----------------------
   0 C :   -0.051000
   1 C :   -0.070623
   2 C :   -0.054467
   3 C :   -0.146192
   4 S :    1.173065
   5 H :    0.039928
   6 H :    0.056143
   7 H :    0.011615
   8 H :   -0.029810
   9 H :    0.002070
  10 O :   -0.465827
  11 O :   -0.455973
  12 H :    0.011578
  13 H :    0.026472
  14 H :    0.026677
  15 H :    0.038979
  16 F :   -0.112634

  Mayer bond orders larger than 0.100000
B(  0-C ,  1-C ) :   1.0803 B(  0-C ,  2-C ) :   1.0766 B(  0-C , 12-H ) :   0.9433
B(  0-C , 13-H ) :   0.9542 B(  1-C ,  7-H ) :   0.9523 B(  1-C ,  8-H ) :   0.9161
B(  1-C ,  9-H ) :   0.9623 B(  2-C ,  3-C ) :   1.0262 B(  2-C , 14-H ) :   0.9560
B(  2-C , 15-H ) :   0.9453 B(  3-C ,  4-S ) :   0.9419 B(  3-C ,  5-H ) :   0.9402
B(  3-C ,  6-H ) :   0.9300 B(  4-S , 10-O ) :   1.8127 B(  4-S , 11-O ) :   1.6500
B(  4-S , 16-F ) :   1.0171 B(  8-H , 11-O ) :   0.1576

Dispersion correction           -0.006497316
FINAL SINGLE POINT ENERGY      -805.644281633481

DIPOLE MOMENT
-------------
                                X             Y             Z
Electronic contribution:     -8.71498      -5.97913      -9.98441
Nuclear contribution   :      9.83476       6.70164       9.41257
                        -----------------------------------------
Total Dipole Moment    :      1.11978       0.72251      -0.57184
                        -----------------------------------------
Magnitude (a.u.)       :      1.45015
Magnitude (Debye)      :      3.68598

Rotational constants in cm-1:     0.099832     0.045916     0.042219
Rotational constants in MHz :  2992.874960  1376.530174  1265.693813

                             ****ORCA TERMINATED NORMALLY****
TOTAL RUN TIME: 0 days 0 hours 0 minutes 9 seconds 982 msec
