                         Program Version 5.0.0 -  RELEASE  -
|  1> !wB97X-D3 RIJCOSX def2-SVP def2/J TightSCF
|  2> *xyz -1 1
|  3> C         -0.91495        0.61511        2.50554
|  4> C         -0.05915        1.50352        3.41058
|  5> H          0.36536        2.34431        2.86116
|  6> H         -0.69226        1.92021        4.19898
|  7> C          1.08303        0.74964        4.08571
|  8> O          2.22817        1.26348        4.01983
|  9> O          0.81003       -0.34541        4.63627
| 10> H         -0.30401        0.20228        1.73015
| 11> H         -1.69811        1.19946        2.06954
| 12> H         -1.34124       -0.17772        3.08397
| 13> *
| 14>
| 15> %MaxCore 64000
| 16>
| 17> %pal nprocs 4
| 18> end
| 19>
| 20> %scf
| 21>   MaxIter 150
| 22> end
| 23>
| 24>
| 25>                          ****END OF INPUT****

CARTESIAN COORDINATES (ANGSTROEM)
---------------------------------
  C     -0.914950    0.615110    2.505540
  C     -0.059150    1.503520    3.410580
  H      0.365360    2.344310    2.861160
  H     -0.692260    1.920210    4.198980
  C      1.083030    0.749640    4.085710
  O      2.228170    1.263480    4.019830
  O      0.810030   -0.345410    4.636270
  H     -0.304010    0.202280    1.730150
  H     -1.698110    1.199460    2.069540
  H     -1.341240   -0.177720    3.083970

 Total Charge           Charge          ....   -1
 Multiplicity           Mult            ....    1
 Number of Electrons    NEL             ....   40
 Basis Dimension        Dim             ....   95

ORBITAL ENERGIES
----------------

  NO   OCC          E(Eh)            E(eV)
   0   2.0000     -18.938875      -515.3530
   1   2.0000     -18.937051      -515.3033
   2   2.0000     -10.142425      -275.9894
   3   2.0000     -10.118212      -275.3305
   4   2.0000     -10.098126      -274.7840
   5   2.0000      -0.891848       -24.2684
   6   2.0000      -0.794791       -21.6274
   7   2.0000      -0.703012       -19.1299
   8   2.0000      -0.567167       -15.4334
   9   2.0000      -0.404683       -11.0120
  10   2.0000      -0.382790       -10.4163
  11   2.0000      -0.338690        -9.2162
  12   2.0000      -0.310586        -8.4515
  13   2.0000      -0.295062        -8.0290
  14   2.0000      -0.282210        -7.6793
  15   2.0000      -0.248989        -6.7753
  16   2.0000      -0.234227        -6.3736
  17   2.0000      -0.105958        -2.8833
  18   2.0000      -0.104028        -2.8307
  19   2.0000      -0.088988        -2.4215
  20   0.0000       0.300158         8.1677
  21   0.0000       0.351623         9.5682
  22   0.0000       0.362300         9.8587
  23   0.0000       0.369052        10.0424
  24   0.0000       0.374307        10.1854

MULLIKEN ATOMIC CHARGES
-----------------------
   0 C :   -0.013111
   1 C :   -0.045619
   2 H :   -0.034412
   3 H :   -0.021777
   4 C :    0.050904
   5 O :   -0.450613
   6 O :   -0.455439
   7 H :   -0.000999
   8 H :   -0.038117
   9 H :    0.009184
Sum of atomic charges:   -1.0000000

LOEWDIN ATOMIC CHARGES
----------------------
   0 C :   -0.065307
   1 C :   -0.096352
   2 H :   -0.001247
   3 H :    0.006992
   4 C :   -0.044583
   5 O :   -0.406774
   6 O :   -0.410240
   7 H :    0.011207
   8 H :   -0.006727
   9 H :    0.013031

  Mayer bond orders larger than 0.100000
B(  0-C ,  1-C ) :   1.0758 B(  0-C ,  7-H ) :   0.9776 B(  0-C ,  8-H ) :   0.9685
B(  0-C ,  9-H ) :   0.9655 B(  1-C ,  2-H ) :   0.9477 B(  1-C ,  3-H ) :   0.9434
B(  1-C ,  4-C ) :   0.9176 B(  4-C ,  5-O ) :   1.8667 B(  4-C ,  6-O ) :   1.8331
B(  5-O ,  6-O ) :   0.1085

Dispersion correction           -0.001940068
FINAL SINGLE POINT ENERGY      -267.544278585994

DIPOLE MOMENT
-------------
                                X             Y             Z
Electronic contribution:      4.85943      -1.06652       3.44103
Nuclear contribution   :     -6.38408       1.63097      -4.40540
                        -----------------------------------------
Total Dipole Moment    :     -1.52465       0.56445      -0.96437
                        -----------------------------------------
Magnitude (a.u.)       :      1.89028
Magnitude (Debye)      :      4.80471

Rotational constants in cm-1:     0.319732     0.134414     0.104753
Rotational constants in MHz :  9585.336550  4029.633034  3140.404334

                             ****ORCA TERMINATED NORMALLY****
TOTAL RUN TIME: 0 days 0 hours 0 minutes 14 seconds 951 msec
