                         Program Version 5.0.0 -  RELEASE  -
|  1> !wB97X-D3 RIJCOSX def2-SVP def2/J TightSCF
|  2> *xyz 1 1
|  3> C          4.60295       -2.44010        2.63478
|  4> C          3.86085       -1.59157        3.62289
|  5> N          2.75650       -2.04616        4.16633
|  6> N          4.25433       -0.36291        3.86046
|  7> H          3.56526        0.31099        4.16898
|  8> H          5.05429       -0.01606        3.33784
|  9> H          2.43970       -2.97389        3.89740
| 10> H          2.06687       -1.41253        4.54981
| 11> C          3.74469       -2.58056        1.36188
| 12> H          5.56156       -1.97135        2.40708
| 13> H          4.81050       -3.42255        3.06310
| 14> H          4.26314       -3.18477        0.64702
| 15> H          3.56325       -1.61180        0.94535
| 16> H          2.81197       -3.04259        1.60980
| 17> *
| 18>
| 19> %MaxCore 64000
| 20>
| 21> %pal nprocs 4
| 22> end
| 23>
| 24> %scf
| 25>   MaxIter 150
| 26> end
| 27>
| 28>
| 29>                          ****END OF INPUT****

CARTESIAN COORDINATES (ANGSTROEM)
---------------------------------
  C      4.602950   -2.440100    2.634780
  C      3.860850   -1.591570    3.622890
  N      2.756500   -2.046160    4.166330
  N      4.254330   -0.362910    3.860460
  H      3.565260    0.310990    4.168980
  H      5.054290   -0.016060    3.337840
  H      2.439700   -2.973890    3.897400
  H      2.066870   -1.412530    4.549810
  C      3.744690   -2.580560    1.361880
  H      5.561560   -1.971350    2.407080
  H      4.810500   -3.422550    3.063100
  H      4.263140   -3.184770    0.647020
  H      3.563250   -1.611800    0.945350
  H      2.811970   -3.042590    1.609800

 Total Charge           Charge          ....    1
 Multiplicity           Mult            ....    1
 Number of Electrons    NEL             ....   40
 Basis Dimension        Dim             ....  115

ORBITAL ENERGIES
----------------

  NO   OCC          E(Eh)            E(eV)
   0   2.0000     -14.683464      -399.5574
   1   2.0000     -14.683052      -399.5462
   2   2.0000     -10.615180      -288.8537
   3   2.0000     -10.491376      -285.4848
   4   2.0000     -10.451784      -284.4075
   5   2.0000      -1.320911       -35.9438
   6   2.0000      -1.219282       -33.1783
   7   2.0000      -1.084148       -29.5012
   8   2.0000      -0.968370       -26.3507
   9   2.0000      -0.923865       -25.1397
  10   2.0000      -0.878198       -23.8970
  11   2.0000      -0.857153       -23.3243
  12   2.0000      -0.799011       -21.7422
  13   2.0000      -0.768945       -20.9240
  14   2.0000      -0.727269       -19.7900
  15   2.0000      -0.702623       -19.1193
  16   2.0000      -0.646372       -17.5887
  17   2.0000      -0.640167       -17.4198
  18   2.0000      -0.627102       -17.0643
  19   2.0000      -0.590042       -16.0558
  20   0.0000      -0.128691        -3.5019
  21   0.0000      -0.057297        -1.5591
  22   0.0000      -0.011276        -0.3068
  23   0.0000      -0.009956        -0.2709
  24   0.0000       0.019047         0.5183

MULLIKEN ATOMIC CHARGES
-----------------------
   0 C :   -0.044016
   1 C :   -0.047876
   2 N :   -0.021293
   3 N :   -0.016219
   4 H :    0.185028
   5 H :    0.196197
   6 H :    0.194514
   7 H :    0.187031
   8 C :   -0.033627
   9 H :    0.078365
  10 H :    0.110425
  11 H :    0.100526
  12 H :    0.061887
  13 H :    0.049059
Sum of atomic charges:    1.0000000

LOEWDIN ATOMIC CHARGES
----------------------
   0 C :   -0.034813
   1 C :    0.157954
   2 N :    0.091118
   3 N :    0.092183
   4 H :    0.114752
   5 H :    0.122953
   6 H :    0.121488
   7 H :    0.115410
   8 C :   -0.023989
   9 H :    0.054249
  10 H :    0.065514
  11 H :    0.055977
  12 H :    0.037909
  13 H :    0.029295

  Mayer bond orders larger than 0.100000
B(  0-C ,  1-C ) :   1.0212 B(  0-C ,  8-C ) :   1.0496 B(  0-C ,  9-H ) :   0.9311
B(  0-C , 10-H ) :   0.9264 B(  1-C ,  2-N ) :   1.5026 B(  1-C ,  3-N ) :   1.5113
B(  2-N ,  6-H ) :   0.9230 B(  2-N ,  7-H ) :   0.9298 B(  3-N ,  4-H ) :   0.9295
B(  3-N ,  5-H ) :   0.9191 B(  8-C , 11-H ) :   0.9654 B(  8-C , 12-H ) :   0.9698
B(  8-C , 13-H ) :   0.9763

Dispersion correction           -0.003043751
FINAL SINGLE POINT ENERGY      -228.802056822387

DIPOLE MOMENT
-------------
                                X             Y             Z
Electronic contribution:     -0.26424       1.82472       3.74955
Nuclear contribution   :     -0.22400      -1.16268      -3.30447
                        -----------------------------------------
Total Dipole Moment    :     -0.48825       0.66204       0.44508
                        -----------------------------------------
Magnitude (a.u.)       :      0.93530
Magnitude (Debye)      :      2.37734

Rotational constants in cm-1:     0.258103     0.130571     0.102508
Rotational constants in MHz :  7737.732062  3914.431392  3073.119154

                             ****ORCA TERMINATED NORMALLY****
TOTAL RUN TIME: 0 days 0 hours 0 minutes 18 seconds 775 msec
