                         Program Version 5.0.0 -  RELEASE  -
|  1> !wB97X-D3 RIJCOSX def2-SVP def2/J TightSCF
|  2> *xyz 0 1
|  3> C         -0.91495        0.61511        2.50554
|  4> C         -0.05915        1.50352        3.41058
|  5> H          0.36536        2.34431        2.86116
|  6> H         -0.69226        1.92021        4.19898
|  7> C          1.08303        0.74964        4.08571
|  8> F          2.22817        1.26348        4.01983
|  9> O          0.81003       -0.34541        4.63627
| 10> H         -0.30401        0.20228        1.73015
| 11> H         -1.69811        1.19946        2.06954
| 12> H         -1.34124       -0.17772        3.08397
| 13> *
| 14>
| 15> %MaxCore 64000
| 16>
| 17> %pal nprocs 4
| 18> end
| 19>
| 20> %scf
| 21>   MaxIter 150
| 22> end
| 23>
| 24>
| 25>                          ****END OF INPUT****

CARTESIAN COORDINATES (ANGSTROEM)
---------------------------------
  C     -0.914950    0.615110    2.505540
  C     -0.059150    1.503520    3.410580
  H      0.365360    2.344310    2.861160
  H     -0.692260    1.920210    4.198980
  C      1.083030    0.749640    4.085710
  F      2.228170    1.263480    4.019830
  O      0.810030   -0.345410    4.636270
  H     -0.304010    0.202280    1.730150
  H     -1.698110    1.199460    2.069540
  H     -1.341240   -0.177720    3.083970

 Total Charge           Charge          ....    0
 Multiplicity           Mult            ....    1
 Number of Electrons    NEL             ....   40
 Basis Dimension        Dim             ....   95

ORBITAL ENERGIES
----------------

  NO   OCC          E(Eh)            E(eV)
   0   2.0000     -24.858003      -676.4206
   1   2.0000     -19.240671      -523.5653
   2   2.0000     -10.462862      -284.7090
   3   2.0000     -10.318017      -280.7675
   4   2.0000     -10.292416      -280.0709
   5   2.0000      -1.413203       -38.4552
   6   2.0000      -1.132576       -30.8190
   7   2.0000      -0.909100       -24.7379
   8   2.0000      -0.793446       -21.5908
   9   2.0000      -0.738264       -20.0892
  10   2.0000      -0.649544       -17.6750
  11   2.0000      -0.634928       -17.2773
  12   2.0000      -0.604914       -16.4605
  13   2.0000      -0.564507       -15.3610
  14   2.0000      -0.529401       -14.4057
  15   2.0000      -0.492717       -13.4075
  16   2.0000      -0.471231       -12.8228
  17   2.0000      -0.468227       -12.7411
  18   2.0000      -0.437690       -11.9102
  19   2.0000      -0.384132       -10.4528
  20   0.0000       0.064053         1.7430
  21   0.0000       0.147930         4.0254
  22   0.0000       0.191586         5.2133
  23   0.0000       0.197868         5.3843
  24   0.0000       0.215265         5.8577

MULLIKEN ATOMIC CHARGES
-----------------------
   0 C :   -0.030001
   1 C :   -0.134319
   2 H :    0.044776
   3 H :    0.077971
   4 C :    0.263416
   5 F :   -0.083988
   6 O :   -0.273553
   7 H :    0.038398
   8 H :    0.038535
   9 H :    0.058764
Sum of atomic charges:    0.0000000

LOEWDIN ATOMIC CHARGES
----------------------
   0 C :   -0.040589
   1 C :   -0.078567
   2 H :    0.029777
   3 H :    0.052970
   4 C :    0.114020
   5 F :    0.038544
   6 O :   -0.205850
   7 H :    0.027426
   8 H :    0.028699
   9 H :    0.033569

  Mayer bond orders larger than 0.100000
B(  0-C ,  1-C ) :   1.0791 B(  0-C ,  7-H ) :   0.9809 B(  0-C ,  8-H ) :   0.9725
B(  0-C ,  9-H ) :   0.9712 B(  1-C ,  2-H ) :   0.9474 B(  1-C ,  3-H ) :   0.9334
B(  1-C ,  4-C ) :   0.9897 B(  4-C ,  5-F ) :   1.1933 B(  4-C ,  6-O ) :   2.0676

Dispersion correction           -0.001903263
FINAL SINGLE POINT ENERGY      -292.097635604001

DIPOLE MOMENT
-------------
                                X             Y             Z
Electronic contribution:      7.76286      -0.19501       4.13023
Nuclear contribution   :     -8.12386       1.06915      -4.71960
                        -----------------------------------------
Total Dipole Moment    :     -0.36100       0.87414      -0.58936
                        -----------------------------------------
Magnitude (a.u.)       :      1.11436
Magnitude (Debye)      :      2.83247

Rotational constants in cm-1:     0.309513     0.127560     0.099675
Rotational constants in MHz :  9278.979128  3824.146597  2988.174827

                             ****ORCA TERMINATED NORMALLY****
TOTAL RUN TIME: 0 days 0 hours 0 minutes 16 seconds 280 msec
