                         Program Version 5.0.0 -  RELEASE  -
|  1> !wB97X-D3 RIJCOSX def2-SVP def2/J TightSCF
|  2> *xyz 0 1
|  3> C          4.60295       -2.44010        2.63478
|  4> C          3.86085       -1.59157        3.62289
|  5> C          2.75650       -2.04616        4.16633
|  6> N          4.25433       -0.36291        3.86046
|  7> H          3.56526        0.31099        4.16898
|  8> H          5.05429       -0.01606        3.33784
|  9> H          2.43970       -2.97389        3.89740
| 10> H          2.06687       -1.41253        4.54981
| 11> C          3.74469       -2.58056        1.36188
| 12> H          5.56156       -1.97135        2.40708
| 13> H          4.81050       -3.42255        3.06310
| 14> H          4.26314       -3.18477        0.64702
| 15> H          3.56325       -1.61180        0.94535
| 16> H          2.81197       -3.04259        1.60980
| 17> *
| 18>
| 19> %MaxCore 64000
| 20>
| 21> %pal nprocs 4
| 22> end
| 23>
| 24> %scf
| 25>   MaxIter 150
| 26> end
| 27>
| 28>
| 29>                          ****END OF INPUT****

CARTESIAN COORDINATES (ANGSTROEM)
---------------------------------
  C      4.602950   -2.440100    2.634780
  C      3.860850   -1.591570    3.622890
  C      2.756500   -2.046160    4.166330
  N      4.254330   -0.362910    3.860460
  H      3.565260    0.310990    4.168980
  H      5.054290   -0.016060    3.337840
  H      2.439700   -2.973890    3.897400
  H      2.066870   -1.412530    4.549810
  C      3.744690   -2.580560    1.361880
  H      5.561560   -1.971350    2.407080
  H      4.810500   -3.422550    3.063100
  H      4.263140   -3.184770    0.647020
  H      3.563250   -1.611800    0.945350
  H      2.811970   -3.042590    1.609800

 Total Charge           Charge          ....    0
 Multiplicity           Mult            ....    1
 Number of Electrons    NEL             ....   40
 Basis Dimension        Dim             ....  115

ORBITAL ENERGIES
----------------

  NO   OCC          E(Eh)            E(eV)
   0   2.0000     -14.430409      -392.6714
   1   2.0000     -10.302772      -280.3527
   2   2.0000     -10.289126      -279.9813
   3   2.0000     -10.274593      -279.5859
   4   2.0000     -10.212784      -277.9040
   5   2.0000      -1.036586       -28.2069
   6   2.0000      -0.889387       -24.2015
   7   2.0000      -0.815605       -22.1937
   8   2.0000      -0.743829       -20.2406
   9   2.0000      -0.661006       -17.9869
  10   2.0000      -0.621676       -16.9167
  11   2.0000      -0.580479       -15.7956
  12   2.0000      -0.546694       -14.8763
  13   2.0000      -0.508378       -13.8337
  14   2.0000      -0.482823       -13.1383
  15   2.0000      -0.471437       -12.8285
  16   2.0000      -0.445855       -12.1323
  17   2.0000      -0.434384       -11.8202
  18   2.0000      -0.419844       -11.4245
  19   2.0000      -0.271161        -7.3787
  20   0.0000       0.133999         3.6463
  21   0.0000       0.137837         3.7507
  22   0.0000       0.182761         4.9732
  23   0.0000       0.189663         5.1610
  24   0.0000       0.206824         5.6280

MULLIKEN ATOMIC CHARGES
-----------------------
   0 C :    0.008988
   1 C :   -0.145378
   2 C :   -0.077953
   3 N :   -0.099197
   4 H :    0.127010
   5 H :    0.116282
   6 H :   -0.021489
   7 H :   -0.030853
   8 C :   -0.009235
   9 H :    0.004839
  10 H :    0.045674
  11 H :    0.025759
  12 H :    0.022700
  13 H :    0.032852
Sum of atomic charges:   -0.0000000

LOEWDIN ATOMIC CHARGES
----------------------
   0 C :   -0.032575
   1 C :    0.004916
   2 C :   -0.181929
   3 N :   -0.011294
   4 H :    0.079170
   5 H :    0.069835
   6 H :   -0.001407
   7 H :   -0.005292
   8 C :   -0.042290
   9 H :    0.017251
  10 H :    0.037260
  11 H :    0.019892
  12 H :    0.021699
  13 H :    0.024765

  Mayer bond orders larger than 0.100000
B(  0-C ,  1-C ) :   1.0022 B(  0-C ,  8-C ) :   1.0828 B(  0-C ,  9-H ) :   0.9445
B(  0-C , 10-H ) :   0.9430 B(  1-C ,  2-C ) :   1.8656 B(  1-C ,  3-N ) :   1.2545
B(  2-C ,  6-H ) :   0.9554 B(  2-C ,  7-H ) :   0.9678 B(  3-N ,  4-H ) :   0.9512
B(  3-N ,  5-H ) :   0.9518 B(  8-C , 11-H ) :   0.9727 B(  8-C , 12-H ) :   0.9719
B(  8-C , 13-H ) :   0.9774

Dispersion correction           -0.003025704
FINAL SINGLE POINT ENERGY      -212.340794248136

DIPOLE MOMENT
-------------
                                X             Y             Z
Electronic contribution:      0.84208       1.82687       2.53624
Nuclear contribution   :     -0.47010      -1.22282      -3.06417
                        -----------------------------------------
Total Dipole Moment    :      0.37198       0.60405      -0.52793
                        -----------------------------------------
Magnitude (a.u.)       :      0.88428
Magnitude (Debye)      :      2.24766

Rotational constants in cm-1:     0.271862     0.131962     0.105499
Rotational constants in MHz :  8150.219120  3956.123671  3162.785522

                             ****ORCA TERMINATED NORMALLY****
TOTAL RUN TIME: 0 days 0 hours 0 minutes 20 seconds 438 msec
