                         Program Version 5.0.0 -  RELEASE  -
|  1> !wB97X-D3 RIJCOSX def2-SVP def2/J TightSCF
|  2> *xyz 0 1
|  3> C         -0.91495        0.61511        2.50554
|  4> C         -0.05915        1.50352        3.41058
|  5> H          0.36536        2.34431        2.86116
|  6> H         -0.69226        1.92021        4.19898
|  7> C          1.08303        0.74964        4.08571
|  8> O          2.22817        1.26348        4.01983
|  9> F          0.81003       -0.34541        4.63627
| 10> H         -0.30401        0.20228        1.73015
| 11> H         -1.69811        1.19946        2.06954
| 12> H         -1.34124       -0.17772        3.08397
| 13> *
| 14>
| 15> %MaxCore 64000
| 16>
| 17> %pal nprocs 4
| 18> end
| 19>
| 20> %scf
| 21>   MaxIter 150
| 22> end
| 23>
| 24>
| 25>                          ****END OF INPUT****

CARTESIAN COORDINATES (ANGSTROEM)
---------------------------------
  C     -0.914950    0.615110    2.505540
  C     -0.059150    1.503520    3.410580
  H      0.365360    2.344310    2.861160
  H     -0.692260    1.920210    4.198980
  C      1.083030    0.749640    4.085710
  O      2.228170    1.263480    4.019830
  F      0.810030   -0.345410    4.636270
  H     -0.304010    0.202280    1.730150
  H     -1.698110    1.199460    2.069540
  H     -1.341240   -0.177720    3.083970

 Total Charge           Charge          ....    0
 Multiplicity           Mult            ....    1
 Number of Electrons    NEL             ....   40
 Basis Dimension        Dim             ....   95

ORBITAL ENERGIES
----------------

  NO   OCC          E(Eh)            E(eV)
   0   2.0000     -24.859908      -676.4725
   1   2.0000     -19.238941      -523.5182
   2   2.0000     -10.461878      -284.6822
   3   2.0000     -10.317113      -280.7429
   4   2.0000     -10.297775      -280.2167
   5   2.0000      -1.415144       -38.5080
   6   2.0000      -1.130079       -30.7510
   7   2.0000      -0.913443       -24.8560
   8   2.0000      -0.789116       -21.4729
   9   2.0000      -0.745436       -20.2843
  10   2.0000      -0.652604       -17.7583
  11   2.0000      -0.641951       -17.4684
  12   2.0000      -0.595408       -16.2019
  13   2.0000      -0.564824       -15.3696
  14   2.0000      -0.531409       -14.4604
  15   2.0000      -0.497357       -13.5338
  16   2.0000      -0.478065       -13.0088
  17   2.0000      -0.471714       -12.8360
  18   2.0000      -0.438689       -11.9373
  19   2.0000      -0.378504       -10.2996
  20   0.0000       0.067240         1.8297
  21   0.0000       0.142950         3.8899
  22   0.0000       0.189367         5.1529
  23   0.0000       0.198938         5.4134
  24   0.0000       0.216720         5.8972

MULLIKEN ATOMIC CHARGES
-----------------------
   0 C :   -0.054137
   1 C :   -0.126428
   2 H :    0.071152
   3 H :    0.067094
   4 C :    0.260814
   5 O :   -0.268689
   6 F :   -0.085631
   7 H :    0.046560
   8 H :    0.045358
   9 H :    0.043906
Sum of atomic charges:    0.0000000

LOEWDIN ATOMIC CHARGES
----------------------
   0 C :   -0.051774
   1 C :   -0.073915
   2 H :    0.046522
   3 H :    0.045326
   4 C :    0.112052
   5 O :   -0.203587
   6 F :    0.038928
   7 H :    0.028621
   8 H :    0.031592
   9 H :    0.026236

  Mayer bond orders larger than 0.100000
B(  0-C ,  1-C ) :   1.0596 B(  0-C ,  7-H ) :   0.9801 B(  0-C ,  8-H ) :   0.9720
B(  0-C ,  9-H ) :   0.9746 B(  1-C ,  2-H ) :   0.9555 B(  1-C ,  3-H ) :   0.9360
B(  1-C ,  4-C ) :   0.9985 B(  4-C ,  5-O ) :   2.0844 B(  4-C ,  6-F ) :   1.1827

Dispersion correction           -0.001900834
FINAL SINGLE POINT ENERGY      -292.096323233404

DIPOLE MOMENT
-------------
                                X             Y             Z
Electronic contribution:      5.40319      -2.85447       5.13520
Nuclear contribution   :     -6.57765       2.82334      -5.39171
                        -----------------------------------------
Total Dipole Moment    :     -1.17446      -0.03114      -0.25650
                        -----------------------------------------
Magnitude (a.u.)       :      1.20254
Magnitude (Debye)      :      3.05662

Rotational constants in cm-1:     0.294245     0.132994     0.101060
Rotational constants in MHz :  8821.228602  3987.049251  3029.696815

                             ****ORCA TERMINATED NORMALLY****
TOTAL RUN TIME: 0 days 0 hours 0 minutes 12 seconds 598 msec
