                         Program Version 5.0.0 -  RELEASE  -
|  1> !wB97X-D3 RIJCOSX def2-SVP def2/J TightSCF
|  2> *xyz 0 1
|  3> C          4.60295       -2.44010        2.63478
|  4> C          3.86085       -1.59157        3.62289
|  5> N          2.75650       -2.04616        4.16633
|  6> C          4.25433       -0.36291        3.86046
|  7> H          3.56526        0.31099        4.16898
|  8> H          5.05429       -0.01606        3.33784
|  9> H          2.43970       -2.97389        3.89740
| 10> H          2.06687       -1.41253        4.54981
| 11> C          3.74469       -2.58056        1.36188
| 12> H          5.56156       -1.97135        2.40708
| 13> H          4.81050       -3.42255        3.06310
| 14> H          4.26314       -3.18477        0.64702
| 15> H          3.56325       -1.61180        0.94535
| 16> H          2.81197       -3.04259        1.60980
| 17> *
| 18>
| 19> %MaxCore 64000
| 20>
| 21> %pal nprocs 4
| 22> end
| 23>
| 24> %scf
| 25>   MaxIter 150
| 26> end
| 27>
| 28>
| 29>                          ****END OF INPUT****

CARTESIAN COORDINATES (ANGSTROEM)
---------------------------------
  C      4.602950   -2.440100    2.634780
  C      3.860850   -1.591570    3.622890
  N      2.756500   -2.046160    4.166330
  C      4.254330   -0.362910    3.860460
  H      3.565260    0.310990    4.168980
  H      5.054290   -0.016060    3.337840
  H      2.439700   -2.973890    3.897400
  H      2.066870   -1.412530    4.549810
  C      3.744690   -2.580560    1.361880
  H      5.561560   -1.971350    2.407080
  H      4.810500   -3.422550    3.063100
  H      4.263140   -3.184770    0.647020
  H      3.563250   -1.611800    0.945350
  H      2.811970   -3.042590    1.609800

 Total Charge           Charge          ....    0
 Multiplicity           Mult            ....    1
 Number of Electrons    NEL             ....   40
 Basis Dimension        Dim             ....  115

ORBITAL ENERGIES
----------------

  NO   OCC          E(Eh)            E(eV)
   0   2.0000     -14.431251      -392.6943
   1   2.0000     -10.303899      -280.3833
   2   2.0000     -10.288652      -279.9685
   3   2.0000     -10.278865      -279.7021
   4   2.0000     -10.214159      -277.9414
   5   2.0000      -1.036746       -28.2113
   6   2.0000      -0.887602       -24.1529
   7   2.0000      -0.824079       -22.4243
   8   2.0000      -0.739059       -20.1108
   9   2.0000      -0.668495       -18.1907
  10   2.0000      -0.623480       -16.9657
  11   2.0000      -0.575907       -15.6712
  12   2.0000      -0.536991       -14.6123
  13   2.0000      -0.526411       -14.3244
  14   2.0000      -0.481415       -13.1000
  15   2.0000      -0.474981       -12.9249
  16   2.0000      -0.449819       -12.2402
  17   2.0000      -0.432167       -11.7599
  18   2.0000      -0.416288       -11.3278
  19   2.0000      -0.273852        -7.4519
  20   0.0000       0.132729         3.6117
  21   0.0000       0.138398         3.7660
  22   0.0000       0.185732         5.0540
  23   0.0000       0.189368         5.1530
  24   0.0000       0.202252         5.5036

MULLIKEN ATOMIC CHARGES
-----------------------
   0 C :    0.009283
   1 C :   -0.141727
   2 N :   -0.100542
   3 C :   -0.069333
   4 H :   -0.032048
   5 H :   -0.024201
   6 H :    0.116587
   7 H :    0.128122
   8 C :   -0.012531
   9 H :    0.029366
  10 H :    0.024623
  11 H :    0.032925
  12 H :    0.030467
  13 H :    0.009008
Sum of atomic charges:    0.0000000

LOEWDIN ATOMIC CHARGES
----------------------
   0 C :   -0.030797
   1 C :    0.006917
   2 N :   -0.010923
   3 C :   -0.182885
   4 H :   -0.005398
   5 H :   -0.000575
   6 H :    0.069649
   7 H :    0.079517
   8 C :   -0.047570
   9 H :    0.035032
  10 H :    0.022212
  11 H :    0.024019
  12 H :    0.026692
  13 H :    0.014112

  Mayer bond orders larger than 0.100000
B(  0-C ,  1-C ) :   1.0243 B(  0-C ,  8-C ) :   1.0749 B(  0-C ,  9-H ) :   0.9404
B(  0-C , 10-H ) :   0.9404 B(  1-C ,  2-N ) :   1.2515 B(  1-C ,  3-C ) :   1.8693
B(  2-N ,  6-H ) :   0.9558 B(  2-N ,  7-H ) :   0.9510 B(  3-C ,  4-H ) :   0.9668
B(  3-C ,  5-H ) :   0.9493 B(  8-C , 11-H ) :   0.9740 B(  8-C , 12-H ) :   0.9715
B(  8-C , 13-H ) :   0.9748

Dispersion correction           -0.003043251
FINAL SINGLE POINT ENERGY      -212.341614955499

DIPOLE MOMENT
-------------
                                X             Y             Z
Electronic contribution:     -0.53971       0.27441       2.83616
Nuclear contribution   :     -0.12319      -0.83296      -3.13501
                        -----------------------------------------
Total Dipole Moment    :     -0.66290      -0.55855      -0.29885
                        -----------------------------------------
Magnitude (a.u.)       :      0.91691
Magnitude (Debye)      :      2.33060

Rotational constants in cm-1:     0.266453     0.134423     0.106086
Rotational constants in MHz :  7988.053142  4029.892766  3180.375228

                             ****ORCA TERMINATED NORMALLY****
TOTAL RUN TIME: 0 days 0 hours 0 minutes 19 seconds 726 msec
