                         Program Version 5.0.0 -  RELEASE  -
|  1> !wB97X-D3 RIJCOSX def2-SVP def2/J TightSCF xyzfile
|  2>
|  3> *xyzfile 0 1 D3.xyz
|  4>
|  5> %MaxCore 64000
|  6>
|  7> %pal nprocs 18
|  8> end
|  9>
| 10> %scf
| 11>   MaxIter 150
| 12> end
| 13>
| 14>
| 15>                          ****END OF INPUT****

CARTESIAN COORDINATES (ANGSTROEM)
---------------------------------
  C      4.602954   -2.440100    2.634780
  C     -0.914947    0.615112    2.505538
  C     -0.059146    1.503524    3.410578
  H      0.365364    2.344315    2.861161
  H     -0.692261    1.920207    4.198985
  C      1.083027    0.749640    4.085705
  C      3.860851   -1.591565    3.622893
  C      2.756502   -2.046159    4.166333
  N      4.254325   -0.362905    3.860455
  H      3.565256    0.310994    4.168983
  H      5.054292   -0.016059    3.337838
  H      2.439696   -2.973894    3.897395
  H      2.066869   -1.412532    4.549813
  O      2.228167    1.263475    4.019826
  F      0.810034   -0.345411    4.636269
  C      3.744685   -2.580557    1.361882
  C      0.772139    0.636882    0.562129
  C     -0.130740   -0.193985    1.470763
  H     -0.840563   -0.760165    0.856377
  H      0.466691   -0.938942    2.006959
  H     -1.647961    1.245963    1.991076
  H     -1.478180   -0.081046    3.130424
  C      3.203721   -1.256004    0.826211
  H      2.898939   -3.239289    1.583074
  H      4.334962   -3.095523    0.600188
  C      2.107815   -1.442385   -0.216865
  H      2.786775   -0.672760    1.650711
  H      4.021008   -0.652993    0.414046
  C      1.390662   -0.145912   -0.602422
  H      1.372179   -2.152184    0.176151
  H      2.523302   -1.906787   -1.117115
  H      1.561361    1.100094    1.161831
  H      0.195516    1.468325    0.142758
  H      0.602893   -0.398214   -1.319716
  H      2.087247    0.508272   -1.137335
  H      5.561557   -1.971347    2.407084
  H      4.810498   -3.422552    3.063099

 Total Charge           Charge          ....    0
 Multiplicity           Mult            ....    1
 Number of Electrons    NEL             ....  118
 Basis Dimension        Dim             ....  320

ORBITAL ENERGIES
----------------

  NO   OCC          E(Eh)            E(eV)
   0   2.0000     -24.880204      -677.0248
   1   2.0000     -19.268931      -524.3343
   2   2.0000     -14.392659      -391.6442
   3   2.0000     -10.489725      -285.4399
   4   2.0000     -10.327149      -281.0160
   5   2.0000     -10.310460      -280.5619
   6   2.0000     -10.294457      -280.1264
   7   2.0000     -10.288069      -279.9526
   8   2.0000     -10.284349      -279.8514
   9   2.0000     -10.283541      -279.8294
  10   2.0000     -10.277422      -279.6629
  11   2.0000     -10.275378      -279.6072
  12   2.0000     -10.273793      -279.5641
  13   2.0000     -10.271596      -279.5043
  14   2.0000     -10.188306      -277.2379
  15   2.0000      -1.439452       -39.1695
  16   2.0000      -1.164249       -31.6808
  17   2.0000      -1.010369       -27.4935
  18   2.0000      -0.947164       -25.7736
  19   2.0000      -0.917145       -24.9568
  20   2.0000      -0.889317       -24.1995
  21   2.0000      -0.852941       -23.2097
  22   2.0000      -0.819084       -22.2884
  23   2.0000      -0.799956       -21.7679
  24   2.0000      -0.774972       -21.0881
  25   2.0000      -0.755045       -20.5458
  26   2.0000      -0.719829       -19.5876
  27   2.0000      -0.693852       -18.8807
  28   2.0000      -0.675054       -18.3691
  29   2.0000      -0.671272       -18.2662
  30   2.0000      -0.657528       -17.8922
  31   2.0000      -0.643194       -17.5022
  32   2.0000      -0.619478       -16.8568
  33   2.0000      -0.592845       -16.1321
  34   2.0000      -0.586901       -15.9704
  35   2.0000      -0.580216       -15.7885
  36   2.0000      -0.566254       -15.4086
  37   2.0000      -0.548019       -14.9123
  38   2.0000      -0.544084       -14.8053
  39   2.0000      -0.529438       -14.4067
  40   2.0000      -0.522524       -14.2186
  41   2.0000      -0.507737       -13.8162
  42   2.0000      -0.505177       -13.7466
  43   2.0000      -0.487794       -13.2735
  44   2.0000      -0.481548       -13.1036
  45   2.0000      -0.471924       -12.8417
  46   2.0000      -0.465219       -12.6593
  47   2.0000      -0.459371       -12.5001
  48   2.0000      -0.446454       -12.1486
  49   2.0000      -0.436765       -11.8850
  50   2.0000      -0.432563       -11.7706
  51   2.0000      -0.427057       -11.6208
  52   2.0000      -0.415141       -11.2966
  53   2.0000      -0.410934       -11.1821
  54   2.0000      -0.403497       -10.9797
  55   2.0000      -0.400388       -10.8951
  56   2.0000      -0.392362       -10.6767
  57   2.0000      -0.383301       -10.4301
  58   2.0000      -0.250136        -6.8065
  59   0.0000       0.041533         1.1302
  60   0.0000       0.126138         3.4324
  61   0.0000       0.146552         3.9879
  62   0.0000       0.149011         4.0548
  63   0.0000       0.156491         4.2583

MULLIKEN ATOMIC CHARGES
-----------------------
   0 C :    0.112782
   1 C :   -0.042944
   2 C :   -0.052838
   3 H :    0.072971
   4 H :    0.073399
   5 C :    0.303025
   6 C :   -0.170764
   7 C :   -0.110073
   8 N :   -0.093059
   9 H :    0.120197
  10 H :    0.103775
  11 H :   -0.040372
  12 H :   -0.023927
  13 O :   -0.282796
  14 F :   -0.061938
  15 C :   -0.036547
  16 C :   -0.070191
  17 C :   -0.074473
  18 H :    0.031351
  19 H :    0.032699
  20 H :    0.039922
  21 H :    0.041592
  22 C :   -0.043732
  23 H :    0.016286
  24 H :    0.015439
  25 C :   -0.044771
  26 H :    0.012929
  27 H :    0.007670
  28 C :    0.012274
  29 H :    0.015334
  30 H :    0.019000
  31 H :    0.035212
  32 H :    0.016922
  33 H :    0.018004
  34 H :    0.018991
  35 H :   -0.005896
  36 H :    0.034548
Sum of atomic charges:    0.0000000

LOEWDIN ATOMIC CHARGES
----------------------
   0 C :   -0.029138
   1 C :   -0.036350
   2 C :   -0.062100
   3 H :    0.047354
   4 H :    0.052068
   5 C :    0.152625
   6 C :    0.007523
   7 C :   -0.218475
   8 N :   -0.013462
   9 H :    0.031451
  10 H :    0.061905
  11 H :   -0.007952
  12 H :   -0.029265
  13 O :   -0.165689
  14 F :    0.085492
  15 C :   -0.026711
  16 C :   -0.046352
  17 C :   -0.047031
  18 H :    0.028871
  19 H :    0.020748
  20 H :    0.031324
  21 H :    0.028652
  22 C :   -0.043057
  23 H :    0.020569
  24 H :    0.018104
  25 C :   -0.040105
  26 H :    0.017295
  27 H :    0.018197
  28 C :   -0.035982
  29 H :    0.018317
  30 H :    0.022514
  31 H :    0.019708
  32 H :    0.022021
  33 H :    0.021683
  34 H :    0.023381
  35 H :    0.015720
  36 H :    0.036148

  Mayer bond orders larger than 0.100000
B(  0-C ,  6-C ) :   1.0078 B(  0-C , 15-C ) :   1.0788 B(  0-C , 35-H ) :   0.9320
B(  0-C , 36-H ) :   0.9344 B(  1-C ,  2-C ) :   1.0460 B(  1-C , 17-C ) :   1.0848
B(  1-C , 20-H ) :   0.9481 B(  1-C , 21-H ) :   0.9509 B(  2-C ,  3-H ) :   0.9443
B(  2-C ,  4-H ) :   0.9266 B(  2-C ,  5-C ) :   0.9994 B(  5-C , 13-O ) :   1.9375
B(  5-C , 14-F ) :   1.1521 B(  6-C ,  7-C ) :   1.8387 B(  6-C ,  8-N ) :   1.2772
B(  7-C , 11-H ) :   0.9506 B(  7-C , 12-H ) :   0.9506 B(  8-N ,  9-H ) :   0.9067
B(  8-N , 10-H ) :   0.9530 B(  9-H , 13-O ) :   0.1185 B( 15-C , 22-C ) :   1.0659
B( 15-C , 23-H ) :   0.9483 B( 15-C , 24-H ) :   0.9492 B( 16-C , 17-C ) :   1.0521
B( 16-C , 28-C ) :   1.0814 B( 16-C , 31-H ) :   0.9357 B( 16-C , 32-H ) :   0.9495
B( 17-C , 18-H ) :   0.9455 B( 17-C , 19-H ) :   0.9301 B( 22-C , 25-C ) :   1.0693
B( 22-C , 26-H ) :   0.9280 B( 22-C , 27-H ) :   0.9433 B( 25-C , 28-C ) :   1.0767
B( 25-C , 29-H ) :   0.9442 B( 25-C , 30-H ) :   0.9465 B( 28-C , 33-H ) :   0.9489
B( 28-C , 34-H ) :   0.9477

Dispersion correction           -0.019741224
FINAL SINGLE POINT ENERGY      -699.619194992547

DIPOLE MOMENT
-------------
                                X             Y             Z
Electronic contribution:     -1.18230       4.80631      16.02523
Nuclear contribution   :      0.05905      -3.94566     -16.70013
                        -----------------------------------------
Total Dipole Moment    :     -1.12325       0.86065      -0.67490
                        -----------------------------------------
Magnitude (a.u.)       :      1.56777
Magnitude (Debye)      :      3.98495

Rotational constants in cm-1:     0.021602     0.017295     0.011353
Rotational constants in MHz :   647.614981   518.478934   340.359556

                             ****ORCA TERMINATED NORMALLY****
TOTAL RUN TIME: 0 days 0 hours 0 minutes 42 seconds 510 msec
