                         Program Version 5.0.0 -  RELEASE  -
|  1> !CAM-B3LYP RIJCOSX def2-SVPD def2/J TightSCF
|  2> *xyz -1 1
|  3> C          3.51177       -2.80621       -6.49228
|  4> S          3.00462       -1.09621       -6.38926
|  5> O          4.12886       -0.32965       -6.95372
|  6> O          1.78128       -1.00078       -7.13640
|  7> O          2.85155       -0.78368       -4.95679
|  8> H          3.63615       -3.08010       -7.51913
|  9> H          2.76397       -3.42755       -6.04548
| 10> H          4.43892       -2.93511       -5.97393
| 11> *
| 12>
| 13> %MaxCore 64000
| 14>
| 15> %pal nprocs 8
| 16> end
| 17>
| 18> %scf
| 19>   MaxIter 150
| 20> end
| 21>
| 22>
| 23>                          ****END OF INPUT****

CARTESIAN COORDINATES (ANGSTROEM)
---------------------------------
  C      3.511770   -2.806210   -6.492280
  S      3.004620   -1.096210   -6.389260
  O      4.128860   -0.329650   -6.953720
  O      1.781280   -1.000780   -7.136400
  O      2.851550   -0.783680   -4.956790
  H      3.636150   -3.080100   -7.519130
  H      2.763970   -3.427550   -6.045480
  H      4.438920   -2.935110   -5.973930

 Total Charge           Charge          ....   -1
 Multiplicity           Mult            ....    1
 Number of Electrons    NEL             ....   50
 Basis Dimension        Dim             ....  140

ORBITAL ENERGIES
----------------

  NO   OCC          E(Eh)            E(eV)
   0   2.0000     -88.963871     -2420.8300
   1   2.0000     -18.996895      -516.9318
   2   2.0000     -18.986156      -516.6396
   3   2.0000     -18.985627      -516.6252
   4   2.0000     -10.116483      -275.2835
   5   2.0000      -8.016857      -218.1498
   6   2.0000      -5.986766      -162.9082
   7   2.0000      -5.986636      -162.9047
   8   2.0000      -5.986376      -162.8976
   9   2.0000      -1.014486       -27.6056
  10   2.0000      -0.869109       -23.6497
  11   2.0000      -0.848349       -23.0848
  12   2.0000      -0.667570       -18.1655
  13   2.0000      -0.464981       -12.6528
  14   2.0000      -0.376209       -10.2372
  15   2.0000      -0.365248        -9.9389
  16   2.0000      -0.363895        -9.9021
  17   2.0000      -0.319238        -8.6869
  18   2.0000      -0.317466        -8.6387
  19   2.0000      -0.220381        -5.9969
  20   2.0000      -0.219497        -5.9728
  21   2.0000      -0.182223        -4.9585
  22   2.0000      -0.175950        -4.7879
  23   2.0000      -0.169124        -4.6021
  24   2.0000      -0.130052        -3.5389
  25   0.0000       0.175794         4.7836
  26   0.0000       0.206317         5.6142
  27   0.0000       0.206550         5.6205
  28   0.0000       0.211670         5.7598
  29   0.0000       0.238945         6.5020

MULLIKEN ATOMIC CHARGES
-----------------------
   0 C :    0.686045
   1 S :    1.085126
   2 O :   -0.792594
   3 O :   -0.752117
   4 O :   -0.790306
   5 H :   -0.141151
   6 H :   -0.149640
   7 H :   -0.145364
Sum of atomic charges:   -1.0000000

LOEWDIN ATOMIC CHARGES
----------------------
   0 C :    0.054680
   1 S :    0.834129
   2 O :   -0.601236
   3 O :   -0.581797
   4 O :   -0.599546
   5 H :   -0.035321
   6 H :   -0.036232
   7 H :   -0.034676

  Mayer bond orders larger than 0.100000
B(  0-C ,  1-S ) :   0.9396 B(  0-C ,  5-H ) :   0.8799 B(  0-C ,  6-H ) :   0.8810
B(  0-C ,  7-H ) :   0.8840 B(  1-S ,  2-O ) :   1.3116 B(  1-S ,  3-O ) :   1.3456
B(  1-S ,  4-O ) :   1.3108 B(  1-S ,  5-H ) :   0.1259 B(  1-S ,  6-H ) :   0.1264
B(  1-S ,  7-H ) :   0.1343

FINAL SINGLE POINT ENERGY      -663.408430868343

DIPOLE MOMENT
-------------
                                X             Y             Z
Electronic contribution:     -1.27228       3.95170       0.17684
Nuclear contribution   :      1.59265      -5.51967      -0.35565
                        -----------------------------------------
Total Dipole Moment    :      0.32036      -1.56796      -0.17881
                        -----------------------------------------
Magnitude (a.u.)       :      1.61031
Magnitude (Debye)      :      4.09309

Rotational constants in cm-1:     0.172598     0.157065     0.154689
Rotational constants in MHz :  5174.362736  4708.699947  4637.458896

                             ****ORCA TERMINATED NORMALLY****
TOTAL RUN TIME: 0 days 0 hours 0 minutes 10 seconds 779 msec
