                         Program Version 5.0.0 -  RELEASE  -
|  1> !CAM-B3LYP RIJCOSX def2-SVPD def2/J TightSCF
|  2> *xyz 1 1
|  3> C          4.49059        1.15590       -2.46929
|  4> N          4.30539        1.22276       -3.90832
|  5> C          4.63192        2.24637       -4.67096
|  6> N          4.54169        2.14399       -5.98714
|  7> N          5.08409        3.39358       -4.11855
|  8> H          4.92067        3.57050       -3.13587
|  9> H          5.25465        4.19739       -4.70696
| 10> H          3.82453        0.44911       -4.35093
| 11> H          4.34337        1.24932       -6.41665
| 12> H          4.67671        2.95662       -6.57411
| 13> H          5.00867        2.03053       -2.13534
| 14> H          5.06354        0.28631       -2.22344
| 15> H          3.53600        1.10160       -1.98897
| 16> *
| 17>
| 18> %MaxCore 64000
| 19>
| 20> %pal nprocs 8
| 21> end
| 22>
| 23> %scf
| 24>   MaxIter 150
| 25> end
| 26>
| 27>
| 28>                          ****END OF INPUT****

CARTESIAN COORDINATES (ANGSTROEM)
---------------------------------
  C      4.490590    1.155900   -2.469290
  N      4.305390    1.222760   -3.908320
  C      4.631920    2.246370   -4.670960
  N      4.541690    2.143990   -5.987140
  N      5.084090    3.393580   -4.118550
  H      4.920670    3.570500   -3.135870
  H      5.254650    4.197390   -4.706960
  H      3.824530    0.449110   -4.350930
  H      4.343370    1.249320   -6.416650
  H      4.676710    2.956620   -6.574110
  H      5.008670    2.030530   -2.135340
  H      5.063540    0.286310   -2.223440
  H      3.536000    1.101600   -1.988970

 Total Charge           Charge          ....    1
 Multiplicity           Mult            ....    1
 Number of Electrons    NEL             ....   40
 Basis Dimension        Dim             ....  164

ORBITAL ENERGIES
----------------

  NO   OCC          E(Eh)            E(eV)
   0   2.0000     -14.637059      -398.2946
   1   2.0000     -14.633482      -398.1973
   2   2.0000     -14.630228      -398.1087
   3   2.0000     -10.604271      -288.5569
   4   2.0000     -10.465965      -284.7934
   5   2.0000      -1.298163       -35.3248
   6   2.0000      -1.185532       -32.2600
   7   2.0000      -1.168799       -31.8046
   8   2.0000      -0.986721       -26.8500
   9   2.0000      -0.904314       -24.6076
  10   2.0000      -0.867829       -23.6148
  11   2.0000      -0.832511       -22.6538
  12   2.0000      -0.767153       -20.8753
  13   2.0000      -0.764435       -20.8013
  14   2.0000      -0.731019       -19.8920
  15   2.0000      -0.714534       -19.4434
  16   2.0000      -0.665430       -18.1073
  17   2.0000      -0.652551       -17.7568
  18   2.0000      -0.547303       -14.8929
  19   2.0000      -0.522116       -14.2075
  20   0.0000      -0.125946        -3.4272
  21   0.0000      -0.120523        -3.2796
  22   0.0000      -0.087985        -2.3942
  23   0.0000      -0.082474        -2.2442
  24   0.0000      -0.054299        -1.4775

MULLIKEN ATOMIC CHARGES
-----------------------
   0 C :    1.392577
   1 N :   -0.504370
   2 C :    1.248098
   3 N :    0.086606
   4 N :    0.064200
   5 H :   -0.078119
   6 H :   -0.151084
   7 H :   -0.296173
   8 H :   -0.092855
   9 H :   -0.063763
  10 H :   -0.272673
  11 H :   -0.152720
  12 H :   -0.179723
Sum of atomic charges:    1.0000000

LOEWDIN ATOMIC CHARGES
----------------------
   0 C :    0.267224
   1 N :    0.018876
   2 C :   -0.035385
   3 N :    0.264751
   4 N :    0.276766
   5 H :    0.011288
   6 H :    0.036457
   7 H :    0.064496
   8 H :    0.042331
   9 H :    0.041878
  10 H :   -0.017600
  11 H :    0.015164
  12 H :    0.013756

  Mayer bond orders larger than 0.100000
B(  0-C ,  1-N ) :   0.9386 B(  0-C ,  7-H ) :  -0.1962 B(  0-C , 10-H ) :   0.7851
B(  0-C , 11-H ) :   0.7240 B(  0-C , 12-H ) :   0.7444 B(  1-N ,  2-C ) :   1.0684
B(  1-N ,  3-N ) :   0.2238 B(  1-N ,  4-N ) :   0.2394 B(  1-N ,  7-H ) :   1.3553
B(  1-N , 10-H ) :   0.2035 B(  1-N , 11-H ) :   0.1967 B(  1-N , 12-H ) :   0.1756
B(  2-C ,  3-N ) :   0.9253 B(  2-C ,  4-N ) :   0.9650 B(  2-C ,  5-H ) :  -0.1202
B(  2-C ,  6-H ) :  -0.1579 B(  2-C ,  7-H ) :  -0.2546 B(  2-C ,  8-H ) :  -0.1757
B(  2-C ,  9-H ) :  -0.1266 B(  3-N ,  4-N ) :   0.1581 B(  3-N ,  8-H ) :   1.2133
B(  3-N ,  9-H ) :   1.2028 B(  4-N ,  5-H ) :   1.1068 B(  4-N ,  6-H ) :   1.2257
B(  5-H ,  6-H ) :  -0.1606 B(  5-H , 10-H ) :   0.1006 B(  8-H ,  9-H ) :  -0.1806

FINAL SINGLE POINT ENERGY      -244.799640902360

DIPOLE MOMENT
-------------
                                X             Y             Z
Electronic contribution:      0.02373       0.69148      -2.68508
Nuclear contribution   :     -0.23495      -0.48067       2.19509
                        -----------------------------------------
Total Dipole Moment    :     -0.21121       0.21082      -0.48999
                        -----------------------------------------
Magnitude (a.u.)       :      0.57371
Magnitude (Debye)      :      1.45826

Rotational constants in cm-1:     0.315679     0.134071     0.096006
Rotational constants in MHz :  9463.824527  4019.347586  2878.182223

                             ****ORCA TERMINATED NORMALLY****
TOTAL RUN TIME: 0 days 0 hours 0 minutes 13 seconds 441 msec
