                         Program Version 5.0.0 -  RELEASE  -
|  1> !CAM-B3LYP RIJCOSX def2-SVPD def2/J TightSCF xyzfile
|  2>
|  3> *xyzfile 0 1 B.xyz
|  4>
|  5> %MaxCore 64000
|  6>
|  7> %pal nprocs 4
|  8> end
|  9>
| 10> %scf
| 11>   MaxIter 150
| 12> end
| 13>
| 14>
| 15>                          ****END OF INPUT****

CARTESIAN COORDINATES (ANGSTROEM)
---------------------------------
  C      4.490588    1.155899   -2.469290
  N      4.305394    1.222762   -3.908317
  C      4.906458   -3.102816   -5.954844
  C      3.511771   -2.806215   -6.492283
  H      2.736044   -3.373445   -5.973736
  H      3.444904   -3.040831   -7.555281
  S      3.004618   -1.096206   -6.389259
  C      4.631918    2.246365   -4.670958
  N      4.541686    2.143990   -5.987139
  N      5.084086    3.393584   -4.118545
  H      4.920675    3.570501   -3.135870
  H      5.254652    4.197390   -4.706956
  H      3.824530    0.449113   -4.350926
  H      4.343373    1.249318   -6.416646
  H      4.676712    2.956624   -6.574113
  O      4.128856   -0.329647   -6.953717
  O      1.781285   -1.000779   -7.136399
  C      5.942129    0.939500   -2.036893
  H      3.864305    0.328532   -2.136611
  H      4.076233    2.049994   -1.989010
  C      6.462677   -3.117775   -3.944671
  C      5.024977   -3.025679   -4.437625
  H      4.423321   -3.818693   -3.977648
  H      4.579350   -2.087131   -4.108727
  H      5.201533   -4.100207   -6.296905
  H      5.605922   -2.397822   -6.413368
  C      6.559957   -0.356290   -2.559086
  H      5.967976    0.952567   -0.942444
  H      6.547184    1.788331   -2.368849
  C      6.006283   -1.615917   -1.899301
  H      7.642360   -0.318000   -2.402059
  H      6.414855   -0.403433   -3.642587
  C      6.608718   -2.917014   -2.435655
  H      6.190324   -1.561115   -0.820948
  H      4.919250   -1.651245   -2.016586
  H      7.066975   -2.374258   -4.475514
  H      6.887808   -4.089747   -4.215332
  H      6.135197   -3.755573   -1.915159
  H      7.671142   -2.955503   -2.172291
  O      2.851546   -0.783683   -4.956789

 Total Charge           Charge          ....    0
 Multiplicity           Mult            ....    1
 Number of Electrons    NEL             ....  144
 Basis Dimension        Dim             ....  540

ORBITAL ENERGIES
----------------

  NO   OCC          E(Eh)            E(eV)
   0   2.0000     -89.119133     -2425.0549
   1   2.0000     -19.155373      -521.2442
   2   2.0000     -19.155322      -521.2428
   3   2.0000     -19.141662      -520.8711
   4   2.0000     -14.482745      -394.0955
   5   2.0000     -14.449170      -393.1819
   6   2.0000     -14.447704      -393.1420
   7   2.0000     -10.434881      -283.9476
   8   2.0000     -10.324562      -280.9456
   9   2.0000     -10.278529      -279.6930
  10   2.0000     -10.262156      -279.2475
  11   2.0000     -10.255329      -279.0617
  12   2.0000     -10.253033      -278.9992
  13   2.0000     -10.250200      -278.9221
  14   2.0000     -10.243581      -278.7420
  15   2.0000     -10.243179      -278.7311
  16   2.0000     -10.234605      -278.4978
  17   2.0000      -8.171654      -222.3620
  18   2.0000      -6.142415      -167.1436
  19   2.0000      -6.141561      -167.1204
  20   2.0000      -6.140143      -167.0818
  21   2.0000      -1.175683       -31.9920
  22   2.0000      -1.130529       -30.7633
  23   2.0000      -1.027121       -27.9494
  24   2.0000      -1.025396       -27.9025
  25   2.0000      -1.015892       -27.6438
  26   2.0000      -1.003315       -27.3016
  27   2.0000      -0.902863       -24.5682
  28   2.0000      -0.877532       -23.8789
  29   2.0000      -0.850853       -23.1529
  30   2.0000      -0.812598       -22.1119
  31   2.0000      -0.776510       -21.1299
  32   2.0000      -0.751527       -20.4501
  33   2.0000      -0.723018       -19.6743
  34   2.0000      -0.703410       -19.1408
  35   2.0000      -0.690878       -18.7998
  36   2.0000      -0.669636       -18.2217
  37   2.0000      -0.649597       -17.6764
  38   2.0000      -0.623819       -16.9750
  39   2.0000      -0.619379       -16.8542
  40   2.0000      -0.611909       -16.6509
  41   2.0000      -0.587936       -15.9986
  42   2.0000      -0.576727       -15.6935
  43   2.0000      -0.558279       -15.1915
  44   2.0000      -0.553472       -15.0607
  45   2.0000      -0.538184       -14.6447
  46   2.0000      -0.534252       -14.5377
  47   2.0000      -0.524130       -14.2623
  48   2.0000      -0.507584       -13.8120
  49   2.0000      -0.503457       -13.6998
  50   2.0000      -0.498498       -13.5648
  51   2.0000      -0.486230       -13.2310
  52   2.0000      -0.479071       -13.0362
  53   2.0000      -0.468825       -12.7574
  54   2.0000      -0.458279       -12.4704
  55   2.0000      -0.449522       -12.2321
  56   2.0000      -0.432586       -11.7713
  57   2.0000      -0.425359       -11.5746
  58   2.0000      -0.415735       -11.3127
  59   2.0000      -0.401205       -10.9173
  60   2.0000      -0.392536       -10.6814
  61   2.0000      -0.389566       -10.6006
  62   2.0000      -0.385128       -10.4799
  63   2.0000      -0.380213       -10.3461
  64   2.0000      -0.376874       -10.2553
  65   2.0000      -0.373525       -10.1641
  66   2.0000      -0.368499       -10.0274
  67   2.0000      -0.350776        -9.5451
  68   2.0000      -0.339158        -9.2290
  69   2.0000      -0.330697        -8.9987
  70   2.0000      -0.320517        -8.7217
  71   2.0000      -0.296160        -8.0589
  72   0.0000       0.010628         0.2892
  73   0.0000       0.030188         0.8215
  74   0.0000       0.042114         1.1460
  75   0.0000       0.056249         1.5306
  76   0.0000       0.060351         1.6422

MULLIKEN ATOMIC CHARGES
-----------------------
   0 C :    1.164853
   1 N :    0.249809
   2 C :    0.385137
   3 C :    0.446857
   4 H :   -0.073271
   5 H :   -0.090654
   6 S :    1.326966
   7 C :    1.068532
   8 N :    0.553911
   9 N :    0.257845
  10 H :   -0.077334
  11 H :   -0.242387
  12 H :   -0.984247
  13 H :   -0.408957
  14 H :   -0.195758
  15 O :   -0.807867
  16 O :   -0.784228
  17 C :    0.493144
  18 H :   -0.342291
  19 H :   -0.264589
  20 C :    0.192172
  21 C :    0.435252
  22 H :   -0.027733
  23 H :   -0.650350
  24 H :   -0.182345
  25 H :   -0.015163
  26 C :    0.288688
  27 H :   -0.182160
  28 H :   -0.125898
  29 C :   -0.008687
  30 H :   -0.238816
  31 H :   -0.207446
  32 C :    0.806141
  33 H :   -0.434291
  34 H :    0.090232
  35 H :    0.035816
  36 H :   -0.428578
  37 H :   -0.112492
  38 H :   -0.072428
  39 O :   -0.837384
Sum of atomic charges:    0.0000000

LOEWDIN ATOMIC CHARGES
----------------------
   0 C :    0.079392
   1 N :    0.084193
   2 C :   -0.036698
   3 C :   -0.062211
   4 H :    0.026377
   5 H :    0.021393
   6 S :    0.959381
   7 C :   -0.027246
   8 N :    0.290826
   9 N :    0.255056
  10 H :   -0.001908
  11 H :    0.015631
  12 H :   -0.083718
  13 H :   -0.105074
  14 H :    0.027915
  15 O :   -0.529421
  16 O :   -0.513402
  17 C :   -0.017813
  18 H :    0.032829
  19 H :    0.017756
  20 C :   -0.038221
  21 C :   -0.030501
  22 H :    0.039938
  23 H :   -0.020963
  24 H :    0.028208
  25 H :    0.021820
  26 C :   -0.028468
  27 H :    0.027381
  28 H :    0.008803
  29 C :   -0.036356
  30 H :    0.029386
  31 H :    0.011648
  32 C :   -0.029776
  33 H :    0.023303
  34 H :    0.009001
  35 H :    0.015980
  36 H :    0.023654
  37 H :    0.023240
  38 H :    0.020920
  39 O :   -0.532254

  Mayer bond orders larger than 0.100000
B(  0-C ,  1-N ) :   0.9541 B(  0-C , 12-H ) :  -0.4551 B(  0-C , 17-C ) :   1.0918
B(  0-C , 18-H ) :   0.6045 B(  0-C , 19-H ) :   0.8116 B(  0-C , 26-C ) :   0.1460
B(  0-C , 27-H ) :   0.1142 B(  1-N ,  7-C ) :   1.2824 B(  1-N ,  9-N ) :   0.2288
B(  1-N , 12-H ) :   1.0384 B(  1-N , 13-H ) :   0.1586 B(  1-N , 14-H ) :  -0.1172
B(  1-N , 18-H ) :   0.2958 B(  2-C ,  3-C ) :   1.1959 B(  2-C ,  5-H ) :   0.2877
B(  2-C , 20-C ) :   0.1384 B(  2-C , 21-C ) :   1.1330 B(  2-C , 22-H ) :   0.1143
B(  2-C , 24-H ) :   0.7528 B(  2-C , 25-H ) :   0.8233 B(  3-C ,  4-H ) :   0.8840
B(  3-C ,  5-H ) :   0.6776 B(  3-C ,  6-S ) :   0.9893 B(  3-C , 16-O ) :   0.1047
B(  3-C , 21-C ) :   0.1392 B(  3-C , 25-H ) :   0.1132 B(  5-H ,  6-S ) :   0.1131
B(  6-S , 15-O ) :   1.1139 B(  6-S , 16-O ) :   1.3434 B(  6-S , 39-O ) :   1.1472
B(  7-C ,  8-N ) :   0.9710 B(  7-C ,  9-N ) :   0.9446 B(  7-C , 10-H ) :  -0.1212
B(  7-C , 12-H ) :  -0.6789 B(  7-C , 13-H ) :  -0.2932 B(  7-C , 14-H ) :  -0.1231
B(  8-N ,  9-N ) :   0.1062 B(  8-N , 13-H ) :   1.1401 B(  8-N , 14-H ) :   1.2497
B(  9-N , 10-H ) :   1.1067 B(  9-N , 11-H ) :   1.2218 B( 10-H , 11-H ) :  -0.2075
B( 12-H , 39-O ) :   0.2444 B( 13-H , 14-H ) :  -0.2645 B( 13-H , 15-O ) :   0.2344
B( 17-C , 18-H ) :   0.1045 B( 17-C , 19-H ) :   0.1224 B( 17-C , 26-C ) :   1.2001
B( 17-C , 27-H ) :   0.8822 B( 17-C , 28-H ) :   0.6631 B( 18-H , 19-H ) :  -0.2044
B( 20-C , 21-C ) :   1.1948 B( 20-C , 22-H ) :   0.1184 B( 20-C , 23-H ) :   0.1175
B( 20-C , 29-C ) :   0.1504 B( 20-C , 32-C ) :   1.1133 B( 20-C , 35-H ) :   0.8465
B( 20-C , 36-H ) :   0.8707 B( 20-C , 37-H ) :   0.1124 B( 20-C , 38-H ) :   0.2511
B( 21-C , 22-H ) :   0.6709 B( 21-C , 23-H ) :   0.6352 B( 21-C , 24-H ) :   0.1995
B( 21-C , 25-H ) :   0.1052 B( 21-C , 35-H ) :   0.1089 B( 21-C , 36-H ) :   0.2046
B( 22-H , 23-H ) :   0.2100 B( 23-H , 34-H ) :   0.1196 B( 26-C , 28-H ) :   0.2426
B( 26-C , 29-C ) :   1.2136 B( 26-C , 30-H ) :   0.8328 B( 26-C , 31-H ) :   0.8543
B( 26-C , 33-H ) :   0.1432 B( 26-C , 34-H ) :   0.1167 B( 27-H , 28-H ) :  -0.1149
B( 29-C , 30-H ) :   0.1564 B( 29-C , 31-H ) :   0.1400 B( 29-C , 32-C ) :   1.1188
B( 29-C , 33-H ) :   0.9610 B( 29-C , 34-H ) :   0.8307 B( 29-C , 37-H ) :   0.3281
B( 29-C , 38-H ) :   0.1410 B( 32-C , 37-H ) :   0.6061 B( 32-C , 38-H ) :   0.6459
B( 37-H , 38-H ) :  -0.1295

FINAL SINGLE POINT ENERGY     -1182.033651625602

DIPOLE MOMENT
-------------
                                X             Y             Z
Electronic contribution:    -14.46511       8.28609     -15.28422
Nuclear contribution   :     16.79156      -5.47215      17.54258
                        -----------------------------------------
Total Dipole Moment    :      2.32645       2.81394       2.25836
                        -----------------------------------------
Magnitude (a.u.)       :      4.29312
Magnitude (Debye)      :     10.91223

Rotational constants in cm-1:     0.014207     0.012373     0.007472
Rotational constants in MHz :   425.900436   370.942493   224.006604

                             ****ORCA TERMINATED NORMALLY****
TOTAL RUN TIME: 0 days 0 hours 7 minutes 20 seconds 425 msec
