                         Program Version 5.0.0 -  RELEASE  -
|  1> !CAM-B3LYP RIJCOSX def2-SVPD def2/J TightSCF
|  2> *xyz 0 1
|  3> C          3.51177       -2.80621       -6.49228
|  4> S          3.00462       -1.09621       -6.38926
|  5> F          4.12886       -0.32965       -6.95372
|  6> O          1.78128       -1.00078       -7.13640
|  7> O          2.85155       -0.78368       -4.95679
|  8> H          3.63615       -3.08010       -7.51913
|  9> H          2.76397       -3.42755       -6.04548
| 10> H          4.43892       -2.93511       -5.97393
| 11> *
| 12>
| 13> %MaxCore 64000
| 14>
| 15> %pal nprocs 8
| 16> end
| 17>
| 18> %scf
| 19>   MaxIter 150
| 20> end
| 21>
| 22>
| 23>                          ****END OF INPUT****

CARTESIAN COORDINATES (ANGSTROEM)
---------------------------------
  C      3.511770   -2.806210   -6.492280
  S      3.004620   -1.096210   -6.389260
  F      4.128860   -0.329650   -6.953720
  O      1.781280   -1.000780   -7.136400
  O      2.851550   -0.783680   -4.956790
  H      3.636150   -3.080100   -7.519130
  H      2.763970   -3.427550   -6.045480
  H      4.438920   -2.935110   -5.973930

 Total Charge           Charge          ....    0
 Multiplicity           Mult            ....    1
 Number of Electrons    NEL             ....   50
 Basis Dimension        Dim             ....  140

ORBITAL ENERGIES
----------------

  NO   OCC          E(Eh)            E(eV)
   0   2.0000     -89.228849     -2428.0404
   1   2.0000     -24.885884      -677.1793
   2   2.0000     -19.236177      -523.4430
   3   2.0000     -19.225078      -523.1410
   4   2.0000     -10.326025      -280.9854
   5   2.0000      -8.282388      -225.3752
   6   2.0000      -6.256389      -170.2450
   7   2.0000      -6.250018      -170.0716
   8   2.0000      -6.249020      -170.0445
   9   2.0000      -1.443020       -39.2666
  10   2.0000      -1.203231       -32.7416
  11   2.0000      -1.098109       -29.8811
  12   2.0000      -0.890594       -24.2343
  13   2.0000      -0.790562       -21.5123
  14   2.0000      -0.676830       -18.4175
  15   2.0000      -0.655674       -17.8418
  16   2.0000      -0.634138       -17.2558
  17   2.0000      -0.557790       -15.1782
  18   2.0000      -0.555703       -15.1214
  19   2.0000      -0.543414       -14.7870
  20   2.0000      -0.515985       -14.0407
  21   2.0000      -0.464867       -12.6497
  22   2.0000      -0.415644       -11.3102
  23   2.0000      -0.404984       -11.0202
  24   2.0000      -0.385880       -10.5003
  25   0.0000       0.020584         0.5601
  26   0.0000       0.059619         1.6223
  27   0.0000       0.067088         1.8256
  28   0.0000       0.067282         1.8308
  29   0.0000       0.074189         2.0188

MULLIKEN ATOMIC CHARGES
-----------------------
   0 C :    0.646449
   1 S :    1.244030
   2 F :   -0.386432
   3 O :   -0.613054
   4 O :   -0.649533
   5 H :   -0.072962
   6 H :   -0.087506
   7 H :   -0.080992
Sum of atomic charges:    0.0000000

LOEWDIN ATOMIC CHARGES
----------------------
   0 C :    0.123053
   1 S :    1.104426
   2 F :   -0.268809
   3 O :   -0.463751
   4 O :   -0.480014
   5 H :   -0.009182
   6 H :    0.003523
   7 H :   -0.009246

  Mayer bond orders larger than 0.100000
B(  0-C ,  1-S ) :   0.9945 B(  0-C ,  5-H ) :   0.8828 B(  0-C ,  6-H ) :   0.8811
B(  0-C ,  7-H ) :   0.8864 B(  1-S ,  2-F ) :   0.6833 B(  1-S ,  3-O ) :   1.5566
B(  1-S ,  4-O ) :   1.5204 B(  1-S ,  5-H ) :   0.1010 B(  1-S ,  6-H ) :   0.1280
B(  1-S ,  7-H ) :   0.1076

FINAL SINGLE POINT ENERGY      -687.904538226210

DIPOLE MOMENT
-------------
                                X             Y             Z
Electronic contribution:      0.61480       5.19219      -0.79267
Nuclear contribution   :      0.51040      -6.36905       0.21167
                        -----------------------------------------
Total Dipole Moment    :      1.12520      -1.17686      -0.58100
                        -----------------------------------------
Magnitude (a.u.)       :      1.72876
Magnitude (Debye)      :      4.39417

Rotational constants in cm-1:     0.163860     0.154073     0.147119
Rotational constants in MHz :  4912.396151  4618.979177  4410.507958

                             ****ORCA TERMINATED NORMALLY****
TOTAL RUN TIME: 0 days 0 hours 0 minutes 9 seconds 992 msec
