                         Program Version 5.0.0 -  RELEASE  -
|  1> !CAM-B3LYP RIJCOSX def2-SVPD def2/J TightSCF
|  2> *xyz 0 1
|  3> C          4.49059        1.15590       -2.46929
|  4> C          4.30539        1.22276       -3.90832
|  5> C          4.63192        2.24637       -4.67096
|  6> N          4.54169        2.14399       -5.98714
|  7> N          5.08409        3.39358       -4.11855
|  8> H          4.92067        3.57050       -3.13587
|  9> H          5.25465        4.19739       -4.70696
| 10> H          3.82453        0.44911       -4.35093
| 11> H          4.34337        1.24932       -6.41665
| 12> H          4.67671        2.95662       -6.57411
| 13> H          5.00867        2.03053       -2.13534
| 14> H          5.06354        0.28631       -2.22344
| 15> H          3.53600        1.10160       -1.98897
| 16> *
| 17>
| 18> %MaxCore 64000
| 19>
| 20> %pal nprocs 8
| 21> end
| 22>
| 23> %scf
| 24>   MaxIter 150
| 25> end
| 26>
| 27>
| 28>                          ****END OF INPUT****

CARTESIAN COORDINATES (ANGSTROEM)
---------------------------------
  C      4.490590    1.155900   -2.469290
  C      4.305390    1.222760   -3.908320
  C      4.631920    2.246370   -4.670960
  N      4.541690    2.143990   -5.987140
  N      5.084090    3.393580   -4.118550
  H      4.920670    3.570500   -3.135870
  H      5.254650    4.197390   -4.706960
  H      3.824530    0.449110   -4.350930
  H      4.343370    1.249320   -6.416650
  H      4.676710    2.956620   -6.574110
  H      5.008670    2.030530   -2.135340
  H      5.063540    0.286310   -2.223440
  H      3.536000    1.101600   -1.988970

 Total Charge           Charge          ....    0
 Multiplicity           Mult            ....    1
 Number of Electrons    NEL             ....   40
 Basis Dimension        Dim             ....  164

ORBITAL ENERGIES
----------------

  NO   OCC          E(Eh)            E(eV)
   0   2.0000     -14.402470      -391.9111
   1   2.0000     -14.401755      -391.8917
   2   2.0000     -10.300143      -280.2811
   3   2.0000     -10.222279      -278.1624
   4   2.0000     -10.180126      -277.0153
   5   2.0000      -1.032932       -28.1075
   6   2.0000      -0.940287       -25.5865
   7   2.0000      -0.828774       -22.5521
   8   2.0000      -0.730754       -19.8848
   9   2.0000      -0.655025       -17.8241
  10   2.0000      -0.612231       -16.6597
  11   2.0000      -0.582820       -15.8593
  12   2.0000      -0.542497       -14.7621
  13   2.0000      -0.492769       -13.4089
  14   2.0000      -0.478660       -13.0250
  15   2.0000      -0.443832       -12.0773
  16   2.0000      -0.428863       -11.6700
  17   2.0000      -0.409294       -11.1374
  18   2.0000      -0.329466        -8.9652
  19   2.0000      -0.215062        -5.8521
  20   0.0000       0.048274         1.3136
  21   0.0000       0.074826         2.0361
  22   0.0000       0.085304         2.3212
  23   0.0000       0.115263         3.1365
  24   0.0000       0.118472         3.2238

MULLIKEN ATOMIC CHARGES
-----------------------
   0 C :    1.180467
   1 C :   -0.685348
   2 C :    0.968985
   3 N :    0.172375
   4 N :    0.119017
   5 H :   -0.098668
   6 H :   -0.290205
   7 H :   -0.494072
   8 H :   -0.112578
   9 H :   -0.189498
  10 H :   -0.355284
  11 H :   -0.076928
  12 H :   -0.138263
Sum of atomic charges:    0.0000000

LOEWDIN ATOMIC CHARGES
----------------------
   0 C :    0.101352
   1 C :   -0.070556
   2 C :   -0.229426
   3 N :    0.176266
   4 N :    0.195071
   5 H :   -0.020982
   6 H :   -0.014478
   7 H :   -0.049380
   8 H :    0.006726
   9 H :   -0.010558
  10 H :   -0.046298
  11 H :   -0.018489
  12 H :   -0.019250

  Mayer bond orders larger than 0.100000
B(  0-C ,  1-C ) :   1.0605 B(  0-C ,  7-H ) :   0.1709 B(  0-C , 10-H ) :   0.6756
B(  0-C , 11-H ) :   0.6402 B(  0-C , 12-H ) :   0.6667 B(  1-C ,  2-C ) :   1.5352
B(  1-C ,  3-N ) :   0.4006 B(  1-C ,  4-N ) :   0.2838 B(  1-C ,  7-H ) :   0.9632
B(  1-C , 10-H ) :   0.4524 B(  1-C , 11-H ) :   0.2205 B(  1-C , 12-H ) :   0.1890
B(  2-C ,  3-N ) :   0.9007 B(  2-C ,  4-N ) :   0.9823 B(  2-C ,  6-H ) :  -0.1541
B(  2-C ,  8-H ) :  -0.1104 B(  2-C , 10-H ) :  -0.1405 B(  3-N ,  4-N ) :   0.1076
B(  3-N ,  8-H ) :   1.2005 B(  3-N ,  9-H ) :   1.1801 B(  4-N ,  5-H ) :   1.0904
B(  4-N ,  6-H ) :   1.2558 B(  5-H ,  6-H ) :  -0.1495 B(  8-H ,  9-H ) :  -0.1700
B( 10-H , 11-H ) :   0.1622

FINAL SINGLE POINT ENERGY      -228.332157417302

DIPOLE MOMENT
-------------
                                X             Y             Z
Electronic contribution:      0.29210       1.33414      -2.86176
Nuclear contribution   :     -0.29662      -0.64714       2.26125
                        -----------------------------------------
Total Dipole Moment    :     -0.00452       0.68700      -0.60051
                        -----------------------------------------
Magnitude (a.u.)       :      0.91247
Magnitude (Debye)      :      2.31932

Rotational constants in cm-1:     0.320965     0.135060     0.096994
Rotational constants in MHz :  9622.302637  4048.999301  2907.812202

                             ****ORCA TERMINATED NORMALLY****
TOTAL RUN TIME: 0 days 0 hours 0 minutes 15 seconds 346 msec
