                         Program Version 5.0.0 -  RELEASE  -
|  1> !CAM-B3LYP RIJCOSX def2-SVPD def2/J TightSCF
|  2> *xyz 0 1
|  3> C          3.51177       -2.80621       -6.49228
|  4> S          3.00462       -1.09621       -6.38926
|  5> O          4.12886       -0.32965       -6.95372
|  6> F          1.78128       -1.00078       -7.13640
|  7> O          2.85155       -0.78368       -4.95679
|  8> H          3.63615       -3.08010       -7.51913
|  9> H          2.76397       -3.42755       -6.04548
| 10> H          4.43892       -2.93511       -5.97393
| 11> *
| 12>
| 13> %MaxCore 64000
| 14>
| 15> %pal nprocs 8
| 16> end
| 17>
| 18> %scf
| 19>   MaxIter 150
| 20> end
| 21>
| 22>
| 23>                          ****END OF INPUT****

CARTESIAN COORDINATES (ANGSTROEM)
---------------------------------
  C      3.511770   -2.806210   -6.492280
  S      3.004620   -1.096210   -6.389260
  O      4.128860   -0.329650   -6.953720
  F      1.781280   -1.000780   -7.136400
  O      2.851550   -0.783680   -4.956790
  H      3.636150   -3.080100   -7.519130
  H      2.763970   -3.427550   -6.045480
  H      4.438920   -2.935110   -5.973930

 Total Charge           Charge          ....    0
 Multiplicity           Mult            ....    1
 Number of Electrons    NEL             ....   50
 Basis Dimension        Dim             ....  140

ORBITAL ENERGIES
----------------

  NO   OCC          E(Eh)            E(eV)
   0   2.0000     -89.230662     -2428.0898
   1   2.0000     -24.903673      -677.6634
   2   2.0000     -19.225553      -523.1539
   3   2.0000     -19.224878      -523.1355
   4   2.0000     -10.326709      -281.0040
   5   2.0000      -8.284274      -225.4266
   6   2.0000      -6.258488      -170.3021
   7   2.0000      -6.251672      -170.1166
   8   2.0000      -6.250734      -170.0911
   9   2.0000      -1.474091       -40.1121
  10   2.0000      -1.190060       -32.3832
  11   2.0000      -1.084259       -29.5042
  12   2.0000      -0.892662       -24.2906
  13   2.0000      -0.805836       -21.9279
  14   2.0000      -0.691934       -18.8285
  15   2.0000      -0.677335       -18.4312
  16   2.0000      -0.637437       -17.3455
  17   2.0000      -0.557094       -15.1593
  18   2.0000      -0.552622       -15.0376
  19   2.0000      -0.544530       -14.8174
  20   2.0000      -0.509855       -13.8739
  21   2.0000      -0.457636       -12.4529
  22   2.0000      -0.405949       -11.0464
  23   2.0000      -0.400803       -10.9064
  24   2.0000      -0.375325       -10.2131
  25   0.0000       0.018956         0.5158
  26   0.0000       0.058159         1.5826
  27   0.0000       0.066026         1.7967
  28   0.0000       0.067384         1.8336
  29   0.0000       0.076311         2.0765

MULLIKEN ATOMIC CHARGES
-----------------------
   0 C :    0.647310
   1 S :    1.239154
   2 O :   -0.640936
   3 F :   -0.366101
   4 O :   -0.639886
   5 H :   -0.073491
   6 H :   -0.081264
   7 H :   -0.084785
Sum of atomic charges:   -0.0000000

LOEWDIN ATOMIC CHARGES
----------------------
   0 C :    0.122523
   1 S :    1.106440
   2 O :   -0.481331
   3 F :   -0.253169
   4 O :   -0.479542
   5 H :   -0.009438
   6 H :   -0.010074
   7 H :    0.004591

  Mayer bond orders larger than 0.100000
B(  0-C ,  1-S ) :   0.9947 B(  0-C ,  5-H ) :   0.8811 B(  0-C ,  6-H ) :   0.8835
B(  0-C ,  7-H ) :   0.8849 B(  1-S ,  2-O ) :   1.5254 B(  1-S ,  3-F ) :   0.7248
B(  1-S ,  4-O ) :   1.5230 B(  1-S ,  6-H ) :   0.1004 B(  1-S ,  7-H ) :   0.1339

FINAL SINGLE POINT ENERGY      -687.889384703032

DIPOLE MOMENT
-------------
                                X             Y             Z
Electronic contribution:     -3.32571       4.06435      -1.08728
Nuclear contribution   :      2.85578      -5.69854       0.39418
                        -----------------------------------------
Total Dipole Moment    :     -0.46993      -1.63419      -0.69310
                        -----------------------------------------
Magnitude (a.u.)       :      1.83624
Magnitude (Debye)      :      4.66736

Rotational constants in cm-1:     0.163257     0.155833     0.146211
Rotational constants in MHz :  4894.333085  4671.750883  4383.281537

                             ****ORCA TERMINATED NORMALLY****
TOTAL RUN TIME: 0 days 0 hours 0 minutes 11 seconds 138 msec
