                         Program Version 5.0.0 -  RELEASE  -
|  1> !CAM-B3LYP RIJCOSX def2-SVPD def2/J TightSCF
|  2> *xyz 0 1
|  3> C          4.49059        1.15590       -2.46929
|  4> N          4.30539        1.22276       -3.90832
|  5> C          4.63192        2.24637       -4.67096
|  6> C          4.54169        2.14399       -5.98714
|  7> N          5.08409        3.39358       -4.11855
|  8> H          4.92067        3.57050       -3.13587
|  9> H          5.25465        4.19739       -4.70696
| 10> H          3.82453        0.44911       -4.35093
| 11> H          4.34337        1.24932       -6.41665
| 12> H          4.67671        2.95662       -6.57411
| 13> H          5.00867        2.03053       -2.13534
| 14> H          5.06354        0.28631       -2.22344
| 15> H          3.53600        1.10160       -1.98897
| 16> *
| 17>
| 18> %MaxCore 64000
| 19>
| 20> %pal nprocs 8
| 21> end
| 22>
| 23> %scf
| 24>   MaxIter 150
| 25> end
| 26>
| 27>
| 28>                          ****END OF INPUT****

CARTESIAN COORDINATES (ANGSTROEM)
---------------------------------
  C      4.490590    1.155900   -2.469290
  N      4.305390    1.222760   -3.908320
  C      4.631920    2.246370   -4.670960
  C      4.541690    2.143990   -5.987140
  N      5.084090    3.393580   -4.118550
  H      4.920670    3.570500   -3.135870
  H      5.254650    4.197390   -4.706960
  H      3.824530    0.449110   -4.350930
  H      4.343370    1.249320   -6.416650
  H      4.676710    2.956620   -6.574110
  H      5.008670    2.030530   -2.135340
  H      5.063540    0.286310   -2.223440
  H      3.536000    1.101600   -1.988970

 Total Charge           Charge          ....    0
 Multiplicity           Mult            ....    1
 Number of Electrons    NEL             ....   40
 Basis Dimension        Dim             ....  164

ORBITAL ENERGIES
----------------

  NO   OCC          E(Eh)            E(eV)
   0   2.0000     -14.405536      -391.9946
   1   2.0000     -14.403773      -391.9466
   2   2.0000     -10.305637      -280.4306
   3   2.0000     -10.291418      -280.0437
   4   2.0000     -10.167564      -276.6735
   5   2.0000      -1.043666       -28.3996
   6   2.0000      -0.953490       -25.9458
   7   2.0000      -0.821250       -22.3473
   8   2.0000      -0.740177       -20.1412
   9   2.0000      -0.675723       -18.3873
  10   2.0000      -0.610074       -16.6010
  11   2.0000      -0.562964       -15.3190
  12   2.0000      -0.544916       -14.8279
  13   2.0000      -0.525727       -14.3058
  14   2.0000      -0.477431       -12.9915
  15   2.0000      -0.460450       -12.5295
  16   2.0000      -0.452149       -12.3036
  17   2.0000      -0.428866       -11.6700
  18   2.0000      -0.318793        -8.6748
  19   2.0000      -0.220117        -5.9897
  20   0.0000       0.044118         1.2005
  21   0.0000       0.077267         2.1025
  22   0.0000       0.079479         2.1627
  23   0.0000       0.113563         3.0902
  24   0.0000       0.122292         3.3277

MULLIKEN ATOMIC CHARGES
-----------------------
   0 C :    1.442175
   1 N :   -0.436660
   2 C :    0.794513
   3 C :    0.425546
   4 N :    0.144998
   5 H :   -0.169769
   6 H :   -0.168925
   7 H :   -0.354460
   8 H :   -0.424655
   9 H :   -0.459489
  10 H :   -0.318763
  11 H :   -0.222646
  12 H :   -0.251863
Sum of atomic charges:   -0.0000000

LOEWDIN ATOMIC CHARGES
----------------------
   0 C :    0.215703
   1 N :   -0.041319
   2 C :   -0.239179
   3 C :    0.135472
   4 N :    0.196419
   5 H :   -0.034488
   6 H :    0.004076
   7 H :    0.037830
   8 H :   -0.102178
   9 H :   -0.104164
  10 H :   -0.035913
  11 H :   -0.015501
  12 H :   -0.016757

  Mayer bond orders larger than 0.100000
B(  0-C ,  1-N ) :   0.9068 B(  0-C ,  7-H ) :  -0.2019 B(  0-C , 10-H ) :   0.7771
B(  0-C , 11-H ) :   0.7102 B(  0-C , 12-H ) :   0.7311 B(  1-N ,  2-C ) :   1.0702
B(  1-N ,  3-C ) :   0.2317 B(  1-N ,  4-N ) :   0.1811 B(  1-N ,  7-H ) :   1.3292
B(  1-N , 10-H ) :   0.2303 B(  1-N , 11-H ) :   0.1972 B(  1-N , 12-H ) :   0.1919
B(  2-C ,  3-C ) :   1.3487 B(  2-C ,  4-N ) :   0.9642 B(  2-C ,  6-H ) :  -0.1058
B(  2-C ,  7-H ) :  -0.2376 B(  2-C ,  9-H ) :   0.1556 B(  3-C ,  4-N ) :   0.2182
B(  3-C ,  8-H ) :   0.8306 B(  3-C ,  9-H ) :   0.7480 B(  4-N ,  5-H ) :   1.0975
B(  4-N ,  6-H ) :   1.1869 B(  5-H ,  6-H ) :  -0.1523

FINAL SINGLE POINT ENERGY      -228.320890792342

DIPOLE MOMENT
-------------
                                X             Y             Z
Electronic contribution:      0.08826       0.50372      -0.76290
Nuclear contribution   :     -0.24876      -0.46055       1.84019
                        -----------------------------------------
Total Dipole Moment    :     -0.16050       0.04317       1.07730
                        -----------------------------------------
Magnitude (a.u.)       :      1.09004
Magnitude (Debye)      :      2.77067

Rotational constants in cm-1:     0.322158     0.139919     0.099594
Rotational constants in MHz :  9658.057362  4194.660927  2985.745059

                             ****ORCA TERMINATED NORMALLY****
TOTAL RUN TIME: 0 days 0 hours 0 minutes 14 seconds 282 msec
