                         Program Version 5.0.0 -  RELEASE  -
|  1> !CAM-B3LYP RIJCOSX def2-SVPD def2/J TightSCF
|  2> *xyz 0 1
|  3> C          3.51177       -2.80621       -6.49228
|  4> S          3.00462       -1.09621       -6.38926
|  5> O          4.12886       -0.32965       -6.95372
|  6> O          1.78128       -1.00078       -7.13640
|  7> F          2.85155       -0.78368       -4.95679
|  8> H          3.63615       -3.08010       -7.51913
|  9> H          2.76397       -3.42755       -6.04548
| 10> H          4.43892       -2.93511       -5.97393
| 11> *
| 12>
| 13> %MaxCore 64000
| 14>
| 15> %pal nprocs 8
| 16> end
| 17>
| 18> %scf
| 19>   MaxIter 150
| 20> end
| 21>
| 22>
| 23>                          ****END OF INPUT****

CARTESIAN COORDINATES (ANGSTROEM)
---------------------------------
  C      3.511770   -2.806210   -6.492280
  S      3.004620   -1.096210   -6.389260
  O      4.128860   -0.329650   -6.953720
  O      1.781280   -1.000780   -7.136400
  F      2.851550   -0.783680   -4.956790
  H      3.636150   -3.080100   -7.519130
  H      2.763970   -3.427550   -6.045480
  H      4.438920   -2.935110   -5.973930

 Total Charge           Charge          ....    0
 Multiplicity           Mult            ....    1
 Number of Electrons    NEL             ....   50
 Basis Dimension        Dim             ....  140

ORBITAL ENERGIES
----------------

  NO   OCC          E(Eh)            E(eV)
   0   2.0000     -89.228851     -2428.0405
   1   2.0000     -24.886054      -677.1840
   2   2.0000     -19.236389      -523.4488
   3   2.0000     -19.224639      -523.1290
   4   2.0000     -10.325841      -280.9804
   5   2.0000      -8.282383      -225.3751
   6   2.0000      -6.256376      -170.2446
   7   2.0000      -6.249970      -170.0703
   8   2.0000      -6.249066      -170.0457
   9   2.0000      -1.442516       -39.2528
  10   2.0000      -1.203130       -32.7388
  11   2.0000      -1.099294       -29.9133
  12   2.0000      -0.889326       -24.1998
  13   2.0000      -0.790614       -21.5137
  14   2.0000      -0.676783       -18.4162
  15   2.0000      -0.655039       -17.8245
  16   2.0000      -0.634185       -17.2570
  17   2.0000      -0.557266       -15.1640
  18   2.0000      -0.555186       -15.1074
  19   2.0000      -0.544674       -14.8213
  20   2.0000      -0.516142       -14.0449
  21   2.0000      -0.464275       -12.6336
  22   2.0000      -0.415611       -11.3093
  23   2.0000      -0.403915       -10.9911
  24   2.0000      -0.386876       -10.5274
  25   0.0000       0.020148         0.5482
  26   0.0000       0.059693         1.6243
  27   0.0000       0.066384         1.8064
  28   0.0000       0.067170         1.8278
  29   0.0000       0.072109         1.9622

MULLIKEN ATOMIC CHARGES
-----------------------
   0 C :    0.647511
   1 S :    1.246226
   2 O :   -0.652125
   3 O :   -0.614420
   4 F :   -0.385715
   5 H :   -0.079775
   6 H :   -0.082516
   7 H :   -0.079186
Sum of atomic charges:   -0.0000000

LOEWDIN ATOMIC CHARGES
----------------------
   0 C :    0.122942
   1 S :    1.104980
   2 O :   -0.481713
   3 O :   -0.463763
   4 F :   -0.267268
   5 H :    0.004140
   6 H :   -0.010394
   7 H :   -0.008925

  Mayer bond orders larger than 0.100000
B(  0-C ,  1-S ) :   0.9955 B(  0-C ,  5-H ) :   0.8792 B(  0-C ,  6-H ) :   0.8833
B(  0-C ,  7-H ) :   0.8871 B(  1-S ,  2-O ) :   1.5217 B(  1-S ,  3-O ) :   1.5557
B(  1-S ,  4-F ) :   0.6794 B(  1-S ,  5-H ) :   0.1270 B(  1-S ,  6-H ) :   0.1006
B(  1-S ,  7-H ) :   0.1077

FINAL SINGLE POINT ENERGY      -687.904224714411

DIPOLE MOMENT
-------------
                                X             Y             Z
Electronic contribution:     -1.53943       4.42358       2.57932
Nuclear contribution   :      1.78651      -5.91544      -1.78339
                        -----------------------------------------
Total Dipole Moment    :      0.24709      -1.49186       0.79593
                        -----------------------------------------
Magnitude (a.u.)       :      1.70886
Magnitude (Debye)      :      4.34358

Rotational constants in cm-1:     0.165193     0.152051     0.147788
Rotational constants in MHz :  4952.361749  4558.380225  4430.570551

                             ****ORCA TERMINATED NORMALLY****
TOTAL RUN TIME: 0 days 0 hours 0 minutes 10 seconds 247 msec
