                         Program Version 5.0.0 -  RELEASE  -
|  1> !CAM-B3LYP RIJCOSX def2-SVPD def2/J TightSCF
|  2> *xyz 0 1
|  3> C          4.49059        1.15590       -2.46929
|  4> N          4.30539        1.22276       -3.90832
|  5> C          4.63192        2.24637       -4.67096
|  6> N          4.54169        2.14399       -5.98714
|  7> C          5.08409        3.39358       -4.11855
|  8> H          4.92067        3.57050       -3.13587
|  9> H          5.25465        4.19739       -4.70696
| 10> H          3.82453        0.44911       -4.35093
| 11> H          4.34337        1.24932       -6.41665
| 12> H          4.67671        2.95662       -6.57411
| 13> H          5.00867        2.03053       -2.13534
| 14> H          5.06354        0.28631       -2.22344
| 15> H          3.53600        1.10160       -1.98897
| 16> *
| 17>
| 18> %MaxCore 64000
| 19>
| 20> %pal nprocs 8
| 21> end
| 22>
| 23> %scf
| 24>   MaxIter 150
| 25> end
| 26>
| 27>
| 28>                          ****END OF INPUT****

CARTESIAN COORDINATES (ANGSTROEM)
---------------------------------
  C      4.490590    1.155900   -2.469290
  N      4.305390    1.222760   -3.908320
  C      4.631920    2.246370   -4.670960
  N      4.541690    2.143990   -5.987140
  C      5.084090    3.393580   -4.118550
  H      4.920670    3.570500   -3.135870
  H      5.254650    4.197390   -4.706960
  H      3.824530    0.449110   -4.350930
  H      4.343370    1.249320   -6.416650
  H      4.676710    2.956620   -6.574110
  H      5.008670    2.030530   -2.135340
  H      5.063540    0.286310   -2.223440
  H      3.536000    1.101600   -1.988970

 Total Charge           Charge          ....    0
 Multiplicity           Mult            ....    1
 Number of Electrons    NEL             ....   40
 Basis Dimension        Dim             ....  164

ORBITAL ENERGIES
----------------

  NO   OCC          E(Eh)            E(eV)
   0   2.0000     -14.408887      -392.0857
   1   2.0000     -14.406977      -392.0338
   2   2.0000     -10.309174      -280.5269
   3   2.0000     -10.281286      -279.7680
   4   2.0000     -10.167931      -276.6835
   5   2.0000      -1.047507       -28.5041
   6   2.0000      -0.960526       -26.1372
   7   2.0000      -0.792967       -21.5777
   8   2.0000      -0.771099       -20.9827
   9   2.0000      -0.643364       -17.5068
  10   2.0000      -0.625631       -17.0243
  11   2.0000      -0.591977       -16.1085
  12   2.0000      -0.526628       -14.3303
  13   2.0000      -0.514043       -13.9878
  14   2.0000      -0.484871       -13.1940
  15   2.0000      -0.451901       -12.2968
  16   2.0000      -0.446669       -12.1545
  17   2.0000      -0.425826       -11.5873
  18   2.0000      -0.316004        -8.5989
  19   2.0000      -0.220259        -5.9935
  20   0.0000       0.047033         1.2798
  21   0.0000       0.069141         1.8814
  22   0.0000       0.083543         2.2733
  23   0.0000       0.112639         3.0651
  24   0.0000       0.117755         3.2043

MULLIKEN ATOMIC CHARGES
-----------------------
   0 C :    1.403802
   1 N :   -0.427945
   2 C :    0.701082
   3 N :    0.215635
   4 C :    0.376915
   5 H :   -0.264097
   6 H :   -0.570930
   7 H :   -0.420493
   8 H :   -0.226408
   9 H :   -0.081886
  10 H :   -0.258219
  11 H :   -0.204326
  12 H :   -0.243131
Sum of atomic charges:    0.0000000

LOEWDIN ATOMIC CHARGES
----------------------
   0 C :    0.223274
   1 N :   -0.049085
   2 C :   -0.239652
   3 N :    0.184067
   4 C :    0.151003
   5 H :   -0.124953
   6 H :   -0.109640
   7 H :    0.023005
   8 H :   -0.007387
   9 H :    0.009497
  10 H :   -0.033328
  11 H :   -0.013897
  12 H :   -0.012903

  Mayer bond orders larger than 0.100000
B(  0-C ,  1-N ) :   0.9156 B(  0-C ,  7-H ) :  -0.1828 B(  0-C , 10-H ) :   0.8113
B(  0-C , 11-H ) :   0.6817 B(  0-C , 12-H ) :   0.6993 B(  1-N ,  2-C ) :   1.0211
B(  1-N ,  3-N ) :   0.1327 B(  1-N ,  4-C ) :   0.3115 B(  1-N ,  7-H ) :   1.3727
B(  1-N , 10-H ) :   0.1829 B(  1-N , 11-H ) :   0.2332 B(  1-N , 12-H ) :   0.2154
B(  2-C ,  3-N ) :   1.0059 B(  2-C ,  4-C ) :   1.6287 B(  2-C ,  5-H ) :   0.1966
B(  2-C ,  6-H ) :   0.1218 B(  2-C ,  7-H ) :  -0.2684 B(  2-C ,  8-H ) :  -0.1021
B(  3-N ,  4-C ) :   0.2216 B(  3-N ,  8-H ) :   1.2139 B(  3-N ,  9-H ) :   1.1795
B(  4-C ,  5-H ) :   0.6964 B(  4-C ,  6-H ) :   0.9038 B(  5-H ,  6-H ) :   0.1121
B(  5-H , 10-H ) :   0.1515 B(  8-H ,  9-H ) :  -0.1771

FINAL SINGLE POINT ENERGY      -228.319590891220

DIPOLE MOMENT
-------------
                                X             Y             Z
Electronic contribution:     -0.39350      -0.73087      -2.64033
Nuclear contribution   :     -0.13890      -0.20745       2.21867
                        -----------------------------------------
Total Dipole Moment    :     -0.53240      -0.93832      -0.42166
                        -----------------------------------------
Magnitude (a.u.)       :      1.15832
Magnitude (Debye)      :      2.94421

Rotational constants in cm-1:     0.339212     0.134625     0.098371
Rotational constants in MHz : 10169.318272  4035.946597  2949.073953

                             ****ORCA TERMINATED NORMALLY****
TOTAL RUN TIME: 0 days 0 hours 0 minutes 13 seconds 932 msec
