                         Program Version 5.0.0 -  RELEASE  -
|  1> !CAM-B3LYP RIJCOSX def2-SVPD def2/J TightSCF xyzfile
|  2>
|  3> *xyzfile 0 1 D7.xyz
|  4>
|  5> %MaxCore 64000
|  6>
|  7> %pal nprocs 4
|  8> end
|  9>
| 10> %scf
| 11>   MaxIter 150
| 12> end
| 13>
| 14>
| 15>                          ****END OF INPUT****

CARTESIAN COORDINATES (ANGSTROEM)
---------------------------------
  C      4.490588    1.155899   -2.469290
  C      4.305394    1.222762   -3.908317
  C      4.906458   -3.102816   -5.954844
  C      3.511771   -2.806215   -6.492283
  H      2.736044   -3.373445   -5.973736
  H      3.444904   -3.040831   -7.555281
  S      3.004618   -1.096206   -6.389259
  C      4.631918    2.246365   -4.670958
  N      4.541686    2.143990   -5.987139
  N      5.084086    3.393584   -4.118545
  H      4.920675    3.570501   -3.135870
  H      5.254652    4.197390   -4.706956
  H      3.824530    0.449113   -4.350926
  H      4.343373    1.249318   -6.416646
  H      4.676712    2.956624   -6.574113
  O      4.128856   -0.329647   -6.953717
  O      1.781285   -1.000779   -7.136399
  C      5.942129    0.939500   -2.036893
  H      3.864305    0.328532   -2.136611
  H      4.076233    2.049994   -1.989010
  C      6.462677   -3.117775   -3.944671
  C      5.024977   -3.025679   -4.437625
  H      4.423321   -3.818693   -3.977648
  H      4.579350   -2.087131   -4.108727
  H      5.201533   -4.100207   -6.296905
  H      5.605922   -2.397822   -6.413368
  C      6.559957   -0.356290   -2.559086
  H      5.967976    0.952567   -0.942444
  H      6.547184    1.788331   -2.368849
  C      6.006283   -1.615917   -1.899301
  H      7.642360   -0.318000   -2.402059
  H      6.414855   -0.403433   -3.642587
  C      6.608718   -2.917014   -2.435655
  H      6.190324   -1.561115   -0.820948
  H      4.919250   -1.651245   -2.016586
  H      7.066975   -2.374258   -4.475514
  H      6.887808   -4.089747   -4.215332
  H      6.135197   -3.755573   -1.915159
  H      7.671142   -2.955503   -2.172291
  F      2.851546   -0.783683   -4.956789

 Total Charge           Charge          ....    0
 Multiplicity           Mult            ....    1
 Number of Electrons    NEL             ....  144
 Basis Dimension        Dim             ....  540

ORBITAL ENERGIES
----------------

  NO   OCC          E(Eh)            E(eV)
   0   2.0000     -89.233566     -2428.1688
   1   2.0000     -24.887174      -677.2144
   2   2.0000     -19.241814      -523.5964
   3   2.0000     -19.237029      -523.4662
   4   2.0000     -14.395241      -391.7144
   5   2.0000     -14.371878      -391.0787
   6   2.0000     -10.329115      -281.0695
   7   2.0000     -10.289827      -280.0004
   8   2.0000     -10.287472      -279.9364
   9   2.0000     -10.267963      -279.4055
  10   2.0000     -10.257610      -279.1238
  11   2.0000     -10.250963      -278.9429
  12   2.0000     -10.243038      -278.7272
  13   2.0000     -10.234020      -278.4818
  14   2.0000     -10.229130      -278.3488
  15   2.0000     -10.225638      -278.2538
  16   2.0000     -10.161717      -276.5144
  17   2.0000      -8.286133      -225.4771
  18   2.0000      -6.260231      -170.3495
  19   2.0000      -6.254156      -170.1842
  20   2.0000      -6.252364      -170.1355
  21   2.0000      -1.446876       -39.3715
  22   2.0000      -1.211159       -32.9573
  23   2.0000      -1.111708       -30.2511
  24   2.0000      -1.018569       -27.7167
  25   2.0000      -0.928537       -25.2668
  26   2.0000      -0.923608       -25.1326
  27   2.0000      -0.889536       -24.2055
  28   2.0000      -0.860085       -23.4041
  29   2.0000      -0.835316       -22.7301
  30   2.0000      -0.800011       -21.7694
  31   2.0000      -0.785422       -21.3724
  32   2.0000      -0.747349       -20.3364
  33   2.0000      -0.720218       -19.5981
  34   2.0000      -0.699096       -19.0234
  35   2.0000      -0.671951       -18.2847
  36   2.0000      -0.666720       -18.1424
  37   2.0000      -0.655496       -17.8370
  38   2.0000      -0.650456       -17.6998
  39   2.0000      -0.628273       -17.0962
  40   2.0000      -0.618383       -16.8270
  41   2.0000      -0.598080       -16.2746
  42   2.0000      -0.575894       -15.6709
  43   2.0000      -0.561521       -15.2798
  44   2.0000      -0.558865       -15.2075
  45   2.0000      -0.551786       -15.0148
  46   2.0000      -0.550148       -14.9703
  47   2.0000      -0.531004       -14.4494
  48   2.0000      -0.522077       -14.2064
  49   2.0000      -0.513062       -13.9611
  50   2.0000      -0.500454       -13.6180
  51   2.0000      -0.494206       -13.4480
  52   2.0000      -0.492168       -13.3926
  53   2.0000      -0.476053       -12.9541
  54   2.0000      -0.465761       -12.6740
  55   2.0000      -0.453020       -12.3273
  56   2.0000      -0.445605       -12.1255
  57   2.0000      -0.440384       -11.9835
  58   2.0000      -0.434910       -11.8345
  59   2.0000      -0.423931       -11.5358
  60   2.0000      -0.416436       -11.3318
  61   2.0000      -0.410816       -11.1789
  62   2.0000      -0.405415       -11.0319
  63   2.0000      -0.399231       -10.8636
  64   2.0000      -0.394640       -10.7387
  65   2.0000      -0.393122       -10.6974
  66   2.0000      -0.385909       -10.5011
  67   2.0000      -0.369721       -10.0606
  68   2.0000      -0.363533        -9.8922
  69   2.0000      -0.358265        -9.7489
  70   2.0000      -0.312844        -8.5129
  71   2.0000      -0.206091        -5.6080
  72   0.0000       0.027615         0.7514
  73   0.0000       0.048447         1.3183
  74   0.0000       0.052110         1.4180
  75   0.0000       0.055219         1.5026
  76   0.0000       0.067168         1.8277

MULLIKEN ATOMIC CHARGES
-----------------------
   0 C :    0.296253
   1 C :    0.472566
   2 C :    0.421713
   3 C :    0.408208
   4 H :   -0.051990
   5 H :   -0.063520
   6 S :    1.519626
   7 C :    0.791319
   8 N :    0.417271
   9 N :    0.142176
  10 H :   -0.077320
  11 H :   -0.307627
  12 H :   -0.956419
  13 H :   -0.365571
  14 H :   -0.250613
  15 O :   -0.666279
  16 O :   -0.676418
  17 C :    0.559084
  18 H :    0.045108
  19 H :   -0.262283
  20 C :    0.165109
  21 C :    0.494536
  22 H :   -0.024033
  23 H :   -0.744773
  24 H :   -0.160585
  25 H :    0.001853
  26 C :    0.260943
  27 H :   -0.147220
  28 H :   -0.200329
  29 C :    0.075490
  30 H :   -0.197504
  31 H :   -0.163343
  32 C :    0.794924
  33 H :   -0.419638
  34 H :    0.017162
  35 H :    0.061409
  36 H :   -0.430613
  37 H :   -0.118371
  38 H :   -0.066641
  39 F :   -0.593658
Sum of atomic charges:   -0.0000000

LOEWDIN ATOMIC CHARGES
----------------------
   0 C :   -0.048159
   1 C :   -0.023479
   2 C :   -0.031205
   3 C :   -0.037020
   4 H :    0.032958
   5 H :    0.038546
   6 S :    1.164625
   7 C :   -0.189891
   8 N :    0.211034
   9 N :    0.207875
  10 H :   -0.015733
  11 H :   -0.013330
  12 H :   -0.119744
  13 H :   -0.119381
  14 H :   -0.004840
  15 O :   -0.441874
  16 O :   -0.440114
  17 C :   -0.029271
  18 H :    0.007705
  19 H :    0.006412
  20 C :   -0.032709
  21 C :   -0.029799
  22 H :    0.040762
  23 H :   -0.011714
  24 H :    0.038729
  25 H :    0.030815
  26 C :   -0.031059
  27 H :    0.015770
  28 H :    0.011213
  29 C :   -0.037520
  30 H :    0.025044
  31 H :    0.007449
  32 C :   -0.030466
  33 H :    0.024099
  34 H :    0.004115
  35 H :    0.020713
  36 H :    0.024762
  37 H :    0.020656
  38 H :    0.023148
  39 F :   -0.269124

  Mayer bond orders larger than 0.100000
B(  0-C ,  1-C ) :   1.0853 B(  0-C , 12-H ) :   0.9033 B(  0-C , 17-C ) :   1.0837
B(  0-C , 18-H ) :   0.6696 B(  0-C , 19-H ) :   0.8447 B(  0-C , 26-C ) :   0.1322
B(  0-C , 27-H ) :   0.2067 B(  0-C , 28-H ) :   0.1435 B(  0-C , 30-H ) :  -0.1231
B(  1-C ,  7-C ) :   1.6944 B(  1-C ,  8-N ) :   0.2986 B(  1-C ,  9-N ) :   0.3113
B(  1-C , 12-H ) :  -0.7882 B(  1-C , 17-C ) :   0.1112 B(  1-C , 18-H ) :   0.4410
B(  1-C , 19-H ) :   0.1699 B(  2-C ,  3-C ) :   1.1914 B(  2-C ,  5-H ) :   0.2803
B(  2-C , 20-C ) :   0.1376 B(  2-C , 21-C ) :   1.1226 B(  2-C , 22-H ) :   0.1104
B(  2-C , 24-H ) :   0.7499 B(  2-C , 25-H ) :   0.8412 B(  3-C ,  4-H ) :   0.8958
B(  3-C ,  5-H ) :   0.6739 B(  3-C ,  6-S ) :   0.9825 B(  3-C , 21-C ) :   0.1475
B(  3-C , 25-H ) :   0.1121 B(  6-S , 15-O ) :   1.3811 B(  6-S , 16-O ) :   1.4841
B(  6-S , 39-F ) :   0.6478 B(  7-C ,  8-N ) :   0.8697 B(  7-C ,  9-N ) :   0.8625
B(  7-C , 11-H ) :  -0.1606 B(  7-C , 12-H ) :  -0.1044 B(  7-C , 13-H ) :  -0.2572
B(  7-C , 14-H ) :  -0.1383 B(  8-N , 13-H ) :   1.2133 B(  8-N , 14-H ) :   1.2948
B(  9-N , 10-H ) :   1.0847 B(  9-N , 11-H ) :   1.3033 B( 10-H , 11-H ) :  -0.1993
B( 12-H , 18-H ) :  -0.2137 B( 12-H , 39-F ) :   0.2554 B( 13-H , 14-H ) :  -0.2507
B( 13-H , 15-O ) :   0.1410 B( 17-C , 18-H ) :   0.1280 B( 17-C , 26-C ) :   1.2595
B( 17-C , 27-H ) :   0.7455 B( 17-C , 28-H ) :   0.6555 B( 17-C , 30-H ) :   0.1129
B( 17-C , 31-H ) :   0.1716 B( 18-H , 19-H ) :  -0.1116 B( 20-C , 21-C ) :   1.2093
B( 20-C , 22-H ) :   0.1183 B( 20-C , 23-H ) :   0.1553 B( 20-C , 29-C ) :   0.1506
B( 20-C , 32-C ) :   1.1149 B( 20-C , 35-H ) :   0.8372 B( 20-C , 36-H ) :   0.8827
B( 20-C , 37-H ) :   0.1058 B( 20-C , 38-H ) :   0.2548 B( 21-C , 22-H ) :   0.6645
B( 21-C , 23-H ) :   0.5049 B( 21-C , 24-H ) :   0.1968 B( 21-C , 25-H ) :   0.1079
B( 21-C , 35-H ) :   0.1132 B( 21-C , 36-H ) :   0.2000 B( 22-H , 23-H ) :   0.2430
B( 23-H , 34-H ) :   0.1326 B( 26-C , 27-H ) :   0.1327 B( 26-C , 28-H ) :   0.2550
B( 26-C , 29-C ) :   1.1970 B( 26-C , 30-H ) :   0.7823 B( 26-C , 31-H ) :   0.8420
B( 26-C , 33-H ) :   0.1399 B( 26-C , 34-H ) :   0.1108 B( 27-H , 28-H ) :  -0.1437
B( 29-C , 30-H ) :   0.1439 B( 29-C , 31-H ) :   0.1204 B( 29-C , 32-C ) :   1.1067
B( 29-C , 33-H ) :   0.9473 B( 29-C , 34-H ) :   0.8390 B( 29-C , 37-H ) :   0.3276
B( 29-C , 38-H ) :   0.1421 B( 32-C , 37-H ) :   0.6146 B( 32-C , 38-H ) :   0.6450
B( 37-H , 38-H ) :  -0.1258

FINAL SINGLE POINT ENERGY     -1189.875854297568

DIPOLE MOMENT
-------------
                                X             Y             Z
Electronic contribution:    -18.39311       3.96329     -17.98160
Nuclear contribution   :     18.74089      -4.92611      17.99644
                        -----------------------------------------
Total Dipole Moment    :      0.34778      -0.96282       0.01485
                        -----------------------------------------
Magnitude (a.u.)       :      1.02381
Magnitude (Debye)      :      2.60232

Rotational constants in cm-1:     0.014210     0.012324     0.007480
Rotational constants in MHz :   425.991442   369.455467   224.259162

                             ****ORCA TERMINATED NORMALLY****
TOTAL RUN TIME: 0 days 0 hours 8 minutes 6 seconds 854 msec
