                         Program Version 5.0.0 -  RELEASE  -
|  1> !B3LYP D3BJ RIJCOSX def2-SVPD def2/J TightSCF
|  2> *xyz -1 1
|  3> C         -0.01741        0.08059       -2.77841
|  4> C         -0.90349       -0.87394       -1.98739
|  5> H         -0.50255       -1.89210       -2.08120
|  6> H         -1.91704       -0.89543       -2.40628
|  7> C         -0.96015       -0.52236       -0.48987
|  8> H         -1.69039       -1.20813       -0.02168
|  9> H         -1.41449        0.48633       -0.40668
| 10> O          0.26170       -0.58031        0.13861
| 11> H         -0.01329       -0.20776       -3.80881
| 12> H          0.98025        0.04284       -2.39348
| 13> H         -0.39697        1.07694       -2.68836
| 14> *
| 15>
| 16> %MaxCore 64000
| 17>
| 18> %pal nprocs 4
| 19> end
| 20>
| 21> %scf
| 22>   MaxIter 150
| 23> end
| 24>
| 25>
| 26>                          ****END OF INPUT****

CARTESIAN COORDINATES (ANGSTROEM)
---------------------------------
  C     -0.017410    0.080590   -2.778410
  C     -0.903490   -0.873940   -1.987390
  H     -0.502550   -1.892100   -2.081200
  H     -1.917040   -0.895430   -2.406280
  C     -0.960150   -0.522360   -0.489870
  H     -1.690390   -1.208130   -0.021680
  H     -1.414490    0.486330   -0.406680
  O      0.261700   -0.580310    0.138610
  H     -0.013290   -0.207760   -3.808810
  H      0.980250    0.042840   -2.393480
  H     -0.396970    1.076940   -2.688360

 Total Charge           Charge          ....   -1
 Multiplicity           Mult            ....    1
 Number of Electrons    NEL             ....   34
 Basis Dimension        Dim             ....  139

ORBITAL ENERGIES
----------------

  NO   OCC          E(Eh)            E(eV)
   0   2.0000     -18.812315      -511.9091
   1   2.0000     -10.001273      -272.1485
   2   2.0000      -9.999700      -272.1057
   3   2.0000      -9.992439      -271.9081
   4   2.0000      -0.673479       -18.3263
   5   2.0000      -0.577673       -15.7193
   6   2.0000      -0.461479       -12.5575
   7   2.0000      -0.361765        -9.8441
   8   2.0000      -0.274262        -7.4630
   9   2.0000      -0.266754        -7.2588
  10   2.0000      -0.219911        -5.9841
  11   2.0000      -0.188310        -5.1242
  12   2.0000      -0.162468        -4.4210
  13   2.0000      -0.154656        -4.2084
  14   2.0000      -0.113400        -3.0858
  15   2.0000       0.024779         0.6743
  16   2.0000       0.028607         0.7784
  17   0.0000       0.163893         4.4598
  18   0.0000       0.189025         5.1436
  19   0.0000       0.204709         5.5704
  20   0.0000       0.232733         6.3330
  21   0.0000       0.248322         6.7572

MULLIKEN ATOMIC CHARGES
-----------------------
   0 C :    0.809006
   1 C :   -0.370250
   2 H :   -0.124234
   3 H :   -0.155275
   4 C :    0.593509
   5 H :   -0.258089
   6 H :   -0.185092
   7 O :   -0.892663
   8 H :   -0.179343
   9 H :   -0.094046
  10 H :   -0.143521
Sum of atomic charges:   -1.0000000

LOEWDIN ATOMIC CHARGES
----------------------
   0 C :    0.091998
   1 C :   -0.109538
   2 H :    0.000222
   3 H :   -0.016815
   4 C :   -0.210390
   5 H :   -0.039484
   6 H :   -0.033471
   7 O :   -0.557615
   8 H :   -0.052538
   9 H :   -0.034079
  10 H :   -0.038291

  Mayer bond orders larger than 0.100000
B(  0-C ,  1-C ) :   1.2637 B(  0-C ,  8-H ) :   0.7476 B(  0-C ,  9-H ) :   0.7932
B(  0-C , 10-H ) :   0.7877 B(  1-C ,  2-H ) :   0.9431 B(  1-C ,  3-H ) :   0.9815
B(  1-C ,  4-C ) :   1.0308 B(  1-C ,  5-H ) :   0.1677 B(  1-C ,  6-H ) :   0.1456
B(  1-C ,  7-O ) :   0.1447 B(  1-C ,  8-H ) :   0.2278 B(  1-C ,  9-H ) :   0.2297
B(  1-C , 10-H ) :   0.2100 B(  2-H ,  4-C ) :   0.1410 B(  3-H ,  4-C ) :   0.1069
B(  4-C ,  5-H ) :   0.9227 B(  4-C ,  6-H ) :   0.9179 B(  4-C ,  7-O ) :   1.1301

Dispersion correction           -0.010961184
FINAL SINGLE POINT ENERGY      -193.501712699166

DIPOLE MOMENT
-------------
                                X             Y             Z
Electronic contribution:      1.23389      -0.48796       2.69260
Nuclear contribution   :     -2.03764       0.64089      -4.61583
                        -----------------------------------------
Total Dipole Moment    :     -0.80375       0.15293      -1.92323
                        -----------------------------------------
Magnitude (a.u.)       :      2.09002
Magnitude (Debye)      :      5.31242

Rotational constants in cm-1:     0.508897     0.174909     0.148249
Rotational constants in MHz : 15256.351998  5243.652192  4444.387232

                             ****ORCA TERMINATED NORMALLY****
TOTAL RUN TIME: 0 days 0 hours 0 minutes 9 seconds 688 msec
