                         Program Version 5.0.0 -  RELEASE  -
|  1> !B3LYP D3BJ RIJCOSX def2-SVPD def2/J TightSCF
|  2> *xyz 1 1
|  3> C          4.36645       -0.13321       -1.41606
|  4> C          4.50829       -0.93187       -2.72425
|  5> H          4.75372       -1.97205       -2.48841
|  6> C          3.29416       -0.91821       -3.65657
|  7> H          5.38564       -0.53624       -3.24264
|  8> C          3.05650       -0.32080       -0.70738
|  9> N          2.38983        0.71129       -0.24391
| 10> N          2.51600       -1.50772       -0.55023
| 11> H          2.96768       -2.32291       -0.95631
| 12> H          1.54987       -1.49063       -0.24988
| 13> H          2.74307        1.64947       -0.41280
| 14> H          1.44036        0.50278        0.03703
| 15> H          4.48784        0.93300       -1.61157
| 16> H          5.16967       -0.41443       -0.72982
| 17> H          3.50670       -1.50229       -4.52754
| 18> H          3.07837        0.08892       -3.94644
| 19> H          2.44880       -1.33173       -3.14739
| 20> *
| 21>
| 22> %MaxCore 64000
| 23>
| 24> %pal nprocs 4
| 25> end
| 26>
| 27> %scf
| 28>   MaxIter 150
| 29> end
| 30>
| 31>
| 32>                          ****END OF INPUT****

CARTESIAN COORDINATES (ANGSTROEM)
---------------------------------
  C      4.366450   -0.133210   -1.416060
  C      4.508290   -0.931870   -2.724250
  H      4.753720   -1.972050   -2.488410
  C      3.294160   -0.918210   -3.656570
  H      5.385640   -0.536240   -3.242640
  C      3.056500   -0.320800   -0.707380
  N      2.389830    0.711290   -0.243910
  N      2.516000   -1.507720   -0.550230
  H      2.967680   -2.322910   -0.956310
  H      1.549870   -1.490630   -0.249880
  H      2.743070    1.649470   -0.412800
  H      1.440360    0.502780    0.037030
  H      4.487840    0.933000   -1.611570
  H      5.169670   -0.414430   -0.729820
  H      3.506700   -1.502290   -4.527540
  H      3.078370    0.088920   -3.946440
  H      2.448800   -1.331730   -3.147390

 Total Charge           Charge          ....    1
 Multiplicity           Mult            ....    1
 Number of Electrons    NEL             ....   48
 Basis Dimension        Dim             ....  208

ORBITAL ENERGIES
----------------

  NO   OCC          E(Eh)            E(eV)
   0   2.0000     -14.575525      -396.6202
   1   2.0000     -14.573849      -396.5746
   2   2.0000     -10.501843      -285.7697
   3   2.0000     -10.380067      -282.4560
   4   2.0000     -10.346767      -281.5499
   5   2.0000     -10.313853      -280.6542
   6   2.0000      -1.202512       -32.7220
   7   2.0000      -1.097194       -29.8562
   8   2.0000      -0.967890       -26.3376
   9   2.0000      -0.883364       -24.0376
  10   2.0000      -0.828764       -22.5518
  11   2.0000      -0.789580       -21.4856
  12   2.0000      -0.766319       -20.8526
  13   2.0000      -0.731675       -19.9099
  14   2.0000      -0.704834       -19.1795
  15   2.0000      -0.657487       -17.8911
  16   2.0000      -0.631987       -17.1973
  17   2.0000      -0.595069       -16.1927
  18   2.0000      -0.580150       -15.7867
  19   2.0000      -0.562254       -15.2997
  20   2.0000      -0.510328       -13.8867
  21   2.0000      -0.505239       -13.7482
  22   2.0000      -0.496820       -13.5192
  23   2.0000      -0.488163       -13.2836
  24   0.0000      -0.214985        -5.8500
  25   0.0000      -0.163582        -4.4513
  26   0.0000      -0.122196        -3.3251
  27   0.0000      -0.118357        -3.2207
  28   0.0000      -0.085527        -2.3273

MULLIKEN ATOMIC CHARGES
-----------------------
   0 C :    0.407751
   1 C :   -0.235065
   2 H :   -0.089152
   3 C :    0.977196
   4 H :   -0.260872
   5 C :    0.381954
   6 N :    0.228847
   7 N :    0.202020
   8 H :    0.005113
   9 H :   -0.115616
  10 H :   -0.031330
  11 H :   -0.112441
  12 H :    0.085823
  13 H :   -0.086369
  14 H :   -0.127730
  15 H :   -0.081651
  16 H :   -0.148477
Sum of atomic charges:    1.0000000

LOEWDIN ATOMIC CHARGES
----------------------
   0 C :    0.060349
   1 C :   -0.040464
   2 H :    0.022059
   3 C :    0.151533
   4 H :    0.037109
   5 C :   -0.050984
   6 N :    0.289765
   7 N :    0.293330
   8 H :    0.053703
   9 H :    0.043988
  10 H :    0.056602
  11 H :    0.041721
  12 H :    0.035194
  13 H :    0.053661
  14 H :   -0.000591
  15 H :   -0.007761
  16 H :   -0.039215

  Mayer bond orders larger than 0.100000
B(  0-C ,  1-C ) :   1.2208 B(  0-C ,  2-H ) :   0.1304 B(  0-C ,  4-H ) :   0.1449
B(  0-C ,  5-C ) :   1.1749 B(  0-C , 12-H ) :   0.7512 B(  0-C , 13-H ) :   0.7121
B(  1-C ,  2-H ) :   0.8686 B(  1-C ,  3-C ) :   1.3462 B(  1-C ,  4-H ) :   0.9187
B(  1-C , 12-H ) :   0.1657 B(  1-C , 13-H ) :   0.1265 B(  1-C , 14-H ) :   0.2521
B(  1-C , 15-H ) :   0.2341 B(  1-C , 16-H ) :   0.2417 B(  3-C , 14-H ) :   0.6990
B(  3-C , 15-H ) :   0.7356 B(  3-C , 16-H ) :   0.7705 B(  5-C ,  6-N ) :   1.1237
B(  5-C ,  7-N ) :   1.1909 B(  5-C ,  9-H ) :  -0.1307 B(  5-C , 12-H ) :   0.1784
B(  5-C , 13-H ) :   0.1965 B(  6-N ,  7-N ) :   0.2095 B(  6-N , 10-H ) :   1.1389
B(  6-N , 11-H ) :   1.1778 B(  7-N ,  8-H ) :   1.0505 B(  7-N ,  9-H ) :   1.2428
B(  8-H ,  9-H ) :  -0.1749 B( 10-H , 11-H ) :  -0.1466

Dispersion correction           -0.022692233
FINAL SINGLE POINT ENERGY      -268.009245707361

DIPOLE MOMENT
-------------
                                X             Y             Z
Electronic contribution:     -1.79066       0.89257       5.03564
Nuclear contribution   :      0.92830      -0.63755      -3.99475
                        -----------------------------------------
Total Dipole Moment    :     -0.86236       0.25502       1.04089
                        -----------------------------------------
Magnitude (a.u.)       :      1.37555
Magnitude (Debye)      :      3.49638

Rotational constants in cm-1:     0.183706     0.077449     0.071296
Rotational constants in MHz :  5507.368439  2321.870034  2137.394204

                             ****ORCA TERMINATED NORMALLY****
TOTAL RUN TIME: 0 days 0 hours 0 minutes 20 seconds 967 msec
