                         Program Version 5.0.0 -  RELEASE  -
|  1> !B3LYP D3BJ RIJCOSX def2-SVPD def2/J TightSCF xyzfile
|  2>
|  3> *xyzfile 0 1 B.xyz
|  4>
|  5> %MaxCore 64000
|  6>
|  7> %pal nprocs 4
|  8> end
|  9>
| 10> %scf
| 11>   MaxIter 150
| 12> end
| 13>
| 14>
| 15>                          ****END OF INPUT****

CARTESIAN COORDINATES (ANGSTROEM)
---------------------------------
  C      4.366454   -0.133215   -1.416062
  C      4.508292   -0.931872   -2.724249
  H      4.753716   -1.972051   -2.488408
  C      3.294164   -0.918214   -3.656570
  H      5.385637   -0.536236   -3.242640
  H      2.483463   -1.477378   -3.185764
  H      3.553092   -1.478495   -4.560331
  C      2.772335    0.460100   -4.051448
  H      2.608762    1.065107   -3.155194
  C      1.465354    0.410537   -4.853644
  H      3.532940    0.988848   -4.635671
  C      0.326171   -0.375613   -4.192580
  H      1.666704   -0.022269   -5.839323
  H      1.138198    1.439246   -5.035449
  C     -0.017405    0.080588   -2.778406
  H      0.585573   -1.439385   -4.168057
  H     -0.560005   -0.311425   -4.831461
  H      0.902090    0.201296   -2.206729
  C     -0.903495   -0.873945   -1.987388
  H     -0.479549    1.074657   -2.811915
  H     -0.502554   -1.892096   -2.081204
  H     -1.917039   -0.895427   -2.406277
  C     -0.960148   -0.522365   -0.489867
  H     -1.690392   -1.208130   -0.021677
  H     -1.414490    0.486329   -0.406677
  O      0.261703   -0.580307    0.138611
  C      3.056503   -0.320797   -0.707384
  N      2.389825    0.711285   -0.243909
  N      2.515999   -1.507721   -0.550229
  H      2.967683   -2.322915   -0.956305
  H      1.549872   -1.490634   -0.249876
  H      2.743071    1.649471   -0.412802
  H      1.440364    0.502778    0.037031
  H      4.487835    0.932997   -1.611569
  H      5.169672   -0.414432   -0.729817

 Total Charge           Charge          ....    0
 Multiplicity           Mult            ....    1
 Number of Electrons    NEL             ....  104
 Basis Dimension        Dim             ....  439

ORBITAL ENERGIES
----------------

  NO   OCC          E(Eh)            E(eV)
   0   2.0000     -19.013712      -517.3894
   1   2.0000     -14.358754      -390.7216
   2   2.0000     -14.358418      -390.7124
   3   2.0000     -10.306235      -280.4469
   4   2.0000     -10.227713      -278.3102
   5   2.0000     -10.212471      -277.8955
   6   2.0000     -10.191540      -277.3259
   7   2.0000     -10.185368      -277.1579
   8   2.0000     -10.176541      -276.9178
   9   2.0000     -10.165960      -276.6298
  10   2.0000     -10.165556      -276.6189
  11   2.0000     -10.152752      -276.2704
  12   2.0000     -10.139999      -275.9234
  13   2.0000      -0.999542       -27.1989
  14   2.0000      -0.893274       -24.3072
  15   2.0000      -0.878106       -23.8945
  16   2.0000      -0.827383       -22.5142
  17   2.0000      -0.791512       -21.5381
  18   2.0000      -0.752471       -20.4758
  19   2.0000      -0.713259       -19.4088
  20   2.0000      -0.675733       -18.3876
  21   2.0000      -0.636117       -17.3096
  22   2.0000      -0.618800       -16.8384
  23   2.0000      -0.607097       -16.5200
  24   2.0000      -0.567214       -15.4347
  25   2.0000      -0.551856       -15.0168
  26   2.0000      -0.547641       -14.9021
  27   2.0000      -0.521930       -14.2024
  28   2.0000      -0.505305       -13.7500
  29   2.0000      -0.501726       -13.6527
  30   2.0000      -0.483803       -13.1649
  31   2.0000      -0.463605       -12.6153
  32   2.0000      -0.448009       -12.1909
  33   2.0000      -0.430563       -11.7162
  34   2.0000      -0.420828       -11.4513
  35   2.0000      -0.413814       -11.2605
  36   2.0000      -0.407811       -11.0971
  37   2.0000      -0.402677       -10.9574
  38   2.0000      -0.381525       -10.3818
  39   2.0000      -0.372268       -10.1299
  40   2.0000      -0.363742        -9.8979
  41   2.0000      -0.354475        -9.6457
  42   2.0000      -0.344612        -9.3774
  43   2.0000      -0.340302        -9.2601
  44   2.0000      -0.321762        -8.7556
  45   2.0000      -0.315397        -8.5824
  46   2.0000      -0.305417        -8.3108
  47   2.0000      -0.301906        -8.2153
  48   2.0000      -0.297663        -8.0998
  49   2.0000      -0.286779        -7.8037
  50   2.0000      -0.183420        -4.9911
  51   2.0000      -0.178398        -4.8544
  52   0.0000      -0.028058        -0.7635
  53   0.0000      -0.003937        -0.1071
  54   0.0000       0.011619         0.3162
  55   0.0000       0.027615         0.7514
  56   0.0000       0.034517         0.9392

MULLIKEN ATOMIC CHARGES
-----------------------
   0 C :    0.508958
   1 C :    0.609939
   2 H :   -0.084927
   3 C :    0.078048
   4 H :   -0.238670
   5 H :   -0.081389
   6 H :   -0.228614
   7 C :    0.151842
   8 H :   -0.021713
   9 C :    0.909563
  10 H :   -0.476574
  11 C :    0.274559
  12 H :   -0.121280
  13 H :   -0.088131
  14 C :    0.753832
  15 H :    0.075401
  16 H :   -0.552148
  17 H :   -1.002903
  18 C :    0.274553
  19 H :   -0.059701
  20 H :   -0.086970
  21 H :   -0.300617
  22 C :    1.082661
  23 H :   -0.258699
  24 H :   -0.163394
  25 O :   -1.092195
  26 C :    0.015321
  27 N :    0.558190
  28 N :    0.581757
  29 H :   -0.120260
  30 H :   -0.323323
  31 H :   -0.123317
  32 H :   -0.256041
  33 H :    0.167499
  34 H :   -0.361259
Sum of atomic charges:    0.0000000

LOEWDIN ATOMIC CHARGES
----------------------
   0 C :    0.046607
   1 C :   -0.010424
   2 H :    0.015017
   3 C :   -0.022401
   4 H :    0.022962
   5 H :   -0.009673
   6 H :    0.029270
   7 C :   -0.026328
   8 H :   -0.004582
   9 C :   -0.020012
  10 H :    0.021008
  11 C :   -0.031498
  12 H :    0.017043
  13 H :    0.019051
  14 C :   -0.029742
  15 H :    0.006240
  16 H :    0.018873
  17 H :   -0.033502
  18 C :   -0.027835
  19 H :    0.031089
  20 H :    0.014434
  21 H :    0.015249
  22 C :   -0.050612
  23 H :    0.002861
  24 H :    0.007413
  25 O :   -0.430221
  26 C :   -0.069826
  27 N :    0.288908
  28 N :    0.299037
  29 H :    0.027978
  30 H :   -0.095909
  31 H :    0.030766
  32 H :   -0.102023
  33 H :    0.017946
  34 H :    0.032833

  Mayer bond orders larger than 0.100000
B(  0-C ,  1-C ) :   1.1744 B(  0-C ,  2-H ) :   0.1073 B(  0-C ,  3-C ) :   0.1197
B(  0-C ,  4-H ) :   0.1933 B(  0-C , 26-C ) :   1.1566 B(  0-C , 33-H ) :   0.6922
B(  0-C , 34-H ) :   0.5804 B(  1-C ,  2-H ) :   0.6167 B(  1-C ,  3-C ) :   1.2459
B(  1-C ,  4-H ) :   0.7162 B(  1-C ,  5-H ) :   0.1347 B(  1-C ,  6-H ) :   0.1209
B(  1-C , 26-C ) :   0.1066 B(  1-C , 33-H ) :   0.1699 B(  1-C , 34-H ) :   0.1300
B(  2-H ,  3-C ) :   0.2924 B(  2-H ,  4-H ) :  -0.1744 B(  3-C ,  4-H ) :   0.1913
B(  3-C ,  5-H ) :   0.8014 B(  3-C ,  6-H ) :   0.7584 B(  3-C ,  7-C ) :   1.2379
B(  3-C ,  8-H ) :   0.1519 B(  3-C , 10-H ) :   0.1798 B(  5-H ,  7-C ) :   0.1683
B(  5-H , 15-H ) :   0.1935 B(  5-H , 16-H ) :  -0.1041 B(  6-H ,  7-C ) :   0.1576
B(  7-C ,  8-H ) :   0.7999 B(  7-C ,  9-C ) :   1.1058 B(  7-C , 10-H ) :   0.8753
B(  7-C , 11-C ) :   0.1921 B(  7-C , 12-H ) :   0.1359 B(  7-C , 13-H ) :   0.3026
B(  8-H , 17-H ) :   0.2314 B(  9-C , 11-C ) :   1.1139 B(  9-C , 12-H ) :   0.6339
B(  9-C , 13-H ) :   0.5894 B( 11-C , 12-H ) :   0.2270 B( 11-C , 13-H ) :   0.1618
B( 11-C , 14-C ) :   1.0892 B( 11-C , 15-H ) :   0.7975 B( 11-C , 16-H ) :   0.8703
B( 11-C , 17-H ) :   0.2222 B( 11-C , 19-H ) :   0.1281 B( 12-H , 13-H ) :  -0.1504
B( 14-C , 15-H ) :   0.1646 B( 14-C , 16-H ) :   0.2427 B( 14-C , 18-C ) :   1.1365
B( 14-C , 19-H ) :   0.5909 B( 14-C , 20-H ) :   0.1596 B( 14-C , 21-H ) :   0.2790
B( 14-C , 22-C ) :   0.1403 B( 15-H , 16-H ) :  -0.1150 B( 17-H , 18-C ) :   0.2490
B( 17-H , 19-H ) :   0.2242 B( 17-H , 26-C ) :   0.1403 B( 18-C , 19-H ) :   0.1169
B( 18-C , 20-H ) :   0.8603 B( 18-C , 21-H ) :   0.7753 B( 18-C , 22-C ) :   1.0083
B( 18-C , 23-H ) :   0.2475 B( 18-C , 24-H ) :   0.1262 B( 18-C , 25-O ) :   0.1234
B( 20-H , 22-C ) :   0.1124 B( 22-C , 23-H ) :   0.6703 B( 22-C , 24-H ) :   0.7496
B( 22-C , 25-O ) :   1.0156 B( 24-H , 25-O ) :   0.2006 B( 25-O , 26-C ) :   0.1236
B( 25-O , 27-N ) :  -0.1018 B( 25-O , 30-H ) :   0.3464 B( 25-O , 32-H ) :   0.3143
B( 26-C , 27-N ) :   1.0726 B( 26-C , 28-N ) :   1.0855 B( 26-C , 32-H ) :   0.1184
B( 26-C , 33-H ) :   0.2376 B( 26-C , 34-H ) :   0.3323 B( 27-N , 28-N ) :   0.2278
B( 27-N , 31-H ) :   1.1148 B( 27-N , 32-H ) :   1.0191 B( 28-N , 29-H ) :   1.0919
B( 28-N , 30-H ) :   1.0705 B( 29-H , 30-H ) :  -0.2429 B( 31-H , 32-H ) :  -0.1733
B( 33-H , 34-H ) :  -0.1035

Dispersion correction           -0.064108675
FINAL SINGLE POINT ENERGY      -578.332622480054

DIPOLE MOMENT
-------------
                                X             Y             Z
Electronic contribution:      2.76175      -0.26864       7.53822
Nuclear contribution   :     -0.17996       0.53390      -8.68067
                        -----------------------------------------
Total Dipole Moment    :      2.58179       0.26526      -1.14244
                        -----------------------------------------
Magnitude (a.u.)       :      2.83569
Magnitude (Debye)      :      7.20776

Rotational constants in cm-1:     0.028240     0.022734     0.014600
Rotational constants in MHz :   846.611263   681.554306   437.693928

                             ****ORCA TERMINATED NORMALLY****
TOTAL RUN TIME: 0 days 0 hours 3 minutes 2 seconds 747 msec
