                         Program Version 5.0.0 -  RELEASE  -
|  1> !B3LYP D3BJ RIJCOSX def2-SVPD def2/J TightSCF
|  2> *xyz 0 1
|  3> C         -0.01741        0.08059       -2.77841
|  4> C         -0.90349       -0.87394       -1.98739
|  5> H         -0.50255       -1.89210       -2.08120
|  6> H         -1.91704       -0.89543       -2.40628
|  7> C         -0.96015       -0.52236       -0.48987
|  8> H         -1.69039       -1.20813       -0.02168
|  9> H         -1.41449        0.48633       -0.40668
| 10> F          0.26170       -0.58031        0.13861
| 11> H         -0.01329       -0.20776       -3.80881
| 12> H          0.98025        0.04284       -2.39348
| 13> H         -0.39697        1.07694       -2.68836
| 14> *
| 15>
| 16> %MaxCore 64000
| 17>
| 18> %pal nprocs 4
| 19> end
| 20>
| 21> %scf
| 22>   MaxIter 150
| 23> end
| 24>
| 25>
| 26>                          ****END OF INPUT****

CARTESIAN COORDINATES (ANGSTROEM)
---------------------------------
  C     -0.017410    0.080590   -2.778410
  C     -0.903490   -0.873940   -1.987390
  H     -0.502550   -1.892100   -2.081200
  H     -1.917040   -0.895430   -2.406280
  C     -0.960150   -0.522360   -0.489870
  H     -1.690390   -1.208130   -0.021680
  H     -1.414490    0.486330   -0.406680
  F      0.261700   -0.580310    0.138610
  H     -0.013290   -0.207760   -3.808810
  H      0.980250    0.042840   -2.393480
  H     -0.396970    1.076940   -2.688360

 Total Charge           Charge          ....    0
 Multiplicity           Mult            ....    1
 Number of Electrons    NEL             ....   34
 Basis Dimension        Dim             ....  139

ORBITAL ENERGIES
----------------

  NO   OCC          E(Eh)            E(eV)
   0   2.0000     -24.686149      -671.7443
   1   2.0000     -10.262036      -279.2442
   2   2.0000     -10.190798      -277.3057
   3   2.0000     -10.170778      -276.7609
   4   2.0000      -1.182471       -32.1767
   5   2.0000      -0.783778       -21.3277
   6   2.0000      -0.684376       -18.6228
   7   2.0000      -0.593769       -16.1573
   8   2.0000      -0.510987       -13.9047
   9   2.0000      -0.493946       -13.4410
  10   2.0000      -0.471069       -12.8184
  11   2.0000      -0.437675       -11.9097
  12   2.0000      -0.402998       -10.9661
  13   2.0000      -0.378339       -10.2951
  14   2.0000      -0.355233        -9.6664
  15   2.0000      -0.330092        -8.9823
  16   2.0000      -0.328664        -8.9434
  17   0.0000       0.019885         0.5411
  18   0.0000       0.046200         1.2572
  19   0.0000       0.054600         1.4857
  20   0.0000       0.066029         1.7967
  21   0.0000       0.088498         2.4081

MULLIKEN ATOMIC CHARGES
-----------------------
   0 C :    0.837247
   1 C :   -0.323316
   2 H :   -0.135067
   3 H :   -0.149791
   4 C :    0.888985
   5 H :   -0.173220
   6 H :   -0.111358
   7 F :   -0.445971
   8 H :   -0.153808
   9 H :   -0.102501
  10 H :   -0.131199
Sum of atomic charges:    0.0000000

LOEWDIN ATOMIC CHARGES
----------------------
   0 C :    0.127330
   1 C :   -0.061182
   2 H :    0.022277
   3 H :    0.023921
   4 C :    0.103017
   5 H :    0.025521
   6 H :    0.030242
   7 F :   -0.211221
   8 H :   -0.021858
   9 H :   -0.017666
  10 H :   -0.020380

  Mayer bond orders larger than 0.100000
B(  0-C ,  1-C ) :   1.3054 B(  0-C ,  8-H ) :   0.7694 B(  0-C ,  9-H ) :   0.7836
B(  0-C , 10-H ) :   0.7802 B(  1-C ,  2-H ) :   0.9226 B(  1-C ,  3-H ) :   0.9345
B(  1-C ,  4-C ) :   1.1739 B(  1-C ,  5-H ) :   0.1328 B(  1-C ,  6-H ) :   0.1130
B(  1-C ,  8-H ) :   0.2140 B(  1-C ,  9-H ) :   0.2088 B(  1-C , 10-H ) :   0.1913
B(  4-C ,  5-H ) :   0.8742 B(  4-C ,  6-H ) :   0.8748 B(  4-C ,  7-F ) :   0.7213

Dispersion correction           -0.010335647
FINAL SINGLE POINT ENERGY      -218.111195861117

DIPOLE MOMENT
-------------
                                X             Y             Z
Electronic contribution:      2.24328      -0.77644       5.88483
Nuclear contribution   :     -2.83598       0.77614      -6.32113
                        -----------------------------------------
Total Dipole Moment    :     -0.59271      -0.00030      -0.43630
                        -----------------------------------------
Magnitude (a.u.)       :      0.73598
Magnitude (Debye)      :      1.87070

Rotational constants in cm-1:     0.494803     0.164634     0.139827
Rotational constants in MHz : 14833.819345  4935.593559  4191.919783

                             ****ORCA TERMINATED NORMALLY****
TOTAL RUN TIME: 0 days 0 hours 0 minutes 8 seconds 257 msec
