                         Program Version 5.0.0 -  RELEASE  -
|  1> !B3LYP D3BJ RIJCOSX def2-SVPD def2/J TightSCF
|  2> *xyz 0 1
|  3> C          4.36645       -0.13321       -1.41606
|  4> C          4.50829       -0.93187       -2.72425
|  5> H          4.75372       -1.97205       -2.48841
|  6> C          3.29416       -0.91821       -3.65657
|  7> H          5.38564       -0.53624       -3.24264
|  8> C          3.05650       -0.32080       -0.70738
|  9> C          2.38983        0.71129       -0.24391
| 10> N          2.51600       -1.50772       -0.55023
| 11> H          2.96768       -2.32291       -0.95631
| 12> H          1.54987       -1.49063       -0.24988
| 13> H          2.74307        1.64947       -0.41280
| 14> H          1.44036        0.50278        0.03703
| 15> H          4.48784        0.93300       -1.61157
| 16> H          5.16967       -0.41443       -0.72982
| 17> H          3.50670       -1.50229       -4.52754
| 18> H          3.07837        0.08892       -3.94644
| 19> H          2.44880       -1.33173       -3.14739
| 20> *
| 21>
| 22> %MaxCore 64000
| 23>
| 24> %pal nprocs 4
| 25> end
| 26>
| 27> %scf
| 28>   MaxIter 150
| 29> end
| 30>
| 31>
| 32>                          ****END OF INPUT****

CARTESIAN COORDINATES (ANGSTROEM)
---------------------------------
  C      4.366450   -0.133210   -1.416060
  C      4.508290   -0.931870   -2.724250
  H      4.753720   -1.972050   -2.488410
  C      3.294160   -0.918210   -3.656570
  H      5.385640   -0.536240   -3.242640
  C      3.056500   -0.320800   -0.707380
  C      2.389830    0.711290   -0.243910
  N      2.516000   -1.507720   -0.550230
  H      2.967680   -2.322910   -0.956310
  H      1.549870   -1.490630   -0.249880
  H      2.743070    1.649470   -0.412800
  H      1.440360    0.502780    0.037030
  H      4.487840    0.933000   -1.611570
  H      5.169670   -0.414430   -0.729820
  H      3.506700   -1.502290   -4.527540
  H      3.078370    0.088920   -3.946440
  H      2.448800   -1.331730   -3.147390

 Total Charge           Charge          ....    0
 Multiplicity           Mult            ....    1
 Number of Electrons    NEL             ....   48
 Basis Dimension        Dim             ....  208

ORBITAL ENERGIES
----------------

  NO   OCC          E(Eh)            E(eV)
   0   2.0000     -14.330155      -389.9433
   1   2.0000     -10.199455      -277.5413
   2   2.0000     -10.184520      -277.1349
   3   2.0000     -10.182340      -277.0756
   4   2.0000     -10.166028      -276.6317
   5   2.0000     -10.115512      -275.2571
   6   2.0000      -0.925784       -25.1919
   7   2.0000      -0.785056       -21.3624
   8   2.0000      -0.730263       -19.8715
   9   2.0000      -0.679543       -18.4913
  10   2.0000      -0.598339       -16.2816
  11   2.0000      -0.557858       -15.1801
  12   2.0000      -0.532637       -14.4938
  13   2.0000      -0.460044       -12.5184
  14   2.0000      -0.456035       -12.4093
  15   2.0000      -0.451322       -12.2811
  16   2.0000      -0.396918       -10.8007
  17   2.0000      -0.394808       -10.7433
  18   2.0000      -0.381794       -10.3892
  19   2.0000      -0.363249        -9.8845
  20   2.0000      -0.334871        -9.1123
  21   2.0000      -0.334547        -9.1035
  22   2.0000      -0.321832        -8.7575
  23   2.0000      -0.190081        -5.1724
  24   0.0000       0.011867         0.3229
  25   0.0000       0.031290         0.8515
  26   0.0000       0.047074         1.2809
  27   0.0000       0.050207         1.3662
  28   0.0000       0.060126         1.6361

MULLIKEN ATOMIC CHARGES
-----------------------
   0 C :    0.562921
   1 C :   -0.237951
   2 H :   -0.120655
   3 C :    0.985710
   4 H :   -0.274139
   5 C :   -0.411674
   6 C :    0.544282
   7 N :    0.366365
   8 H :   -0.117943
   9 H :   -0.153900
  10 H :   -0.248766
  11 H :   -0.448842
  12 H :    0.135874
  13 H :   -0.172018
  14 H :   -0.125221
  15 H :   -0.112548
  16 H :   -0.171495
Sum of atomic charges:    0.0000000

LOEWDIN ATOMIC CHARGES
----------------------
   0 C :    0.020187
   1 C :   -0.065399
   2 H :    0.006314
   3 C :    0.133488
   4 H :    0.013450
   5 C :   -0.266037
   6 C :    0.180134
   7 N :    0.176948
   8 H :    0.002462
   9 H :    0.005246
  10 H :   -0.081861
  11 H :   -0.088265
  12 H :    0.019984
  13 H :    0.022638
  14 H :   -0.022432
  15 H :   -0.017040
  16 H :   -0.039817

  Mayer bond orders larger than 0.100000
B(  0-C ,  1-C ) :   1.1900 B(  0-C ,  2-H ) :   0.1710 B(  0-C ,  4-H ) :   0.1828
B(  0-C ,  5-C ) :   1.2111 B(  0-C , 10-H ) :  -0.1063 B(  0-C , 12-H ) :   0.7539
B(  0-C , 13-H ) :   0.6352 B(  1-C ,  2-H ) :   0.8380 B(  1-C ,  3-C ) :   1.3213
B(  1-C ,  4-H ) :   0.8835 B(  1-C ,  5-C ) :   0.1281 B(  1-C , 12-H ) :   0.1759
B(  1-C , 13-H ) :   0.1204 B(  1-C , 14-H ) :   0.2594 B(  1-C , 15-H ) :   0.2417
B(  1-C , 16-H ) :   0.2455 B(  2-H ,  3-C ) :   0.1000 B(  3-C , 14-H ) :   0.6669
B(  3-C , 15-H ) :   0.7282 B(  3-C , 16-H ) :   0.7823 B(  5-C ,  6-C ) :   1.7855
B(  5-C ,  7-N ) :   1.2385 B(  5-C , 11-H ) :   0.3786 B(  5-C , 12-H ) :   0.1057
B(  5-C , 13-H ) :   0.2855 B(  6-C ,  7-N ) :   0.3361 B(  6-C , 10-H ) :   0.9551
B(  6-C , 11-H ) :   0.5196 B(  7-N ,  8-H ) :   1.0197 B(  7-N ,  9-H ) :   1.1162
B(  8-H ,  9-H ) :  -0.1512 B( 15-H , 16-H ) :   0.1018

Dispersion correction           -0.023461773
FINAL SINGLE POINT ENERGY      -251.551333749313

DIPOLE MOMENT
-------------
                                X             Y             Z
Electronic contribution:     -0.64521      -0.29300       3.30192
Nuclear contribution   :      0.70803      -0.34641      -3.68680
                        -----------------------------------------
Total Dipole Moment    :      0.06282      -0.63941      -0.38488
                        -----------------------------------------
Magnitude (a.u.)       :      0.74895
Magnitude (Debye)      :      1.90368

Rotational constants in cm-1:     0.186653     0.080341     0.073591
Rotational constants in MHz :  5595.710092  2408.571280  2206.200061

                             ****ORCA TERMINATED NORMALLY****
TOTAL RUN TIME: 0 days 0 hours 0 minutes 24 seconds 215 msec
