                         Program Version 5.0.0 -  RELEASE  -
|  1> !B3LYP D3BJ RIJCOSX def2-SVPD def2/J TightSCF
|  2> *xyz 0 1
|  3> C          4.36645       -0.13321       -1.41606
|  4> C          4.50829       -0.93187       -2.72425
|  5> H          4.75372       -1.97205       -2.48841
|  6> C          3.29416       -0.91821       -3.65657
|  7> H          5.38564       -0.53624       -3.24264
|  8> C          3.05650       -0.32080       -0.70738
|  9> N          2.38983        0.71129       -0.24391
| 10> C          2.51600       -1.50772       -0.55023
| 11> H          2.96768       -2.32291       -0.95631
| 12> H          1.54987       -1.49063       -0.24988
| 13> H          2.74307        1.64947       -0.41280
| 14> H          1.44036        0.50278        0.03703
| 15> H          4.48784        0.93300       -1.61157
| 16> H          5.16967       -0.41443       -0.72982
| 17> H          3.50670       -1.50229       -4.52754
| 18> H          3.07837        0.08892       -3.94644
| 19> H          2.44880       -1.33173       -3.14739
| 20> *
| 21>
| 22> %MaxCore 64000
| 23>
| 24> %pal nprocs 4
| 25> end
| 26>
| 27> %scf
| 28>   MaxIter 150
| 29> end
| 30>
| 31>
| 32>                          ****END OF INPUT****

CARTESIAN COORDINATES (ANGSTROEM)
---------------------------------
  C      4.366450   -0.133210   -1.416060
  C      4.508290   -0.931870   -2.724250
  H      4.753720   -1.972050   -2.488410
  C      3.294160   -0.918210   -3.656570
  H      5.385640   -0.536240   -3.242640
  C      3.056500   -0.320800   -0.707380
  N      2.389830    0.711290   -0.243910
  C      2.516000   -1.507720   -0.550230
  H      2.967680   -2.322910   -0.956310
  H      1.549870   -1.490630   -0.249880
  H      2.743070    1.649470   -0.412800
  H      1.440360    0.502780    0.037030
  H      4.487840    0.933000   -1.611570
  H      5.169670   -0.414430   -0.729820
  H      3.506700   -1.502290   -4.527540
  H      3.078370    0.088920   -3.946440
  H      2.448800   -1.331730   -3.147390

 Total Charge           Charge          ....    0
 Multiplicity           Mult            ....    1
 Number of Electrons    NEL             ....   48
 Basis Dimension        Dim             ....  208

ORBITAL ENERGIES
----------------

  NO   OCC          E(Eh)            E(eV)
   0   2.0000     -14.330687      -389.9578
   1   2.0000     -10.199493      -277.5423
   2   2.0000     -10.184149      -277.1248
   3   2.0000     -10.179413      -276.9959
   4   2.0000     -10.158812      -276.4353
   5   2.0000     -10.113343      -275.1981
   6   2.0000      -0.925646       -25.1881
   7   2.0000      -0.785723       -21.3806
   8   2.0000      -0.718570       -19.5533
   9   2.0000      -0.683746       -18.6057
  10   2.0000      -0.602137       -16.3850
  11   2.0000      -0.548149       -14.9159
  12   2.0000      -0.527176       -14.3452
  13   2.0000      -0.480926       -13.0867
  14   2.0000      -0.452459       -12.3120
  15   2.0000      -0.429985       -11.7005
  16   2.0000      -0.403972       -10.9926
  17   2.0000      -0.392549       -10.6818
  18   2.0000      -0.370642       -10.0857
  19   2.0000      -0.360665        -9.8142
  20   2.0000      -0.337728        -9.1900
  21   2.0000      -0.326609        -8.8875
  22   2.0000      -0.323604        -8.8057
  23   2.0000      -0.187654        -5.1063
  24   0.0000       0.017152         0.4667
  25   0.0000       0.029148         0.7932
  26   0.0000       0.041880         1.1396
  27   0.0000       0.051732         1.4077
  28   0.0000       0.065044         1.7699

MULLIKEN ATOMIC CHARGES
-----------------------
   0 C :    0.728188
   1 C :   -0.268463
   2 H :   -0.069304
   3 C :    0.980427
   4 H :   -0.294870
   5 C :   -0.324172
   6 N :    0.325004
   7 C :    0.679943
   8 H :   -0.208903
   9 H :   -0.613195
  10 H :   -0.188658
  11 H :   -0.118525
  12 H :   -0.043319
  13 H :   -0.184968
  14 H :   -0.155804
  15 H :   -0.114088
  16 H :   -0.129294
Sum of atomic charges:   -0.0000000

LOEWDIN ATOMIC CHARGES
----------------------
   0 C :    0.020244
   1 C :   -0.059923
   2 H :    0.013244
   3 C :    0.134589
   4 H :    0.012167
   5 C :   -0.255970
   6 N :    0.173285
   7 C :    0.172953
   8 H :   -0.077275
   9 H :   -0.086984
  10 H :   -0.000213
  11 H :    0.002698
  12 H :    0.008392
  13 H :    0.025300
  14 H :   -0.022730
  15 H :   -0.020792
  16 H :   -0.038985

  Mayer bond orders larger than 0.100000
B(  0-C ,  1-C ) :   1.2098 B(  0-C ,  2-H ) :   0.1300 B(  0-C ,  4-H ) :   0.1894
B(  0-C ,  5-C ) :   1.0585 B(  0-C , 12-H ) :   0.5677 B(  0-C , 13-H ) :   0.7240
B(  1-C ,  2-H ) :   0.8457 B(  1-C ,  3-C ) :   1.3317 B(  1-C ,  4-H ) :   0.8755
B(  1-C , 12-H ) :   0.1645 B(  1-C , 13-H ) :   0.1526 B(  1-C , 14-H ) :   0.2683
B(  1-C , 15-H ) :   0.2473 B(  1-C , 16-H ) :   0.2660 B(  3-C , 14-H ) :   0.6679
B(  3-C , 15-H ) :   0.7309 B(  3-C , 16-H ) :   0.7718 B(  5-C ,  6-N ) :   1.1857
B(  5-C ,  7-C ) :   1.8832 B(  5-C ,  8-H ) :   0.1814 B(  5-C ,  9-H ) :   0.3208
B(  5-C , 12-H ) :   0.2751 B(  5-C , 13-H ) :   0.1751 B(  6-N ,  7-C ) :   0.2848
B(  6-N , 10-H ) :   1.1407 B(  6-N , 11-H ) :   1.0924 B(  7-C ,  8-H ) :   0.6830
B(  7-C ,  9-H ) :   0.6078 B(  8-H ,  9-H ) :  -0.1407 B( 10-H , 11-H ) :  -0.1213
B( 15-H , 16-H ) :   0.1009

Dispersion correction           -0.023578947
FINAL SINGLE POINT ENERGY      -251.549692628628

DIPOLE MOMENT
-------------
                                X             Y             Z
Electronic contribution:     -0.75472       1.57397       3.58613
Nuclear contribution   :      0.73787      -0.87128      -3.75926
                        -----------------------------------------
Total Dipole Moment    :     -0.01685       0.70269      -0.17313
                        -----------------------------------------
Magnitude (a.u.)       :      0.72390
Magnitude (Debye)      :      1.84001

Rotational constants in cm-1:     0.191039     0.078358     0.072723
Rotational constants in MHz :  5727.202281  2349.118247  2180.181745

                             ****ORCA TERMINATED NORMALLY****
TOTAL RUN TIME: 0 days 0 hours 0 minutes 24 seconds 298 msec
