                         Program Version 5.0.0 -  RELEASE  -
|  1> !B3LYP D3BJ RIJCOSX def2-TZVP def2/J TightSCF
|  2> *xyz -1 1
|  3> C         -0.91495        0.61511        2.50554
|  4> C         -0.05915        1.50352        3.41058
|  5> H          0.36536        2.34431        2.86116
|  6> H         -0.69226        1.92021        4.19898
|  7> C          1.08303        0.74964        4.08571
|  8> O          2.22817        1.26348        4.01983
|  9> O          0.81003       -0.34541        4.63627
| 10> H         -0.30401        0.20228        1.73015
| 11> H         -1.69811        1.19946        2.06954
| 12> H         -1.34124       -0.17772        3.08397
| 13> *
| 14>
| 15> %MaxCore 64000
| 16>
| 17> %pal nprocs 4
| 18> end
| 19>
| 20> %scf
| 21>   MaxIter 150
| 22> end
| 23>
| 24>
| 25>                          ****END OF INPUT****

CARTESIAN COORDINATES (ANGSTROEM)
---------------------------------
  C     -0.914950    0.615110    2.505540
  C     -0.059150    1.503520    3.410580
  H      0.365360    2.344310    2.861160
  H     -0.692260    1.920210    4.198980
  C      1.083030    0.749640    4.085710
  O      2.228170    1.263480    4.019830
  O      0.810030   -0.345410    4.636270
  H     -0.304010    0.202280    1.730150
  H     -1.698110    1.199460    2.069540
  H     -1.341240   -0.177720    3.083970

 Total Charge           Charge          ....   -1
 Multiplicity           Mult            ....    1
 Number of Electrons    NEL             ....   40
 Basis Dimension        Dim             ....  185

ORBITAL ENERGIES
----------------

  NO   OCC          E(Eh)            E(eV)
   0   2.0000     -18.848326      -512.8890
   1   2.0000     -18.847170      -512.8576
   2   2.0000     -10.040512      -273.2162
   3   2.0000      -9.999429      -272.0983
   4   2.0000      -9.987857      -271.7834
   5   2.0000      -0.809646       -22.0316
   6   2.0000      -0.717890       -19.5348
   7   2.0000      -0.599728       -16.3194
   8   2.0000      -0.469124       -12.7655
   9   2.0000      -0.313450        -8.5294
  10   2.0000      -0.288109        -7.8399
  11   2.0000      -0.253829        -6.9070
  12   2.0000      -0.223171        -6.0728
  13   2.0000      -0.208778        -5.6811
  14   2.0000      -0.200158        -5.4466
  15   2.0000      -0.171404        -4.6641
  16   2.0000      -0.153167        -4.1679
  17   2.0000      -0.039328        -1.0702
  18   2.0000      -0.032858        -0.8941
  19   2.0000      -0.018327        -0.4987
  20   0.0000       0.183446         4.9918
  21   0.0000       0.224661         6.1133
  22   0.0000       0.242902         6.6097
  23   0.0000       0.248192         6.7537
  24   0.0000       0.261001         7.1022

MULLIKEN ATOMIC CHARGES
-----------------------
   0 C :   -0.290084
   1 C :   -0.115310
   2 H :    0.029618
   3 H :    0.022443
   4 C :    0.199890
   5 O :   -0.525338
   6 O :   -0.525562
   7 H :    0.075091
   8 H :    0.043698
   9 H :    0.085555
Sum of atomic charges:   -1.0000000

LOEWDIN ATOMIC CHARGES
----------------------
   0 C :   -0.321927
   1 C :   -0.289126
   2 H :    0.115618
   3 H :    0.118862
   4 C :   -0.701125
   5 O :   -0.114864
   6 O :   -0.111626
   7 H :    0.105528
   8 H :    0.089907
   9 H :    0.108754

  Mayer bond orders larger than 0.100000
B(  0-C ,  1-C ) :   0.9420 B(  0-C ,  7-H ) :   0.9822 B(  0-C ,  8-H ) :   0.9674
B(  0-C ,  9-H ) :   0.9717 B(  1-C ,  2-H ) :   0.9531 B(  1-C ,  3-H ) :   0.9526
B(  1-C ,  4-C ) :   0.9374 B(  4-C ,  5-O ) :   1.8865 B(  4-C ,  6-O ) :   1.8488

Dispersion correction           -0.010966401
FINAL SINGLE POINT ENERGY      -267.811233539360

DIPOLE MOMENT
-------------
                                X             Y             Z
Electronic contribution:      4.82303      -1.03965       3.41563
Nuclear contribution   :     -6.38408       1.63097      -4.40540
                        -----------------------------------------
Total Dipole Moment    :     -1.56105       0.59132      -0.98977
                        -----------------------------------------
Magnitude (a.u.)       :      1.94067
Magnitude (Debye)      :      4.93278

Rotational constants in cm-1:     0.319732     0.134414     0.104753
Rotational constants in MHz :  9585.336550  4029.633034  3140.404334

                             ****ORCA TERMINATED NORMALLY****
TOTAL RUN TIME: 0 days 0 hours 0 minutes 21 seconds 763 msec
