                         Program Version 5.0.0 -  RELEASE  -
|  1> !B3LYP D3BJ RIJCOSX def2-TZVP def2/J TightSCF
|  2> *xyz 1 1
|  3> C          4.60295       -2.44010        2.63478
|  4> C          3.86085       -1.59157        3.62289
|  5> N          2.75650       -2.04616        4.16633
|  6> N          4.25433       -0.36291        3.86046
|  7> H          3.56526        0.31099        4.16898
|  8> H          5.05429       -0.01606        3.33784
|  9> H          2.43970       -2.97389        3.89740
| 10> H          2.06687       -1.41253        4.54981
| 11> C          3.74469       -2.58056        1.36188
| 12> H          5.56156       -1.97135        2.40708
| 13> H          4.81050       -3.42255        3.06310
| 14> H          4.26314       -3.18477        0.64702
| 15> H          3.56325       -1.61180        0.94535
| 16> H          2.81197       -3.04259        1.60980
| 17> *
| 18>
| 19> %MaxCore 64000
| 20>
| 21> %pal nprocs 4
| 22> end
| 23>
| 24> %scf
| 25>   MaxIter 150
| 26> end
| 27>
| 28>
| 29>                          ****END OF INPUT****

CARTESIAN COORDINATES (ANGSTROEM)
---------------------------------
  C      4.602950   -2.440100    2.634780
  C      3.860850   -1.591570    3.622890
  N      2.756500   -2.046160    4.166330
  N      4.254330   -0.362910    3.860460
  H      3.565260    0.310990    4.168980
  H      5.054290   -0.016060    3.337840
  H      2.439700   -2.973890    3.897400
  H      2.066870   -1.412530    4.549810
  C      3.744690   -2.580560    1.361880
  H      5.561560   -1.971350    2.407080
  H      4.810500   -3.422550    3.063100
  H      4.263140   -3.184770    0.647020
  H      3.563250   -1.611800    0.945350
  H      2.811970   -3.042590    1.609800

 Total Charge           Charge          ....    1
 Multiplicity           Mult            ....    1
 Number of Electrons    NEL             ....   40
 Basis Dimension        Dim             ....  209

ORBITAL ENERGIES
----------------

  NO   OCC          E(Eh)            E(eV)
   0   2.0000     -14.560532      -396.2122
   1   2.0000     -14.559539      -396.1852
   2   2.0000     -10.490462      -285.4600
   3   2.0000     -10.370969      -282.2084
   4   2.0000     -10.329122      -281.0697
   5   2.0000      -1.208470       -32.8841
   6   2.0000      -1.111826       -30.2543
   7   2.0000      -0.971646       -26.4398
   8   2.0000      -0.862074       -23.4582
   9   2.0000      -0.817188       -22.2368
  10   2.0000      -0.773306       -21.0427
  11   2.0000      -0.754078       -20.5195
  12   2.0000      -0.699251       -19.0276
  13   2.0000      -0.663460       -18.0537
  14   2.0000      -0.626859       -17.0577
  15   2.0000      -0.601778       -16.3752
  16   2.0000      -0.551074       -14.9955
  17   2.0000      -0.545283       -14.8379
  18   2.0000      -0.533303       -14.5119
  19   2.0000      -0.496508       -13.5107
  20   0.0000      -0.216535        -5.8922
  21   0.0000      -0.162194        -4.4135
  22   0.0000      -0.117780        -3.2049
  23   0.0000      -0.115143        -3.1332
  24   0.0000      -0.083864        -2.2821

MULLIKEN ATOMIC CHARGES
-----------------------
   0 C :   -0.231013
   1 C :    0.319892
   2 N :   -0.317692
   3 N :   -0.309690
   4 H :    0.270465
   5 H :    0.289146
   6 H :    0.290133
   7 H :    0.273540
   8 C :   -0.313232
   9 H :    0.136514
  10 H :    0.171827
  11 H :    0.168539
  12 H :    0.133300
  13 H :    0.118271
Sum of atomic charges:    1.0000000

LOEWDIN ATOMIC CHARGES
----------------------
   0 C :   -0.211643
   1 C :   -0.293387
   2 N :    0.117369
   3 N :    0.116130
   4 H :    0.199209
   5 H :    0.209294
   6 H :    0.209105
   7 H :    0.198734
   8 C :   -0.251826
   9 H :    0.156269
  10 H :    0.164701
  11 H :    0.138453
  12 H :    0.127328
  13 H :    0.120263

  Mayer bond orders larger than 0.100000
B(  0-C ,  1-C ) :   0.9855 B(  0-C ,  8-C ) :   0.9315 B(  0-C ,  9-H ) :   0.9639
B(  0-C , 10-H ) :   0.9478 B(  1-C ,  2-N ) :   1.4319 B(  1-C ,  3-N ) :   1.4459
B(  2-N ,  6-H ) :   0.8930 B(  2-N ,  7-H ) :   0.8936 B(  3-N ,  4-H ) :   0.8941
B(  3-N ,  5-H ) :   0.8887 B(  8-C , 11-H ) :   0.9636 B(  8-C , 12-H ) :   0.9607
B(  8-C , 13-H ) :   0.9716

Dispersion correction           -0.016931780
FINAL SINGLE POINT ENERGY      -228.988664871988

DIPOLE MOMENT
-------------
                                X             Y             Z
Electronic contribution:     -0.24094       1.79486       3.72753
Nuclear contribution   :     -0.22400      -1.16268      -3.30447
                        -----------------------------------------
Total Dipole Moment    :     -0.46494       0.63218       0.42306
                        -----------------------------------------
Magnitude (a.u.)       :      0.89152
Magnitude (Debye)      :      2.26606

Rotational constants in cm-1:     0.258103     0.130571     0.102508
Rotational constants in MHz :  7737.732062  3914.431392  3073.119154

                             ****ORCA TERMINATED NORMALLY****
TOTAL RUN TIME: 0 days 0 hours 0 minutes 23 seconds 761 msec
