                         Program Version 5.0.0 -  RELEASE  -
|  1> !B3LYP D3BJ RIJCOSX def2-TZVP def2/J TightSCF
|  2> *xyz 0 1
|  3> C         -0.91495        0.61511        2.50554
|  4> C         -0.05915        1.50352        3.41058
|  5> H          0.36536        2.34431        2.86116
|  6> H         -0.69226        1.92021        4.19898
|  7> C          1.08303        0.74964        4.08571
|  8> F          2.22817        1.26348        4.01983
|  9> O          0.81003       -0.34541        4.63627
| 10> H         -0.30401        0.20228        1.73015
| 11> H         -1.69811        1.19946        2.06954
| 12> H         -1.34124       -0.17772        3.08397
| 13> *
| 14>
| 15> %MaxCore 64000
| 16>
| 17> %pal nprocs 4
| 18> end
| 19>
| 20> %scf
| 21>   MaxIter 150
| 22> end
| 23>
| 24>
| 25>                          ****END OF INPUT****

CARTESIAN COORDINATES (ANGSTROEM)
---------------------------------
  C     -0.914950    0.615110    2.505540
  C     -0.059150    1.503520    3.410580
  H      0.365360    2.344310    2.861160
  H     -0.692260    1.920210    4.198980
  C      1.083030    0.749640    4.085710
  F      2.228170    1.263480    4.019830
  O      0.810030   -0.345410    4.636270
  H     -0.304010    0.202280    1.730150
  H     -1.698110    1.199460    2.069540
  H     -1.341240   -0.177720    3.083970

 Total Charge           Charge          ....    0
 Multiplicity           Mult            ....    1
 Number of Electrons    NEL             ....   40
 Basis Dimension        Dim             ....  185

ORBITAL ENERGIES
----------------

  NO   OCC          E(Eh)            E(eV)
   0   2.0000     -24.749963      -673.4807
   1   2.0000     -19.129461      -520.5391
   2   2.0000     -10.346294      -281.5370
   3   2.0000     -10.200559      -277.5713
   4   2.0000     -10.171033      -276.7679
   5   2.0000      -1.317812       -35.8595
   6   2.0000      -1.032804       -28.1040
   7   2.0000      -0.799938       -21.7674
   8   2.0000      -0.691116       -18.8062
   9   2.0000      -0.637858       -17.3570
  10   2.0000      -0.547710       -14.9040
  11   2.0000      -0.534292       -14.5388
  12   2.0000      -0.508398       -13.8342
  13   2.0000      -0.466245       -12.6872
  14   2.0000      -0.434503       -11.8234
  15   2.0000      -0.398276       -10.8377
  16   2.0000      -0.378865       -10.3094
  17   2.0000      -0.375965       -10.2305
  18   2.0000      -0.347706        -9.4616
  19   2.0000      -0.293757        -7.9935
  20   0.0000      -0.031306        -0.8519
  21   0.0000       0.033313         0.9065
  22   0.0000       0.071662         1.9500
  23   0.0000       0.087146         2.3714
  24   0.0000       0.096661         2.6303

MULLIKEN ATOMIC CHARGES
-----------------------
   0 C :   -0.318175
   1 C :   -0.190335
   2 H :    0.102114
   3 H :    0.116801
   4 C :    0.373935
   5 F :   -0.104977
   6 O :   -0.332509
   7 H :    0.108635
   8 H :    0.112778
   9 H :    0.131732
Sum of atomic charges:    0.0000000

LOEWDIN ATOMIC CHARGES
----------------------
   0 C :   -0.281434
   1 C :   -0.256827
   2 H :    0.136882
   3 H :    0.153687
   4 C :   -0.497720
   5 F :    0.321716
   6 O :    0.064199
   7 H :    0.118254
   8 H :    0.117198
   9 H :    0.124045

  Mayer bond orders larger than 0.100000
B(  0-C ,  1-C ) :   0.9627 B(  0-C ,  7-H ) :   0.9766 B(  0-C ,  8-H ) :   0.9697
B(  0-C ,  9-H ) :   0.9694 B(  1-C ,  2-H ) :   0.9594 B(  1-C ,  3-H ) :   0.9377
B(  1-C ,  4-C ) :   0.9885 B(  4-C ,  5-F ) :   1.1530 B(  4-C ,  6-O ) :   2.0464

Dispersion correction           -0.010404920
FINAL SINGLE POINT ENERGY      -292.381581010580

DIPOLE MOMENT
-------------
                                X             Y             Z
Electronic contribution:      7.73741      -0.17603       4.10153
Nuclear contribution   :     -8.12386       1.06915      -4.71960
                        -----------------------------------------
Total Dipole Moment    :     -0.38645       0.89312      -0.61807
                        -----------------------------------------
Magnitude (a.u.)       :      1.15282
Magnitude (Debye)      :      2.93025

Rotational constants in cm-1:     0.309513     0.127560     0.099675
Rotational constants in MHz :  9278.979128  3824.146597  2988.174827

                             ****ORCA TERMINATED NORMALLY****
TOTAL RUN TIME: 0 days 0 hours 0 minutes 19 seconds 902 msec
