                         Program Version 5.0.0 -  RELEASE  -
|  1> !B3LYP D3BJ RIJCOSX def2-TZVP def2/J TightSCF
|  2> *xyz 0 1
|  3> C          4.60295       -2.44010        2.63478
|  4> C          3.86085       -1.59157        3.62289
|  5> C          2.75650       -2.04616        4.16633
|  6> N          4.25433       -0.36291        3.86046
|  7> H          3.56526        0.31099        4.16898
|  8> H          5.05429       -0.01606        3.33784
|  9> H          2.43970       -2.97389        3.89740
| 10> H          2.06687       -1.41253        4.54981
| 11> C          3.74469       -2.58056        1.36188
| 12> H          5.56156       -1.97135        2.40708
| 13> H          4.81050       -3.42255        3.06310
| 14> H          4.26314       -3.18477        0.64702
| 15> H          3.56325       -1.61180        0.94535
| 16> H          2.81197       -3.04259        1.60980
| 17> *
| 18>
| 19> %MaxCore 64000
| 20>
| 21> %pal nprocs 4
| 22> end
| 23>
| 24> %scf
| 25>   MaxIter 150
| 26> end
| 27>
| 28>
| 29>                          ****END OF INPUT****

CARTESIAN COORDINATES (ANGSTROEM)
---------------------------------
  C      4.602950   -2.440100    2.634780
  C      3.860850   -1.591570    3.622890
  C      2.756500   -2.046160    4.166330
  N      4.254330   -0.362910    3.860460
  H      3.565260    0.310990    4.168980
  H      5.054290   -0.016060    3.337840
  H      2.439700   -2.973890    3.897400
  H      2.066870   -1.412530    4.549810
  C      3.744690   -2.580560    1.361880
  H      5.561560   -1.971350    2.407080
  H      4.810500   -3.422550    3.063100
  H      4.263140   -3.184770    0.647020
  H      3.563250   -1.611800    0.945350
  H      2.811970   -3.042590    1.609800

 Total Charge           Charge          ....    0
 Multiplicity           Mult            ....    1
 Number of Electrons    NEL             ....   40
 Basis Dimension        Dim             ....  209

ORBITAL ENERGIES
----------------

  NO   OCC          E(Eh)            E(eV)
   0   2.0000     -14.314104      -389.5066
   1   2.0000     -10.184299      -277.1289
   2   2.0000     -10.170050      -276.7411
   3   2.0000     -10.152309      -276.2584
   4   2.0000     -10.094671      -274.6900
   5   2.0000      -0.932531       -25.3755
   6   2.0000      -0.780749       -21.2453
   7   2.0000      -0.711078       -19.3494
   8   2.0000      -0.639039       -17.3891
   9   2.0000      -0.562046       -15.2941
  10   2.0000      -0.523698       -14.2506
  11   2.0000      -0.481202       -13.0942
  12   2.0000      -0.447057       -12.1650
  13   2.0000      -0.412595       -11.2273
  14   2.0000      -0.388192       -10.5633
  15   2.0000      -0.377648       -10.2763
  16   2.0000      -0.353631        -9.6228
  17   2.0000      -0.343029        -9.3343
  18   2.0000      -0.327430        -8.9098
  19   2.0000      -0.188288        -5.1236
  20   0.0000       0.025219         0.6863
  21   0.0000       0.038062         1.0357
  22   0.0000       0.069619         1.8944
  23   0.0000       0.073962         2.0126
  24   0.0000       0.088060         2.3962

MULLIKEN ATOMIC CHARGES
-----------------------
   0 C :   -0.190590
   1 C :    0.230684
   2 C :   -0.395255
   3 N :   -0.426352
   4 H :    0.220662
   5 H :    0.214035
   6 H :    0.076465
   7 H :    0.071881
   8 C :   -0.293184
   9 H :    0.072799
  10 H :    0.110207
  11 H :    0.100045
  12 H :    0.097833
  13 H :    0.110770
Sum of atomic charges:   -0.0000000

LOEWDIN ATOMIC CHARGES
----------------------
   0 C :   -0.230685
   1 C :   -0.370060
   2 C :   -0.274827
   3 N :    0.003958
   4 H :    0.172117
   5 H :    0.166696
   6 H :    0.105215
   7 H :    0.096535
   8 C :   -0.282448
   9 H :    0.128524
  10 H :    0.143716
  11 H :    0.109930
  12 H :    0.114458
  13 H :    0.116871

  Mayer bond orders larger than 0.100000
B(  0-C ,  1-C ) :   0.9442 B(  0-C ,  8-C ) :   0.9480 B(  0-C ,  9-H ) :   0.9775
B(  0-C , 10-H ) :   0.9858 B(  1-C ,  2-C ) :   1.7497 B(  1-C ,  3-N ) :   1.1554
B(  2-C ,  6-H ) :   1.0019 B(  2-C ,  7-H ) :   0.9893 B(  3-N ,  4-H ) :   0.9203
B(  3-N ,  5-H ) :   0.9278 B(  8-C , 11-H ) :   0.9723 B(  8-C , 12-H ) :   0.9765
B(  8-C , 13-H ) :   0.9769

Dispersion correction           -0.017702680
FINAL SINGLE POINT ENERGY      -212.515577835747

DIPOLE MOMENT
-------------
                                X             Y             Z
Electronic contribution:      0.82240       1.80405       2.54478
Nuclear contribution   :     -0.47010      -1.22282      -3.06417
                        -----------------------------------------
Total Dipole Moment    :      0.35230       0.58123      -0.51939
                        -----------------------------------------
Magnitude (a.u.)       :      0.85540
Magnitude (Debye)      :      2.17424

Rotational constants in cm-1:     0.271862     0.131962     0.105499
Rotational constants in MHz :  8150.219120  3956.123671  3162.785522

                             ****ORCA TERMINATED NORMALLY****
TOTAL RUN TIME: 0 days 0 hours 0 minutes 24 seconds 80 msec
