                         Program Version 5.0.0 -  RELEASE  -
|  1> !B3LYP D3BJ RIJCOSX def2-TZVP def2/J TightSCF
|  2> *xyz 0 1
|  3> C         -0.91495        0.61511        2.50554
|  4> C         -0.05915        1.50352        3.41058
|  5> H          0.36536        2.34431        2.86116
|  6> H         -0.69226        1.92021        4.19898
|  7> C          1.08303        0.74964        4.08571
|  8> O          2.22817        1.26348        4.01983
|  9> F          0.81003       -0.34541        4.63627
| 10> H         -0.30401        0.20228        1.73015
| 11> H         -1.69811        1.19946        2.06954
| 12> H         -1.34124       -0.17772        3.08397
| 13> *
| 14>
| 15> %MaxCore 64000
| 16>
| 17> %pal nprocs 4
| 18> end
| 19>
| 20> %scf
| 21>   MaxIter 150
| 22> end
| 23>
| 24>
| 25>                          ****END OF INPUT****

CARTESIAN COORDINATES (ANGSTROEM)
---------------------------------
  C     -0.914950    0.615110    2.505540
  C     -0.059150    1.503520    3.410580
  H      0.365360    2.344310    2.861160
  H     -0.692260    1.920210    4.198980
  C      1.083030    0.749640    4.085710
  O      2.228170    1.263480    4.019830
  F      0.810030   -0.345410    4.636270
  H     -0.304010    0.202280    1.730150
  H     -1.698110    1.199460    2.069540
  H     -1.341240   -0.177720    3.083970

 Total Charge           Charge          ....    0
 Multiplicity           Mult            ....    1
 Number of Electrons    NEL             ....   40
 Basis Dimension        Dim             ....  185

ORBITAL ENERGIES
----------------

  NO   OCC          E(Eh)            E(eV)
   0   2.0000     -24.751079      -673.5111
   1   2.0000     -19.128359      -520.5091
   2   2.0000     -10.345579      -281.5175
   3   2.0000     -10.199953      -277.5548
   4   2.0000     -10.176404      -276.9140
   5   2.0000      -1.319354       -35.9015
   6   2.0000      -1.030729       -28.0476
   7   2.0000      -0.804068       -21.8798
   8   2.0000      -0.687201       -18.6997
   9   2.0000      -0.644612       -17.5408
  10   2.0000      -0.550373       -14.9764
  11   2.0000      -0.540900       -14.7186
  12   2.0000      -0.499684       -13.5971
  13   2.0000      -0.467291       -12.7156
  14   2.0000      -0.435614       -11.8537
  15   2.0000      -0.402619       -10.9558
  16   2.0000      -0.385184       -10.4814
  17   2.0000      -0.379828       -10.3356
  18   2.0000      -0.349337        -9.5059
  19   2.0000      -0.288530        -7.8513
  20   0.0000      -0.028332        -0.7710
  21   0.0000       0.028533         0.7764
  22   0.0000       0.071034         1.9329
  23   0.0000       0.089312         2.4303
  24   0.0000       0.099015         2.6943

MULLIKEN ATOMIC CHARGES
-----------------------
   0 C :   -0.324363
   1 C :   -0.187232
   2 H :    0.125734
   3 H :    0.108362
   4 C :    0.366275
   5 O :   -0.330390
   6 F :   -0.107433
   7 H :    0.117513
   8 H :    0.117961
   9 H :    0.113574
Sum of atomic charges:    0.0000000

LOEWDIN ATOMIC CHARGES
----------------------
   0 C :   -0.289882
   1 C :   -0.252217
   2 H :    0.150002
   3 H :    0.148386
   4 C :   -0.499599
   5 O :    0.060602
   6 F :    0.326100
   7 H :    0.119437
   8 H :    0.119280
   9 H :    0.117892

  Mayer bond orders larger than 0.100000
B(  0-C ,  1-C ) :   0.9470 B(  0-C ,  7-H ) :   0.9747 B(  0-C ,  8-H ) :   0.9708
B(  0-C ,  9-H ) :   0.9707 B(  1-C ,  2-H ) :   0.9652 B(  1-C ,  3-H ) :   0.9377
B(  1-C ,  4-C ) :   1.0056 B(  4-C ,  5-O ) :   2.0617 B(  4-C ,  6-F ) :   1.1423

Dispersion correction           -0.010322680
FINAL SINGLE POINT ENERGY      -292.380562283129

DIPOLE MOMENT
-------------
                                X             Y             Z
Electronic contribution:      5.35869      -2.83581       5.10781
Nuclear contribution   :     -6.57765       2.82334      -5.39171
                        -----------------------------------------
Total Dipole Moment    :     -1.21896      -0.01248      -0.28390
                        -----------------------------------------
Magnitude (a.u.)       :      1.25164
Magnitude (Debye)      :      3.18142

Rotational constants in cm-1:     0.294245     0.132994     0.101060
Rotational constants in MHz :  8821.228602  3987.049251  3029.696815

                             ****ORCA TERMINATED NORMALLY****
TOTAL RUN TIME: 0 days 0 hours 0 minutes 19 seconds 435 msec
