                         Program Version 5.0.0 -  RELEASE  -
|  1> !B3LYP D3BJ RIJCOSX def2-TZVP def2/J TightSCF
|  2> *xyz 0 1
|  3> C          4.60295       -2.44010        2.63478
|  4> C          3.86085       -1.59157        3.62289
|  5> N          2.75650       -2.04616        4.16633
|  6> C          4.25433       -0.36291        3.86046
|  7> H          3.56526        0.31099        4.16898
|  8> H          5.05429       -0.01606        3.33784
|  9> H          2.43970       -2.97389        3.89740
| 10> H          2.06687       -1.41253        4.54981
| 11> C          3.74469       -2.58056        1.36188
| 12> H          5.56156       -1.97135        2.40708
| 13> H          4.81050       -3.42255        3.06310
| 14> H          4.26314       -3.18477        0.64702
| 15> H          3.56325       -1.61180        0.94535
| 16> H          2.81197       -3.04259        1.60980
| 17> *
| 18>
| 19> %MaxCore 64000
| 20>
| 21> %pal nprocs 4
| 22> end
| 23>
| 24> %scf
| 25>   MaxIter 150
| 26> end
| 27>
| 28>
| 29>                          ****END OF INPUT****

CARTESIAN COORDINATES (ANGSTROEM)
---------------------------------
  C      4.602950   -2.440100    2.634780
  C      3.860850   -1.591570    3.622890
  N      2.756500   -2.046160    4.166330
  C      4.254330   -0.362910    3.860460
  H      3.565260    0.310990    4.168980
  H      5.054290   -0.016060    3.337840
  H      2.439700   -2.973890    3.897400
  H      2.066870   -1.412530    4.549810
  C      3.744690   -2.580560    1.361880
  H      5.561560   -1.971350    2.407080
  H      4.810500   -3.422550    3.063100
  H      4.263140   -3.184770    0.647020
  H      3.563250   -1.611800    0.945350
  H      2.811970   -3.042590    1.609800

 Total Charge           Charge          ....    0
 Multiplicity           Mult            ....    1
 Number of Electrons    NEL             ....   40
 Basis Dimension        Dim             ....  209

ORBITAL ENERGIES
----------------

  NO   OCC          E(Eh)            E(eV)
   0   2.0000     -14.314198      -389.5091
   1   2.0000     -10.185435      -277.1598
   2   2.0000     -10.169474      -276.7254
   3   2.0000     -10.156123      -276.3622
   4   2.0000     -10.096149      -274.7302
   5   2.0000      -0.932381       -25.3714
   6   2.0000      -0.779000       -21.1977
   7   2.0000      -0.719038       -19.5660
   8   2.0000      -0.634557       -17.2672
   9   2.0000      -0.568912       -15.4809
  10   2.0000      -0.525169       -14.2906
  11   2.0000      -0.476389       -12.9632
  12   2.0000      -0.438670       -11.9368
  13   2.0000      -0.428557       -11.6616
  14   2.0000      -0.388540       -10.5727
  15   2.0000      -0.379941       -10.3387
  16   2.0000      -0.357520        -9.7286
  17   2.0000      -0.339787        -9.2461
  18   2.0000      -0.324316        -8.8251
  19   2.0000      -0.191143        -5.2013
  20   0.0000       0.022899         0.6231
  21   0.0000       0.040702         1.1075
  22   0.0000       0.072678         1.9777
  23   0.0000       0.074595         2.0298
  24   0.0000       0.083624         2.2755

MULLIKEN ATOMIC CHARGES
-----------------------
   0 C :   -0.187699
   1 C :    0.221936
   2 N :   -0.430140
   3 C :   -0.374541
   4 H :    0.067170
   5 H :    0.073964
   6 H :    0.216355
   7 H :    0.220074
   8 C :   -0.304222
   9 H :    0.099283
  10 H :    0.090601
  11 H :    0.108263
  12 H :    0.113224
  13 H :    0.085730
Sum of atomic charges:   -0.0000000

LOEWDIN ATOMIC CHARGES
----------------------
   0 C :   -0.230987
   1 C :   -0.370133
   2 N :    0.007784
   3 C :   -0.276182
   4 H :    0.097515
   5 H :    0.104757
   6 H :    0.168024
   7 H :    0.171154
   8 C :   -0.286533
   9 H :    0.143407
  10 H :    0.131706
  11 H :    0.113130
  12 H :    0.118182
  13 H :    0.108175

  Mayer bond orders larger than 0.100000
B(  0-C ,  1-C ) :   0.9716 B(  0-C ,  8-C ) :   0.9365 B(  0-C ,  9-H ) :   0.9790
B(  0-C , 10-H ) :   0.9730 B(  1-C ,  2-N ) :   1.1564 B(  1-C ,  3-C ) :   1.7651
B(  2-N ,  6-H ) :   0.9329 B(  2-N ,  7-H ) :   0.9204 B(  3-C ,  4-H ) :   0.9910
B(  3-C ,  5-H ) :   0.9959 B(  8-C , 11-H ) :   0.9746 B(  8-C , 12-H ) :   0.9772
B(  8-C , 13-H ) :   0.9758

Dispersion correction           -0.017664961
FINAL SINGLE POINT ENERGY      -212.516241330872

DIPOLE MOMENT
-------------
                                X             Y             Z
Electronic contribution:     -0.51402       0.29881       2.83473
Nuclear contribution   :     -0.12319      -0.83296      -3.13501
                        -----------------------------------------
Total Dipole Moment    :     -0.63721      -0.53415      -0.30028
                        -----------------------------------------
Magnitude (a.u.)       :      0.88404
Magnitude (Debye)      :      2.24705

Rotational constants in cm-1:     0.266453     0.134423     0.106086
Rotational constants in MHz :  7988.053142  4029.892766  3180.375228

                             ****ORCA TERMINATED NORMALLY****
TOTAL RUN TIME: 0 days 0 hours 0 minutes 25 seconds 672 msec
