                         Program Version 5.0.0 -  RELEASE  -
|  1> !B3LYP D3BJ RIJCOSX def2-TZVP def2/J TightSCF xyzfile
|  2>
|  3> *xyzfile 0 1 D1.xyz
|  4>
|  5> %MaxCore 64000
|  6>
|  7> %pal nprocs 18
|  8> end
|  9>
| 10> %scf
| 11>   MaxIter 150
| 12> end
| 13>
| 14>
| 15>                          ****END OF INPUT****

CARTESIAN COORDINATES (ANGSTROEM)
---------------------------------
  C      4.602954   -2.440100    2.634780
  C     -0.914947    0.615112    2.505538
  C     -0.059146    1.503524    3.410578
  H      0.365364    2.344315    2.861161
  H     -0.692261    1.920207    4.198985
  C      1.083027    0.749640    4.085705
  C      3.860851   -1.591565    3.622893
  C      2.756502   -2.046159    4.166333
  N      4.254325   -0.362905    3.860455
  H      3.565256    0.310994    4.168983
  H      5.054292   -0.016059    3.337838
  H      2.439696   -2.973894    3.897395
  H      2.066869   -1.412532    4.549813
  F      2.228167    1.263475    4.019826
  O      0.810034   -0.345411    4.636269
  C      3.744685   -2.580557    1.361882
  C      0.772139    0.636882    0.562129
  C     -0.130740   -0.193985    1.470763
  H     -0.840563   -0.760165    0.856377
  H      0.466691   -0.938942    2.006959
  H     -1.647961    1.245963    1.991076
  H     -1.478180   -0.081046    3.130424
  C      3.203721   -1.256004    0.826211
  H      2.898939   -3.239289    1.583074
  H      4.334962   -3.095523    0.600188
  C      2.107815   -1.442385   -0.216865
  H      2.786775   -0.672760    1.650711
  H      4.021008   -0.652993    0.414046
  C      1.390662   -0.145912   -0.602422
  H      1.372179   -2.152184    0.176151
  H      2.523302   -1.906787   -1.117115
  H      1.561361    1.100094    1.161831
  H      0.195516    1.468325    0.142758
  H      0.602893   -0.398214   -1.319716
  H      2.087247    0.508272   -1.137335
  H      5.561557   -1.971347    2.407084
  H      4.810498   -3.422552    3.063099

 Total Charge           Charge          ....    0
 Multiplicity           Mult            ....    1
 Number of Electrons    NEL             ....  118
 Basis Dimension        Dim             ....  597

ORBITAL ENERGIES
----------------

  NO   OCC          E(Eh)            E(eV)
   0   2.0000     -24.775928      -674.1873
   1   2.0000     -19.142840      -520.9032
   2   2.0000     -14.290274      -388.8581
   3   2.0000     -10.361349      -281.9466
   4   2.0000     -10.205496      -277.7057
   5   2.0000     -10.183558      -277.1087
   6   2.0000     -10.168055      -276.6868
   7   2.0000     -10.167789      -276.6796
   8   2.0000     -10.163006      -276.5495
   9   2.0000     -10.162861      -276.5455
  10   2.0000     -10.156565      -276.3742
  11   2.0000     -10.154714      -276.3238
  12   2.0000     -10.154514      -276.3184
  13   2.0000     -10.152480      -276.2630
  14   2.0000     -10.062612      -273.8176
  15   2.0000      -1.347249       -36.6605
  16   2.0000      -1.052673       -28.6447
  17   2.0000      -0.914824       -24.8936
  18   2.0000      -0.829631       -22.5754
  19   2.0000      -0.804459       -21.8904
  20   2.0000      -0.779777       -21.2188
  21   2.0000      -0.743428       -20.2297
  22   2.0000      -0.719814       -19.5871
  23   2.0000      -0.690484       -18.7890
  24   2.0000      -0.676819       -18.4172
  25   2.0000      -0.646594       -17.5947
  26   2.0000      -0.612424       -16.6649
  27   2.0000      -0.589636       -16.0448
  28   2.0000      -0.575037       -15.6476
  29   2.0000      -0.566791       -15.4232
  30   2.0000      -0.553097       -15.0505
  31   2.0000      -0.538546       -14.6546
  32   2.0000      -0.525606       -14.3025
  33   2.0000      -0.497299       -13.5322
  34   2.0000      -0.481120       -13.0920
  35   2.0000      -0.478487       -13.0203
  36   2.0000      -0.468996       -12.7620
  37   2.0000      -0.450422       -12.2566
  38   2.0000      -0.443599       -12.0709
  39   2.0000      -0.426577       -11.6078
  40   2.0000      -0.423344       -11.5198
  41   2.0000      -0.408847       -11.1253
  42   2.0000      -0.403887       -10.9903
  43   2.0000      -0.390046       -10.6137
  44   2.0000      -0.387025       -10.5315
  45   2.0000      -0.373017       -10.1503
  46   2.0000      -0.369558       -10.0562
  47   2.0000      -0.360398        -9.8069
  48   2.0000      -0.352961        -9.6046
  49   2.0000      -0.344832        -9.3833
  50   2.0000      -0.341749        -9.2995
  51   2.0000      -0.333449        -9.0736
  52   2.0000      -0.323649        -8.8069
  53   2.0000      -0.320882        -8.7316
  54   2.0000      -0.313198        -8.5225
  55   2.0000      -0.309594        -8.4245
  56   2.0000      -0.302352        -8.2274
  57   2.0000      -0.276097        -7.5130
  58   2.0000      -0.168031        -4.5724
  59   0.0000      -0.047726        -1.2987
  60   0.0000       0.023423         0.6374
  61   0.0000       0.040022         1.0890
  62   0.0000       0.043206         1.1757
  63   0.0000       0.049320         1.3421

MULLIKEN ATOMIC CHARGES
-----------------------
   0 C :   -0.176925
   1 C :   -0.132709
   2 C :   -0.204150
   3 H :    0.115825
   4 H :    0.132604
   5 C :    0.402759
   6 C :    0.152607
   7 C :   -0.416396
   8 N :   -0.412499
   9 H :    0.218345
  10 H :    0.204008
  11 H :    0.061956
  12 H :    0.143211
  13 F :   -0.139262
  14 O :   -0.317745
  15 C :   -0.145679
  16 C :   -0.222458
  17 C :   -0.250204
  18 H :    0.091073
  19 H :    0.151448
  20 H :    0.097138
  21 H :    0.107341
  22 C :   -0.213327
  23 H :    0.086889
  24 H :    0.076457
  25 C :   -0.151825
  26 H :    0.096281
  27 H :    0.066199
  28 C :   -0.137834
  29 H :    0.094501
  30 H :    0.085024
  31 H :    0.097943
  32 H :    0.087645
  33 H :    0.089662
  34 H :    0.082435
  35 H :    0.071589
  36 H :    0.108075
Sum of atomic charges:    0.0000000

LOEWDIN ATOMIC CHARGES
----------------------
   0 C :   -0.211013
   1 C :   -0.250050
   2 C :   -0.228684
   3 H :    0.140783
   4 H :    0.157974
   5 C :   -0.481689
   6 C :   -0.389434
   7 C :   -0.273613
   8 N :   -0.003123
   9 H :    0.151338
  10 H :    0.160966
  11 H :    0.101170
  12 H :    0.090997
  13 F :    0.331782
  14 O :    0.106999
  15 C :   -0.246755
  16 C :   -0.268908
  17 C :   -0.264798
  18 H :    0.138235
  19 H :    0.143439
  20 H :    0.138237
  21 H :    0.143902
  22 C :   -0.262178
  23 H :    0.135839
  24 H :    0.127770
  25 C :   -0.264488
  26 H :    0.138811
  27 H :    0.128537
  28 C :   -0.261392
  29 H :    0.134781
  30 H :    0.132244
  31 H :    0.128121
  32 H :    0.133539
  33 H :    0.133961
  34 H :    0.132757
  35 H :    0.128819
  36 H :    0.145122

  Mayer bond orders larger than 0.100000
B(  0-C ,  6-C ) :   0.9261 B(  0-C , 15-C ) :   0.9641 B(  0-C , 35-H ) :   0.9757
B(  0-C , 36-H ) :   0.9787 B(  1-C ,  2-C ) :   0.9570 B(  1-C , 17-C ) :   0.9759
B(  1-C , 20-H ) :   0.9647 B(  1-C , 21-H ) :   0.9605 B(  2-C ,  3-H ) :   0.9606
B(  2-C ,  4-H ) :   0.9409 B(  2-C ,  5-C ) :   0.9868 B(  5-C , 13-F ) :   1.0636
B(  5-C , 14-O ) :   1.9918 B(  6-C ,  7-C ) :   1.7559 B(  6-C ,  8-N ) :   1.1554
B(  7-C , 11-H ) :   1.0007 B(  7-C , 12-H ) :   0.9733 B(  8-N ,  9-H ) :   0.9040
B(  8-N , 10-H ) :   0.9334 B( 15-C , 22-C ) :   0.9774 B( 15-C , 23-H ) :   0.9676
B( 15-C , 24-H ) :   0.9642 B( 16-C , 17-C ) :   0.9343 B( 16-C , 28-C ) :   0.9808
B( 16-C , 31-H ) :   0.9721 B( 16-C , 32-H ) :   0.9670 B( 17-C , 18-H ) :   0.9670
B( 17-C , 19-H ) :   0.9700 B( 22-C , 25-C ) :   0.9707 B( 22-C , 26-H ) :   0.9794
B( 22-C , 27-H ) :   0.9625 B( 25-C , 28-C ) :   0.9636 B( 25-C , 29-H ) :   0.9701
B( 25-C , 30-H ) :   0.9711 B( 28-C , 33-H ) :   0.9708 B( 28-C , 34-H ) :   0.9736

Dispersion correction           -0.069875588
FINAL SINGLE POINT ENERGY      -700.190301152568

DIPOLE MOMENT
-------------
                                X             Y             Z
Electronic contribution:      1.20067       7.39284      14.98448
Nuclear contribution   :     -1.66567      -5.90236     -15.95042
                        -----------------------------------------
Total Dipole Moment    :     -0.46499       1.49048      -0.96594
                        -----------------------------------------
Magnitude (a.u.)       :      1.83597
Magnitude (Debye)      :      4.66667

Rotational constants in cm-1:     0.021600     0.017292     0.011381
Rotational constants in MHz :   647.565282   518.410024   341.193038

                             ****ORCA TERMINATED NORMALLY****
TOTAL RUN TIME: 0 days 0 hours 1 minutes 46 seconds 100 msec
