                         Program Version 5.0.0 -  RELEASE  -
|  1> !B3LYP D3BJ RIJCOSX def2-TZVP def2/J TightSCF xyzfile
|  2>
|  3> *xyzfile 0 1 D2.xyz
|  4>
|  5> %MaxCore 64000
|  6>
|  7> %pal nprocs 18
|  8> end
|  9>
| 10> %scf
| 11>   MaxIter 150
| 12> end
| 13>
| 14>
| 15>                          ****END OF INPUT****

CARTESIAN COORDINATES (ANGSTROEM)
---------------------------------
  C      4.602954   -2.440100    2.634780
  C     -0.914947    0.615112    2.505538
  C     -0.059146    1.503524    3.410578
  H      0.365364    2.344315    2.861161
  H     -0.692261    1.920207    4.198985
  C      1.083027    0.749640    4.085705
  C      3.860851   -1.591565    3.622893
  N      2.756502   -2.046159    4.166333
  C      4.254325   -0.362905    3.860455
  H      3.565256    0.310994    4.168983
  H      5.054292   -0.016059    3.337838
  H      2.439696   -2.973894    3.897395
  H      2.066869   -1.412532    4.549813
  F      2.228167    1.263475    4.019826
  O      0.810034   -0.345411    4.636269
  C      3.744685   -2.580557    1.361882
  C      0.772139    0.636882    0.562129
  C     -0.130740   -0.193985    1.470763
  H     -0.840563   -0.760165    0.856377
  H      0.466691   -0.938942    2.006959
  H     -1.647961    1.245963    1.991076
  H     -1.478180   -0.081046    3.130424
  C      3.203721   -1.256004    0.826211
  H      2.898939   -3.239289    1.583074
  H      4.334962   -3.095523    0.600188
  C      2.107815   -1.442385   -0.216865
  H      2.786775   -0.672760    1.650711
  H      4.021008   -0.652993    0.414046
  C      1.390662   -0.145912   -0.602422
  H      1.372179   -2.152184    0.176151
  H      2.523302   -1.906787   -1.117115
  H      1.561361    1.100094    1.161831
  H      0.195516    1.468325    0.142758
  H      0.602893   -0.398214   -1.319716
  H      2.087247    0.508272   -1.137335
  H      5.561557   -1.971347    2.407084
  H      4.810498   -3.422552    3.063099

 Total Charge           Charge          ....    0
 Multiplicity           Mult            ....    1
 Number of Electrons    NEL             ....  118
 Basis Dimension        Dim             ....  597

ORBITAL ENERGIES
----------------

  NO   OCC          E(Eh)            E(eV)
   0   2.0000     -24.766407      -673.9282
   1   2.0000     -19.154057      -521.2084
   2   2.0000     -14.279089      -388.5538
   3   2.0000     -10.368972      -282.1541
   4   2.0000     -10.208550      -277.7888
   5   2.0000     -10.187250      -277.2092
   6   2.0000     -10.171821      -276.7893
   7   2.0000     -10.168962      -276.7115
   8   2.0000     -10.165271      -276.6111
   9   2.0000     -10.163539      -276.5640
  10   2.0000     -10.158007      -276.4134
  11   2.0000     -10.157083      -276.3883
  12   2.0000     -10.153740      -276.2973
  13   2.0000     -10.150830      -276.2181
  14   2.0000     -10.071193      -274.0511
  15   2.0000      -1.339212       -36.4418
  16   2.0000      -1.063249       -28.9325
  17   2.0000      -0.907437       -24.6926
  18   2.0000      -0.832539       -22.6545
  19   2.0000      -0.805246       -21.9119
  20   2.0000      -0.779061       -21.1993
  21   2.0000      -0.745333       -20.2816
  22   2.0000      -0.714795       -19.4506
  23   2.0000      -0.701951       -19.1011
  24   2.0000      -0.670427       -18.2433
  25   2.0000      -0.647997       -17.6329
  26   2.0000      -0.611851       -16.6493
  27   2.0000      -0.585474       -15.9316
  28   2.0000      -0.568778       -15.4772
  29   2.0000      -0.562370       -15.3029
  30   2.0000      -0.555746       -15.1226
  31   2.0000      -0.547863       -14.9081
  32   2.0000      -0.526809       -14.3352
  33   2.0000      -0.498326       -13.5601
  34   2.0000      -0.484309       -13.1787
  35   2.0000      -0.478559       -13.0222
  36   2.0000      -0.462049       -12.5730
  37   2.0000      -0.452620       -12.3164
  38   2.0000      -0.443209       -12.0603
  39   2.0000      -0.434070       -11.8116
  40   2.0000      -0.422629       -11.5003
  41   2.0000      -0.410728       -11.1765
  42   2.0000      -0.406995       -11.0749
  43   2.0000      -0.394851       -10.7444
  44   2.0000      -0.381888       -10.3917
  45   2.0000      -0.375138       -10.2080
  46   2.0000      -0.369774       -10.0621
  47   2.0000      -0.367233        -9.9929
  48   2.0000      -0.353259        -9.6127
  49   2.0000      -0.349438        -9.5087
  50   2.0000      -0.343199        -9.3389
  51   2.0000      -0.328731        -8.9452
  52   2.0000      -0.324397        -8.8273
  53   2.0000      -0.321176        -8.7396
  54   2.0000      -0.314849        -8.5675
  55   2.0000      -0.312446        -8.5021
  56   2.0000      -0.303259        -8.2521
  57   2.0000      -0.293296        -7.9810
  58   2.0000      -0.169814        -4.6209
  59   0.0000      -0.053376        -1.4524
  60   0.0000       0.023239         0.6324
  61   0.0000       0.035726         0.9722
  62   0.0000       0.044440         1.2093
  63   0.0000       0.048875         1.3300

MULLIKEN ATOMIC CHARGES
-----------------------
   0 C :   -0.177117
   1 C :   -0.133540
   2 C :   -0.203085
   3 H :    0.122662
   4 H :    0.133754
   5 C :    0.419367
   6 C :    0.146621
   7 N :   -0.411718
   8 C :   -0.377181
   9 H :    0.074412
  10 H :    0.063810
  11 H :    0.198429
  12 H :    0.247381
  13 F :   -0.098388
  14 O :   -0.369109
  15 C :   -0.185222
  16 C :   -0.223431
  17 C :   -0.245598
  18 H :    0.092995
  19 H :    0.126946
  20 H :    0.099386
  21 H :    0.106148
  22 C :   -0.203409
  23 H :    0.080407
  24 H :    0.087747
  25 C :   -0.141083
  26 H :    0.106656
  27 H :    0.070506
  28 C :   -0.139989
  29 H :    0.088635
  30 H :    0.084992
  31 H :    0.108915
  32 H :    0.087940
  33 H :    0.088790
  34 H :    0.085183
  35 H :    0.090705
  36 H :    0.096482
Sum of atomic charges:   -0.0000000

LOEWDIN ATOMIC CHARGES
----------------------
   0 C :   -0.210120
   1 C :   -0.250637
   2 C :   -0.225513
   3 H :    0.143666
   4 H :    0.158835
   5 C :   -0.470385
   6 C :   -0.383391
   7 N :    0.011697
   8 C :   -0.294985
   9 H :    0.088224
  10 H :    0.099713
  11 H :    0.162059
  12 H :    0.146738
  13 F :    0.349951
  14 O :    0.081559
  15 C :   -0.253462
  16 C :   -0.268227
  17 C :   -0.265762
  18 H :    0.138306
  19 H :    0.138007
  20 H :    0.139119
  21 H :    0.142914
  22 C :   -0.258175
  23 H :    0.128456
  24 H :    0.131410
  25 C :   -0.266390
  26 H :    0.140691
  27 H :    0.132893
  28 C :   -0.260938
  29 H :    0.132333
  30 H :    0.132007
  31 H :    0.131036
  32 H :    0.133865
  33 H :    0.133603
  34 H :    0.133867
  35 H :    0.143408
  36 H :    0.133626

  Mayer bond orders larger than 0.100000
B(  0-C ,  6-C ) :   0.9558 B(  0-C , 15-C ) :   0.9458 B(  0-C , 35-H ) :   0.9744
B(  0-C , 36-H ) :   0.9787 B(  1-C ,  2-C ) :   0.9538 B(  1-C , 17-C ) :   0.9748
B(  1-C , 20-H ) :   0.9644 B(  1-C , 21-H ) :   0.9621 B(  2-C ,  3-H ) :   0.9625
B(  2-C ,  4-H ) :   0.9389 B(  2-C ,  5-C ) :   0.9877 B(  5-C , 13-F ) :   1.1330
B(  5-C , 14-O ) :   1.9184 B(  6-C ,  7-N ) :   1.1949 B(  6-C ,  8-C ) :   1.7521
B(  7-N , 11-H ) :   0.9378 B(  7-N , 12-H ) :   0.8545 B(  8-C ,  9-H ) :   0.9901
B(  8-C , 10-H ) :   0.9945 B( 12-H , 14-O ) :   0.1074 B( 15-C , 22-C ) :   0.9564
B( 15-C , 23-H ) :   0.9824 B( 15-C , 24-H ) :   0.9647 B( 16-C , 17-C ) :   0.9352
B( 16-C , 28-C ) :   0.9811 B( 16-C , 31-H ) :   0.9708 B( 16-C , 32-H ) :   0.9667
B( 17-C , 18-H ) :   0.9673 B( 17-C , 19-H ) :   0.9722 B( 22-C , 25-C ) :   0.9546
B( 22-C , 26-H ) :   0.9964 B( 22-C , 27-H ) :   0.9628 B( 25-C , 28-C ) :   0.9648
B( 25-C , 29-H ) :   0.9692 B( 25-C , 30-H ) :   0.9720 B( 28-C , 33-H ) :   0.9707
B( 28-C , 34-H ) :   0.9734

Dispersion correction           -0.069782896
FINAL SINGLE POINT ENERGY      -700.200589104049

DIPOLE MOMENT
-------------
                                X             Y             Z
Electronic contribution:      0.06043       6.23648      15.15667
Nuclear contribution   :     -1.39991      -5.60370     -16.00470
                        -----------------------------------------
Total Dipole Moment    :     -1.33948       0.63277      -0.84802
                        -----------------------------------------
Magnitude (a.u.)       :      1.70697
Magnitude (Debye)      :      4.33878

Rotational constants in cm-1:     0.021622     0.017313     0.011402
Rotational constants in MHz :   648.226014   519.043632   341.814105

                             ****ORCA TERMINATED NORMALLY****
TOTAL RUN TIME: 0 days 0 hours 1 minutes 43 seconds 9 msec
