                         Program Version 5.0.0 -  RELEASE  -
|  1> !B3LYP D3BJ RIJCOSX def2-TZVP def2/J TightSCF xyzfile
|  2>
|  3> *xyzfile 0 1 D3.xyz
|  4>
|  5> %MaxCore 64000
|  6>
|  7> %pal nprocs 18
|  8> end
|  9>
| 10> %scf
| 11>   MaxIter 150
| 12> end
| 13>
| 14>
| 15>                          ****END OF INPUT****

CARTESIAN COORDINATES (ANGSTROEM)
---------------------------------
  C      4.602954   -2.440100    2.634780
  C     -0.914947    0.615112    2.505538
  C     -0.059146    1.503524    3.410578
  H      0.365364    2.344315    2.861161
  H     -0.692261    1.920207    4.198985
  C      1.083027    0.749640    4.085705
  C      3.860851   -1.591565    3.622893
  C      2.756502   -2.046159    4.166333
  N      4.254325   -0.362905    3.860455
  H      3.565256    0.310994    4.168983
  H      5.054292   -0.016059    3.337838
  H      2.439696   -2.973894    3.897395
  H      2.066869   -1.412532    4.549813
  O      2.228167    1.263475    4.019826
  F      0.810034   -0.345411    4.636269
  C      3.744685   -2.580557    1.361882
  C      0.772139    0.636882    0.562129
  C     -0.130740   -0.193985    1.470763
  H     -0.840563   -0.760165    0.856377
  H      0.466691   -0.938942    2.006959
  H     -1.647961    1.245963    1.991076
  H     -1.478180   -0.081046    3.130424
  C      3.203721   -1.256004    0.826211
  H      2.898939   -3.239289    1.583074
  H      4.334962   -3.095523    0.600188
  C      2.107815   -1.442385   -0.216865
  H      2.786775   -0.672760    1.650711
  H      4.021008   -0.652993    0.414046
  C      1.390662   -0.145912   -0.602422
  H      1.372179   -2.152184    0.176151
  H      2.523302   -1.906787   -1.117115
  H      1.561361    1.100094    1.161831
  H      0.195516    1.468325    0.142758
  H      0.602893   -0.398214   -1.319716
  H      2.087247    0.508272   -1.137335
  H      5.561557   -1.971347    2.407084
  H      4.810498   -3.422552    3.063099

 Total Charge           Charge          ....    0
 Multiplicity           Mult            ....    1
 Number of Electrons    NEL             ....  118
 Basis Dimension        Dim             ....  597

ORBITAL ENERGIES
----------------

  NO   OCC          E(Eh)            E(eV)
   0   2.0000     -24.765509      -673.9038
   1   2.0000     -19.152238      -521.1589
   2   2.0000     -14.277050      -388.4983
   3   2.0000     -10.367096      -282.1030
   4   2.0000     -10.206618      -277.7362
   5   2.0000     -10.188364      -277.2395
   6   2.0000     -10.172351      -276.8037
   7   2.0000     -10.166095      -276.6335
   8   2.0000     -10.165212      -276.6095
   9   2.0000     -10.161857      -276.5182
  10   2.0000     -10.155742      -276.3518
  11   2.0000     -10.154331      -276.3134
  12   2.0000     -10.154044      -276.3056
  13   2.0000     -10.150038      -276.1966
  14   2.0000     -10.070828      -274.0412
  15   2.0000      -1.338798       -36.4305
  16   2.0000      -1.060039       -28.8451
  17   2.0000      -0.906214       -24.6593
  18   2.0000      -0.833354       -22.6767
  19   2.0000      -0.804562       -21.8932
  20   2.0000      -0.778397       -21.1813
  21   2.0000      -0.744027       -20.2460
  22   2.0000      -0.711858       -19.3706
  23   2.0000      -0.694929       -18.9100
  24   2.0000      -0.670553       -18.2467
  25   2.0000      -0.648034       -17.6339
  26   2.0000      -0.613752       -16.7010
  27   2.0000      -0.588679       -16.0188
  28   2.0000      -0.569304       -15.4915
  29   2.0000      -0.565816       -15.3966
  30   2.0000      -0.554830       -15.0977
  31   2.0000      -0.541720       -14.7410
  32   2.0000      -0.521025       -14.1778
  33   2.0000      -0.492060       -13.3896
  34   2.0000      -0.482810       -13.1379
  35   2.0000      -0.477966       -13.0061
  36   2.0000      -0.466944       -12.7062
  37   2.0000      -0.447381       -12.1738
  38   2.0000      -0.443626       -12.0717
  39   2.0000      -0.430428       -11.7125
  40   2.0000      -0.422190       -11.4884
  41   2.0000      -0.409613       -11.1461
  42   2.0000      -0.407774       -11.0961
  43   2.0000      -0.391226       -10.6458
  44   2.0000      -0.385580       -10.4922
  45   2.0000      -0.376167       -10.2360
  46   2.0000      -0.371976       -10.1220
  47   2.0000      -0.365438        -9.9441
  48   2.0000      -0.353501        -9.6193
  49   2.0000      -0.343354        -9.3431
  50   2.0000      -0.340098        -9.2545
  51   2.0000      -0.334060        -9.0902
  52   2.0000      -0.322560        -8.7773
  53   2.0000      -0.319621        -8.6973
  54   2.0000      -0.312915        -8.5148
  55   2.0000      -0.309139        -8.4121
  56   2.0000      -0.300623        -8.1804
  57   2.0000      -0.293129        -7.9765
  58   2.0000      -0.168414        -4.5828
  59   0.0000      -0.048754        -1.3267
  60   0.0000       0.021947         0.5972
  61   0.0000       0.041613         1.1323
  62   0.0000       0.045855         1.2478
  63   0.0000       0.048349         1.3157

MULLIKEN ATOMIC CHARGES
-----------------------
   0 C :   -0.177916
   1 C :   -0.170251
   2 C :   -0.191084
   3 H :    0.133775
   4 H :    0.128741
   5 C :    0.417653
   6 C :    0.161682
   7 C :   -0.423953
   8 N :   -0.396081
   9 H :    0.241032
  10 H :    0.196813
  11 H :    0.068509
  12 H :    0.090366
  13 O :   -0.374793
  14 F :   -0.100842
  15 C :   -0.141996
  16 C :   -0.234087
  17 C :   -0.230349
  18 H :    0.093067
  19 H :    0.135149
  20 H :    0.101640
  21 H :    0.106183
  22 C :   -0.236011
  23 H :    0.083808
  24 H :    0.077374
  25 C :   -0.148789
  26 H :    0.122237
  27 H :    0.067294
  28 C :   -0.139522
  29 H :    0.090177
  30 H :    0.084808
  31 H :    0.126381
  32 H :    0.086464
  33 H :    0.087819
  34 H :    0.083902
  35 H :    0.074662
  36 H :    0.106139
Sum of atomic charges:   -0.0000000

LOEWDIN ATOMIC CHARGES
----------------------
   0 C :   -0.209235
   1 C :   -0.258986
   2 C :   -0.222158
   3 H :    0.153771
   4 H :    0.154265
   5 C :   -0.471447
   6 C :   -0.381289
   7 C :   -0.298589
   8 N :    0.011023
   9 H :    0.146176
  10 H :    0.159915
  11 H :    0.101130
  12 H :    0.088513
  13 O :    0.077519
  14 F :    0.352467
  15 C :   -0.247460
  16 C :   -0.267715
  17 C :   -0.265758
  18 H :    0.138406
  19 H :    0.139329
  20 H :    0.139747
  21 H :    0.138906
  22 C :   -0.261597
  23 H :    0.134562
  24 H :    0.127959
  25 C :   -0.265202
  26 H :    0.141899
  27 H :    0.129564
  28 C :   -0.261432
  29 H :    0.133379
  30 H :    0.132039
  31 H :    0.135478
  32 H :    0.133480
  33 H :    0.133083
  34 H :    0.133557
  35 H :    0.130397
  36 H :    0.144305

  Mayer bond orders larger than 0.100000
B(  0-C ,  6-C ) :   0.9307 B(  0-C , 15-C ) :   0.9623 B(  0-C , 35-H ) :   0.9764
B(  0-C , 36-H ) :   0.9786 B(  1-C ,  2-C ) :   0.9374 B(  1-C , 17-C ) :   0.9594
B(  1-C , 20-H ) :   0.9623 B(  1-C , 21-H ) :   0.9728 B(  2-C ,  3-H ) :   0.9675
B(  2-C ,  4-H ) :   0.9413 B(  2-C ,  5-C ) :   0.9961 B(  5-C , 13-O ) :   1.9101
B(  5-C , 14-F ) :   1.1294 B(  6-C ,  7-C ) :   1.7272 B(  6-C ,  8-N ) :   1.2055
B(  7-C , 11-H ) :   0.9988 B(  7-C , 12-H ) :   0.9956 B(  8-N ,  9-H ) :   0.8639
B(  8-N , 10-H ) :   0.9340 B(  9-H , 13-O ) :   0.1090 B( 15-C , 22-C ) :   0.9673
B( 15-C , 23-H ) :   0.9685 B( 15-C , 24-H ) :   0.9637 B( 16-C , 17-C ) :   0.9314
B( 16-C , 28-C ) :   0.9787 B( 16-C , 31-H ) :   0.9703 B( 16-C , 32-H ) :   0.9662
B( 17-C , 18-H ) :   0.9668 B( 17-C , 19-H ) :   0.9746 B( 22-C , 25-C ) :   0.9633
B( 22-C , 26-H ) :   0.9839 B( 22-C , 27-H ) :   0.9634 B( 25-C , 28-C ) :   0.9643
B( 25-C , 29-H ) :   0.9706 B( 25-C , 30-H ) :   0.9708 B( 28-C , 33-H ) :   0.9716
B( 28-C , 34-H ) :   0.9732

Dispersion correction           -0.069860084
FINAL SINGLE POINT ENERGY      -700.201515057204

DIPOLE MOMENT
-------------
                                X             Y             Z
Electronic contribution:     -1.19702       4.77063      15.98540
Nuclear contribution   :      0.05905      -3.94566     -16.70013
                        -----------------------------------------
Total Dipole Moment    :     -1.13797       0.82497      -0.71473
                        -----------------------------------------
Magnitude (a.u.)       :      1.57683
Magnitude (Debye)      :      4.00799

Rotational constants in cm-1:     0.021602     0.017295     0.011353
Rotational constants in MHz :   647.614981   518.478934   340.359556

                             ****ORCA TERMINATED NORMALLY****
TOTAL RUN TIME: 0 days 0 hours 1 minutes 49 seconds 347 msec
