                         Program Version 5.0.0 -  RELEASE  -
|  1> !B3LYP D3BJ RIJCOSX def2-TZVP def2/J TightSCF xyzfile
|  2>
|  3> *xyzfile 0 1 D4.xyz
|  4>
|  5> %MaxCore 64000
|  6>
|  7> %pal nprocs 18
|  8> end
|  9>
| 10> %scf
| 11>   MaxIter 150
| 12> end
| 13>
| 14>
| 15>                          ****END OF INPUT****

CARTESIAN COORDINATES (ANGSTROEM)
---------------------------------
  C      4.602954   -2.440100    2.634780
  C     -0.914947    0.615112    2.505538
  C     -0.059146    1.503524    3.410578
  H      0.365364    2.344315    2.861161
  H     -0.692261    1.920207    4.198985
  C      1.083027    0.749640    4.085705
  C      3.860851   -1.591565    3.622893
  N      2.756502   -2.046159    4.166333
  C      4.254325   -0.362905    3.860455
  H      3.565256    0.310994    4.168983
  H      5.054292   -0.016059    3.337838
  H      2.439696   -2.973894    3.897395
  H      2.066869   -1.412532    4.549813
  O      2.228167    1.263475    4.019826
  F      0.810034   -0.345411    4.636269
  C      3.744685   -2.580557    1.361882
  C      0.772139    0.636882    0.562129
  C     -0.130740   -0.193985    1.470763
  H     -0.840563   -0.760165    0.856377
  H      0.466691   -0.938942    2.006959
  H     -1.647961    1.245963    1.991076
  H     -1.478180   -0.081046    3.130424
  C      3.203721   -1.256004    0.826211
  H      2.898939   -3.239289    1.583074
  H      4.334962   -3.095523    0.600188
  C      2.107815   -1.442385   -0.216865
  H      2.786775   -0.672760    1.650711
  H      4.021008   -0.652993    0.414046
  C      1.390662   -0.145912   -0.602422
  H      1.372179   -2.152184    0.176151
  H      2.523302   -1.906787   -1.117115
  H      1.561361    1.100094    1.161831
  H      0.195516    1.468325    0.142758
  H      0.602893   -0.398214   -1.319716
  H      2.087247    0.508272   -1.137335
  H      5.561557   -1.971347    2.407084
  H      4.810498   -3.422552    3.063099

 Total Charge           Charge          ....    0
 Multiplicity           Mult            ....    1
 Number of Electrons    NEL             ....  118
 Basis Dimension        Dim             ....  597

ORBITAL ENERGIES
----------------

  NO   OCC          E(Eh)            E(eV)
   0   2.0000     -24.777762      -674.2372
   1   2.0000     -19.143762      -520.9283
   2   2.0000     -14.291838      -388.9007
   3   2.0000     -10.362510      -281.9782
   4   2.0000     -10.206061      -277.7210
   5   2.0000     -10.189473      -277.2696
   6   2.0000     -10.175247      -276.8825
   7   2.0000     -10.166216      -276.6368
   8   2.0000     -10.161823      -276.5173
   9   2.0000     -10.161284      -276.5026
  10   2.0000     -10.156675      -276.3772
  11   2.0000     -10.155911      -276.3564
  12   2.0000     -10.152321      -276.2587
  13   2.0000     -10.148315      -276.1497
  14   2.0000     -10.061288      -273.7816
  15   2.0000      -1.349832       -36.7308
  16   2.0000      -1.052556       -28.6415
  17   2.0000      -0.914483       -24.8843
  18   2.0000      -0.834207       -22.6999
  19   2.0000      -0.804497       -21.8915
  20   2.0000      -0.779046       -21.1989
  21   2.0000      -0.742868       -20.2145
  22   2.0000      -0.717609       -19.5271
  23   2.0000      -0.693389       -18.8681
  24   2.0000      -0.679971       -18.5029
  25   2.0000      -0.646294       -17.5866
  26   2.0000      -0.614204       -16.7133
  27   2.0000      -0.587341       -15.9824
  28   2.0000      -0.580939       -15.8082
  29   2.0000      -0.572004       -15.5650
  30   2.0000      -0.553446       -15.0600
  31   2.0000      -0.542804       -14.7704
  32   2.0000      -0.519899       -14.1472
  33   2.0000      -0.500721       -13.6253
  34   2.0000      -0.485049       -13.1988
  35   2.0000      -0.481568       -13.1041
  36   2.0000      -0.460092       -12.5197
  37   2.0000      -0.445970       -12.1355
  38   2.0000      -0.440630       -11.9902
  39   2.0000      -0.435456       -11.8494
  40   2.0000      -0.418878       -11.3983
  41   2.0000      -0.413787       -11.2597
  42   2.0000      -0.408542       -11.1170
  43   2.0000      -0.389754       -10.6057
  44   2.0000      -0.383775       -10.4431
  45   2.0000      -0.376122       -10.2348
  46   2.0000      -0.372746       -10.1429
  47   2.0000      -0.360842        -9.8190
  48   2.0000      -0.356479        -9.7003
  49   2.0000      -0.348908        -9.4943
  50   2.0000      -0.344667        -9.3789
  51   2.0000      -0.328924        -8.9505
  52   2.0000      -0.324263        -8.8236
  53   2.0000      -0.322117        -8.7652
  54   2.0000      -0.313171        -8.5218
  55   2.0000      -0.308558        -8.3963
  56   2.0000      -0.301351        -8.2002
  57   2.0000      -0.271095        -7.3769
  58   2.0000      -0.168379        -4.5818
  59   0.0000      -0.046489        -1.2650
  60   0.0000       0.018324         0.4986
  61   0.0000       0.033691         0.9168
  62   0.0000       0.043315         1.1787
  63   0.0000       0.050585         1.3765

MULLIKEN ATOMIC CHARGES
-----------------------
   0 C :   -0.180011
   1 C :   -0.171633
   2 C :   -0.189959
   3 H :    0.136754
   4 H :    0.126924
   5 C :    0.394052
   6 C :    0.147063
   7 N :   -0.427708
   8 C :   -0.369410
   9 H :    0.121569
  10 H :    0.056406
  11 H :    0.205758
  12 H :    0.222939
  13 O :   -0.318830
  14 F :   -0.137766
  15 C :   -0.178289
  16 C :   -0.233375
  17 C :   -0.219812
  18 H :    0.094564
  19 H :    0.104825
  20 H :    0.102314
  21 H :    0.102959
  22 C :   -0.224219
  23 H :    0.075788
  24 H :    0.088196
  25 C :   -0.137130
  26 H :    0.127128
  27 H :    0.071592
  28 C :   -0.141346
  29 H :    0.084139
  30 H :    0.084716
  31 H :    0.135709
  32 H :    0.086752
  33 H :    0.086781
  34 H :    0.086285
  35 H :    0.092827
  36 H :    0.093447
Sum of atomic charges:   -0.0000000

LOEWDIN ATOMIC CHARGES
----------------------
   0 C :   -0.212288
   1 C :   -0.260853
   2 C :   -0.223693
   3 H :    0.155158
   4 H :    0.153392
   5 C :   -0.484223
   6 C :   -0.388589
   7 N :   -0.000060
   8 C :   -0.271787
   9 H :    0.090070
  10 H :    0.099538
  11 H :    0.163323
  12 H :    0.151294
  13 O :    0.105647
  14 F :    0.335923
  15 C :   -0.255007
  16 C :   -0.266882
  17 C :   -0.266870
  18 H :    0.138235
  19 H :    0.132866
  20 H :    0.139938
  21 H :    0.137114
  22 C :   -0.257383
  23 H :    0.126625
  24 H :    0.131236
  25 C :   -0.267096
  26 H :    0.143480
  27 H :    0.133829
  28 C :   -0.261128
  29 H :    0.130842
  30 H :    0.131804
  31 H :    0.138037
  32 H :    0.133894
  33 H :    0.132684
  34 H :    0.134527
  35 H :    0.144471
  36 H :    0.131933

  Mayer bond orders larger than 0.100000
B(  0-C ,  6-C ) :   0.9584 B(  0-C , 15-C ) :   0.9451 B(  0-C , 35-H ) :   0.9745
B(  0-C , 36-H ) :   0.9789 B(  1-C ,  2-C ) :   0.9341 B(  1-C , 17-C ) :   0.9584
B(  1-C , 20-H ) :   0.9619 B(  1-C , 21-H ) :   0.9748 B(  2-C ,  3-H ) :   0.9679
B(  2-C ,  4-H ) :   0.9414 B(  2-C ,  5-C ) :   0.9987 B(  5-C , 13-O ) :   1.9861
B(  5-C , 14-F ) :   1.0647 B(  6-C ,  7-N ) :   1.1460 B(  6-C ,  8-C ) :   1.7686
B(  7-N , 11-H ) :   0.9361 B(  7-N , 12-H ) :   0.8982 B(  8-C ,  9-H ) :   0.9755
B(  8-C , 10-H ) :   0.9929 B( 15-C , 22-C ) :   0.9464 B( 15-C , 23-H ) :   0.9840
B( 15-C , 24-H ) :   0.9647 B( 16-C , 17-C ) :   0.9327 B( 16-C , 28-C ) :   0.9786
B( 16-C , 31-H ) :   0.9691 B( 16-C , 32-H ) :   0.9661 B( 17-C , 18-H ) :   0.9671
B( 17-C , 19-H ) :   0.9760 B( 22-C , 25-C ) :   0.9474 B( 22-C , 26-H ) :   1.0013
B( 22-C , 27-H ) :   0.9634 B( 25-C , 28-C ) :   0.9651 B( 25-C , 29-H ) :   0.9699
B( 25-C , 30-H ) :   0.9717 B( 28-C , 33-H ) :   0.9714 B( 28-C , 34-H ) :   0.9731

Dispersion correction           -0.069782845
FINAL SINGLE POINT ENERGY      -700.188934649628

DIPOLE MOMENT
-------------
                                X             Y             Z
Electronic contribution:     -2.26333       3.57704      16.22944
Nuclear contribution   :      0.32481      -3.64700     -16.75441
                        -----------------------------------------
Total Dipole Moment    :     -1.93853      -0.06997      -0.52496
                        -----------------------------------------
Magnitude (a.u.)       :      2.00957
Magnitude (Debye)      :      5.10792

Rotational constants in cm-1:     0.021629     0.017327     0.011372
Rotational constants in MHz :   648.414821   519.443407   340.925013

                             ****ORCA TERMINATED NORMALLY****
TOTAL RUN TIME: 0 days 0 hours 1 minutes 45 seconds 669 msec
