                         Program Version 5.0.0 -  RELEASE  -
|  1> !B3LYP D3BJ RIJCOSX def2-TZVPD def2/J TightSCF
|  2> *xyz -1 1
|  3> C          0.84888        2.66797       -4.30235
|  4> C          2.09343        1.86104       -4.65684
|  5> H          2.44481        2.04157       -5.67499
|  6> H          2.90175        2.13786       -3.98034
|  7> S          1.87964        0.07859       -4.46297
|  8> O          3.20757       -0.46611       -4.42026
|  9> O          1.07506       -0.05616       -3.26876
| 10> O          1.13166       -0.31996       -5.67903
| 11> H          0.05064        2.40112       -4.96303
| 12> H          1.06043        3.71210       -4.40203
| 13> H          0.56237        2.45684       -3.29327
| 14> *
| 15>
| 16> %MaxCore 64000
| 17>
| 18> %pal nprocs 4
| 19> end
| 20>
| 21> %scf
| 22>   MaxIter 150
| 23> end
| 24>
| 25>
| 26>                          ****END OF INPUT****

CARTESIAN COORDINATES (ANGSTROEM)
---------------------------------
  C      0.848880    2.667970   -4.302350
  C      2.093430    1.861040   -4.656840
  H      2.444810    2.041570   -5.674990
  H      2.901750    2.137860   -3.980340
  S      1.879640    0.078590   -4.462970
  O      3.207570   -0.466110   -4.420260
  O      1.075060   -0.056160   -3.268760
  O      1.131660   -0.319960   -5.679030
  H      0.050640    2.401120   -4.963030
  H      1.060430    3.712100   -4.402030
  H      0.562370    2.456840   -3.293270

 Total Charge           Charge          ....   -1
 Multiplicity           Mult            ....    1
 Number of Electrons    NEL             ....   58
 Basis Dimension        Dim             ....  285

ORBITAL ENERGIES
----------------

  NO   OCC          E(Eh)            E(eV)
   0   2.0000     -88.837136     -2417.3814
   1   2.0000     -18.908314      -514.5214
   2   2.0000     -18.904993      -514.4310
   3   2.0000     -18.892932      -514.1028
   4   2.0000     -10.025838      -272.8169
   5   2.0000     -10.018938      -272.6292
   6   2.0000      -7.880734      -214.4457
   7   2.0000      -5.844285      -159.0311
   8   2.0000      -5.843235      -159.0025
   9   2.0000      -5.842976      -158.9955
  10   2.0000      -0.925627       -25.1876
  11   2.0000      -0.798715       -21.7341
  12   2.0000      -0.773152       -21.0385
  13   2.0000      -0.627836       -17.0843
  14   2.0000      -0.501017       -13.6334
  15   2.0000      -0.379227       -10.3193
  16   2.0000      -0.314900        -8.5689
  17   2.0000      -0.313059        -8.5188
  18   2.0000      -0.272576        -7.4172
  19   2.0000      -0.259929        -7.0730
  20   2.0000      -0.252864        -6.8808
  21   2.0000      -0.227320        -6.1857
  22   2.0000      -0.212503        -5.7825
  23   2.0000      -0.153391        -4.1740
  24   2.0000      -0.152527        -4.1505
  25   2.0000      -0.118952        -3.2369
  26   2.0000      -0.110153        -2.9974
  27   2.0000      -0.099598        -2.7102
  28   2.0000      -0.066551        -1.8110
  29   0.0000       0.123414         3.3583
  30   0.0000       0.145993         3.9727
  31   0.0000       0.152283         4.1438
  32   0.0000       0.161342         4.3903
  33   0.0000       0.178074         4.8456

MULLIKEN ATOMIC CHARGES
-----------------------
   0 C :   -1.088480
   1 C :   -0.311850
   2 H :    0.240435
   3 H :    0.234779
   4 S :    1.251824
   5 O :   -0.699101
   6 O :   -0.722574
   7 O :   -0.759942
   8 H :    0.280813
   9 H :    0.294634
  10 H :    0.279461
Sum of atomic charges:   -1.0000000

LOEWDIN ATOMIC CHARGES
----------------------
   0 C :   -0.148699
   1 C :   -0.323315
   2 H :    0.080895
   3 H :    0.075172
   4 S :    0.348391
   5 O :   -0.385327
   6 O :   -0.386389
   7 O :   -0.419953
   8 H :    0.060221
   9 H :    0.045836
  10 H :    0.053167

  Mayer bond orders larger than 0.100000
B(  0-C ,  1-C ) :   0.6766 B(  0-C ,  8-H ) :   0.9822 B(  0-C ,  9-H ) :   0.9344
B(  0-C , 10-H ) :   0.9947 B(  1-C ,  2-H ) :   0.9637 B(  1-C ,  3-H ) :   0.9702
B(  1-C ,  4-S ) :   0.8716 B(  1-C ,  5-O ) :   0.1368 B(  1-C ,  6-O ) :   0.1011
B(  1-C ,  7-O ) :   0.1228 B(  4-S ,  5-O ) :   1.4904 B(  4-S ,  6-O ) :   1.4764
B(  4-S ,  7-O ) :   1.4440

Dispersion correction           -0.016784693
FINAL SINGLE POINT ENERGY      -703.123808852337

DIPOLE MOMENT
-------------
                                X             Y             Z
Electronic contribution:      1.61123      -7.70143       0.05984
Nuclear contribution   :     -1.55288       9.51857       0.00420
                        -----------------------------------------
Total Dipole Moment    :      0.05835       1.81714       0.06405
                        -----------------------------------------
Magnitude (a.u.)       :      1.81921
Magnitude (Debye)      :      4.62405

Rotational constants in cm-1:     0.163401     0.083833     0.082462
Rotational constants in MHz :  4898.624208  2513.264548  2472.149188

                             ****ORCA TERMINATED NORMALLY****
TOTAL RUN TIME: 0 days 0 hours 0 minutes 38 seconds 108 msec
