                         Program Version 5.0.0 -  RELEASE  -
|  1> !B3LYP D3BJ RIJCOSX def2-TZVPD def2/J TightSCF
|  2> *xyz 1 1
|  3> C         -0.46129        2.23469       -4.98962
|  4> C          0.84888        2.66797       -4.30235
|  5> C         -0.42384        2.39877       -6.47432
|  6> N         -0.95947        3.49265       -7.00740
|  7> N          0.14558        1.48689       -7.20399
|  8> H          0.56537        0.69681       -6.72386
|  9> H          0.22068        1.58177       -8.20752
| 10> H         -1.40624        4.18151       -6.40326
| 11> H         -0.93421        3.68160       -7.99947
| 12> H         -1.28888        2.82674       -4.59500
| 13> H         -0.65170        1.18634       -4.75655
| 14> H          1.66208        2.08894       -4.68750
| 15> H          0.76716        2.51042       -3.24717
| 16> H          1.02677        3.70527       -4.49537
| 17> *
| 18>
| 19> %MaxCore 64000
| 20>
| 21> %pal nprocs 4
| 22> end
| 23>
| 24> %scf
| 25>   MaxIter 150
| 26> end
| 27>
| 28>
| 29>                          ****END OF INPUT****

CARTESIAN COORDINATES (ANGSTROEM)
---------------------------------
  C     -0.461290    2.234690   -4.989620
  C      0.848880    2.667970   -4.302350
  C     -0.423840    2.398770   -6.474320
  N     -0.959470    3.492650   -7.007400
  N      0.145580    1.486890   -7.203990
  H      0.565370    0.696810   -6.723860
  H      0.220680    1.581770   -8.207520
  H     -1.406240    4.181510   -6.403260
  H     -0.934210    3.681600   -7.999470
  H     -1.288880    2.826740   -4.595000
  H     -0.651700    1.186340   -4.756550
  H      1.662080    2.088940   -4.687500
  H      0.767160    2.510420   -3.247170
  H      1.026770    3.705270   -4.495370

 Total Charge           Charge          ....    1
 Multiplicity           Mult            ....    1
 Number of Electrons    NEL             ....   40
 Basis Dimension        Dim             ....  266

ORBITAL ENERGIES
----------------

  NO   OCC          E(Eh)            E(eV)
   0   2.0000     -14.562474      -396.2651
   1   2.0000     -14.558714      -396.1628
   2   2.0000     -10.490224      -285.4535
   3   2.0000     -10.367197      -282.1058
   4   2.0000     -10.323151      -280.9072
   5   2.0000      -1.203931       -32.7606
   6   2.0000      -1.109821       -30.1998
   7   2.0000      -0.968101       -26.3434
   8   2.0000      -0.861315       -23.4376
   9   2.0000      -0.815646       -22.1948
  10   2.0000      -0.777819       -21.1655
  11   2.0000      -0.751180       -20.4406
  12   2.0000      -0.702062       -19.1041
  13   2.0000      -0.648388       -17.6435
  14   2.0000      -0.623690       -16.9715
  15   2.0000      -0.614248       -16.7145
  16   2.0000      -0.545710       -14.8495
  17   2.0000      -0.536281       -14.5929
  18   2.0000      -0.530324       -14.4309
  19   2.0000      -0.493050       -13.4166
  20   0.0000      -0.211374        -5.7518
  21   0.0000      -0.170866        -4.6495
  22   0.0000      -0.129006        -3.5104
  23   0.0000      -0.124097        -3.3768
  24   0.0000      -0.098304        -2.6750

MULLIKEN ATOMIC CHARGES
-----------------------
   0 C :   -0.403417
   1 C :   -1.067017
   2 C :    0.695080
   3 N :   -0.293109
   4 N :   -0.267028
   5 H :    0.228922
   6 H :    0.195914
   7 H :    0.220672
   8 H :    0.182787
   9 H :    0.260348
  10 H :    0.276393
  11 H :    0.323672
  12 H :    0.314659
  13 H :    0.332125
Sum of atomic charges:    1.0000000

LOEWDIN ATOMIC CHARGES
----------------------
   0 C :   -0.144678
   1 C :   -0.046191
   2 C :   -0.362619
   3 N :    0.228247
   4 N :    0.238296
   5 H :    0.153881
   6 H :    0.150184
   7 H :    0.149015
   8 H :    0.141220
   9 H :    0.124912
  10 H :    0.129478
  11 H :    0.074502
  12 H :    0.084297
  13 H :    0.079456

  Mayer bond orders larger than 0.100000
B(  0-C ,  1-C ) :   0.6432 B(  0-C ,  2-C ) :   0.7675 B(  0-C ,  9-H ) :   0.9798
B(  0-C , 10-H ) :   0.9568 B(  1-C , 11-H ) :   0.9313 B(  1-C , 12-H ) :   0.9767
B(  1-C , 13-H ) :   0.9577 B(  2-C ,  3-N ) :   1.1439 B(  2-C ,  4-N ) :   1.2329
B(  3-N ,  4-N ) :   0.1048 B(  3-N ,  7-H ) :   0.9511 B(  3-N ,  8-H ) :   1.0300
B(  4-N ,  5-H ) :   0.9402 B(  4-N ,  6-H ) :   1.0059

Dispersion correction           -0.016636179
FINAL SINGLE POINT ENERGY      -228.994917427754

DIPOLE MOMENT
-------------
                                X             Y             Z
Electronic contribution:     -1.55200      -0.26852      -3.86075
Nuclear contribution   :      1.33202       0.27544       2.83701
                        -----------------------------------------
Total Dipole Moment    :     -0.21998       0.00692      -1.02374
                        -----------------------------------------
Magnitude (a.u.)       :      1.04713
Magnitude (Debye)      :      2.66159

Rotational constants in cm-1:     0.258570     0.126296     0.098869
Rotational constants in MHz :  7751.748523  3786.267300  2964.011691

                             ****ORCA TERMINATED NORMALLY****
TOTAL RUN TIME: 0 days 0 hours 0 minutes 36 seconds 677 msec
