                         Program Version 5.0.0 -  RELEASE  -
|  1> !B3LYP D3BJ RIJCOSX def2-TZVPD def2/J TightSCF xyzfile
|  2>
|  3> *xyzfile 0 1 B.xyz
|  4>
|  5> %MaxCore 64000
|  6>
|  7> %pal nprocs 4
|  8> end
|  9>
| 10> %scf
| 11>   MaxIter 150
| 12> end
| 13>
| 14>
| 15>                          ****END OF INPUT****

CARTESIAN COORDINATES (ANGSTROEM)
---------------------------------
  C     -0.461293    2.234686   -4.989619
  C      0.848883    2.667967   -4.302351
  C      2.093434    1.861037   -4.656845
  H      2.444814    2.041567   -5.674990
  H      2.901748    2.137864   -3.980338
  S      1.879644    0.078594   -4.462965
  C     -0.423841    2.398772   -6.474317
  N     -0.959467    3.492647   -7.007401
  N      0.145585    1.486891   -7.203987
  H      0.565371    0.696807   -6.723858
  H      0.220682    1.581768   -8.207520
  H     -1.406243    4.181507   -6.403261
  H     -0.934215    3.681601   -7.999468
  O      3.207574   -0.466111   -4.420259
  O      1.075064   -0.056160   -3.268758
  O      1.131661   -0.319960   -5.679031
  H      0.668432    2.559427   -3.232850
  H      1.034074    3.729426   -4.497081
  H     -1.288884    2.826737   -4.594997
  H     -0.651696    1.186343   -4.756552

 Total Charge           Charge          ....    0
 Multiplicity           Mult            ....    1
 Number of Electrons    NEL             ....   88
 Basis Dimension        Dim             ....  478

ORBITAL ENERGIES
----------------

  NO   OCC          E(Eh)            E(eV)
   0   2.0000     -88.989824     -2421.5362
   1   2.0000     -19.063813      -518.7527
   2   2.0000     -19.050289      -518.3847
   3   2.0000     -19.048552      -518.3374
   4   2.0000     -14.424217      -392.5029
   5   2.0000     -14.391944      -391.6247
   6   2.0000     -10.342342      -281.4294
   7   2.0000     -10.219867      -278.0967
   8   2.0000     -10.199201      -277.5344
   9   2.0000     -10.175472      -276.8887
  10   2.0000      -8.033493      -218.6025
  11   2.0000      -5.997350      -163.1962
  12   2.0000      -5.996352      -163.1690
  13   2.0000      -5.995048      -163.1336
  14   2.0000      -1.078506       -29.3476
  15   2.0000      -1.056845       -28.7582
  16   2.0000      -0.965090       -26.2614
  17   2.0000      -0.941604       -25.6223
  18   2.0000      -0.939733       -25.5714
  19   2.0000      -0.833806       -22.6890
  20   2.0000      -0.755801       -20.5664
  21   2.0000      -0.693918       -18.8825
  22   2.0000      -0.649182       -17.6651
  23   2.0000      -0.632392       -17.2083
  24   2.0000      -0.604786       -16.4571
  25   2.0000      -0.563574       -15.3356
  26   2.0000      -0.521465       -14.1898
  27   2.0000      -0.512847       -13.9553
  28   2.0000      -0.483713       -13.1625
  29   2.0000      -0.472167       -12.8483
  30   2.0000      -0.446596       -12.1525
  31   2.0000      -0.435692       -11.8558
  32   2.0000      -0.413987       -11.2652
  33   2.0000      -0.405722       -11.0403
  34   2.0000      -0.391807       -10.6616
  35   2.0000      -0.376179       -10.2364
  36   2.0000      -0.361306        -9.8316
  37   2.0000      -0.347195        -9.4477
  38   2.0000      -0.306829        -8.3492
  39   2.0000      -0.300978        -8.1900
  40   2.0000      -0.272111        -7.4045
  41   2.0000      -0.261241        -7.1087
  42   2.0000      -0.254642        -6.9292
  43   2.0000      -0.221726        -6.0335
  44   0.0000      -0.067779        -1.8444
  45   0.0000      -0.053709        -1.4615
  46   0.0000      -0.015790        -0.4297
  47   0.0000       0.003183         0.0866
  48   0.0000       0.013255         0.3607

MULLIKEN ATOMIC CHARGES
-----------------------
   0 C :   -0.519109
   1 C :   -0.413251
   2 C :   -0.704660
   3 H :    0.298906
   4 H :    0.242494
   5 S :    1.358298
   6 C :    0.442337
   7 N :   -0.310874
   8 N :   -0.239963
   9 H :    0.387540
  10 H :    0.148659
  11 H :    0.208384
  12 H :    0.157530
  13 O :   -0.668187
  14 O :   -0.708134
  15 O :   -0.848049
  16 H :    0.292059
  17 H :    0.211291
  18 H :    0.261868
  19 H :    0.402862
Sum of atomic charges:   -0.0000000

LOEWDIN ATOMIC CHARGES
----------------------
   0 C :   -0.108645
   1 C :   -0.200108
   2 C :   -0.244562
   3 H :    0.092151
   4 H :    0.099503
   5 S :    0.428376
   6 C :   -0.357478
   7 N :    0.192999
   8 N :    0.234591
   9 H :    0.035790
  10 H :    0.142087
  11 H :    0.133063
  12 H :    0.125718
  13 O :   -0.325580
  14 O :   -0.333261
  15 O :   -0.381123
  16 H :    0.114470
  17 H :    0.110750
  18 H :    0.121062
  19 H :    0.120198

  Mayer bond orders larger than 0.100000
B(  0-C ,  1-C ) :   0.7798 B(  0-C ,  6-C ) :   0.7313 B(  0-C , 18-H ) :   0.9364
B(  0-C , 19-H ) :   0.9212 B(  1-C ,  2-C ) :   0.9251 B(  1-C ,  6-C ) :   0.2088
B(  1-C , 16-H ) :   0.8840 B(  1-C , 17-H ) :   0.9746 B(  2-C ,  3-H ) :   0.8870
B(  2-C ,  4-H ) :   1.0068 B(  2-C ,  5-S ) :   0.8643 B(  2-C , 13-O ) :   0.1646
B(  2-C , 15-O ) :   0.1554 B(  5-S , 13-O ) :   1.4656 B(  5-S , 14-O ) :   1.4929
B(  5-S , 15-O ) :   1.2749 B(  6-C ,  7-N ) :   1.0647 B(  6-C ,  8-N ) :   1.3450
B(  7-N , 11-H ) :   0.9708 B(  7-N , 12-H ) :   1.0322 B(  8-N ,  9-H ) :   0.7303
B(  8-N , 10-H ) :   1.0196

Dispersion correction           -0.038444262
FINAL SINGLE POINT ENERGY      -891.765421462988

DIPOLE MOMENT
-------------
                                X             Y             Z
Electronic contribution:      3.10896      -7.68383       1.11507
Nuclear contribution   :     -5.91573      12.15027      -4.18945
                        -----------------------------------------
Total Dipole Moment    :     -2.80676       4.46645      -3.07438
                        -----------------------------------------
Magnitude (a.u.)       :      6.10564
Magnitude (Debye)      :     15.51932

Rotational constants in cm-1:     0.082044     0.024757     0.022371
Rotational constants in MHz :  2459.631375   742.181961   670.660570

                             ****ORCA TERMINATED NORMALLY****
TOTAL RUN TIME: 0 days 0 hours 2 minutes 23 seconds 461 msec
