                         Program Version 5.0.0 -  RELEASE  -
|  1> !B3LYP D3BJ RIJCOSX def2-TZVPD def2/J TightSCF
|  2> *xyz 0 1
|  3> C          0.84888        2.66797       -4.30235
|  4> C          2.09343        1.86104       -4.65684
|  5> H          2.44481        2.04157       -5.67499
|  6> H          2.90175        2.13786       -3.98034
|  7> S          1.87964        0.07859       -4.46297
|  8> F          3.20757       -0.46611       -4.42026
|  9> O          1.07506       -0.05616       -3.26876
| 10> O          1.13166       -0.31996       -5.67903
| 11> H          0.05064        2.40112       -4.96303
| 12> H          1.06043        3.71210       -4.40203
| 13> H          0.56237        2.45684       -3.29327
| 14> *
| 15>
| 16> %MaxCore 64000
| 17>
| 18> %pal nprocs 4
| 19> end
| 20>
| 21> %scf
| 22>   MaxIter 150
| 23> end
| 24>
| 25>
| 26>                          ****END OF INPUT****

CARTESIAN COORDINATES (ANGSTROEM)
---------------------------------
  C      0.848880    2.667970   -4.302350
  C      2.093430    1.861040   -4.656840
  H      2.444810    2.041570   -5.674990
  H      2.901750    2.137860   -3.980340
  S      1.879640    0.078590   -4.462970
  F      3.207570   -0.466110   -4.420260
  O      1.075060   -0.056160   -3.268760
  O      1.131660   -0.319960   -5.679030
  H      0.050640    2.401120   -4.963030
  H      1.060430    3.712100   -4.402030
  H      0.562370    2.456840   -3.293270

 Total Charge           Charge          ....    0
 Multiplicity           Mult            ....    1
 Number of Electrons    NEL             ....   58
 Basis Dimension        Dim             ....  285

ORBITAL ENERGIES
----------------

  NO   OCC          E(Eh)            E(eV)
   0   2.0000     -89.099428     -2424.5187
   1   2.0000     -24.807512      -675.0467
   2   2.0000     -19.139121      -520.8020
   3   2.0000     -19.127083      -520.4744
   4   2.0000     -10.227765      -278.3116
   5   2.0000     -10.183163      -277.0980
   6   2.0000      -8.143479      -221.5953
   7   2.0000      -6.110184      -166.2666
   8   2.0000      -6.103872      -166.0948
   9   2.0000      -6.103644      -166.0886
  10   2.0000      -1.391722       -37.8707
  11   2.0000      -1.105141       -30.0724
  12   2.0000      -1.006102       -27.3774
  13   2.0000      -0.818467       -22.2716
  14   2.0000      -0.739986       -20.1360
  15   2.0000      -0.674813       -18.3626
  16   2.0000      -0.592757       -16.1297
  17   2.0000      -0.591541       -16.0967
  18   2.0000      -0.556426       -15.1411
  19   2.0000      -0.492550       -13.4030
  20   2.0000      -0.483634       -13.1603
  21   2.0000      -0.444888       -12.1060
  22   2.0000      -0.429227       -11.6799
  23   2.0000      -0.407267       -11.0823
  24   2.0000      -0.388857       -10.5813
  25   2.0000      -0.384283       -10.4569
  26   2.0000      -0.336195        -9.1483
  27   2.0000      -0.322081        -8.7643
  28   2.0000      -0.307750        -8.3743
  29   0.0000      -0.012178        -0.3314
  30   0.0000       0.008869         0.2413
  31   0.0000       0.021959         0.5975
  32   0.0000       0.026025         0.7082
  33   0.0000       0.044988         1.2242

MULLIKEN ATOMIC CHARGES
-----------------------
   0 C :   -1.129263
   1 C :   -0.322728
   2 H :    0.303538
   3 H :    0.301204
   4 S :    1.192647
   5 F :   -0.122873
   6 O :   -0.574982
   7 O :   -0.600486
   8 H :    0.323580
   9 H :    0.306348
  10 H :    0.323016
Sum of atomic charges:    0.0000000

LOEWDIN ATOMIC CHARGES
----------------------
   0 C :   -0.102737
   1 C :   -0.280194
   2 H :    0.100054
   3 H :    0.092592
   4 S :    0.596395
   5 F :   -0.048023
   6 O :   -0.275115
   7 O :   -0.301924
   8 H :    0.076629
   9 H :    0.073281
  10 H :    0.069042

  Mayer bond orders larger than 0.100000
B(  0-C ,  1-C ) :   0.7348 B(  0-C ,  8-H ) :   0.9467 B(  0-C ,  9-H ) :   0.9352
B(  0-C , 10-H ) :   0.9573 B(  1-C ,  2-H ) :   0.9186 B(  1-C ,  3-H ) :   0.8944
B(  1-C ,  4-S ) :   0.8631 B(  4-S ,  5-F ) :   1.0113 B(  4-S ,  6-O ) :   1.6798
B(  4-S ,  7-O ) :   1.6443

Dispersion correction           -0.016042197
FINAL SINGLE POINT ENERGY      -727.637599651526

DIPOLE MOMENT
-------------
                                X             Y             Z
Electronic contribution:      4.15303      -9.32589       0.10532
Nuclear contribution   :     -3.08754      10.54185      -0.04092
                        -----------------------------------------
Total Dipole Moment    :      1.06549       1.21596       0.06441
                        -----------------------------------------
Magnitude (a.u.)       :      1.61802
Magnitude (Debye)      :      4.11267

Rotational constants in cm-1:     0.158925     0.081210     0.079022
Rotational constants in MHz :  4764.450166  2434.603461  2369.014434

                             ****ORCA TERMINATED NORMALLY****
TOTAL RUN TIME: 0 days 0 hours 0 minutes 43 seconds 519 msec
