                         Program Version 5.0.0 -  RELEASE  -
|  1> !B3LYP D3BJ RIJCOSX def2-TZVPD def2/J TightSCF
|  2> *xyz 0 1
|  3> C         -0.46129        2.23469       -4.98962
|  4> C          0.84888        2.66797       -4.30235
|  5> C         -0.42384        2.39877       -6.47432
|  6> C         -0.95947        3.49265       -7.00740
|  7> N          0.14558        1.48689       -7.20399
|  8> H          0.56537        0.69681       -6.72386
|  9> H          0.22068        1.58177       -8.20752
| 10> H         -1.40624        4.18151       -6.40326
| 11> H         -0.93421        3.68160       -7.99947
| 12> H         -1.28888        2.82674       -4.59500
| 13> H         -0.65170        1.18634       -4.75655
| 14> H          1.66208        2.08894       -4.68750
| 15> H          0.76716        2.51042       -3.24717
| 16> H          1.02677        3.70527       -4.49537
| 17> *
| 18>
| 19> %MaxCore 64000
| 20>
| 21> %pal nprocs 4
| 22> end
| 23>
| 24> %scf
| 25>   MaxIter 150
| 26> end
| 27>
| 28>
| 29>                          ****END OF INPUT****

CARTESIAN COORDINATES (ANGSTROEM)
---------------------------------
  C     -0.461290    2.234690   -4.989620
  C      0.848880    2.667970   -4.302350
  C     -0.423840    2.398770   -6.474320
  C     -0.959470    3.492650   -7.007400
  N      0.145580    1.486890   -7.203990
  H      0.565370    0.696810   -6.723860
  H      0.220680    1.581770   -8.207520
  H     -1.406240    4.181510   -6.403260
  H     -0.934210    3.681600   -7.999470
  H     -1.288880    2.826740   -4.595000
  H     -0.651700    1.186340   -4.756550
  H      1.662080    2.088940   -4.687500
  H      0.767160    2.510420   -3.247170
  H      1.026770    3.705270   -4.495370

 Total Charge           Charge          ....    0
 Multiplicity           Mult            ....    1
 Number of Electrons    NEL             ....   40
 Basis Dimension        Dim             ....  266

ORBITAL ENERGIES
----------------

  NO   OCC          E(Eh)            E(eV)
   0   2.0000     -14.318585      -389.6285
   1   2.0000     -10.187140      -277.2062
   2   2.0000     -10.167499      -276.6717
   3   2.0000     -10.152674      -276.2683
   4   2.0000     -10.099088      -274.8102
   5   2.0000      -0.936384       -25.4803
   6   2.0000      -0.777630       -21.1604
   7   2.0000      -0.713024       -19.4024
   8   2.0000      -0.635543       -17.2940
   9   2.0000      -0.570440       -15.5224
  10   2.0000      -0.530660       -14.4400
  11   2.0000      -0.480038       -13.0625
  12   2.0000      -0.437861       -11.9148
  13   2.0000      -0.419917       -11.4265
  14   2.0000      -0.392596       -10.6831
  15   2.0000      -0.382051       -10.3961
  16   2.0000      -0.353739        -9.6257
  17   2.0000      -0.336265        -9.1502
  18   2.0000      -0.331527        -9.0213
  19   2.0000      -0.187256        -5.0955
  20   0.0000      -0.000152        -0.0041
  21   0.0000       0.026682         0.7261
  22   0.0000       0.035203         0.9579
  23   0.0000       0.038913         1.0589
  24   0.0000       0.051523         1.4020

MULLIKEN ATOMIC CHARGES
-----------------------
   0 C :   -0.426780
   1 C :   -1.029533
   2 C :    0.831725
   3 C :   -1.216371
   4 N :   -0.344350
   5 H :    0.158515
   6 H :    0.147861
   7 H :    0.254529
   8 H :    0.278851
   9 H :    0.200196
  10 H :    0.267284
  11 H :    0.290647
  12 H :    0.280668
  13 H :    0.306755
Sum of atomic charges:   -0.0000000

LOEWDIN ATOMIC CHARGES
----------------------
   0 C :   -0.198105
   1 C :   -0.085260
   2 C :   -0.506617
   3 C :    0.024444
   4 N :    0.109754
   5 H :    0.110180
   6 H :    0.115504
   7 H :    0.018796
   8 H :    0.012227
   9 H :    0.107369
  10 H :    0.105125
  11 H :    0.059452
  12 H :    0.059517
  13 H :    0.067614

  Mayer bond orders larger than 0.100000
B(  0-C ,  1-C ) :   0.6280 B(  0-C ,  2-C ) :   0.6970 B(  0-C ,  9-H ) :   1.0038
B(  0-C , 10-H ) :   0.9855 B(  1-C , 11-H ) :   0.9537 B(  1-C , 12-H ) :   0.9749
B(  1-C , 13-H ) :   0.9904 B(  2-C ,  3-C ) :   1.1487 B(  2-C ,  4-N ) :   1.0003
B(  2-C ,  8-H ) :  -0.1015 B(  3-C ,  4-N ) :   0.1004 B(  3-C ,  7-H ) :   0.9945
B(  3-C ,  8-H ) :   1.0297 B(  4-N ,  5-H ) :   1.0174 B(  4-N ,  6-H ) :   1.0197

Dispersion correction           -0.017373533
FINAL SINGLE POINT ENERGY      -212.523919236263

DIPOLE MOMENT
-------------
                                X             Y             Z
Electronic contribution:     -0.72422      -1.16609      -2.58335
Nuclear contribution   :      1.14741       0.51394       2.60761
                        -----------------------------------------
Total Dipole Moment    :      0.42320      -0.65215       0.02426
                        -----------------------------------------
Magnitude (a.u.)       :      0.77781
Magnitude (Debye)      :      1.97703

Rotational constants in cm-1:     0.269157     0.129188     0.102123
Rotational constants in MHz :  8069.118715  3872.945231  3061.580645

                             ****ORCA TERMINATED NORMALLY****
TOTAL RUN TIME: 0 days 0 hours 0 minutes 36 seconds 959 msec
