                         Program Version 5.0.0 -  RELEASE  -
|  1> !B3LYP D3BJ RIJCOSX def2-TZVPD def2/J TightSCF
|  2> *xyz 0 1
|  3> C          0.84888        2.66797       -4.30235
|  4> C          2.09343        1.86104       -4.65684
|  5> H          2.44481        2.04157       -5.67499
|  6> H          2.90175        2.13786       -3.98034
|  7> S          1.87964        0.07859       -4.46297
|  8> O          3.20757       -0.46611       -4.42026
|  9> F          1.07506       -0.05616       -3.26876
| 10> O          1.13166       -0.31996       -5.67903
| 11> H          0.05064        2.40112       -4.96303
| 12> H          1.06043        3.71210       -4.40203
| 13> H          0.56237        2.45684       -3.29327
| 14> *
| 15>
| 16> %MaxCore 64000
| 17>
| 18> %pal nprocs 4
| 19> end
| 20>
| 21> %scf
| 22>   MaxIter 150
| 23> end
| 24>
| 25>
| 26>                          ****END OF INPUT****

CARTESIAN COORDINATES (ANGSTROEM)
---------------------------------
  C      0.848880    2.667970   -4.302350
  C      2.093430    1.861040   -4.656840
  H      2.444810    2.041570   -5.674990
  H      2.901750    2.137860   -3.980340
  S      1.879640    0.078590   -4.462970
  O      3.207570   -0.466110   -4.420260
  F      1.075060   -0.056160   -3.268760
  O      1.131660   -0.319960   -5.679030
  H      0.050640    2.401120   -4.963030
  H      1.060430    3.712100   -4.402030
  H      0.562370    2.456840   -3.293270

 Total Charge           Charge          ....    0
 Multiplicity           Mult            ....    1
 Number of Electrons    NEL             ....   58
 Basis Dimension        Dim             ....  285

ORBITAL ENERGIES
----------------

  NO   OCC          E(Eh)            E(eV)
   0   2.0000     -89.098841     -2424.5027
   1   2.0000     -24.801966      -674.8958
   2   2.0000     -19.142736      -520.9003
   3   2.0000     -19.127120      -520.4754
   4   2.0000     -10.227660      -278.3088
   5   2.0000     -10.189710      -277.2761
   6   2.0000      -8.142887      -221.5792
   7   2.0000      -6.109790      -166.2558
   8   2.0000      -6.103187      -166.0762
   9   2.0000      -6.102999      -166.0711
  10   2.0000      -1.383145       -37.6373
  11   2.0000      -1.109299       -30.1856
  12   2.0000      -1.009157       -27.4606
  13   2.0000      -0.823603       -22.4114
  14   2.0000      -0.733596       -19.9622
  15   2.0000      -0.677540       -18.4368
  16   2.0000      -0.598686       -16.2911
  17   2.0000      -0.586071       -15.9478
  18   2.0000      -0.547994       -14.9117
  19   2.0000      -0.494819       -13.4647
  20   2.0000      -0.477345       -12.9892
  21   2.0000      -0.452169       -12.3042
  22   2.0000      -0.439747       -11.9661
  23   2.0000      -0.413133       -11.2419
  24   2.0000      -0.397697       -10.8219
  25   2.0000      -0.384943       -10.4748
  26   2.0000      -0.337583        -9.1861
  27   2.0000      -0.322684        -8.7807
  28   2.0000      -0.310746        -8.4558
  29   0.0000      -0.015994        -0.4352
  30   0.0000       0.014430         0.3927
  31   0.0000       0.019850         0.5402
  32   0.0000       0.025734         0.7003
  33   0.0000       0.042751         1.1633

MULLIKEN ATOMIC CHARGES
-----------------------
   0 C :   -1.152024
   1 C :   -0.271475
   2 H :    0.290205
   3 H :    0.292630
   4 S :    1.186898
   5 O :   -0.551698
   6 F :   -0.155471
   7 O :   -0.602860
   8 H :    0.329808
   9 H :    0.301914
  10 H :    0.332073
Sum of atomic charges:    0.0000000

LOEWDIN ATOMIC CHARGES
----------------------
   0 C :   -0.113106
   1 C :   -0.270942
   2 H :    0.109930
   3 H :    0.095935
   4 S :    0.592995
   5 O :   -0.268524
   6 F :   -0.055260
   7 O :   -0.301287
   8 H :    0.073396
   9 H :    0.072225
  10 H :    0.064637

  Mayer bond orders larger than 0.100000
B(  0-C ,  1-C ) :   0.6560 B(  0-C ,  8-H ) :   0.9651 B(  0-C ,  9-H ) :   0.9558
B(  0-C , 10-H ) :   0.9292 B(  1-C ,  2-H ) :   0.9278 B(  1-C ,  3-H ) :   0.9369
B(  1-C ,  4-S ) :   0.8551 B(  1-C ,  5-O ) :   0.1038 B(  4-S ,  5-O ) :   1.6936
B(  4-S ,  6-F ) :   1.0105 B(  4-S ,  7-O ) :   1.6468

Dispersion correction           -0.015930520
FINAL SINGLE POINT ENERGY      -727.641950923046

DIPOLE MOMENT
-------------
                                X             Y             Z
Electronic contribution:      0.56501      -8.61001       2.02721
Nuclear contribution   :     -0.86540      10.11467      -1.24082
                        -----------------------------------------
Total Dipole Moment    :     -0.30039       1.50466       0.78639
                        -----------------------------------------
Magnitude (a.u.)       :      1.72414
Magnitude (Debye)      :      4.38241

Rotational constants in cm-1:     0.154065     0.083345     0.080357
Rotational constants in MHz :  4618.752213  2498.631937  2409.037217

                             ****ORCA TERMINATED NORMALLY****
TOTAL RUN TIME: 0 days 0 hours 0 minutes 38 seconds 262 msec
