                         Program Version 5.0.0 -  RELEASE  -
|  1> !B3LYP D3BJ RIJCOSX def2-TZVPD def2/J TightSCF
|  2> *xyz 0 1
|  3> C         -0.46129        2.23469       -4.98962
|  4> C          0.84888        2.66797       -4.30235
|  5> C         -0.42384        2.39877       -6.47432
|  6> N         -0.95947        3.49265       -7.00740
|  7> C          0.14558        1.48689       -7.20399
|  8> H          0.56537        0.69681       -6.72386
|  9> H          0.22068        1.58177       -8.20752
| 10> H         -1.40624        4.18151       -6.40326
| 11> H         -0.93421        3.68160       -7.99947
| 12> H         -1.28888        2.82674       -4.59500
| 13> H         -0.65170        1.18634       -4.75655
| 14> H          1.66208        2.08894       -4.68750
| 15> H          0.76716        2.51042       -3.24717
| 16> H          1.02677        3.70527       -4.49537
| 17> *
| 18>
| 19> %MaxCore 64000
| 20>
| 21> %pal nprocs 4
| 22> end
| 23>
| 24> %scf
| 25>   MaxIter 150
| 26> end
| 27>
| 28>
| 29>                          ****END OF INPUT****

CARTESIAN COORDINATES (ANGSTROEM)
---------------------------------
  C     -0.461290    2.234690   -4.989620
  C      0.848880    2.667970   -4.302350
  C     -0.423840    2.398770   -6.474320
  N     -0.959470    3.492650   -7.007400
  C      0.145580    1.486890   -7.203990
  H      0.565370    0.696810   -6.723860
  H      0.220680    1.581770   -8.207520
  H     -1.406240    4.181510   -6.403260
  H     -0.934210    3.681600   -7.999470
  H     -1.288880    2.826740   -4.595000
  H     -0.651700    1.186340   -4.756550
  H      1.662080    2.088940   -4.687500
  H      0.767160    2.510420   -3.247170
  H      1.026770    3.705270   -4.495370

 Total Charge           Charge          ....    0
 Multiplicity           Mult            ....    1
 Number of Electrons    NEL             ....   40
 Basis Dimension        Dim             ....  266

ORBITAL ENERGIES
----------------

  NO   OCC          E(Eh)            E(eV)
   0   2.0000     -14.315440      -389.5429
   1   2.0000     -10.184912      -277.1456
   2   2.0000     -10.167238      -276.6646
   3   2.0000     -10.151283      -276.2305
   4   2.0000     -10.097533      -274.7678
   5   2.0000      -0.923833       -25.1388
   6   2.0000      -0.779311       -21.2061
   7   2.0000      -0.716931       -19.5087
   8   2.0000      -0.636407       -17.3175
   9   2.0000      -0.564807       -15.3692
  10   2.0000      -0.520677       -14.1683
  11   2.0000      -0.482334       -13.1250
  12   2.0000      -0.439176       -11.9506
  13   2.0000      -0.415450       -11.3050
  14   2.0000      -0.393714       -10.7135
  15   2.0000      -0.382376       -10.4050
  16   2.0000      -0.351322        -9.5600
  17   2.0000      -0.339003        -9.2247
  18   2.0000      -0.327502        -8.9118
  19   2.0000      -0.191245        -5.2041
  20   0.0000       0.001136         0.0309
  21   0.0000       0.026448         0.7197
  22   0.0000       0.035037         0.9534
  23   0.0000       0.039732         1.0812
  24   0.0000       0.052514         1.4290

MULLIKEN ATOMIC CHARGES
-----------------------
   0 C :   -0.404113
   1 C :   -1.043298
   2 C :    0.845298
   3 N :   -0.359910
   4 C :   -1.220402
   5 H :    0.273348
   6 H :    0.286454
   7 H :    0.154935
   8 H :    0.130160
   9 H :    0.238431
  10 H :    0.223898
  11 H :    0.307704
  12 H :    0.277498
  13 H :    0.289998
Sum of atomic charges:   -0.0000000

LOEWDIN ATOMIC CHARGES
----------------------
   0 C :   -0.196785
   1 C :   -0.084347
   2 C :   -0.497130
   3 N :    0.102202
   4 C :    0.017694
   5 H :    0.027806
   6 H :    0.021936
   7 H :    0.103313
   8 H :    0.105633
   9 H :    0.101755
  10 H :    0.109656
  11 H :    0.064417
  12 H :    0.059165
  13 H :    0.064684

  Mayer bond orders larger than 0.100000
B(  0-C ,  1-C ) :   0.6215 B(  0-C ,  2-C ) :   0.6593 B(  0-C ,  9-H ) :   1.0373
B(  0-C , 10-H ) :   0.9758 B(  1-C , 11-H ) :   0.9699 B(  1-C , 12-H ) :   0.9717
B(  1-C , 13-H ) :   0.9688 B(  2-C ,  3-N ) :   0.9100 B(  2-C ,  4-C ) :   1.2242
B(  3-N ,  4-C ) :   0.1021 B(  3-N ,  7-H ) :   1.0280 B(  3-N ,  8-H ) :   1.0504
B(  4-C ,  5-H ) :   0.9753 B(  4-C ,  6-H ) :   1.0109

Dispersion correction           -0.017388539
FINAL SINGLE POINT ENERGY      -212.524109049550

DIPOLE MOMENT
-------------
                                X             Y             Z
Electronic contribution:     -1.69586       0.57128      -2.41036
Nuclear contribution   :      1.40335       0.04939       2.56207
                        -----------------------------------------
Total Dipole Moment    :     -0.29250       0.62067       0.15171
                        -----------------------------------------
Magnitude (a.u.)       :      0.70271
Magnitude (Debye)      :      1.78615

Rotational constants in cm-1:     0.271383     0.128194     0.101873
Rotational constants in MHz :  8135.853259  3843.152748  3054.074278

                             ****ORCA TERMINATED NORMALLY****
TOTAL RUN TIME: 0 days 0 hours 0 minutes 36 seconds 574 msec
