                         Program Version 5.0.0 -  RELEASE  -
|  1> !B3LYP D3BJ RIJCOSX def2-TZVPD def2/J TightSCF
|  2> *xyz 0 1
|  3> C          0.84888        2.66797       -4.30235
|  4> C          2.09343        1.86104       -4.65684
|  5> H          2.44481        2.04157       -5.67499
|  6> H          2.90175        2.13786       -3.98034
|  7> S          1.87964        0.07859       -4.46297
|  8> O          3.20757       -0.46611       -4.42026
|  9> O          1.07506       -0.05616       -3.26876
| 10> F          1.13166       -0.31996       -5.67903
| 11> H          0.05064        2.40112       -4.96303
| 12> H          1.06043        3.71210       -4.40203
| 13> H          0.56237        2.45684       -3.29327
| 14> *
| 15>
| 16> %MaxCore 64000
| 17>
| 18> %pal nprocs 4
| 19> end
| 20>
| 21> %scf
| 22>   MaxIter 150
| 23> end
| 24>
| 25>
| 26>                          ****END OF INPUT****

CARTESIAN COORDINATES (ANGSTROEM)
---------------------------------
  C      0.848880    2.667970   -4.302350
  C      2.093430    1.861040   -4.656840
  H      2.444810    2.041570   -5.674990
  H      2.901750    2.137860   -3.980340
  S      1.879640    0.078590   -4.462970
  O      3.207570   -0.466110   -4.420260
  O      1.075060   -0.056160   -3.268760
  F      1.131660   -0.319960   -5.679030
  H      0.050640    2.401120   -4.963030
  H      1.060430    3.712100   -4.402030
  H      0.562370    2.456840   -3.293270

 Total Charge           Charge          ....    0
 Multiplicity           Mult            ....    1
 Number of Electrons    NEL             ....   58
 Basis Dimension        Dim             ....  285

ORBITAL ENERGIES
----------------

  NO   OCC          E(Eh)            E(eV)
   0   2.0000     -89.096881     -2424.4494
   1   2.0000     -24.783629      -674.3968
   2   2.0000     -19.142344      -520.8897
   3   2.0000     -19.138904      -520.7961
   4   2.0000     -10.226831      -278.2862
   5   2.0000     -10.184163      -277.1252
   6   2.0000      -8.140981      -221.5274
   7   2.0000      -6.107858      -166.2033
   8   2.0000      -6.101505      -166.0304
   9   2.0000      -6.101005      -166.0168
  10   2.0000      -1.352940       -36.8154
  11   2.0000      -1.117823       -30.4175
  12   2.0000      -1.028071       -27.9752
  13   2.0000      -0.819579       -22.3019
  14   2.0000      -0.722181       -19.6516
  15   2.0000      -0.669479       -18.2175
  16   2.0000      -0.578700       -15.7472
  17   2.0000      -0.564686       -15.3659
  18   2.0000      -0.549324       -14.9479
  19   2.0000      -0.494098       -13.4451
  20   2.0000      -0.479607       -13.0508
  21   2.0000      -0.458595       -12.4790
  22   2.0000      -0.432804       -11.7772
  23   2.0000      -0.405438       -11.0325
  24   2.0000      -0.403053       -10.9676
  25   2.0000      -0.383627       -10.4390
  26   2.0000      -0.343275        -9.3410
  27   2.0000      -0.334140        -9.0924
  28   2.0000      -0.324321        -8.8252
  29   0.0000      -0.012978        -0.3532
  30   0.0000       0.014805         0.4029
  31   0.0000       0.022206         0.6043
  32   0.0000       0.024135         0.6567
  33   0.0000       0.042790         1.1644

MULLIKEN ATOMIC CHARGES
-----------------------
   0 C :   -1.097460
   1 C :   -0.325183
   2 H :    0.315915
   3 H :    0.282298
   4 S :    1.194277
   5 O :   -0.559018
   6 O :   -0.575356
   7 F :   -0.181591
   8 H :    0.319897
   9 H :    0.306226
  10 H :    0.319996
Sum of atomic charges:   -0.0000000

LOEWDIN ATOMIC CHARGES
----------------------
   0 C :   -0.112655
   1 C :   -0.271740
   2 H :    0.098979
   3 H :    0.104135
   4 S :    0.596321
   5 O :   -0.269511
   6 O :   -0.273011
   7 F :   -0.082934
   8 H :    0.070743
   9 H :    0.071413
  10 H :    0.068261

  Mayer bond orders larger than 0.100000
B(  0-C ,  1-C ) :   0.6942 B(  0-C ,  8-H ) :   0.9302 B(  0-C ,  9-H ) :   0.9483
B(  0-C , 10-H ) :   0.9822 B(  1-C ,  2-H ) :   0.9018 B(  1-C ,  3-H ) :   0.9369
B(  1-C ,  4-S ) :   0.8636 B(  1-C ,  5-O ) :   0.1108 B(  4-S ,  5-O ) :   1.6870
B(  4-S ,  6-O ) :   1.6787 B(  4-S ,  7-F ) :   0.9655

Dispersion correction           -0.015980707
FINAL SINGLE POINT ENERGY      -727.657243632824

DIPOLE MOMENT
-------------
                                X             Y             Z
Electronic contribution:      0.64412      -9.08331      -2.04067
Nuclear contribution   :     -0.92438      10.38956       1.27076
                        -----------------------------------------
Total Dipole Moment    :     -0.28026       1.30625      -0.76991
                        -----------------------------------------
Magnitude (a.u.)       :      1.54195
Magnitude (Debye)      :      3.91932

Rotational constants in cm-1:     0.154243     0.082247     0.080562
Rotational constants in MHz :  4624.087322  2465.703680  2415.175852

                             ****ORCA TERMINATED NORMALLY****
TOTAL RUN TIME: 0 days 0 hours 0 minutes 37 seconds 922 msec
