                         Program Version 5.0.0 -  RELEASE  -
|  1> !B3LYP D3BJ RIJCOSX def2-TZVPD def2/J TightSCF xyzfile
|  2>
|  3> *xyzfile 0 1 D1.xyz
|  4>
|  5> %MaxCore 64000
|  6>
|  7> %pal nprocs 4
|  8> end
|  9>
| 10> %scf
| 11>   MaxIter 150
| 12> end
| 13>
| 14>
| 15>                          ****END OF INPUT****

CARTESIAN COORDINATES (ANGSTROEM)
---------------------------------
  C     -0.461293    2.234686   -4.989619
  C      0.848883    2.667967   -4.302351
  C      2.093434    1.861037   -4.656845
  H      2.444814    2.041567   -5.674990
  H      2.901748    2.137864   -3.980338
  S      1.879644    0.078594   -4.462965
  C     -0.423841    2.398772   -6.474317
  C     -0.959467    3.492647   -7.007401
  N      0.145585    1.486891   -7.203987
  H      0.565371    0.696807   -6.723858
  H      0.220682    1.581768   -8.207520
  H     -1.406243    4.181507   -6.403261
  H     -0.934215    3.681601   -7.999468
  F      3.207574   -0.466111   -4.420259
  O      1.075064   -0.056160   -3.268758
  O      1.131661   -0.319960   -5.679031
  H      0.668432    2.559427   -3.232850
  H      1.034074    3.729426   -4.497081
  H     -1.288884    2.826737   -4.594997
  H     -0.651696    1.186343   -4.756552

 Total Charge           Charge          ....    0
 Multiplicity           Mult            ....    1
 Number of Electrons    NEL             ....   88
 Basis Dimension        Dim             ....  478

ORBITAL ENERGIES
----------------

  NO   OCC          E(Eh)            E(eV)
   0   2.0000     -89.118693     -2425.0429
   1   2.0000     -24.822702      -675.4601
   2   2.0000     -19.155674      -521.2524
   3   2.0000     -19.151886      -521.1493
   4   2.0000     -14.289861      -388.8469
   5   2.0000     -10.234260      -278.4884
   6   2.0000     -10.196481      -277.4604
   7   2.0000     -10.180313      -277.0204
   8   2.0000     -10.169627      -276.7296
   9   2.0000     -10.092214      -274.6231
  10   2.0000      -8.162922      -222.1244
  11   2.0000      -6.129497      -166.7921
  12   2.0000      -6.123484      -166.6285
  13   2.0000      -6.123026      -166.6160
  14   2.0000      -1.407018       -38.2869
  15   2.0000      -1.127019       -30.6677
  16   2.0000      -1.033312       -28.1179
  17   2.0000      -0.920650       -25.0522
  18   2.0000      -0.834061       -22.6960
  19   2.0000      -0.770594       -20.9689
  20   2.0000      -0.739017       -20.1097
  21   2.0000      -0.694545       -18.8995
  22   2.0000      -0.645714       -17.5708
  23   2.0000      -0.610658       -16.6168
  24   2.0000      -0.600020       -16.3274
  25   2.0000      -0.580009       -15.7828
  26   2.0000      -0.558532       -15.1984
  27   2.0000      -0.526103       -14.3160
  28   2.0000      -0.502190       -13.6653
  29   2.0000      -0.491581       -13.3766
  30   2.0000      -0.473619       -12.8878
  31   2.0000      -0.458056       -12.4643
  32   2.0000      -0.447877       -12.1874
  33   2.0000      -0.414824       -11.2879
  34   2.0000      -0.399745       -10.8776
  35   2.0000      -0.393274       -10.7015
  36   2.0000      -0.382271       -10.4021
  37   2.0000      -0.366518        -9.9735
  38   2.0000      -0.352642        -9.5959
  39   2.0000      -0.346292        -9.4231
  40   2.0000      -0.332702        -9.0533
  41   2.0000      -0.329405        -8.9636
  42   2.0000      -0.320097        -8.7103
  43   2.0000      -0.177634        -4.8337
  44   0.0000      -0.019351        -0.5266
  45   0.0000       0.003011         0.0819
  46   0.0000       0.012290         0.3344
  47   0.0000       0.018571         0.5053
  48   0.0000       0.033027         0.8987

MULLIKEN ATOMIC CHARGES
-----------------------
   0 C :   -0.579113
   1 C :   -0.410911
   2 C :   -0.673997
   3 H :    0.365224
   4 H :    0.304260
   5 S :    1.244468
   6 C :    0.609228
   7 C :   -1.259399
   8 N :   -0.332994
   9 H :    0.332226
  10 H :    0.094855
  11 H :    0.270603
  12 H :    0.289044
  13 F :   -0.111098
  14 O :   -0.590431
  15 O :   -0.689600
  16 H :    0.241846
  17 H :    0.275993
  18 H :    0.225195
  19 H :    0.394601
Sum of atomic charges:   -0.0000000

LOEWDIN ATOMIC CHARGES
----------------------
   0 C :   -0.141289
   1 C :   -0.190748
   2 C :   -0.215741
   3 H :    0.106842
   4 H :    0.099991
   5 S :    0.647863
   6 C :   -0.485569
   7 C :    0.021497
   8 N :    0.119066
   9 H :    0.021519
  10 H :    0.120475
  11 H :    0.014632
  12 H :    0.011112
  13 F :   -0.035314
  14 O :   -0.252002
  15 O :   -0.300290
  16 H :    0.108200
  17 H :    0.125071
  18 H :    0.119687
  19 H :    0.104999

  Mayer bond orders larger than 0.100000
B(  0-C ,  1-C ) :   0.8100 B(  0-C ,  6-C ) :   0.7269 B(  0-C , 18-H ) :   1.0105
B(  0-C , 19-H ) :   0.8658 B(  1-C ,  2-C ) :   0.9772 B(  1-C ,  6-C ) :   0.1451
B(  1-C , 16-H ) :   0.8996 B(  1-C , 17-H ) :   0.9219 B(  2-C ,  3-H ) :   0.8423
B(  2-C ,  4-H ) :   0.9073 B(  2-C ,  5-S ) :   0.8535 B(  2-C ,  8-N ) :   0.1358
B(  2-C , 15-O ) :   0.1102 B(  5-S , 13-F ) :   0.9730 B(  5-S , 14-O ) :   1.6955
B(  5-S , 15-O ) :   1.5638 B(  6-C ,  7-C ) :   1.1976 B(  6-C ,  8-N ) :   1.0226
B(  7-C ,  8-N ) :   0.1189 B(  7-C , 11-H ) :   1.0179 B(  7-C , 12-H ) :   0.9997
B(  8-N ,  9-H ) :   0.8330 B(  8-N , 10-H ) :   1.0466

Dispersion correction           -0.038454533
FINAL SINGLE POINT ENERGY      -899.659536041007

DIPOLE MOMENT
-------------
                                X             Y             Z
Electronic contribution:     10.14827     -13.93768       5.46343
Nuclear contribution   :     -8.53047      14.15581      -5.17613
                        -----------------------------------------
Total Dipole Moment    :      1.61780       0.21813       0.28729
                        -----------------------------------------
Magnitude (a.u.)       :      1.65753
Magnitude (Debye)      :      4.21310

Rotational constants in cm-1:     0.081196     0.024861     0.022477
Rotational constants in MHz :  2434.181666   745.320670   673.846846

                             ****ORCA TERMINATED NORMALLY****
TOTAL RUN TIME: 0 days 0 hours 2 minutes 45 seconds 319 msec
