                         Program Version 5.0.0 -  RELEASE  -
|  1> !B3LYP D3BJ RIJCOSX def2-TZVPD def2/J TightSCF xyzfile
|  2>
|  3> *xyzfile 0 1 D2.xyz
|  4>
|  5> %MaxCore 64000
|  6>
|  7> %pal nprocs 4
|  8> end
|  9>
| 10> %scf
| 11>   MaxIter 150
| 12> end
| 13>
| 14>
| 15>                          ****END OF INPUT****

CARTESIAN COORDINATES (ANGSTROEM)
---------------------------------
  C     -0.461293    2.234686   -4.989619
  C      0.848883    2.667967   -4.302351
  C      2.093434    1.861037   -4.656845
  H      2.444814    2.041567   -5.674990
  H      2.901748    2.137864   -3.980338
  S      1.879644    0.078594   -4.462965
  C     -0.423841    2.398772   -6.474317
  N     -0.959467    3.492647   -7.007401
  C      0.145585    1.486891   -7.203987
  H      0.565371    0.696807   -6.723858
  H      0.220682    1.581768   -8.207520
  H     -1.406243    4.181507   -6.403261
  H     -0.934215    3.681601   -7.999468
  F      3.207574   -0.466111   -4.420259
  O      1.075064   -0.056160   -3.268758
  O      1.131661   -0.319960   -5.679031
  H      0.668432    2.559427   -3.232850
  H      1.034074    3.729426   -4.497081
  H     -1.288884    2.826737   -4.594997
  H     -0.651696    1.186343   -4.756552

 Total Charge           Charge          ....    0
 Multiplicity           Mult            ....    1
 Number of Electrons    NEL             ....   88
 Basis Dimension        Dim             ....  478

ORBITAL ENERGIES
----------------

  NO   OCC          E(Eh)            E(eV)
   0   2.0000     -89.100769     -2424.5552
   1   2.0000     -24.807349      -675.0423
   2   2.0000     -19.140308      -520.8343
   3   2.0000     -19.129304      -520.5348
   4   2.0000     -14.309965      -389.3940
   5   2.0000     -10.223266      -278.1892
   6   2.0000     -10.193991      -277.3926
   7   2.0000     -10.176784      -276.9244
   8   2.0000     -10.169774      -276.7336
   9   2.0000     -10.075726      -274.1744
  10   2.0000      -8.145080      -221.6389
  11   2.0000      -6.111767      -166.3096
  12   2.0000      -6.105539      -166.1402
  13   2.0000      -6.105172      -166.1302
  14   2.0000      -1.391807       -37.8730
  15   2.0000      -1.109413       -30.1887
  16   2.0000      -1.013594       -27.5813
  17   2.0000      -0.919022       -25.0079
  18   2.0000      -0.826783       -22.4979
  19   2.0000      -0.767696       -20.8901
  20   2.0000      -0.725948       -19.7541
  21   2.0000      -0.700523       -19.0622
  22   2.0000      -0.638083       -17.3631
  23   2.0000      -0.595597       -16.2070
  24   2.0000      -0.589014       -16.0279
  25   2.0000      -0.562257       -15.2998
  26   2.0000      -0.561333       -15.2746
  27   2.0000      -0.514305       -13.9950
  28   2.0000      -0.495287       -13.4774
  29   2.0000      -0.485628       -13.2146
  30   2.0000      -0.472338       -12.8530
  31   2.0000      -0.457707       -12.4548
  32   2.0000      -0.440773       -11.9940
  33   2.0000      -0.405719       -11.0402
  34   2.0000      -0.400590       -10.9006
  35   2.0000      -0.387728       -10.5506
  36   2.0000      -0.374154       -10.1812
  37   2.0000      -0.362695        -9.8694
  38   2.0000      -0.339111        -9.2277
  39   2.0000      -0.337857        -9.1935
  40   2.0000      -0.321947        -8.7606
  41   2.0000      -0.316503        -8.6125
  42   2.0000      -0.296117        -8.0577
  43   2.0000      -0.183429        -4.9914
  44   0.0000      -0.009675        -0.2633
  45   0.0000       0.002058         0.0560
  46   0.0000       0.015221         0.4142
  47   0.0000       0.017604         0.4790
  48   0.0000       0.039831         1.0839

MULLIKEN ATOMIC CHARGES
-----------------------
   0 C :   -0.622682
   1 C :   -0.420499
   2 C :   -0.681661
   3 H :    0.420963
   4 H :    0.292421
   5 S :    1.185582
   6 C :    0.731029
   7 N :   -0.367214
   8 C :   -1.615105
   9 H :    0.777708
  10 H :    0.224609
  11 H :    0.156193
  12 H :    0.127845
  13 F :   -0.119054
  14 O :   -0.603379
  15 O :   -0.594311
  16 H :    0.247980
  17 H :    0.236412
  18 H :    0.280004
  19 H :    0.343159
Sum of atomic charges:   -0.0000000

LOEWDIN ATOMIC CHARGES
----------------------
   0 C :   -0.138689
   1 C :   -0.192998
   2 C :   -0.216410
   3 H :    0.105596
   4 H :    0.098448
   5 S :    0.639500
   6 C :   -0.468949
   7 N :    0.098553
   8 C :    0.029775
   9 H :   -0.037580
  10 H :    0.034350
  11 H :    0.099928
  12 H :    0.104526
  13 F :   -0.040805
  14 O :   -0.262336
  15 O :   -0.304351
  16 H :    0.107354
  17 H :    0.121657
  18 H :    0.114045
  19 H :    0.108387

  Mayer bond orders larger than 0.100000
B(  0-C ,  1-C ) :   0.8263 B(  0-C ,  6-C ) :   0.6565 B(  0-C , 18-H ) :   0.9924
B(  0-C , 19-H ) :   0.9334 B(  1-C ,  2-C ) :   0.9943 B(  1-C ,  6-C ) :   0.1194
B(  1-C , 16-H ) :   0.9004 B(  1-C , 17-H ) :   0.9382 B(  2-C ,  3-H ) :   0.8283
B(  2-C ,  4-H ) :   0.9136 B(  2-C ,  5-S ) :   0.8307 B(  2-C ,  8-C ) :   0.1270
B(  2-C , 15-O ) :   0.1232 B(  5-S , 13-F ) :   0.9655 B(  5-S , 14-O ) :   1.6782
B(  5-S , 15-O ) :   1.6516 B(  6-C ,  7-N ) :   0.8534 B(  6-C ,  8-C ) :   1.0569
B(  6-C , 10-H ) :  -0.1471 B(  7-N , 11-H ) :   1.0367 B(  7-N , 12-H ) :   1.0521
B(  8-C ,  9-H ) :   0.4782 B(  8-C , 10-H ) :   1.1788 B(  8-C , 15-O ) :   0.1214
B(  9-H , 15-O ) :  -0.2950

Dispersion correction           -0.038748752
FINAL SINGLE POINT ENERGY      -899.640299188040

DIPOLE MOMENT
-------------
                                X             Y             Z
Electronic contribution:      9.24425     -12.46864       5.39160
Nuclear contribution   :     -8.42493      13.96425      -5.19491
                        -----------------------------------------
Total Dipole Moment    :      0.81932       1.49561       0.19670
                        -----------------------------------------
Magnitude (a.u.)       :      1.71663
Magnitude (Debye)      :      4.36333

Rotational constants in cm-1:     0.082815     0.024151     0.022015
Rotational constants in MHz :  2482.732265   724.035221   660.002136

                             ****ORCA TERMINATED NORMALLY****
TOTAL RUN TIME: 0 days 0 hours 2 minutes 53 seconds 757 msec
