                         Program Version 5.0.0 -  RELEASE  -
|  1> !B3LYP D3BJ RIJCOSX def2-TZVPD def2/J TightSCF xyzfile
|  2>
|  3> *xyzfile 0 1 D3.xyz
|  4>
|  5> %MaxCore 64000
|  6>
|  7> %pal nprocs 4
|  8> end
|  9>
| 10> %scf
| 11>   MaxIter 150
| 12> end
| 13>
| 14>
| 15>                          ****END OF INPUT****

CARTESIAN COORDINATES (ANGSTROEM)
---------------------------------
  C     -0.461293    2.234686   -4.989619
  C      0.848883    2.667967   -4.302351
  C      2.093434    1.861037   -4.656845
  H      2.444814    2.041567   -5.674990
  H      2.901748    2.137864   -3.980338
  S      1.879644    0.078594   -4.462965
  C     -0.423841    2.398772   -6.474317
  C     -0.959467    3.492647   -7.007401
  N      0.145585    1.486891   -7.203987
  H      0.565371    0.696807   -6.723858
  H      0.220682    1.581768   -8.207520
  H     -1.406243    4.181507   -6.403261
  H     -0.934215    3.681601   -7.999468
  O      3.207574   -0.466111   -4.420259
  F      1.075064   -0.056160   -3.268758
  O      1.131661   -0.319960   -5.679031
  H      0.668432    2.559427   -3.232850
  H      1.034074    3.729426   -4.497081
  H     -1.288884    2.826737   -4.594997
  H     -0.651696    1.186343   -4.756552

 Total Charge           Charge          ....    0
 Multiplicity           Mult            ....    1
 Number of Electrons    NEL             ....   88
 Basis Dimension        Dim             ....  478

ORBITAL ENERGIES
----------------

  NO   OCC          E(Eh)            E(eV)
   0   2.0000     -89.117860     -2425.0203
   1   2.0000     -24.816895      -675.3020
   2   2.0000     -19.158649      -521.3334
   3   2.0000     -19.150694      -521.1169
   4   2.0000     -14.292525      -388.9194
   5   2.0000     -10.233824      -278.4765
   6   2.0000     -10.201914      -277.6082
   7   2.0000     -10.185860      -277.1713
   8   2.0000     -10.180170      -277.0165
   9   2.0000     -10.096983      -274.7529
  10   2.0000      -8.162056      -222.1008
  11   2.0000      -6.128883      -166.7754
  12   2.0000      -6.122677      -166.6065
  13   2.0000      -6.121893      -166.5852
  14   2.0000      -1.398319       -38.0502
  15   2.0000      -1.129608       -30.7382
  16   2.0000      -1.036377       -28.2012
  17   2.0000      -0.924360       -25.1531
  18   2.0000      -0.839999       -22.8575
  19   2.0000      -0.769373       -20.9357
  20   2.0000      -0.738590       -20.0980
  21   2.0000      -0.699137       -19.0245
  22   2.0000      -0.646950       -17.6044
  23   2.0000      -0.608613       -16.5612
  24   2.0000      -0.605319       -16.4716
  25   2.0000      -0.575504       -15.6603
  26   2.0000      -0.563862       -15.3435
  27   2.0000      -0.520857       -14.1732
  28   2.0000      -0.501635       -13.6502
  29   2.0000      -0.494614       -13.4591
  30   2.0000      -0.475777       -12.9466
  31   2.0000      -0.461299       -12.5526
  32   2.0000      -0.454323       -12.3628
  33   2.0000      -0.422379       -11.4935
  34   2.0000      -0.405966       -11.0469
  35   2.0000      -0.399716       -10.8768
  36   2.0000      -0.385272       -10.4838
  37   2.0000      -0.381041       -10.3686
  38   2.0000      -0.349716        -9.5163
  39   2.0000      -0.347696        -9.4613
  40   2.0000      -0.341744        -9.2993
  41   2.0000      -0.329925        -8.9777
  42   2.0000      -0.323584        -8.8052
  43   2.0000      -0.181648        -4.9429
  44   0.0000      -0.020716        -0.5637
  45   0.0000       0.006834         0.1860
  46   0.0000       0.010356         0.2818
  47   0.0000       0.018399         0.5007
  48   0.0000       0.029441         0.8011

MULLIKEN ATOMIC CHARGES
-----------------------
   0 C :   -0.443283
   1 C :   -0.419461
   2 C :   -0.599217
   3 H :    0.344428
   4 H :    0.268130
   5 S :    1.250843
   6 C :    0.566455
   7 C :   -1.264051
   8 N :   -0.333257
   9 H :    0.348118
  10 H :    0.093180
  11 H :    0.269598
  12 H :    0.291168
  13 O :   -0.563958
  14 F :   -0.167182
  15 O :   -0.688135
  16 H :    0.230987
  17 H :    0.275543
  18 H :    0.208306
  19 H :    0.331789
Sum of atomic charges:    0.0000000

LOEWDIN ATOMIC CHARGES
----------------------
   0 C :   -0.147386
   1 C :   -0.200921
   2 C :   -0.205780
   3 H :    0.116562
   4 H :    0.103245
   5 S :    0.643702
   6 C :   -0.485496
   7 C :    0.023529
   8 N :    0.120723
   9 H :    0.022668
  10 H :    0.121778
  11 H :    0.015148
  12 H :    0.012682
  13 O :   -0.250715
  14 F :   -0.038093
  15 O :   -0.298986
  16 H :    0.104172
  17 H :    0.123718
  18 H :    0.118866
  19 H :    0.100584

  Mayer bond orders larger than 0.100000
B(  0-C ,  1-C ) :   0.7572 B(  0-C ,  6-C ) :   0.7799 B(  0-C , 18-H ) :   1.0451
B(  0-C , 19-H ) :   0.8489 B(  1-C ,  2-C ) :   0.9131 B(  1-C ,  6-C ) :   0.1412
B(  1-C , 16-H ) :   0.9349 B(  1-C , 17-H ) :   0.9155 B(  2-C ,  3-H ) :   0.8630
B(  2-C ,  4-H ) :   0.9956 B(  2-C ,  5-S ) :   0.8447 B(  2-C ,  8-N ) :   0.1347
B(  2-C , 13-O ) :   0.1081 B(  2-C , 15-O ) :   0.1016 B(  5-S , 13-O ) :   1.6266
B(  5-S , 14-F ) :   1.0074 B(  5-S , 15-O ) :   1.5644 B(  6-C ,  7-C ) :   1.2042
B(  6-C ,  8-N ) :   1.0385 B(  7-C ,  8-N ) :   0.1221 B(  7-C , 11-H ) :   1.0212
B(  7-C , 12-H ) :   0.9944 B(  8-N ,  9-H ) :   0.8205 B(  8-N , 10-H ) :   1.0434

Dispersion correction           -0.038226232
FINAL SINGLE POINT ENERGY      -899.663617406677

DIPOLE MOMENT
-------------
                                X             Y             Z
Electronic contribution:      6.46533     -13.17301       7.37028
Nuclear contribution   :     -6.19944      13.70770      -6.43483
                        -----------------------------------------
Total Dipole Moment    :      0.26590       0.53468       0.93545
                        -----------------------------------------
Magnitude (a.u.)       :      1.10980
Magnitude (Debye)      :      2.82088

Rotational constants in cm-1:     0.079903     0.025241     0.022805
Rotational constants in MHz :  2395.439281   756.708181   683.680583

                             ****ORCA TERMINATED NORMALLY****
TOTAL RUN TIME: 0 days 0 hours 2 minutes 44 seconds 566 msec
