                         Program Version 5.0.0 -  RELEASE  -
|  1> !B3LYP D3BJ RIJCOSX def2-TZVPD def2/J TightSCF xyzfile
|  2>
|  3> *xyzfile 0 1 D4.xyz
|  4>
|  5> %MaxCore 64000
|  6>
|  7> %pal nprocs 4
|  8> end
|  9>
| 10> %scf
| 11>   MaxIter 150
| 12> end
| 13>
| 14>
| 15>                          ****END OF INPUT****

CARTESIAN COORDINATES (ANGSTROEM)
---------------------------------
  C     -0.461293    2.234686   -4.989619
  C      0.848883    2.667967   -4.302351
  C      2.093434    1.861037   -4.656845
  H      2.444814    2.041567   -5.674990
  H      2.901748    2.137864   -3.980338
  S      1.879644    0.078594   -4.462965
  C     -0.423841    2.398772   -6.474317
  N     -0.959467    3.492647   -7.007401
  C      0.145585    1.486891   -7.203987
  H      0.565371    0.696807   -6.723858
  H      0.220682    1.581768   -8.207520
  H     -1.406243    4.181507   -6.403261
  H     -0.934215    3.681601   -7.999468
  O      3.207574   -0.466111   -4.420259
  F      1.075064   -0.056160   -3.268758
  O      1.131661   -0.319960   -5.679031
  H      0.668432    2.559427   -3.232850
  H      1.034074    3.729426   -4.497081
  H     -1.288884    2.826737   -4.594997
  H     -0.651696    1.186343   -4.756552

 Total Charge           Charge          ....    0
 Multiplicity           Mult            ....    1
 Number of Electrons    NEL             ....   88
 Basis Dimension        Dim             ....  478

ORBITAL ENERGIES
----------------

  NO   OCC          E(Eh)            E(eV)
   0   2.0000     -89.099744     -2424.5273
   1   2.0000     -24.802611      -674.9134
   2   2.0000     -19.142490      -520.8936
   3   2.0000     -19.128109      -520.5023
   4   2.0000     -14.313799      -389.4983
   5   2.0000     -10.222933      -278.1801
   6   2.0000     -10.199525      -277.5432
   7   2.0000     -10.181684      -277.0577
   8   2.0000     -10.180259      -277.0189
   9   2.0000     -10.079493      -274.2769
  10   2.0000      -8.144045      -221.6107
  11   2.0000      -6.111021      -166.2893
  12   2.0000      -6.104377      -166.1085
  13   2.0000      -6.104007      -166.0985
  14   2.0000      -1.384223       -37.6666
  15   2.0000      -1.111740       -30.2520
  16   2.0000      -1.016084       -27.6491
  17   2.0000      -0.923422       -25.1276
  18   2.0000      -0.833400       -22.6780
  19   2.0000      -0.767636       -20.8885
  20   2.0000      -0.724941       -19.7266
  21   2.0000      -0.704678       -19.1753
  22   2.0000      -0.639980       -17.4147
  23   2.0000      -0.598976       -16.2990
  24   2.0000      -0.590073       -16.0567
  25   2.0000      -0.567568       -15.4443
  26   2.0000      -0.554635       -15.0924
  27   2.0000      -0.517267       -14.0756
  28   2.0000      -0.496201       -13.5023
  29   2.0000      -0.480521       -13.0757
  30   2.0000      -0.477308       -12.9882
  31   2.0000      -0.462873       -12.5954
  32   2.0000      -0.444671       -12.1001
  33   2.0000      -0.413142       -11.2422
  34   2.0000      -0.402507       -10.9528
  35   2.0000      -0.394544       -10.7361
  36   2.0000      -0.379543       -10.3279
  37   2.0000      -0.375146       -10.2082
  38   2.0000      -0.345099        -9.3906
  39   2.0000      -0.334037        -9.0896
  40   2.0000      -0.327963        -8.9243
  41   2.0000      -0.322317        -8.7707
  42   2.0000      -0.293355        -7.9826
  43   2.0000      -0.187376        -5.0988
  44   0.0000      -0.014002        -0.3810
  45   0.0000       0.004184         0.1138
  46   0.0000       0.013717         0.3733
  47   0.0000       0.015694         0.4271
  48   0.0000       0.035984         0.9792

MULLIKEN ATOMIC CHARGES
-----------------------
   0 C :   -0.495610
   1 C :   -0.414315
   2 C :   -0.606006
   3 H :    0.392946
   4 H :    0.261697
   5 S :    1.187326
   6 C :    0.693750
   7 N :   -0.367606
   8 C :   -1.613382
   9 H :    0.777095
  10 H :    0.232861
  11 H :    0.154251
  12 H :    0.129325
  13 O :   -0.581683
  14 F :   -0.170016
  15 O :   -0.593222
  16 H :    0.233152
  17 H :    0.236204
  18 H :    0.262461
  19 H :    0.280771
Sum of atomic charges:    0.0000000

LOEWDIN ATOMIC CHARGES
----------------------
   0 C :   -0.144688
   1 C :   -0.202832
   2 C :   -0.206495
   3 H :    0.115275
   4 H :    0.101622
   5 S :    0.634759
   6 C :   -0.469290
   7 N :    0.098738
   8 C :    0.033718
   9 H :   -0.036360
  10 H :    0.036281
  11 H :    0.099988
  12 H :    0.105537
  13 O :   -0.259091
  14 F :   -0.045027
  15 O :   -0.303203
  16 H :    0.103405
  17 H :    0.120408
  18 H :    0.113280
  19 H :    0.103975

  Mayer bond orders larger than 0.100000
B(  0-C ,  1-C ) :   0.7687 B(  0-C ,  6-C ) :   0.7110 B(  0-C , 18-H ) :   1.0312
B(  0-C , 19-H ) :   0.9103 B(  1-C ,  2-C ) :   0.9186 B(  1-C ,  6-C ) :   0.1145
B(  1-C , 16-H ) :   0.9309 B(  1-C , 17-H ) :   0.9353 B(  2-C ,  3-H ) :   0.8529
B(  2-C ,  4-H ) :   0.9969 B(  2-C ,  5-S ) :   0.8237 B(  2-C ,  8-C ) :   0.1330
B(  2-C , 13-O ) :   0.1142 B(  2-C , 15-O ) :   0.1120 B(  5-S , 13-O ) :   1.6152
B(  5-S , 14-F ) :   0.9973 B(  5-S , 15-O ) :   1.6510 B(  6-C ,  7-N ) :   0.8512
B(  6-C ,  8-C ) :   1.0596 B(  6-C , 10-H ) :  -0.1490 B(  7-N , 11-H ) :   1.0380
B(  7-N , 12-H ) :   1.0503 B(  8-C ,  9-H ) :   0.5102 B(  8-C , 10-H ) :   1.1663
B(  8-C , 15-O ) :   0.1202 B(  9-H , 15-O ) :  -0.3116

Dispersion correction           -0.038519391
FINAL SINGLE POINT ENERGY      -899.643350818065

DIPOLE MOMENT
-------------
                                X             Y             Z
Electronic contribution:      5.55186     -11.71496       7.30618
Nuclear contribution   :     -6.09390      13.51614      -6.45360
                        -----------------------------------------
Total Dipole Moment    :     -0.54204       1.80118       0.85257
                        -----------------------------------------
Magnitude (a.u.)       :      2.06517
Magnitude (Debye)      :      5.24925

Rotational constants in cm-1:     0.081469     0.024519     0.022336
Rotational constants in MHz :  2442.393231   735.066768   669.628729

                             ****ORCA TERMINATED NORMALLY****
TOTAL RUN TIME: 0 days 0 hours 2 minutes 35 seconds 445 msec
