                         Program Version 5.0.0 -  RELEASE  -
|  1> !B3LYP D3BJ RIJCOSX def2-TZVPD def2/J TightSCF xyzfile
|  2>
|  3> *xyzfile 0 1 D5.xyz
|  4>
|  5> %MaxCore 64000
|  6>
|  7> %pal nprocs 4
|  8> end
|  9>
| 10> %scf
| 11>   MaxIter 150
| 12> end
| 13>
| 14>
| 15>                          ****END OF INPUT****

CARTESIAN COORDINATES (ANGSTROEM)
---------------------------------
  C     -0.461293    2.234686   -4.989619
  C      0.848883    2.667967   -4.302351
  C      2.093434    1.861037   -4.656845
  H      2.444814    2.041567   -5.674990
  H      2.901748    2.137864   -3.980338
  S      1.879644    0.078594   -4.462965
  C     -0.423841    2.398772   -6.474317
  C     -0.959467    3.492647   -7.007401
  N      0.145585    1.486891   -7.203987
  H      0.565371    0.696807   -6.723858
  H      0.220682    1.581768   -8.207520
  H     -1.406243    4.181507   -6.403261
  H     -0.934215    3.681601   -7.999468
  O      3.207574   -0.466111   -4.420259
  O      1.075064   -0.056160   -3.268758
  F      1.131661   -0.319960   -5.679031
  H      0.668432    2.559427   -3.232850
  H      1.034074    3.729426   -4.497081
  H     -1.288884    2.826737   -4.594997
  H     -0.651696    1.186343   -4.756552

 Total Charge           Charge          ....    0
 Multiplicity           Mult            ....    1
 Number of Electrons    NEL             ....   88
 Basis Dimension        Dim             ....  478

ORBITAL ENERGIES
----------------

  NO   OCC          E(Eh)            E(eV)
   0   2.0000     -89.108572     -2424.7675
   1   2.0000     -24.808107      -675.0629
   2   2.0000     -19.153665      -521.1977
   3   2.0000     -19.149753      -521.0913
   4   2.0000     -14.320181      -389.6719
   5   2.0000     -10.230826      -278.3949
   6   2.0000     -10.197524      -277.4887
   7   2.0000     -10.197008      -277.4747
   8   2.0000     -10.183416      -277.1048
   9   2.0000     -10.109142      -275.0837
  10   2.0000      -8.153206      -221.8600
  11   2.0000      -6.120421      -166.5451
  12   2.0000      -6.113402      -166.3541
  13   2.0000      -6.112970      -166.3424
  14   2.0000      -1.382166       -37.6107
  15   2.0000      -1.130549       -30.7638
  16   2.0000      -1.039194       -28.2779
  17   2.0000      -0.946626       -25.7590
  18   2.0000      -0.836216       -22.7546
  19   2.0000      -0.771597       -20.9962
  20   2.0000      -0.748398       -20.3650
  21   2.0000      -0.700484       -19.0611
  22   2.0000      -0.657031       -17.8787
  23   2.0000      -0.606763       -16.5109
  24   2.0000      -0.592286       -16.1169
  25   2.0000      -0.575621       -15.6634
  26   2.0000      -0.557722       -15.1764
  27   2.0000      -0.535460       -14.5706
  28   2.0000      -0.503792       -13.7089
  29   2.0000      -0.489094       -13.3089
  30   2.0000      -0.476214       -12.9585
  31   2.0000      -0.470168       -12.7939
  32   2.0000      -0.450470       -12.2579
  33   2.0000      -0.424687       -11.5563
  34   2.0000      -0.406973       -11.0743
  35   2.0000      -0.398635       -10.8474
  36   2.0000      -0.390774       -10.6335
  37   2.0000      -0.380232       -10.3466
  38   2.0000      -0.354311        -9.6413
  39   2.0000      -0.352628        -9.5955
  40   2.0000      -0.343293        -9.3415
  41   2.0000      -0.337366        -9.1802
  42   2.0000      -0.332366        -9.0442
  43   2.0000      -0.196949        -5.3592
  44   0.0000      -0.014653        -0.3987
  45   0.0000       0.008059         0.2193
  46   0.0000       0.008726         0.2375
  47   0.0000       0.013371         0.3638
  48   0.0000       0.029530         0.8036

MULLIKEN ATOMIC CHARGES
-----------------------
   0 C :   -0.612007
   1 C :   -0.335998
   2 C :   -0.657615
   3 H :    0.360352
   4 H :    0.272391
   5 S :    1.198467
   6 C :    0.703088
   7 C :   -1.259163
   8 N :   -0.371767
   9 H :    0.368959
  10 H :    0.092186
  11 H :    0.273202
  12 H :    0.287146
  13 O :   -0.572391
  14 O :   -0.586007
  15 F :   -0.264783
  16 H :    0.254774
  17 H :    0.288717
  18 H :    0.220127
  19 H :    0.340322
Sum of atomic charges:   -0.0000000

LOEWDIN ATOMIC CHARGES
----------------------
   0 C :   -0.143577
   1 C :   -0.197558
   2 C :   -0.212314
   3 H :    0.105017
   4 H :    0.110817
   5 S :    0.618195
   6 C :   -0.484049
   7 C :    0.032301
   8 N :    0.121263
   9 H :    0.051656
  10 H :    0.124564
  11 H :    0.020309
  12 H :    0.014993
  13 O :   -0.255954
  14 O :   -0.255438
  15 F :   -0.105721
  16 H :    0.109130
  17 H :    0.123111
  18 H :    0.121416
  19 H :    0.101837

  Mayer bond orders larger than 0.100000
B(  0-C ,  1-C ) :   0.7870 B(  0-C ,  6-C ) :   0.7058 B(  0-C , 18-H ) :   1.0114
B(  0-C , 19-H ) :   0.8986 B(  1-C ,  2-C ) :   0.8967 B(  1-C ,  6-C ) :   0.1282
B(  1-C , 16-H ) :   0.9115 B(  1-C , 17-H ) :   0.9321 B(  2-C ,  3-H ) :   0.8536
B(  2-C ,  4-H ) :   0.9495 B(  2-C ,  5-S ) :   0.8455 B(  2-C ,  8-N ) :   0.1378
B(  2-C , 13-O ) :   0.1128 B(  5-S , 13-O ) :   1.6121 B(  5-S , 14-O ) :   1.6846
B(  5-S , 15-F ) :   0.9573 B(  6-C ,  7-C ) :   1.1538 B(  6-C ,  8-N ) :   0.9681
B(  7-C ,  8-N ) :   0.1158 B(  7-C , 11-H ) :   1.0122 B(  7-C , 12-H ) :   1.0048
B(  8-N ,  9-H ) :   0.8543 B(  8-N , 10-H ) :   1.0578

Dispersion correction           -0.038033739
FINAL SINGLE POINT ENERGY      -899.666850863897

DIPOLE MOMENT
-------------
                                X             Y             Z
Electronic contribution:      6.41500     -13.43104       3.16813
Nuclear contribution   :     -6.26130      13.99605      -3.80018
                        -----------------------------------------
Total Dipole Moment    :      0.15370       0.56502      -0.63205
                        -----------------------------------------
Magnitude (a.u.)       :      0.86160
Magnitude (Debye)      :      2.19001

Rotational constants in cm-1:     0.079895     0.025630     0.022948
Rotational constants in MHz :  2395.188639   768.373696   687.955250

                             ****ORCA TERMINATED NORMALLY****
TOTAL RUN TIME: 0 days 0 hours 2 minutes 37 seconds 634 msec
