                         Program Version 5.0.0 -  RELEASE  -
|  1> !B3LYP D3BJ RIJCOSX def2-TZVPD def2/J TightSCF xyzfile
|  2>
|  3> *xyzfile 0 1 D6.xyz
|  4>
|  5> %MaxCore 64000
|  6>
|  7> %pal nprocs 4
|  8> end
|  9>
| 10> %scf
| 11>   MaxIter 150
| 12> end
| 13>
| 14>
| 15>                          ****END OF INPUT****

CARTESIAN COORDINATES (ANGSTROEM)
---------------------------------
  C     -0.461293    2.234686   -4.989619
  C      0.848883    2.667967   -4.302351
  C      2.093434    1.861037   -4.656845
  H      2.444814    2.041567   -5.674990
  H      2.901748    2.137864   -3.980338
  S      1.879644    0.078594   -4.462965
  C     -0.423841    2.398772   -6.474317
  N     -0.959467    3.492647   -7.007401
  C      0.145585    1.486891   -7.203987
  H      0.565371    0.696807   -6.723858
  H      0.220682    1.581768   -8.207520
  H     -1.406243    4.181507   -6.403261
  H     -0.934215    3.681601   -7.999468
  O      3.207574   -0.466111   -4.420259
  O      1.075064   -0.056160   -3.268758
  F      1.131661   -0.319960   -5.679031
  H      0.668432    2.559427   -3.232850
  H      1.034074    3.729426   -4.497081
  H     -1.288884    2.826737   -4.594997
  H     -0.651696    1.186343   -4.756552

 Total Charge           Charge          ....    0
 Multiplicity           Mult            ....    1
 Number of Electrons    NEL             ....   88
 Basis Dimension        Dim             ....  478

ORBITAL ENERGIES
----------------

  NO   OCC          E(Eh)            E(eV)
   0   2.0000     -89.095546     -2424.4131
   1   2.0000     -24.782860      -674.3759
   2   2.0000     -19.140673      -520.8442
   3   2.0000     -19.137728      -520.7640
   4   2.0000     -14.326000      -389.8303
   5   2.0000     -10.220632      -278.1175
   6   2.0000     -10.196901      -277.4718
   7   2.0000     -10.195531      -277.4345
   8   2.0000     -10.183841      -277.1164
   9   2.0000     -10.101498      -274.8757
  10   2.0000      -8.139882      -221.4974
  11   2.0000      -6.106833      -166.1754
  12   2.0000      -6.100340      -165.9987
  13   2.0000      -6.099815      -165.9844
  14   2.0000      -1.358364       -36.9630
  15   2.0000      -1.117415       -30.4064
  16   2.0000      -1.027123       -27.9494
  17   2.0000      -0.935484       -25.4558
  18   2.0000      -0.831363       -22.6225
  19   2.0000      -0.772146       -21.0112
  20   2.0000      -0.724550       -19.7160
  21   2.0000      -0.712747       -19.3948
  22   2.0000      -0.638647       -17.3785
  23   2.0000      -0.601710       -16.3734
  24   2.0000      -0.569758       -15.5039
  25   2.0000      -0.559157       -15.2154
  26   2.0000      -0.549735       -14.9590
  27   2.0000      -0.532669       -14.4947
  28   2.0000      -0.499857       -13.6018
  29   2.0000      -0.488112       -13.2822
  30   2.0000      -0.470676       -12.8077
  31   2.0000      -0.458041       -12.4639
  32   2.0000      -0.449956       -12.2439
  33   2.0000      -0.412887       -11.2352
  34   2.0000      -0.404613       -11.0101
  35   2.0000      -0.395599       -10.7648
  36   2.0000      -0.382644       -10.4123
  37   2.0000      -0.375270       -10.2116
  38   2.0000      -0.348096        -9.4722
  39   2.0000      -0.343089        -9.3359
  40   2.0000      -0.337990        -9.1972
  41   2.0000      -0.328741        -8.9455
  42   2.0000      -0.322985        -8.7889
  43   2.0000      -0.203301        -5.5321
  44   0.0000      -0.009888        -0.2691
  45   0.0000       0.005968         0.1624
  46   0.0000       0.012420         0.3380
  47   0.0000       0.015555         0.4233
  48   0.0000       0.034863         0.9487

MULLIKEN ATOMIC CHARGES
-----------------------
   0 C :   -0.626921
   1 C :   -0.347092
   2 C :   -0.663103
   3 H :    0.408188
   4 H :    0.265910
   5 S :    1.171929
   6 C :    0.801249
   7 N :   -0.360063
   8 C :   -1.688925
   9 H :    0.789575
  10 H :    0.235215
  11 H :    0.161823
  12 H :    0.131296
  13 O :   -0.587589
  14 O :   -0.593884
  15 F :   -0.176349
  16 H :    0.262827
  17 H :    0.246327
  18 H :    0.272070
  19 H :    0.297518
Sum of atomic charges:    0.0000000

LOEWDIN ATOMIC CHARGES
----------------------
   0 C :   -0.140506
   1 C :   -0.199091
   2 C :   -0.212193
   3 H :    0.104455
   4 H :    0.109345
   5 S :    0.616792
   6 C :   -0.466580
   7 N :    0.108123
   8 C :    0.030493
   9 H :   -0.012994
  10 H :    0.036255
  11 H :    0.104757
  12 H :    0.107870
  13 O :   -0.260924
  14 O :   -0.262289
  15 F :   -0.113237
  16 H :    0.108558
  17 H :    0.119782
  18 H :    0.115971
  19 H :    0.105414

  Mayer bond orders larger than 0.100000
B(  0-C ,  1-C ) :   0.8142 B(  0-C ,  6-C ) :   0.6260 B(  0-C , 18-H ) :   1.0016
B(  0-C , 19-H ) :   0.9525 B(  1-C ,  2-C ) :   0.9161 B(  1-C ,  6-C ) :   0.1086
B(  1-C , 16-H ) :   0.9087 B(  1-C , 17-H ) :   0.9482 B(  2-C ,  3-H ) :   0.8404
B(  2-C ,  4-H ) :   0.9560 B(  2-C ,  5-S ) :   0.8398 B(  2-C ,  8-C ) :   0.1440
B(  2-C , 13-O ) :   0.1184 B(  5-S , 13-O ) :   1.5973 B(  5-S , 14-O ) :   1.6708
B(  5-S , 15-F ) :   1.0172 B(  6-C ,  7-N ) :   0.8634 B(  6-C ,  8-C ) :   1.0599
B(  6-C , 10-H ) :  -0.1174 B(  7-N , 11-H ) :   1.0290 B(  7-N , 12-H ) :   1.0487
B(  8-C ,  9-H ) :   0.4170 B(  8-C , 10-H ) :   1.1458 B(  8-C , 15-F ) :   0.1467
B(  9-H , 15-F ) :  -0.2657

Dispersion correction           -0.038311049
FINAL SINGLE POINT ENERGY      -899.659419512738

DIPOLE MOMENT
-------------
                                X             Y             Z
Electronic contribution:      5.54162     -11.98888       3.17682
Nuclear contribution   :     -6.15577      13.80449      -3.81895
                        -----------------------------------------
Total Dipole Moment    :     -0.61414       1.81561      -0.64213
                        -----------------------------------------
Magnitude (a.u.)       :      2.02138
Magnitude (Debye)      :      5.13793

Rotational constants in cm-1:     0.081431     0.024887     0.022470
Rotational constants in MHz :  2441.231544   746.086417   673.646914

                             ****ORCA TERMINATED NORMALLY****
TOTAL RUN TIME: 0 days 0 hours 2 minutes 27 seconds 932 msec
