                         Program Version 5.0.0 -  RELEASE  -
|  1> !wB97X-D3 RIJCOSX def2-TZVP def2/J TightSCF
|  2> *xyz -1 1
|  3> C          3.80351        1.37472       -3.26081
|  4> C          3.93993        0.32036       -4.36773
|  5> H          4.10504       -0.65508       -3.90773
|  6> H          3.02280        0.28052       -4.95712
|  7> C          5.10585        0.66802       -5.30546
|  8> O          4.80913        1.15019       -6.41436
|  9> O          6.26737        0.56500       -4.81948
| 10> H          3.64113        2.33595       -3.70189
| 11> H          4.69995        1.39701       -2.67703
| 12> H          2.97435        1.12625       -2.63180
| 13> *
| 14>
| 15> %MaxCore 64000
| 16>
| 17> %pal nprocs 4
| 18> end
| 19>
| 20> %scf
| 21>   MaxIter 150
| 22> end
| 23>
| 24>
| 25>                          ****END OF INPUT****

CARTESIAN COORDINATES (ANGSTROEM)
---------------------------------
  C      3.803510    1.374720   -3.260810
  C      3.939930    0.320360   -4.367730
  H      4.105040   -0.655080   -3.907730
  H      3.022800    0.280520   -4.957120
  C      5.105850    0.668020   -5.305460
  O      4.809130    1.150190   -6.414360
  O      6.267370    0.565000   -4.819480
  H      3.641130    2.335950   -3.701890
  H      4.699950    1.397010   -2.677030
  H      2.974350    1.126250   -2.631800

 Total Charge           Charge          ....   -1
 Multiplicity           Mult            ....    1
 Number of Electrons    NEL             ....   40
 Basis Dimension        Dim             ....  185

ORBITAL ENERGIES
----------------

  NO   OCC          E(Eh)            E(eV)
   0   2.0000     -18.954604      -515.7810
   1   2.0000     -18.950698      -515.6747
   2   2.0000     -10.149160      -276.1727
   3   2.0000     -10.107882      -275.0494
   4   2.0000     -10.094320      -274.6804
   5   2.0000      -0.927681       -25.2435
   6   2.0000      -0.833241       -22.6736
   7   2.0000      -0.717499       -19.5241
   8   2.0000      -0.579785       -15.7767
   9   2.0000      -0.420228       -11.4350
  10   2.0000      -0.389278       -10.5928
  11   2.0000      -0.356170        -9.6919
  12   2.0000      -0.323086        -8.7916
  13   2.0000      -0.305959        -8.3256
  14   2.0000      -0.301214        -8.1964
  15   2.0000      -0.267387        -7.2760
  16   2.0000      -0.253965        -6.9107
  17   2.0000      -0.132776        -3.6130
  18   2.0000      -0.124818        -3.3965
  19   2.0000      -0.115810        -3.1514
  20   0.0000       0.264993         7.2108
  21   0.0000       0.305811         8.3215
  22   0.0000       0.324983         8.8432
  23   0.0000       0.330440         8.9917
  24   0.0000       0.348141         9.4734

MULLIKEN ATOMIC CHARGES
-----------------------
   0 C :   -0.329029
   1 C :   -0.123803
   2 H :    0.033442
   3 H :    0.038543
   4 C :    0.267163
   5 O :   -0.552074
   6 O :   -0.583091
   7 H :    0.093981
   8 H :    0.099452
   9 H :    0.055416
Sum of atomic charges:   -1.0000000

LOEWDIN ATOMIC CHARGES
----------------------
   0 C :   -0.320261
   1 C :   -0.288556
   2 H :    0.115567
   3 H :    0.116035
   4 C :   -0.696134
   5 O :   -0.104360
   6 O :   -0.135700
   7 H :    0.109588
   8 H :    0.111265
   9 H :    0.092557

  Mayer bond orders larger than 0.100000
B(  0-C ,  1-C ) :   0.9688 B(  0-C ,  7-H ) :   0.9859 B(  0-C ,  8-H ) :   0.9763
B(  0-C ,  9-H ) :   0.9784 B(  1-C ,  2-H ) :   0.9617 B(  1-C ,  3-H ) :   0.9639
B(  1-C ,  4-C ) :   0.9348 B(  4-C ,  5-O ) :   1.8561 B(  4-C ,  6-O ) :   1.8027

Dispersion correction           -0.001990616
FINAL SINGLE POINT ENERGY      -267.865653002447

DIPOLE MOMENT
-------------
                                X             Y             Z
Electronic contribution:      3.74462      -0.47956      -4.51252
Nuclear contribution   :     -5.15232       0.33441       5.87398
                        -----------------------------------------
Total Dipole Moment    :     -1.40770      -0.14516       1.36146
                        -----------------------------------------
Magnitude (a.u.)       :      1.96373
Magnitude (Debye)      :      4.99142

Rotational constants in cm-1:     0.295355     0.137164     0.110193
Rotational constants in MHz :  8854.523706  4112.077980  3303.490503

                             ****ORCA TERMINATED NORMALLY****
TOTAL RUN TIME: 0 days 0 hours 0 minutes 26 seconds 212 msec
