                         Program Version 5.0.0 -  RELEASE  -
|  1> !wB97X-D3 RIJCOSX def2-TZVP def2/J TightSCF
|  2> *xyz 1 1
|  3> C          3.90595        2.81985       -3.75292
|  4> N          5.29562        3.13151       -4.10533
|  5> C          3.80351        1.37472       -3.26081
|  6> C          5.70862        3.46889       -5.32419
|  7> N          6.90470        3.03895       -5.71708
|  8> N          4.98188        4.29357       -6.09746
|  9> H          5.00055        4.10131       -7.08776
| 10> H          4.08469        4.59690       -5.73965
| 11> H          5.96336        2.52611       -3.64239
| 12> H          7.04716        2.06686       -5.47360
| 13> H          7.19815        3.30799       -6.64523
| 14> H          3.28202        2.94919       -4.64026
| 15> H          3.56525        3.51457       -2.98252
| 16> H          4.14157        0.71142       -4.02935
| 17> H          2.78528        1.15146       -3.01944
| 18> H          4.41205        1.25066       -2.38949
| 19> *
| 20>
| 21> %MaxCore 64000
| 22>
| 23> %pal nprocs 4
| 24> end
| 25>
| 26> %scf
| 27>   MaxIter 150
| 28> end
| 29>
| 30>
| 31>                          ****END OF INPUT****

CARTESIAN COORDINATES (ANGSTROEM)
---------------------------------
  C      3.905950    2.819850   -3.752920
  N      5.295620    3.131510   -4.105330
  C      3.803510    1.374720   -3.260810
  C      5.708620    3.468890   -5.324190
  N      6.904700    3.038950   -5.717080
  N      4.981880    4.293570   -6.097460
  H      5.000550    4.101310   -7.087760
  H      4.084690    4.596900   -5.739650
  H      5.963360    2.526110   -3.642390
  H      7.047160    2.066860   -5.473600
  H      7.198150    3.307990   -6.645230
  H      3.282020    2.949190   -4.640260
  H      3.565250    3.514570   -2.982520
  H      4.141570    0.711420   -4.029350
  H      2.785280    1.151460   -3.019440
  H      4.412050    1.250660   -2.389490

 Total Charge           Charge          ....    1
 Multiplicity           Mult            ....    1
 Number of Electrons    NEL             ....   48
 Basis Dimension        Dim             ....  246

ORBITAL ENERGIES
----------------

  NO   OCC          E(Eh)            E(eV)
   0   2.0000     -14.648907      -398.6170
   1   2.0000     -14.648622      -398.6093
   2   2.0000     -14.647451      -398.5774
   3   2.0000     -10.615369      -288.8589
   4   2.0000     -10.485898      -285.3358
   5   2.0000     -10.416897      -283.4582
   6   2.0000      -1.340780       -36.4845
   7   2.0000      -1.225494       -33.3474
   8   2.0000      -1.217090       -33.1187
   9   2.0000      -1.049994       -28.5718
  10   2.0000      -0.944794       -25.7092
  11   2.0000      -0.917809       -24.9748
  12   2.0000      -0.881161       -23.9776
  13   2.0000      -0.849691       -23.1213
  14   2.0000      -0.803116       -21.8539
  15   2.0000      -0.787154       -21.4196
  16   2.0000      -0.752316       -20.4716
  17   2.0000      -0.726707       -19.7747
  18   2.0000      -0.696492       -18.9525
  19   2.0000      -0.657483       -17.8910
  20   2.0000      -0.632711       -17.2169
  21   2.0000      -0.617281       -16.7971
  22   2.0000      -0.584967       -15.9178
  23   2.0000      -0.551654       -15.0113
  24   0.0000      -0.109130        -2.9696
  25   0.0000      -0.070372        -1.9149
  26   0.0000      -0.034611        -0.9418
  27   0.0000      -0.020752        -0.5647
  28   0.0000      -0.000859        -0.0234

MULLIKEN ATOMIC CHARGES
-----------------------
   0 C :   -0.100996
   1 N :   -0.267640
   2 C :   -0.397138
   3 C :    0.440394
   4 N :   -0.418600
   5 N :   -0.435340
   6 H :    0.296214
   7 H :    0.298706
   8 H :    0.258542
   9 H :    0.292757
  10 H :    0.290626
  11 H :    0.116903
  12 H :    0.173150
  13 H :    0.129869
  14 H :    0.168294
  15 H :    0.154259
Sum of atomic charges:    1.0000000

LOEWDIN ATOMIC CHARGES
----------------------
   0 C :   -0.277292
   1 N :    0.165828
   2 C :   -0.281648
   3 C :   -0.405231
   4 N :    0.058461
   5 N :    0.060606
   6 H :    0.198111
   7 H :    0.197877
   8 H :    0.212831
   9 H :    0.202613
  10 H :    0.199036
  11 H :    0.135687
  12 H :    0.145660
  13 H :    0.121377
  14 H :    0.138577
  15 H :    0.127508

  Mayer bond orders larger than 0.100000
B(  0-C ,  1-N ) :   0.8500 B(  0-C ,  2-C ) :   0.9799 B(  0-C , 11-H ) :   0.9762
B(  0-C , 12-H ) :   0.9491 B(  1-N ,  3-C ) :   1.3979 B(  1-N ,  8-H ) :   0.9030
B(  2-C , 13-H ) :   0.9695 B(  2-C , 14-H ) :   0.9640 B(  2-C , 15-H ) :   0.9697
B(  3-C ,  4-N ) :   1.3042 B(  3-C ,  5-N ) :   1.3198 B(  4-N ,  9-H ) :   0.8863
B(  4-N , 10-H ) :   0.8931 B(  5-N ,  6-H ) :   0.8842 B(  5-N ,  7-H ) :   0.8924

Dispersion correction           -0.003685608
FINAL SINGLE POINT ENERGY      -284.419640147591

DIPOLE MOMENT
-------------
                                X             Y             Z
Electronic contribution:      3.52213       3.39630      -2.68630
Nuclear contribution   :     -3.31456      -3.64300       1.57303
                        -----------------------------------------
Total Dipole Moment    :      0.20757      -0.24670      -1.11326
                        -----------------------------------------
Magnitude (a.u.)       :      1.15901
Magnitude (Debye)      :      2.94596

Rotational constants in cm-1:     0.229487     0.071000     0.059428
Rotational constants in MHz :  6879.840828  2128.520047  1781.605314

                             ****ORCA TERMINATED NORMALLY****
TOTAL RUN TIME: 0 days 0 hours 0 minutes 52 seconds 960 msec
