                         Program Version 5.0.0 -  RELEASE  -
|  1> !wB97X-D3 RIJCOSX def2-TZVP def2/J TightSCF
|  2> *xyz 0 1
|  3> C          3.80351        1.37472       -3.26081
|  4> C          3.93993        0.32036       -4.36773
|  5> H          4.10504       -0.65508       -3.90773
|  6> H          3.02280        0.28052       -4.95712
|  7> C          5.10585        0.66802       -5.30546
|  8> F          4.80913        1.15019       -6.41436
|  9> O          6.26737        0.56500       -4.81948
| 10> H          3.64113        2.33595       -3.70189
| 11> H          4.69995        1.39701       -2.67703
| 12> H          2.97435        1.12625       -2.63180
| 13> *
| 14>
| 15> %MaxCore 64000
| 16>
| 17> %pal nprocs 4
| 18> end
| 19>
| 20> %scf
| 21>   MaxIter 150
| 22> end
| 23>
| 24>
| 25>                          ****END OF INPUT****

CARTESIAN COORDINATES (ANGSTROEM)
---------------------------------
  C      3.803510    1.374720   -3.260810
  C      3.939930    0.320360   -4.367730
  H      4.105040   -0.655080   -3.907730
  H      3.022800    0.280520   -4.957120
  C      5.105850    0.668020   -5.305460
  F      4.809130    1.150190   -6.414360
  O      6.267370    0.565000   -4.819480
  H      3.641130    2.335950   -3.701890
  H      4.699950    1.397010   -2.677030
  H      2.974350    1.126250   -2.631800

 Total Charge           Charge          ....    0
 Multiplicity           Mult            ....    1
 Number of Electrons    NEL             ....   40
 Basis Dimension        Dim             ....  185

ORBITAL ENERGIES
----------------

  NO   OCC          E(Eh)            E(eV)
   0   2.0000     -24.859508      -676.4616
   1   2.0000     -19.233308      -523.3649
   2   2.0000     -10.455261      -284.5021
   3   2.0000     -10.306294      -280.4485
   4   2.0000     -10.280051      -279.7344
   5   2.0000      -1.443636       -39.2833
   6   2.0000      -1.143141       -31.1064
   7   2.0000      -0.917548       -24.9678
   8   2.0000      -0.801750       -21.8167
   9   2.0000      -0.751085       -20.4380
  10   2.0000      -0.658493       -17.9185
  11   2.0000      -0.644159       -17.5285
  12   2.0000      -0.611636       -16.6434
  13   2.0000      -0.566320       -15.4103
  14   2.0000      -0.534737       -14.5509
  15   2.0000      -0.495851       -13.4928
  16   2.0000      -0.475257       -12.9324
  17   2.0000      -0.469223       -12.7682
  18   2.0000      -0.439758       -11.9664
  19   2.0000      -0.385617       -10.4932
  20   0.0000       0.055989         1.5235
  21   0.0000       0.116628         3.1736
  22   0.0000       0.156581         4.2608
  23   0.0000       0.170993         4.6530
  24   0.0000       0.185936         5.0596

MULLIKEN ATOMIC CHARGES
-----------------------
   0 C :   -0.360129
   1 C :   -0.197917
   2 H :    0.131372
   3 H :    0.107910
   4 C :    0.401118
   5 F :   -0.097525
   6 O :   -0.369684
   7 H :    0.118129
   8 H :    0.141951
   9 H :    0.124775
Sum of atomic charges:    0.0000000

LOEWDIN ATOMIC CHARGES
----------------------
   0 C :   -0.285568
   1 C :   -0.257269
   2 H :    0.150667
   3 H :    0.136951
   4 C :   -0.494417
   5 F :    0.340084
   6 O :    0.046416
   7 H :    0.118990
   8 H :    0.124974
   9 H :    0.119171

  Mayer bond orders larger than 0.100000
B(  0-C ,  1-C ) :   0.9714 B(  0-C ,  7-H ) :   0.9746 B(  0-C ,  8-H ) :   0.9717
B(  0-C ,  9-H ) :   0.9744 B(  1-C ,  2-H ) :   0.9558 B(  1-C ,  3-H ) :   0.9640
B(  1-C ,  4-C ) :   0.9795 B(  4-C ,  5-F ) :   1.1663 B(  4-C ,  6-O ) :   2.0186

Dispersion correction           -0.001944521
FINAL SINGLE POINT ENERGY      -292.432958555926

DIPOLE MOMENT
-------------
                                X             Y             Z
Electronic contribution:      3.99052      -0.00917      -7.45259
Nuclear contribution   :     -5.17129      -0.01923       7.59895
                        -----------------------------------------
Total Dipole Moment    :     -1.18078      -0.02840       0.14636
                        -----------------------------------------
Magnitude (a.u.)       :      1.19015
Magnitude (Debye)      :      3.02512

Rotational constants in cm-1:     0.282073     0.131822     0.105134
Rotational constants in MHz :  8456.328792  3951.925810  3151.840112

                             ****ORCA TERMINATED NORMALLY****
TOTAL RUN TIME: 0 days 0 hours 0 minutes 28 seconds 682 msec
