                         Program Version 5.0.0 -  RELEASE  -
|  1> !wB97X-D3 RIJCOSX def2-TZVP def2/J TightSCF
|  2> *xyz 0 1
|  3> C          3.90595        2.81985       -3.75292
|  4> C          5.29562        3.13151       -4.10533
|  5> C          3.80351        1.37472       -3.26081
|  6> C          5.70862        3.46889       -5.32419
|  7> N          6.90470        3.03895       -5.71708
|  8> N          4.98188        4.29357       -6.09746
|  9> H          5.00055        4.10131       -7.08776
| 10> H          4.08469        4.59690       -5.73965
| 11> H          5.96336        2.52611       -3.64239
| 12> H          7.04716        2.06686       -5.47360
| 13> H          7.19815        3.30799       -6.64523
| 14> H          3.28202        2.94919       -4.64026
| 15> H          3.56525        3.51457       -2.98252
| 16> H          4.14157        0.71142       -4.02935
| 17> H          2.78528        1.15146       -3.01944
| 18> H          4.41205        1.25066       -2.38949
| 19> *
| 20>
| 21> %MaxCore 64000
| 22>
| 23> %pal nprocs 4
| 24> end
| 25>
| 26> %scf
| 27>   MaxIter 150
| 28> end
| 29>
| 30>
| 31>                          ****END OF INPUT****

CARTESIAN COORDINATES (ANGSTROEM)
---------------------------------
  C      3.905950    2.819850   -3.752920
  C      5.295620    3.131510   -4.105330
  C      3.803510    1.374720   -3.260810
  C      5.708620    3.468890   -5.324190
  N      6.904700    3.038950   -5.717080
  N      4.981880    4.293570   -6.097460
  H      5.000550    4.101310   -7.087760
  H      4.084690    4.596900   -5.739650
  H      5.963360    2.526110   -3.642390
  H      7.047160    2.066860   -5.473600
  H      7.198150    3.307990   -6.645230
  H      3.282020    2.949190   -4.640260
  H      3.565250    3.514570   -2.982520
  H      4.141570    0.711420   -4.029350
  H      2.785280    1.151460   -3.019440
  H      4.412050    1.250660   -2.389490

 Total Charge           Charge          ....    0
 Multiplicity           Mult            ....    1
 Number of Electrons    NEL             ....   48
 Basis Dimension        Dim             ....  246

ORBITAL ENERGIES
----------------

  NO   OCC          E(Eh)            E(eV)
   0   2.0000     -14.423405      -392.4808
   1   2.0000     -14.419986      -392.3878
   2   2.0000     -10.317642      -280.7573
   3   2.0000     -10.251425      -278.9555
   4   2.0000     -10.242860      -278.7224
   5   2.0000     -10.196718      -277.4668
   6   2.0000      -1.082820       -29.4650
   7   2.0000      -0.991859       -26.9899
   8   2.0000      -0.893259       -24.3068
   9   2.0000      -0.808625       -22.0038
  10   2.0000      -0.722937       -19.6721
  11   2.0000      -0.681446       -18.5431
  12   2.0000      -0.636851       -17.3296
  13   2.0000      -0.612990       -16.6803
  14   2.0000      -0.575812       -15.6687
  15   2.0000      -0.546640       -14.8748
  16   2.0000      -0.519903       -14.1473
  17   2.0000      -0.487096       -13.2546
  18   2.0000      -0.466470       -12.6933
  19   2.0000      -0.445515       -12.1231
  20   2.0000      -0.420208       -11.4344
  21   2.0000      -0.416564       -11.3353
  22   2.0000      -0.368660       -10.0318
  23   2.0000      -0.254932        -6.9370
  24   0.0000       0.098778         2.6879
  25   0.0000       0.130548         3.5524
  26   0.0000       0.137858         3.7513
  27   0.0000       0.147305         4.0084
  28   0.0000       0.164133         4.4663

MULLIKEN ATOMIC CHARGES
-----------------------
   0 C :   -0.114867
   1 C :   -0.308728
   2 C :   -0.357312
   3 C :    0.307398
   4 N :   -0.498731
   5 N :   -0.504828
   6 H :    0.219626
   7 H :    0.252834
   8 H :    0.069155
   9 H :    0.257873
  10 H :    0.220942
  11 H :    0.041382
  12 H :    0.094506
  13 H :    0.098294
  14 H :    0.107372
  15 H :    0.115082
Sum of atomic charges:    0.0000000

LOEWDIN ATOMIC CHARGES
----------------------
   0 C :   -0.306281
   1 C :   -0.275651
   2 C :   -0.299530
   3 C :   -0.467800
   4 N :   -0.019904
   5 N :   -0.023190
   6 H :    0.157830
   7 H :    0.176023
   8 H :    0.124874
   9 H :    0.181637
  10 H :    0.161581
  11 H :    0.124055
  12 H :    0.128735
  13 H :    0.111494
  14 H :    0.110682
  15 H :    0.115443

  Mayer bond orders larger than 0.100000
B(  0-C ,  1-C ) :   0.9449 B(  0-C ,  2-C ) :   0.9628 B(  0-C , 11-H ) :   0.9722
B(  0-C , 12-H ) :   0.9730 B(  1-C ,  3-C ) :   1.6938 B(  1-C ,  8-H ) :   1.0404
B(  2-C , 13-H ) :   0.9818 B(  2-C , 14-H ) :   0.9826 B(  2-C , 15-H ) :   0.9854
B(  3-C ,  4-N ) :   1.1121 B(  3-C ,  5-N ) :   1.1379 B(  4-N ,  9-H ) :   0.9144
B(  4-N , 10-H ) :   0.9288 B(  5-N ,  6-H ) :   0.9149 B(  5-N ,  7-H ) :   0.9208

Dispersion correction           -0.003676899
FINAL SINGLE POINT ENERGY      -267.936293086112

DIPOLE MOMENT
-------------
                                X             Y             Z
Electronic contribution:      3.17802       3.24612      -2.90081
Nuclear contribution   :     -3.27358      -3.61654       1.70633
                        -----------------------------------------
Total Dipole Moment    :     -0.09556      -0.37042      -1.19448
                        -----------------------------------------
Magnitude (a.u.)       :      1.25424
Magnitude (Debye)      :      3.18803

Rotational constants in cm-1:     0.231961     0.071249     0.059473
Rotational constants in MHz :  6954.024434  2135.976855  1782.962814

                             ****ORCA TERMINATED NORMALLY****
TOTAL RUN TIME: 0 days 0 hours 0 minutes 55 seconds 966 msec
