                         Program Version 5.0.0 -  RELEASE  -
|  1> !wB97X-D3 RIJCOSX def2-TZVP def2/J TightSCF
|  2> *xyz 0 1
|  3> C          3.80351        1.37472       -3.26081
|  4> C          3.93993        0.32036       -4.36773
|  5> H          4.10504       -0.65508       -3.90773
|  6> H          3.02280        0.28052       -4.95712
|  7> C          5.10585        0.66802       -5.30546
|  8> O          4.80913        1.15019       -6.41436
|  9> F          6.26737        0.56500       -4.81948
| 10> H          3.64113        2.33595       -3.70189
| 11> H          4.69995        1.39701       -2.67703
| 12> H          2.97435        1.12625       -2.63180
| 13> *
| 14>
| 15> %MaxCore 64000
| 16>
| 17> %pal nprocs 4
| 18> end
| 19>
| 20> %scf
| 21>   MaxIter 150
| 22> end
| 23>
| 24>
| 25>                          ****END OF INPUT****

CARTESIAN COORDINATES (ANGSTROEM)
---------------------------------
  C      3.803510    1.374720   -3.260810
  C      3.939930    0.320360   -4.367730
  H      4.105040   -0.655080   -3.907730
  H      3.022800    0.280520   -4.957120
  C      5.105850    0.668020   -5.305460
  O      4.809130    1.150190   -6.414360
  F      6.267370    0.565000   -4.819480
  H      3.641130    2.335950   -3.701890
  H      4.699950    1.397010   -2.677030
  H      2.974350    1.126250   -2.631800

 Total Charge           Charge          ....    0
 Multiplicity           Mult            ....    1
 Number of Electrons    NEL             ....   40
 Basis Dimension        Dim             ....  185

ORBITAL ENERGIES
----------------

  NO   OCC          E(Eh)            E(eV)
   0   2.0000     -24.852555      -676.2724
   1   2.0000     -19.236165      -523.4427
   2   2.0000     -10.453284      -284.4483
   3   2.0000     -10.305818      -280.4356
   4   2.0000     -10.282795      -279.8091
   5   2.0000      -1.429989       -38.9120
   6   2.0000      -1.154252       -31.4088
   7   2.0000      -0.919490       -25.0206
   8   2.0000      -0.796422       -21.6717
   9   2.0000      -0.749020       -20.3819
  10   2.0000      -0.652846       -17.7649
  11   2.0000      -0.639527       -17.4024
  12   2.0000      -0.608118       -16.5477
  13   2.0000      -0.566265       -15.4089
  14   2.0000      -0.535888       -14.5823
  15   2.0000      -0.499671       -13.5967
  16   2.0000      -0.481151       -13.0928
  17   2.0000      -0.469826       -12.7846
  18   2.0000      -0.448626       -12.2077
  19   2.0000      -0.386197       -10.5090
  20   0.0000       0.060490         1.6460
  21   0.0000       0.114513         3.1161
  22   0.0000       0.155634         4.2350
  23   0.0000       0.172854         4.7036
  24   0.0000       0.191159         5.2017

MULLIKEN ATOMIC CHARGES
-----------------------
   0 C :   -0.362865
   1 C :   -0.198775
   2 H :    0.114266
   3 H :    0.133348
   4 C :    0.391406
   5 O :   -0.346507
   6 F :   -0.114788
   7 H :    0.132098
   8 H :    0.124085
   9 H :    0.127734
Sum of atomic charges:    0.0000000

LOEWDIN ATOMIC CHARGES
----------------------
   0 C :   -0.289341
   1 C :   -0.254686
   2 H :    0.141066
   3 H :    0.150022
   4 C :   -0.492723
   5 O :    0.071897
   6 F :    0.311433
   7 H :    0.122593
   8 H :    0.119245
   9 H :    0.120493

  Mayer bond orders larger than 0.100000
B(  0-C ,  1-C ) :   0.9652 B(  0-C ,  7-H ) :   0.9723 B(  0-C ,  8-H ) :   0.9748
B(  0-C ,  9-H ) :   0.9740 B(  1-C ,  2-H ) :   0.9528 B(  1-C ,  3-H ) :   0.9675
B(  1-C ,  4-C ) :   0.9923 B(  4-C ,  5-O ) :   2.0525 B(  4-C ,  6-F ) :   1.1400

Dispersion correction           -0.001942473
FINAL SINGLE POINT ENERGY      -292.438383039507

DIPOLE MOMENT
-------------
                                X             Y             Z
Electronic contribution:      6.42204      -0.99320      -4.76731
Nuclear contribution   :     -6.76123       0.61881       5.86003
                        -----------------------------------------
Total Dipole Moment    :     -0.33919      -0.37439       1.09272
                        -----------------------------------------
Magnitude (a.u.)       :      1.20385
Magnitude (Debye)      :      3.05995

Rotational constants in cm-1:     0.275298     0.134631     0.105723
Rotational constants in MHz :  8253.224169  4036.137572  3169.487264

                             ****ORCA TERMINATED NORMALLY****
TOTAL RUN TIME: 0 days 0 hours 0 minutes 23 seconds 544 msec
