                         Program Version 5.0.0 -  RELEASE  -
|  1> !wB97X-D3 RIJCOSX def2-TZVP def2/J TightSCF
|  2> *xyz 0 1
|  3> C          3.90595        2.81985       -3.75292
|  4> N          5.29562        3.13151       -4.10533
|  5> C          3.80351        1.37472       -3.26081
|  6> C          5.70862        3.46889       -5.32419
|  7> C          6.90470        3.03895       -5.71708
|  8> N          4.98188        4.29357       -6.09746
|  9> H          5.00055        4.10131       -7.08776
| 10> H          4.08469        4.59690       -5.73965
| 11> H          5.96336        2.52611       -3.64239
| 12> H          7.04716        2.06686       -5.47360
| 13> H          7.19815        3.30799       -6.64523
| 14> H          3.28202        2.94919       -4.64026
| 15> H          3.56525        3.51457       -2.98252
| 16> H          4.14157        0.71142       -4.02935
| 17> H          2.78528        1.15146       -3.01944
| 18> H          4.41205        1.25066       -2.38949
| 19> *
| 20>
| 21> %MaxCore 64000
| 22>
| 23> %pal nprocs 4
| 24> end
| 25>
| 26> %scf
| 27>   MaxIter 150
| 28> end
| 29>
| 30>
| 31>                          ****END OF INPUT****

CARTESIAN COORDINATES (ANGSTROEM)
---------------------------------
  C      3.905950    2.819850   -3.752920
  N      5.295620    3.131510   -4.105330
  C      3.803510    1.374720   -3.260810
  C      5.708620    3.468890   -5.324190
  C      6.904700    3.038950   -5.717080
  N      4.981880    4.293570   -6.097460
  H      5.000550    4.101310   -7.087760
  H      4.084690    4.596900   -5.739650
  H      5.963360    2.526110   -3.642390
  H      7.047160    2.066860   -5.473600
  H      7.198150    3.307990   -6.645230
  H      3.282020    2.949190   -4.640260
  H      3.565250    3.514570   -2.982520
  H      4.141570    0.711420   -4.029350
  H      2.785280    1.151460   -3.019440
  H      4.412050    1.250660   -2.389490

 Total Charge           Charge          ....    0
 Multiplicity           Mult            ....    1
 Number of Electrons    NEL             ....   48
 Basis Dimension        Dim             ....  246

ORBITAL ENERGIES
----------------

  NO   OCC          E(Eh)            E(eV)
   0   2.0000     -14.423831      -392.4924
   1   2.0000     -14.423328      -392.4787
   2   2.0000     -10.323579      -280.9189
   3   2.0000     -10.316143      -280.7165
   4   2.0000     -10.272974      -279.5418
   5   2.0000     -10.182193      -277.0716
   6   2.0000      -1.088633       -29.6232
   7   2.0000      -1.004575       -27.3359
   8   2.0000      -0.890543       -24.2329
   9   2.0000      -0.820978       -22.3399
  10   2.0000      -0.742037       -20.1919
  11   2.0000      -0.702980       -19.1291
  12   2.0000      -0.636923       -17.3316
  13   2.0000      -0.596106       -16.2209
  14   2.0000      -0.587026       -15.9738
  15   2.0000      -0.551951       -15.0194
  16   2.0000      -0.522878       -14.2282
  17   2.0000      -0.500186       -13.6108
  18   2.0000      -0.477336       -12.9890
  19   2.0000      -0.469448       -12.7743
  20   2.0000      -0.467499       -12.7213
  21   2.0000      -0.434191       -11.8149
  22   2.0000      -0.354514        -9.6468
  23   2.0000      -0.260755        -7.0955
  24   0.0000       0.103153         2.8069
  25   0.0000       0.123523         3.3612
  26   0.0000       0.135678         3.6920
  27   0.0000       0.146606         3.9893
  28   0.0000       0.164124         4.4660

MULLIKEN ATOMIC CHARGES
-----------------------
   0 C :   -0.058036
   1 N :   -0.318514
   2 C :   -0.386294
   3 C :    0.339178
   4 C :   -0.501906
   5 N :   -0.503160
   6 H :    0.258539
   7 H :    0.228377
   8 H :    0.225596
   9 H :    0.085408
  10 H :    0.067696
  11 H :    0.081120
  12 H :    0.112479
  13 H :    0.128060
  14 H :    0.118649
  15 H :    0.122808
Sum of atomic charges:   -0.0000000

LOEWDIN ATOMIC CHARGES
----------------------
   0 C :   -0.304307
   1 N :    0.108994
   2 C :   -0.304477
   3 C :   -0.465654
   4 C :   -0.354747
   5 N :   -0.014523
   6 H :    0.176351
   7 H :    0.161603
   8 H :    0.197480
   9 H :    0.102119
  10 H :    0.095389
  11 H :    0.124218
  12 H :    0.123578
  13 H :    0.118778
  14 H :    0.118633
  15 H :    0.116564

  Mayer bond orders larger than 0.100000
B(  0-C ,  1-N ) :   0.9184 B(  0-C ,  2-C ) :   0.9792 B(  0-C , 11-H ) :   0.9755
B(  0-C , 12-H ) :   0.9652 B(  1-N ,  3-C ) :   1.2213 B(  1-N ,  8-H ) :   0.9248
B(  2-C , 13-H ) :   0.9763 B(  2-C , 14-H ) :   0.9771 B(  2-C , 15-H ) :   0.9794
B(  3-C ,  4-C ) :   1.6413 B(  3-C ,  5-N ) :   1.1055 B(  4-C ,  9-H ) :   0.9896
B(  4-C , 10-H ) :   1.0275 B(  5-N ,  6-H ) :   0.9155 B(  5-N ,  7-H ) :   0.9287

Dispersion correction           -0.003710801
FINAL SINGLE POINT ENERGY      -267.925736321023

DIPOLE MOMENT
-------------
                                X             Y             Z
Electronic contribution:      1.47318       3.24313      -1.27948
Nuclear contribution   :     -2.93222      -3.63618       1.36440
                        -----------------------------------------
Total Dipole Moment    :     -1.45904      -0.39305       0.08492
                        -----------------------------------------
Magnitude (a.u.)       :      1.51344
Magnitude (Debye)      :      3.84685

Rotational constants in cm-1:     0.237993     0.072843     0.061284
Rotational constants in MHz :  7134.860770  2183.763760  1837.240960

                             ****ORCA TERMINATED NORMALLY****
TOTAL RUN TIME: 0 days 0 hours 0 minutes 44 seconds 356 msec
