                         Program Version 5.0.0 -  RELEASE  -
|  1> !wB97X-D3 RIJCOSX def2-TZVP def2/J TightSCF
|  2> *xyz 0 1
|  3> C          3.90595        2.81985       -3.75292
|  4> N          5.29562        3.13151       -4.10533
|  5> C          3.80351        1.37472       -3.26081
|  6> C          5.70862        3.46889       -5.32419
|  7> N          6.90470        3.03895       -5.71708
|  8> C          4.98188        4.29357       -6.09746
|  9> H          5.00055        4.10131       -7.08776
| 10> H          4.08469        4.59690       -5.73965
| 11> H          5.96336        2.52611       -3.64239
| 12> H          7.04716        2.06686       -5.47360
| 13> H          7.19815        3.30799       -6.64523
| 14> H          3.28202        2.94919       -4.64026
| 15> H          3.56525        3.51457       -2.98252
| 16> H          4.14157        0.71142       -4.02935
| 17> H          2.78528        1.15146       -3.01944
| 18> H          4.41205        1.25066       -2.38949
| 19> *
| 20>
| 21> %MaxCore 64000
| 22>
| 23> %pal nprocs 4
| 24> end
| 25>
| 26> %scf
| 27>   MaxIter 150
| 28> end
| 29>
| 30>
| 31>                          ****END OF INPUT****

CARTESIAN COORDINATES (ANGSTROEM)
---------------------------------
  C      3.905950    2.819850   -3.752920
  N      5.295620    3.131510   -4.105330
  C      3.803510    1.374720   -3.260810
  C      5.708620    3.468890   -5.324190
  N      6.904700    3.038950   -5.717080
  C      4.981880    4.293570   -6.097460
  H      5.000550    4.101310   -7.087760
  H      4.084690    4.596900   -5.739650
  H      5.963360    2.526110   -3.642390
  H      7.047160    2.066860   -5.473600
  H      7.198150    3.307990   -6.645230
  H      3.282020    2.949190   -4.640260
  H      3.565250    3.514570   -2.982520
  H      4.141570    0.711420   -4.029350
  H      2.785280    1.151460   -3.019440
  H      4.412050    1.250660   -2.389490

 Total Charge           Charge          ....    0
 Multiplicity           Mult            ....    1
 Number of Electrons    NEL             ....   48
 Basis Dimension        Dim             ....  246

ORBITAL ENERGIES
----------------

  NO   OCC          E(Eh)            E(eV)
   0   2.0000     -14.425294      -392.5322
   1   2.0000     -14.422917      -392.4675
   2   2.0000     -10.322311      -280.8844
   3   2.0000     -10.309909      -280.5469
   4   2.0000     -10.270720      -279.4805
   5   2.0000     -10.187449      -277.2146
   6   2.0000      -1.093443       -29.7541
   7   2.0000      -1.006411       -27.3858
   8   2.0000      -0.879160       -23.9231
   9   2.0000      -0.822043       -22.3689
  10   2.0000      -0.755372       -20.5547
  11   2.0000      -0.673399       -18.3241
  12   2.0000      -0.639429       -17.3997
  13   2.0000      -0.619435       -16.8557
  14   2.0000      -0.574435       -15.6312
  15   2.0000      -0.556869       -15.1532
  16   2.0000      -0.504846       -13.7376
  17   2.0000      -0.499352       -13.5881
  18   2.0000      -0.489751       -13.3268
  19   2.0000      -0.469331       -12.7711
  20   2.0000      -0.458863       -12.4863
  21   2.0000      -0.435343       -11.8463
  22   2.0000      -0.351977        -9.5778
  23   2.0000      -0.263687        -7.1753
  24   0.0000       0.099750         2.7143
  25   0.0000       0.129685         3.5289
  26   0.0000       0.138514         3.7692
  27   0.0000       0.147693         4.0189
  28   0.0000       0.164021         4.4632

MULLIKEN ATOMIC CHARGES
-----------------------
   0 C :   -0.042821
   1 N :   -0.334661
   2 C :   -0.384254
   3 C :    0.347520
   4 N :   -0.493582
   5 C :   -0.507343
   6 H :    0.096876
   7 H :    0.076484
   8 H :    0.189754
   9 H :    0.217740
  10 H :    0.253030
  11 H :    0.112755
  12 H :    0.111248
  13 H :    0.117600
  14 H :    0.120806
  15 H :    0.118848
Sum of atomic charges:    0.0000000

LOEWDIN ATOMIC CHARGES
----------------------
   0 C :   -0.289801
   1 N :    0.110812
   2 C :   -0.307829
   3 C :   -0.475515
   4 N :   -0.019453
   5 C :   -0.341557
   6 H :    0.097150
   7 H :    0.096313
   8 H :    0.179639
   9 H :    0.161959
  10 H :    0.178355
  11 H :    0.135365
  12 H :    0.125691
  13 H :    0.115031
  14 H :    0.119566
  15 H :    0.114273

  Mayer bond orders larger than 0.100000
B(  0-C ,  1-N ) :   0.9121 B(  0-C ,  2-C ) :   0.9741 B(  0-C , 11-H ) :   0.9715
B(  0-C , 12-H ) :   0.9686 B(  1-N ,  3-C ) :   1.1755 B(  1-N ,  8-H ) :   0.9339
B(  2-C , 13-H ) :   0.9781 B(  2-C , 14-H ) :   0.9776 B(  2-C , 15-H ) :   0.9801
B(  3-C ,  4-N ) :   1.1235 B(  3-C ,  5-C ) :   1.5996 B(  4-N ,  9-H ) :   0.9175
B(  4-N , 10-H ) :   0.9205 B(  5-C ,  6-H ) :   0.9828 B(  5-C ,  7-H ) :   1.0202

Dispersion correction           -0.003688026
FINAL SINGLE POINT ENERGY      -267.930076556572

DIPOLE MOMENT
-------------
                                X             Y             Z
Electronic contribution:      3.41260       2.02158      -0.97868
Nuclear contribution   :     -3.34013      -3.37002       1.28371
                        -----------------------------------------
Total Dipole Moment    :      0.07247      -1.34844       0.30503
                        -----------------------------------------
Magnitude (a.u.)       :      1.38441
Magnitude (Debye)      :      3.51889

Rotational constants in cm-1:     0.239537     0.072280     0.060961
Rotational constants in MHz :  7181.153552  2166.902802  1827.551447

                             ****ORCA TERMINATED NORMALLY****
TOTAL RUN TIME: 0 days 0 hours 0 minutes 44 seconds 619 msec
