                         Program Version 5.0.0 -  RELEASE  -
|  1> !wB97X-D3 RIJCOSX def2-TZVP def2/J TightSCF xyzfile
|  2>
|  3> *xyzfile 0 1 D5.xyz
|  4>
|  5> %MaxCore 64000
|  6>
|  7> %pal nprocs 18
|  8> end
|  9>
| 10> %scf
| 11>   MaxIter 150
| 12> end
| 13>
| 14>
| 15>                          ****END OF INPUT****

CARTESIAN COORDINATES (ANGSTROEM)
---------------------------------
  C      3.905947    2.819855   -3.752920
  N      5.295615    3.131515   -4.105334
  C      3.803511    1.374716   -3.260807
  C      3.939934    0.320362   -4.367729
  H      4.105043   -0.655085   -3.907733
  H      3.022801    0.280517   -4.957117
  C      5.105846    0.668022   -5.305463
  C      5.708619    3.468885   -5.324190
  C      6.904696    3.038954   -5.717084
  N      4.981884    4.293570   -6.097457
  H      5.000546    4.101311   -7.087761
  H      4.084693    4.596899   -5.739652
  H      5.963358    2.526112   -3.642391
  H      7.047164    2.066861   -5.473604
  H      7.198145    3.307994   -6.645225
  H      3.282025    2.949187   -4.640259
  H      3.565254    3.514574   -2.982523
  H      4.574833    1.215157   -2.500443
  H      2.843514    1.260845   -2.751465
  O      4.809132    1.150187   -6.414361
  F      6.267366    0.564999   -4.819481

 Total Charge           Charge          ....    0
 Multiplicity           Mult            ....    1
 Number of Electrons    NEL             ....   78
 Basis Dimension        Dim             ....  376

ORBITAL ENERGIES
----------------

  NO   OCC          E(Eh)            E(eV)
   0   2.0000     -24.858326      -676.4294
   1   2.0000     -19.239211      -523.5255
   2   2.0000     -14.427558      -392.5938
   3   2.0000     -14.415691      -392.2709
   4   2.0000     -10.458603      -284.5931
   5   2.0000     -10.323449      -280.9153
   6   2.0000     -10.315363      -280.6953
   7   2.0000     -10.314041      -280.6593
   8   2.0000     -10.308103      -280.4977
   9   2.0000     -10.169671      -276.7308
  10   2.0000      -1.439435       -39.1690
  11   2.0000      -1.159868       -31.5616
  12   2.0000      -1.088688       -29.6247
  13   2.0000      -1.004347       -27.3297
  14   2.0000      -0.937679       -25.5155
  15   2.0000      -0.859145       -23.3785
  16   2.0000      -0.814427       -22.1617
  17   2.0000      -0.770038       -20.9538
  18   2.0000      -0.733328       -19.9549
  19   2.0000      -0.705383       -19.1944
  20   2.0000      -0.662884       -18.0380
  21   2.0000      -0.659922       -17.9574
  22   2.0000      -0.623835       -16.9754
  23   2.0000      -0.612088       -16.6558
  24   2.0000      -0.600905       -16.3515
  25   2.0000      -0.588850       -16.0234
  26   2.0000      -0.566080       -15.4038
  27   2.0000      -0.541907       -14.7460
  28   2.0000      -0.520598       -14.1662
  29   2.0000      -0.502868       -13.6837
  30   2.0000      -0.491386       -13.3713
  31   2.0000      -0.480264       -13.0686
  32   2.0000      -0.469558       -12.7773
  33   2.0000      -0.460740       -12.5374
  34   2.0000      -0.454428       -12.3656
  35   2.0000      -0.419653       -11.4193
  36   2.0000      -0.389709       -10.6045
  37   2.0000      -0.354202        -9.6383
  38   2.0000      -0.252013        -6.8576
  39   0.0000       0.053141         1.4460
  40   0.0000       0.101397         2.7592
  41   0.0000       0.118913         3.2358
  42   0.0000       0.134106         3.6492
  43   0.0000       0.143373         3.9014

MULLIKEN ATOMIC CHARGES
-----------------------
   0 C :   -0.114944
   1 N :   -0.294681
   2 C :   -0.285965
   3 C :   -0.209701
   4 H :    0.133419
   5 H :    0.138295
   6 C :    0.398791
   7 C :    0.286049
   8 C :   -0.450670
   9 N :   -0.508651
  10 H :    0.266558
  11 H :    0.222595
  12 H :    0.224144
  13 H :    0.082542
  14 H :    0.068199
  15 H :    0.112519
  16 H :    0.126739
  17 H :    0.135181
  18 H :    0.123402
  19 O :   -0.326951
  20 F :   -0.126871
Sum of atomic charges:   -0.0000000

LOEWDIN ATOMIC CHARGES
----------------------
   0 C :   -0.280538
   1 N :    0.117305
   2 C :   -0.265734
   3 C :   -0.226838
   4 H :    0.146544
   5 H :    0.154008
   6 C :   -0.499028
   7 C :   -0.482322
   8 C :   -0.342172
   9 N :   -0.009980
  10 H :    0.179144
  11 H :    0.159362
  12 H :    0.194322
  13 H :    0.095584
  14 H :    0.095294
  15 H :    0.134937
  16 H :    0.128479
  17 H :    0.141016
  18 H :    0.143243
  19 O :    0.097285
  20 F :    0.320088

  Mayer bond orders larger than 0.100000
B(  0-C ,  1-N ) :   0.9264 B(  0-C ,  2-C ) :   0.9602 B(  0-C , 15-H ) :   0.9759
B(  0-C , 16-H ) :   0.9677 B(  1-N ,  7-C ) :   1.1708 B(  1-N , 12-H ) :   0.9223
B(  2-C ,  3-C ) :   0.9599 B(  2-C , 17-H ) :   0.9801 B(  2-C , 18-H ) :   0.9685
B(  3-C ,  4-H ) :   0.9584 B(  3-C ,  5-H ) :   0.9698 B(  3-C ,  6-C ) :   0.9816
B(  6-C , 19-O ) :   2.0427 B(  6-C , 20-F ) :   1.1165 B(  7-C ,  8-C ) :   1.6550
B(  7-C ,  9-N ) :   1.0833 B(  8-C , 13-H ) :   0.9886 B(  8-C , 14-H ) :   1.0254
B(  9-N , 10-H ) :   0.9152 B(  9-N , 11-H ) :   0.9331

Dispersion correction           -0.008992253
FINAL SINGLE POINT ENERGY      -519.828225830144

DIPOLE MOMENT
-------------
                                X             Y             Z
Electronic contribution:      4.37052      -4.68420      -2.60430
Nuclear contribution   :     -6.05797       3.87976       3.55209
                        -----------------------------------------
Total Dipole Moment    :     -1.68744      -0.80444       0.94778
                        -----------------------------------------
Magnitude (a.u.)       :      2.09592
Magnitude (Debye)      :      5.32740

Rotational constants in cm-1:     0.061282     0.043164     0.033679
Rotational constants in MHz :  1837.191639  1294.028651  1009.659886

                             ****ORCA TERMINATED NORMALLY****
TOTAL RUN TIME: 0 days 0 hours 0 minutes 45 seconds 849 msec
