                         Program Version 5.0.0 -  RELEASE  -
|  1> !LC-BLYP RIJCOSX def2-SVPD def2/J TightSCF
|  2> *xyz -1 1
|  3> C          1.44442        5.26658       -0.97546
|  4> O          1.56525        4.23349       -1.86489
|  5> C          0.14812        5.21087       -0.13809
|  6> H          1.47425        6.26464       -1.47692
|  7> H          2.28962        5.30327       -0.26445
|  8> H         -0.69779        5.17417       -0.79230
|  9> H          0.08430        6.08276        0.47887
| 10> H          0.15965        4.33708        0.47938
| 11> *
| 12> %MaxCore 64000
| 13>
| 14> %pal nprocs 4
| 15> end
| 16>
| 17> %scf
| 18>   MaxIter 150
| 19> end
| 20>
| 21>
| 22>                          ****END OF INPUT****

CARTESIAN COORDINATES (ANGSTROEM)
---------------------------------
  C      1.444420    5.266580   -0.975460
  O      1.565250    4.233490   -1.864890
  C      0.148120    5.210870   -0.138090
  H      1.474250    6.264640   -1.476920
  H      2.289620    5.303270   -0.264450
  H     -0.697790    5.174170   -0.792300
  H      0.084300    6.082760    0.478870
  H      0.159650    4.337080    0.479380

 Total Charge           Charge          ....   -1
 Multiplicity           Mult            ....    1
 Number of Electrons    NEL             ....   26
 Basis Dimension        Dim             ....  103

ORBITAL ENERGIES
----------------

  NO   OCC          E(Eh)            E(eV)
   0   2.0000     -18.623015      -506.7580
   1   2.0000      -9.901342      -269.4292
   2   2.0000      -9.878747      -268.8144
   3   2.0000      -0.766784       -20.8652
   4   2.0000      -0.628084       -17.0910
   5   2.0000      -0.474727       -12.9180
   6   2.0000      -0.357305        -9.7228
   7   2.0000      -0.332447        -9.0463
   8   2.0000      -0.277441        -7.5496
   9   2.0000      -0.257388        -7.0039
  10   2.0000      -0.211930        -5.7669
  11   2.0000      -0.066492        -1.8093
  12   2.0000      -0.063329        -1.7233
  13   0.0000       0.229452         6.2437
  14   0.0000       0.261199         7.1076
  15   0.0000       0.300134         8.1671
  16   0.0000       0.312555         8.5051
  17   0.0000       0.328442         8.9374

MULLIKEN ATOMIC CHARGES
-----------------------
   0 C :    0.137392
   1 O :   -0.804681
   2 C :    0.543680
   3 H :   -0.191024
   4 H :   -0.225170
   5 H :   -0.166268
   6 H :   -0.132951
   7 H :   -0.160977
Sum of atomic charges:   -1.0000000

LOEWDIN ATOMIC CHARGES
----------------------
   0 C :   -0.287621
   1 O :   -0.576680
   2 C :    0.054326
   3 H :   -0.025088
   4 H :   -0.030186
   5 H :   -0.039261
   6 H :   -0.055194
   7 H :   -0.040296

  Mayer bond orders larger than 0.100000
B(  0-C ,  1-O ) :   1.2714 B(  0-C ,  2-C ) :   1.1568 B(  0-C ,  3-H ) :   0.9624
B(  0-C ,  4-H ) :   0.9657 B(  0-C ,  5-H ) :   0.2032 B(  0-C ,  6-H ) :   0.1491
B(  0-C ,  7-H ) :   0.1935 B(  1-O ,  2-C ) :   0.1080 B(  2-C ,  3-H ) :   0.1287
B(  2-C ,  4-H ) :   0.1322 B(  2-C ,  5-H ) :   0.8615 B(  2-C ,  6-H ) :   0.8537
B(  2-C ,  7-H ) :   0.8598

FINAL SINGLE POINT ENERGY      -153.940996377744

DIPOLE MOMENT
-------------
                                X             Y             Z
Electronic contribution:      1.14338      -1.50567      -1.93933
Nuclear contribution   :     -1.83256       2.47114       3.17273
                        -----------------------------------------
Total Dipole Moment    :     -0.68917       0.96547       1.23340
                        -----------------------------------------
Magnitude (a.u.)       :      1.71125
Magnitude (Debye)      :      4.34965

Rotational constants in cm-1:     1.286062     0.322579     0.284728
Rotational constants in MHz : 38555.180127  9670.683110  8535.939140

                             ****ORCA TERMINATED NORMALLY****
TOTAL RUN TIME: 0 days 0 hours 0 minutes 10 seconds 909 msec
