                         Program Version 5.0.0 -  RELEASE  -
|  1> !LC-BLYP RIJCOSX def2-SVPD def2/J TightSCF
|  2> *xyz 1 1
|  3> C         -0.70169        4.07250       -4.00392
|  4> N          0.68053        4.61482       -4.04800
|  5> H          0.69993        5.58489       -4.38827
|  6> H          1.27804        4.05598       -4.66824
|  7> H          1.08573        4.53358       -3.10652
|  8> C         -1.70347        5.09320       -3.47740
|  9> H         -0.99590        3.74039       -5.00065
| 10> H         -0.64358        3.20191       -3.35153
| 11> H         -1.73704        5.93384       -4.13853
| 12> H         -1.40338        5.41759       -2.50291
| 13> H         -2.67335        4.64479       -3.42108
| 14> *
| 15> %MaxCore 64000
| 16>
| 17> %pal nprocs 4
| 18> end
| 19>
| 20> %scf
| 21>   MaxIter 150
| 22> end
| 23>
| 24>
| 25>                          ****END OF INPUT****

CARTESIAN COORDINATES (ANGSTROEM)
---------------------------------
  C     -0.701690    4.072500   -4.003920
  N      0.680530    4.614820   -4.048000
  H      0.699930    5.584890   -4.388270
  H      1.278040    4.055980   -4.668240
  H      1.085730    4.533580   -3.106520
  C     -1.703470    5.093200   -3.477400
  H     -0.995900    3.740390   -5.000650
  H     -0.643580    3.201910   -3.351530
  H     -1.737040    5.933840   -4.138530
  H     -1.403380    5.417590   -2.502910
  H     -2.673350    4.644790   -3.421080

 Total Charge           Charge          ....    1
 Multiplicity           Mult            ....    1
 Number of Electrons    NEL             ....   26
 Basis Dimension        Dim             ....  124

ORBITAL ENERGIES
----------------

  NO   OCC          E(Eh)            E(eV)
   0   2.0000     -14.522681      -395.1822
   1   2.0000     -10.339114      -281.3416
   2   2.0000     -10.260912      -279.2136
   3   2.0000      -1.311112       -35.6772
   4   2.0000      -1.069349       -29.0985
   5   2.0000      -0.950124       -25.8542
   6   2.0000      -0.910768       -24.7833
   7   2.0000      -0.891322       -24.2541
   8   2.0000      -0.800757       -21.7897
   9   2.0000      -0.747008       -20.3271
  10   2.0000      -0.684802       -18.6344
  11   2.0000      -0.668376       -18.1874
  12   2.0000      -0.649214       -17.6660
  13   0.0000      -0.133049        -3.6205
  14   0.0000      -0.072158        -1.9635
  15   0.0000      -0.070520        -1.9189
  16   0.0000      -0.063938        -1.7398
  17   0.0000      -0.032195        -0.8761

MULLIKEN ATOMIC CHARGES
-----------------------
   0 C :    0.304549
   1 N :   -0.705319
   2 H :    0.378980
   3 H :    0.336610
   4 H :    0.400313
   5 C :    0.864027
   6 H :   -0.150538
   7 H :   -0.155090
   8 H :   -0.104550
   9 H :   -0.072841
  10 H :   -0.096141
Sum of atomic charges:    1.0000000

LOEWDIN ATOMIC CHARGES
----------------------
   0 C :    0.031288
   1 N :    0.329613
   2 H :    0.110387
   3 H :    0.109960
   4 H :    0.112393
   5 C :    0.161404
   6 H :    0.058590
   7 H :    0.057140
   8 H :    0.004589
   9 H :    0.004890
  10 H :    0.019745

  Mayer bond orders larger than 0.100000
B(  0-C ,  1-N ) :   0.8470 B(  0-C ,  5-C ) :   1.3176 B(  0-C ,  6-H ) :   0.9030
B(  0-C ,  7-H ) :   0.8723 B(  0-C ,  8-H ) :   0.1909 B(  0-C ,  9-H ) :   0.1755
B(  0-C , 10-H ) :   0.2201 B(  1-N ,  2-H ) :   0.7369 B(  1-N ,  3-H ) :   0.7945
B(  1-N ,  4-H ) :   0.7221 B(  1-N ,  7-H ) :   0.1375 B(  5-C ,  8-H ) :   0.7826
B(  5-C ,  9-H ) :   0.7772 B(  5-C , 10-H ) :   0.7658

FINAL SINGLE POINT ENERGY      -135.044504172821

DIPOLE MOMENT
-------------
                                X             Y             Z
Electronic contribution:      1.77373      -0.33201      -0.45696
Nuclear contribution   :     -0.23930       0.27560       0.19485
                        -----------------------------------------
Total Dipole Moment    :      1.53443      -0.05640      -0.26211
                        -----------------------------------------
Magnitude (a.u.)       :      1.55767
Magnitude (Debye)      :      3.95929

Rotational constants in cm-1:     1.018556     0.279088     0.248454
Rotational constants in MHz : 30535.536069  8366.847891  7448.451392

                             ****ORCA TERMINATED NORMALLY****
TOTAL RUN TIME: 0 days 0 hours 0 minutes 12 seconds 286 msec
